### Starting Gaussian ###
 Entering Gaussian System, Link 0=g16
 Initial command:
 /cluster/software/gaussian/gaussian-16-A.03/avx2/g16/l1.exe "/local/scratch/linjian/Gau-32636.inp" -scrdir="/local/scratch/linjian/"
 Entering Link 1 = /cluster/software/gaussian/gaussian-16-A.03/avx2/g16/l1.exe PID=     32637.
  
 Copyright (c) 1988,1990,1992,1993,1995,1998,2003,2009,2016,
            Gaussian, Inc.  All Rights Reserved.
  
 This is part of the Gaussian(R) 16 program.  It is based on
 the Gaussian(R) 09 system (copyright 2009, Gaussian, Inc.),
 the Gaussian(R) 03 system (copyright 2003, Gaussian, Inc.),
 the Gaussian(R) 98 system (copyright 1998, Gaussian, Inc.),
 the Gaussian(R) 94 system (copyright 1995, Gaussian, Inc.),
 the Gaussian 92(TM) system (copyright 1992, Gaussian, Inc.),
 the Gaussian 90(TM) system (copyright 1990, Gaussian, Inc.),
 the Gaussian 88(TM) system (copyright 1988, Gaussian, Inc.),
 the Gaussian 86(TM) system (copyright 1986, Carnegie Mellon
 University), and the Gaussian 82(TM) system (copyright 1983,
 Carnegie Mellon University). Gaussian is a federally registered
 trademark of Gaussian, Inc.
  
 This software contains proprietary and confidential information,
 including trade secrets, belonging to Gaussian, Inc.
  
 This software is provided under written license and may be
 used, copied, transmitted, or stored only in accord with that
 written license.
  
 The following legend is applicable only to US Government
 contracts under FAR:
  
                    RESTRICTED RIGHTS LEGEND
  
 Use, reproduction and disclosure by the US Government is
 subject to restrictions as set forth in subparagraphs (a)
 and (c) of the Commercial Computer Software - Restricted
 Rights clause in FAR 52.227-19.
  
 Gaussian, Inc.
 340 Quinnipiac St., Bldg. 40, Wallingford CT 06492
  
  
 ---------------------------------------------------------------
 Warning -- This program may not be used in any manner that
 competes with the business of Gaussian, Inc. or will provide
 assistance to any competitor of Gaussian, Inc.  The licensee
 of this program is prohibited from giving any competitor of
 Gaussian, Inc. access to this program.  By using this program,
 the user acknowledges that Gaussian, Inc. is engaged in the
 business of creating and licensing software in the field of
 computational chemistry and represents and warrants to the
 licensee that it is not a competitor of Gaussian, Inc. and that
 it will not use this program in any manner prohibited above.
 ---------------------------------------------------------------
  

 Cite this work as:
 Gaussian 16, Revision A.03,
 M. J. Frisch, G. W. Trucks, H. B. Schlegel, G. E. Scuseria, 
 M. A. Robb, J. R. Cheeseman, G. Scalmani, V. Barone, 
 G. A. Petersson, H. Nakatsuji, X. Li, M. Caricato, A. V. Marenich, 
 J. Bloino, B. G. Janesko, R. Gomperts, B. Mennucci, H. P. Hratchian, 
 J. V. Ortiz, A. F. Izmaylov, J. L. Sonnenberg, D. Williams-Young, 
 F. Ding, F. Lipparini, F. Egidi, J. Goings, B. Peng, A. Petrone, 
 T. Henderson, D. Ranasinghe, V. G. Zakrzewski, J. Gao, N. Rega, 
 G. Zheng, W. Liang, M. Hada, M. Ehara, K. Toyota, R. Fukuda, 
 J. Hasegawa, M. Ishida, T. Nakajima, Y. Honda, O. Kitao, H. Nakai, 
 T. Vreven, K. Throssell, J. A. Montgomery, Jr., J. E. Peralta, 
 F. Ogliaro, M. J. Bearpark, J. J. Heyd, E. N. Brothers, K. N. Kudin, 
 V. N. Staroverov, T. A. Keith, R. Kobayashi, J. Normand, 
 K. Raghavachari, A. P. Rendell, J. C. Burant, S. S. Iyengar, 
 J. Tomasi, M. Cossi, J. M. Millam, M. Klene, C. Adamo, R. Cammi, 
 J. W. Ochterski, R. L. Martin, K. Morokuma, O. Farkas, 
 J. B. Foresman, and D. J. Fox, Gaussian, Inc., Wallingford CT, 2016.
 
 ******************************************
 Gaussian 16:  ES64L-G16RevA.03 25-Dec-2016
                28-May-2023 
 ******************************************
 %chk=C1C2CC3CC2CC13.chk
 %NProcShared=20
 Will use up to   20 processors via shared memory.
 -----------------------------
 # opt freq b3lyp/6-31g(2df,p)
 -----------------------------
 1/18=20,19=15,26=3,38=1/1,3;
 2/9=110,12=2,17=6,18=5,40=1/2;
 3/5=1,6=6,7=104,11=2,25=1,30=1,71=1,74=-5/1,2,3;
 4//1;
 5/5=2,38=5/2;
 6/7=2,8=2,9=2,10=2,28=1/1;
 7//1,2,3,16;
 1/18=20,19=15,26=3/3(2);
 2/9=110/2;
 99//99;
 2/9=110/2;
 3/5=1,6=6,7=104,11=2,25=1,30=1,71=1,74=-5/1,2,3;
 4/5=5,16=3,69=1/1;
 5/5=2,38=5/2;
 7//1,2,3,16;
 1/18=20,19=15,26=3/3(-5);
 2/9=110/2;
 6/7=2,8=2,9=2,10=2,19=2,28=1/1;
 99/9=1/99;
 -------------------
 Title Card Required
 -------------------
 Symbolic Z-matrix:
 Charge =  0 Multiplicity = 1
 C                    -1.32638  -0.94227  -0.08909 
 C                    -0.79576   0.10132   0.91856 
 C                    -0.93829   1.32955   0.03705 
 C                     0.10479   0.80095  -0.97348 
 C                     1.3241    0.95085  -0.07722 
 C                     0.8006   -0.10444   0.91767 
 C                     0.9354   -1.33093   0.03203 
 C                    -0.10227  -0.79123  -0.97267 
 H                    -2.25269  -0.66319  -0.60391 
 H                    -1.45531  -1.94346   0.3349 
 H                    -1.30046   0.11746   1.88409 
 H                    -0.64941   2.24601   0.56539 
 H                    -1.93552   1.47698  -0.38879 
 H                     0.12057   1.30307  -1.93646 
 H                     1.44503   1.94915   0.35489 
 H                     2.25348   0.68141  -0.5919 
 H                     1.30499  -0.12735   1.88285 
 H                     0.63996  -2.24725   0.55831 
 H                     1.93163  -1.48043  -0.39127 
 H                    -0.11684  -1.29087  -1.94513 
 

 GradGradGradGradGradGradGradGradGradGradGradGradGradGradGradGradGradGrad
 Berny optimization.
 Initialization pass.
                           ----------------------------
                           !    Initial Parameters    !
                           ! (Angstroms and Degrees)  !
 --------------------------                            --------------------------
 ! Name  Definition              Value          Derivative Info.                !
 --------------------------------------------------------------------------------
 ! R1    R(1,2)                  1.5447         estimate D2E/DX2                !
 ! R2    R(1,8)                  1.5172         estimate D2E/DX2                !
 ! R3    R(1,9)                  1.0959         estimate D2E/DX2                !
 ! R4    R(1,10)                 1.0949         estimate D2E/DX2                !
 ! R5    R(2,3)                  1.5185         estimate D2E/DX2                !
 ! R6    R(2,6)                  1.6096         estimate D2E/DX2                !
 ! R7    R(2,11)                 1.0896         estimate D2E/DX2                !
 ! R8    R(3,4)                  1.5455         estimate D2E/DX2                !
 ! R9    R(3,12)                 1.0966         estimate D2E/DX2                !
 ! R10   R(3,13)                 1.0943         estimate D2E/DX2                !
 ! R11   R(4,5)                  1.5207         estimate D2E/DX2                !
 ! R12   R(4,8)                  1.6056         estimate D2E/DX2                !
 ! R13   R(4,14)                 1.0861         estimate D2E/DX2                !
 ! R14   R(5,6)                  1.5419         estimate D2E/DX2                !
 ! R15   R(5,15)                 1.0945         estimate D2E/DX2                !
 ! R16   R(5,16)                 1.096          estimate D2E/DX2                !
 ! R17   R(6,7)                  1.5188         estimate D2E/DX2                !
 ! R18   R(6,17)                 1.0893         estimate D2E/DX2                !
 ! R19   R(7,8)                  1.5419         estimate D2E/DX2                !
 ! R20   R(7,18)                 1.0972         estimate D2E/DX2                !
 ! R21   R(7,19)                 1.0927         estimate D2E/DX2                !
 ! R22   R(8,20)                 1.0934         estimate D2E/DX2                !
 ! A1    A(2,1,8)               92.0339         estimate D2E/DX2                !
 ! A2    A(2,1,9)              115.1356         estimate D2E/DX2                !
 ! A3    A(2,1,10)             113.9305         estimate D2E/DX2                !
 ! A4    A(8,1,9)              112.5215         estimate D2E/DX2                !
 ! A5    A(8,1,10)             114.3027         estimate D2E/DX2                !
 ! A6    A(9,1,10)             108.376          estimate D2E/DX2                !
 ! A7    A(1,2,3)               97.7889         estimate D2E/DX2                !
 ! A8    A(1,2,6)              104.7126         estimate D2E/DX2                !
 ! A9    A(1,2,11)             115.401          estimate D2E/DX2                !
 ! A10   A(3,2,6)              101.3129         estimate D2E/DX2                !
 ! A11   A(3,2,11)             117.3191         estimate D2E/DX2                !
 ! A12   A(6,2,11)             117.502          estimate D2E/DX2                !
 ! A13   A(2,3,4)               92.2681         estimate D2E/DX2                !
 ! A14   A(2,3,12)             111.8117         estimate D2E/DX2                !
 ! A15   A(2,3,13)             114.8595         estimate D2E/DX2                !
 ! A16   A(4,3,12)             115.0289         estimate D2E/DX2                !
 ! A17   A(4,3,13)             113.9959         estimate D2E/DX2                !
 ! A18   A(12,3,13)            108.3583         estimate D2E/DX2                !
 ! A19   A(3,4,5)               97.0118         estimate D2E/DX2                !
 ! A20   A(3,4,8)              104.584          estimate D2E/DX2                !
 ! A21   A(3,4,14)             115.5561         estimate D2E/DX2                !
 ! A22   A(5,4,8)              101.5871         estimate D2E/DX2                !
 ! A23   A(5,4,14)             117.7315         estimate D2E/DX2                !
 ! A24   A(8,4,14)             117.436          estimate D2E/DX2                !
 ! A25   A(4,5,6)               92.3265         estimate D2E/DX2                !
 ! A26   A(4,5,15)             114.2795         estimate D2E/DX2                !
 ! A27   A(4,5,16)             112.2663         estimate D2E/DX2                !
 ! A28   A(6,5,15)             114.0178         estimate D2E/DX2                !
 ! A29   A(6,5,16)             115.0014         estimate D2E/DX2                !
 ! A30   A(15,5,16)            108.4171         estimate D2E/DX2                !
 ! A31   A(2,6,5)              104.4534         estimate D2E/DX2                !
 ! A32   A(2,6,7)              101.0449         estimate D2E/DX2                !
 ! A33   A(2,6,17)             117.4809         estimate D2E/DX2                !
 ! A34   A(5,6,7)               98.4126         estimate D2E/DX2                !
 ! A35   A(5,6,17)             115.3983         estimate D2E/DX2                !
 ! A36   A(7,6,17)             117.2969         estimate D2E/DX2                !
 ! A37   A(6,7,8)               92.1532         estimate D2E/DX2                !
 ! A38   A(6,7,18)             111.7652         estimate D2E/DX2                !
 ! A39   A(6,7,19)             114.6636         estimate D2E/DX2                !
 ! A40   A(8,7,18)             115.0648         estimate D2E/DX2                !
 ! A41   A(8,7,19)             114.144          estimate D2E/DX2                !
 ! A42   A(18,7,19)            108.4839         estimate D2E/DX2                !
 ! A43   A(1,8,4)              101.716          estimate D2E/DX2                !
 ! A44   A(1,8,7)               97.3918         estimate D2E/DX2                !
 ! A45   A(1,8,20)             117.4974         estimate D2E/DX2                !
 ! A46   A(4,8,7)              105.108          estimate D2E/DX2                !
 ! A47   A(4,8,20)             117.0271         estimate D2E/DX2                !
 ! A48   A(7,8,20)             115.3753         estimate D2E/DX2                !
 ! D1    D(8,1,2,3)             69.4438         estimate D2E/DX2                !
 ! D2    D(8,1,2,6)            -34.4795         estimate D2E/DX2                !
 ! D3    D(8,1,2,11)          -165.2641         estimate D2E/DX2                !
 ! D4    D(9,1,2,3)            -46.6616         estimate D2E/DX2                !
 ! D5    D(9,1,2,6)           -150.5849         estimate D2E/DX2                !
 ! D6    D(9,1,2,11)            78.6305         estimate D2E/DX2                !
 ! D7    D(10,1,2,3)          -172.7613         estimate D2E/DX2                !
 ! D8    D(10,1,2,6)            83.3154         estimate D2E/DX2                !
 ! D9    D(10,1,2,11)          -47.4692         estimate D2E/DX2                !
 ! D10   D(2,1,8,4)            -42.5275         estimate D2E/DX2                !
 ! D11   D(2,1,8,7)             64.6492         estimate D2E/DX2                !
 ! D12   D(2,1,8,20)          -171.6608         estimate D2E/DX2                !
 ! D13   D(9,1,8,4)             75.8219         estimate D2E/DX2                !
 ! D14   D(9,1,8,7)           -177.0014         estimate D2E/DX2                !
 ! D15   D(9,1,8,20)           -53.3114         estimate D2E/DX2                !
 ! D16   D(10,1,8,4)          -160.0041         estimate D2E/DX2                !
 ! D17   D(10,1,8,7)           -52.8274         estimate D2E/DX2                !
 ! D18   D(10,1,8,20)           70.8626         estimate D2E/DX2                !
 ! D19   D(1,2,3,4)            -64.1841         estimate D2E/DX2                !
 ! D20   D(1,2,3,12)           177.6578         estimate D2E/DX2                !
 ! D21   D(1,2,3,13)            53.6494         estimate D2E/DX2                !
 ! D22   D(6,2,3,4)             42.6009         estimate D2E/DX2                !
 ! D23   D(6,2,3,12)           -75.5572         estimate D2E/DX2                !
 ! D24   D(6,2,3,13)           160.4343         estimate D2E/DX2                !
 ! D25   D(11,2,3,4)           171.9015         estimate D2E/DX2                !
 ! D26   D(11,2,3,12)           53.7434         estimate D2E/DX2                !
 ! D27   D(11,2,3,13)          -70.2651         estimate D2E/DX2                !
 ! D28   D(1,2,6,5)             95.8042         estimate D2E/DX2                !
 ! D29   D(1,2,6,7)             -5.9812         estimate D2E/DX2                !
 ! D30   D(1,2,6,17)          -134.8997         estimate D2E/DX2                !
 ! D31   D(3,2,6,5)             -5.4653         estimate D2E/DX2                !
 ! D32   D(3,2,6,7)           -107.2507         estimate D2E/DX2                !
 ! D33   D(3,2,6,17)           123.8308         estimate D2E/DX2                !
 ! D34   D(11,2,6,5)          -134.6498         estimate D2E/DX2                !
 ! D35   D(11,2,6,7)           123.5648         estimate D2E/DX2                !
 ! D36   D(11,2,6,17)           -5.3537         estimate D2E/DX2                !
 ! D37   D(2,3,4,5)            -69.7969         estimate D2E/DX2                !
 ! D38   D(2,3,4,8)             34.1552         estimate D2E/DX2                !
 ! D39   D(2,3,4,14)           164.8585         estimate D2E/DX2                !
 ! D40   D(12,3,4,5)            45.5995         estimate D2E/DX2                !
 ! D41   D(12,3,4,8)           149.5516         estimate D2E/DX2                !
 ! D42   D(12,3,4,14)          -79.745          estimate D2E/DX2                !
 ! D43   D(13,3,4,5)           171.6381         estimate D2E/DX2                !
 ! D44   D(13,3,4,8)           -84.4098         estimate D2E/DX2                !
 ! D45   D(13,3,4,14)           46.2935         estimate D2E/DX2                !
 ! D46   D(3,4,5,6)             64.8222         estimate D2E/DX2                !
 ! D47   D(3,4,5,15)           -52.9015         estimate D2E/DX2                !
 ! D48   D(3,4,5,16)          -176.9026         estimate D2E/DX2                !
 ! D49   D(8,4,5,6)            -41.6883         estimate D2E/DX2                !
 ! D50   D(8,4,5,15)          -159.4121         estimate D2E/DX2                !
 ! D51   D(8,4,5,16)            76.5868         estimate D2E/DX2                !
 ! D52   D(14,4,5,6)          -171.4182         estimate D2E/DX2                !
 ! D53   D(14,4,5,15)           70.8581         estimate D2E/DX2                !
 ! D54   D(14,4,5,16)          -53.143          estimate D2E/DX2                !
 ! D55   D(3,4,8,1)              6.0244         estimate D2E/DX2                !
 ! D56   D(3,4,8,7)            -95.0498         estimate D2E/DX2                !
 ! D57   D(3,4,8,20)           135.4541         estimate D2E/DX2                !
 ! D58   D(5,4,8,1)            106.5171         estimate D2E/DX2                !
 ! D59   D(5,4,8,7)              5.4428         estimate D2E/DX2                !
 ! D60   D(5,4,8,20)          -124.0533         estimate D2E/DX2                !
 ! D61   D(14,4,8,1)          -123.5679         estimate D2E/DX2                !
 ! D62   D(14,4,8,7)           135.3578         estimate D2E/DX2                !
 ! D63   D(14,4,8,20)            5.8617         estimate D2E/DX2                !
 ! D64   D(4,5,6,2)            -35.0132         estimate D2E/DX2                !
 ! D65   D(4,5,6,7)             68.7619         estimate D2E/DX2                !
 ! D66   D(4,5,6,17)          -165.5473         estimate D2E/DX2                !
 ! D67   D(15,5,6,2)            82.9327         estimate D2E/DX2                !
 ! D68   D(15,5,6,7)          -173.2922         estimate D2E/DX2                !
 ! D69   D(15,5,6,17)          -47.6014         estimate D2E/DX2                !
 ! D70   D(16,5,6,2)          -150.95           estimate D2E/DX2                !
 ! D71   D(16,5,6,7)           -47.1749         estimate D2E/DX2                !
 ! D72   D(16,5,6,17)           78.5159         estimate D2E/DX2                !
 ! D73   D(2,6,7,8)             42.8506         estimate D2E/DX2                !
 ! D74   D(2,6,7,18)           -75.2809         estimate D2E/DX2                !
 ! D75   D(2,6,7,19)           160.7339         estimate D2E/DX2                !
 ! D76   D(5,6,7,8)            -63.7643         estimate D2E/DX2                !
 ! D77   D(5,6,7,18)           178.1042         estimate D2E/DX2                !
 ! D78   D(5,6,7,19)            54.119          estimate D2E/DX2                !
 ! D79   D(17,6,7,8)           171.8869         estimate D2E/DX2                !
 ! D80   D(17,6,7,18)           53.7554         estimate D2E/DX2                !
 ! D81   D(17,6,7,19)          -70.2297         estimate D2E/DX2                !
 ! D82   D(6,7,8,1)            -70.2031         estimate D2E/DX2                !
 ! D83   D(6,7,8,4)             34.1038         estimate D2E/DX2                !
 ! D84   D(6,7,8,20)           164.5693         estimate D2E/DX2                !
 ! D85   D(18,7,8,1)            45.0885         estimate D2E/DX2                !
 ! D86   D(18,7,8,4)           149.3955         estimate D2E/DX2                !
 ! D87   D(18,7,8,20)          -80.139          estimate D2E/DX2                !
 ! D88   D(19,7,8,1)           171.472          estimate D2E/DX2                !
 ! D89   D(19,7,8,4)           -84.221          estimate D2E/DX2                !
 ! D90   D(19,7,8,20)           46.2445         estimate D2E/DX2                !
 --------------------------------------------------------------------------------
 Trust Radius=3.00D-01 FncErr=1.00D-07 GrdErr=1.00D-06 EigMax=2.50D+02 EigMin=1.00D-04
 Number of steps in this run=    120 maximum allowed number of steps=    120.
 GradGradGradGradGradGradGradGradGradGradGradGradGradGradGradGradGradGrad

                          Input orientation:                          
 ---------------------------------------------------------------------
 Center     Atomic      Atomic             Coordinates (Angstroms)
 Number     Number       Type             X           Y           Z
 ---------------------------------------------------------------------
      1          6           0       -1.326380   -0.942270   -0.089090
      2          6           0       -0.795760    0.101320    0.918560
      3          6           0       -0.938290    1.329550    0.037050
      4          6           0        0.104790    0.800950   -0.973480
      5          6           0        1.324100    0.950850   -0.077220
      6          6           0        0.800600   -0.104440    0.917670
      7          6           0        0.935400   -1.330930    0.032030
      8          6           0       -0.102270   -0.791230   -0.972670
      9          1           0       -2.252690   -0.663190   -0.603910
     10          1           0       -1.455310   -1.943460    0.334900
     11          1           0       -1.300460    0.117460    1.884090
     12          1           0       -0.649410    2.246010    0.565390
     13          1           0       -1.935520    1.476980   -0.388790
     14          1           0        0.120570    1.303070   -1.936460
     15          1           0        1.445030    1.949150    0.354890
     16          1           0        2.253480    0.681410   -0.591900
     17          1           0        1.304990   -0.127350    1.882850
     18          1           0        0.639960   -2.247250    0.558310
     19          1           0        1.931630   -1.480430   -0.391270
     20          1           0       -0.116840   -1.290870   -1.945130
 ---------------------------------------------------------------------
                    Distance matrix (angstroms):
                    1          2          3          4          5
     1  C    0.000000
     2  C    1.544667   0.000000
     3  C    2.308179   1.518527   0.000000
     4  C    2.422645   2.209137   1.545511   0.000000
     5  C    3.257160   2.491402   2.296711   1.520680   0.000000
     6  C    2.497913   1.609566   2.419826   2.209147   1.541913
     7  C    2.298124   2.415407   3.254058   2.499175   2.317227
     8  C    1.517225   2.203253   2.493225   1.605588   2.423057
     9  H    1.095890   2.241659   2.471738   2.799643   3.959287
    10  H    1.094884   2.226385   3.326953   3.417244   4.033856
    11  H    2.239897   1.089601   2.238724   3.256930   3.380768
    12  H    3.324419   2.178495   1.096583   2.241682   2.446452
    13  H    2.512696   2.213743   1.094323   2.227497   3.316476
    14  H    3.247767   3.230326   2.239783   1.086142   2.242614
    15  H    4.029658   2.958604   2.482970   2.208885   1.094507
    16  H    3.962897   3.451935   3.317086   2.185580   1.096011
    17  H    3.387735   2.322778   3.249899   3.234322   2.237131
    18  H    2.447160   2.776122   3.944120   3.453160   3.331635
    19  H    3.315955   3.414124   4.039293   2.980102   2.525637
    20  H    2.242631   3.255740   3.386801   2.317096   3.254336
                    6          7          8          9         10
     6  C    0.000000
     7  C    1.518818   0.000000
     8  C    2.204595   1.541901   0.000000
     9  H    3.456875   3.318767   2.185563   0.000000
    10  H    2.968290   2.486447   2.206375   1.776590   0.000000
    11  H    2.323287   3.244538   3.228383   2.776022   2.582897
    12  H    2.784106   3.948493   3.448161   3.521536   4.272500
    13  H    3.419661   4.037775   2.974306   2.174213   3.528985
    14  H    3.254164   3.387751   2.316170   3.357712   4.264086
    15  H    2.224689   3.335099   3.415587   4.627824   4.854357
    16  H    2.237682   2.485183   2.804142   4.702517   4.637243
    17  H    1.089269   2.238467   3.251940   4.373578   3.648789
    18  H    2.178665   1.097223   2.239375   3.496774   2.128933
    19  H    2.210407   1.092706   2.224808   4.268680   3.494722
    20  H    3.231863   2.240084   1.093403   2.598982   2.723217
                   11         12         13         14         15
    11  H    0.000000
    12  H    2.587192   0.000000
    13  H    2.723523   1.776498   0.000000
    14  H    4.245185   2.782312   2.579347   0.000000
    15  H    3.637479   2.125821   3.493440   2.724316   0.000000
    16  H    4.367958   3.494862   4.268712   2.596846   1.776842
    17  H    2.616926   3.344879   4.270261   4.246891   2.581884
    18  H    3.333883   4.674603   4.626012   4.370173   4.277767
    19  H    4.263440   4.632852   4.868381   3.662707   3.543382
    20  H    4.248209   4.369881   3.659342   2.604796   4.269339
                   16         17         18         19         20
    16  H    0.000000
    17  H    2.770941   0.000000
    18  H    3.536026   2.586629   0.000000
    19  H    2.194856   2.719398   1.777112   0.000000
    20  H    3.367423   4.246035   2.784712   2.578108   0.000000
 Stoichiometry    C8H12
 Framework group  C1[X(C8H12)]
 Deg. of freedom    54
 Full point group                 C1      NOp   1
 Largest Abelian subgroup         C1      NOp   1
 Largest concise Abelian subgroup C1      NOp   1
                         Standard orientation:                         
 ---------------------------------------------------------------------
 Center     Atomic      Atomic             Coordinates (Angstroms)
 Number     Number       Type             X           Y           Z
 ---------------------------------------------------------------------
      1          6           0        1.227994    1.069245    0.056429
      2          6           0        0.086410    0.793615   -0.946970
      3          6           0       -1.071969    1.222354   -0.063644
      4          6           0       -0.798847    0.088225    0.950141
      5          6           0       -1.232101   -1.065471    0.059217
      6          6           0       -0.086562   -0.806614   -0.939897
      7          6           0        1.077012   -1.221151   -0.056121
      8          6           0        0.797628   -0.082528    0.945348
      9          1           0        1.174582    2.036948    0.567969
     10          1           0        2.230370    0.959131   -0.370057
     11          1           0        0.185878    1.284679   -1.914541
     12          1           0       -2.032076    1.153764   -0.588985
     13          1           0       -0.981060    2.227931    0.358366
     14          1           0       -1.287982    0.193643    1.914163
     15          1           0       -2.232259   -0.951296   -0.370428
     16          1           0       -1.185819   -2.030248    0.577197
     17          1           0       -0.184927   -1.305818   -1.903031
     18          1           0        2.035484   -1.149897   -0.585415
     19          1           0        0.990791   -2.223223    0.370992
     20          1           0        1.289633   -0.181666    1.916755
 ---------------------------------------------------------------------
 Rotational constants (GHZ):           3.0681375           3.0485610           2.3946701
 Standard basis: 6-31G(2df,p) (6D, 7F)
 There are   308 symmetry adapted cartesian basis functions of A   symmetry.
 There are   284 symmetry adapted basis functions of A   symmetry.
   284 basis functions,   436 primitive gaussians,   308 cartesian basis functions
    30 alpha electrons       30 beta electrons
       nuclear repulsion energy       406.1615037277 Hartrees.
 NAtoms=   20 NActive=   20 NUniq=   20 SFac= 1.00D+00 NAtFMM=   60 NAOKFM=F Big=F
 Integral buffers will be    131072 words long.
 Raffenetti 2 integral format.
 Two-electron integral symmetry is turned on.
 One-electron integrals computed using PRISM.
 PrsmSu:  requested number of processors reduced to:  13 ShMem   1 Linda.
 NBasis=   284 RedAO= T EigKep=  3.68D-04  NBF=   284
 NBsUse=   284 1.00D-06 EigRej= -1.00D+00 NBFU=   284
 ExpMin= 1.61D-01 ExpMax= 3.05D+03 ExpMxC= 4.57D+02 IAcc=3 IRadAn=         5 AccDes= 0.00D+00
 Harris functional with IExCor=  402 and IRadAn=       5 diagonalized for initial guess.
 HarFok:  IExCor=  402 AccDes= 0.00D+00 IRadAn=         5 IDoV= 1 UseB2=F ITyADJ=14
 ICtDFT=  3500011 ScaDFX=  1.000000  1.000000  1.000000  1.000000
 FoFCou: FMM=F IPFlag=           0 FMFlag=      100000 FMFlg1=           0
         NFxFlg=           0 DoJE=T BraDBF=F KetDBF=T FulRan=T
         wScrn=  0.000000 ICntrl=       500 IOpCl=  0 I1Cent=   200000004 NGrid=           0
         NMat0=    1 NMatS0=      1 NMatT0=    0 NMatD0=    1 NMtDS0=    0 NMtDT0=    0
 Petite list used in FoFCou.
 Requested convergence on RMS density matrix=1.00D-08 within 128 cycles.
 Requested convergence on MAX density matrix=1.00D-06.
 Requested convergence on             energy=1.00D-06.
 No special actions if energy rises.
 Integral accuracy reduced to 1.0D-05 until final iterations.
 Initial convergence to 1.0D-05 achieved.  Increase integral accuracy.
 SCF Done:  E(RB3LYP) =  -312.046179520     A.U. after   11 cycles
            NFock= 11  Conv=0.93D-08     -V/T= 2.0079

 **********************************************************************

            Population analysis using the SCF density.

 **********************************************************************

 Orbital symmetries:
       Occupied  (A) (A) (A) (A) (A) (A) (A) (A) (A) (A) (A) (A)
                 (A) (A) (A) (A) (A) (A) (A) (A) (A) (A) (A) (A)
                 (A) (A) (A) (A) (A) (A)
       Virtual   (A) (A) (A) (A) (A) (A) (A) (A) (A) (A) (A) (A)
                 (A) (A) (A) (A) (A) (A) (A) (A) (A) (A) (A) (A)
                 (A) (A) (A) (A) (A) (A) (A) (A) (A) (A) (A) (A)
                 (A) (A) (A) (A) (A) (A) (A) (A) (A) (A) (A) (A)
                 (A) (A) (A) (A) (A) (A) (A) (A) (A) (A) (A) (A)
                 (A) (A) (A) (A) (A) (A) (A) (A) (A) (A) (A) (A)
                 (A) (A) (A) (A) (A) (A) (A) (A) (A) (A) (A) (A)
                 (A) (A) (A) (A) (A) (A) (A) (A) (A) (A) (A) (A)
                 (A) (A) (A) (A) (A) (A) (A) (A) (A) (A) (A) (A)
                 (A) (A) (A) (A) (A) (A) (A) (A) (A) (A) (A) (A)
                 (A) (A) (A) (A) (A) (A) (A) (A) (A) (A) (A) (A)
                 (A) (A) (A) (A) (A) (A) (A) (A) (A) (A) (A) (A)
                 (A) (A) (A) (A) (A) (A) (A) (A) (A) (A) (A) (A)
                 (A) (A) (A) (A) (A) (A) (A) (A) (A) (A) (A) (A)
                 (A) (A) (A) (A) (A) (A) (A) (A) (A) (A) (A) (A)
                 (A) (A) (A) (A) (A) (A) (A) (A) (A) (A) (A) (A)
                 (A) (A) (A) (A) (A) (A) (A) (A) (A) (A) (A) (A)
                 (A) (A) (A) (A) (A) (A) (A) (A) (A) (A) (A) (A)
                 (A) (A) (A) (A) (A) (A) (A) (A) (A) (A) (A) (A)
                 (A) (A) (A) (A) (A) (A) (A) (A) (A) (A) (A) (A)
                 (A) (A) (A) (A) (A) (A) (A) (A) (A) (A) (A) (A)
                 (A) (A)
 The electronic state is 1-A.
 Alpha  occ. eigenvalues --  -10.17838 -10.17837 -10.17822 -10.17803 -10.16662
 Alpha  occ. eigenvalues --  -10.16648 -10.16647 -10.16644  -0.90087  -0.74639
 Alpha  occ. eigenvalues --   -0.74462  -0.68765  -0.62980  -0.57225  -0.52659
 Alpha  occ. eigenvalues --   -0.52585  -0.50404  -0.48157  -0.43876  -0.43756
 Alpha  occ. eigenvalues --   -0.36368  -0.35892  -0.35685  -0.33394  -0.31636
 Alpha  occ. eigenvalues --   -0.31522  -0.31461  -0.30362  -0.30036  -0.26806
 Alpha virt. eigenvalues --    0.09616   0.12164   0.12624   0.12764   0.13878
 Alpha virt. eigenvalues --    0.14038   0.14424   0.16061   0.18400   0.18492
 Alpha virt. eigenvalues --    0.18529   0.19996   0.22311   0.22404   0.22706
 Alpha virt. eigenvalues --    0.23204   0.24191   0.24369   0.29249   0.31011
 Alpha virt. eigenvalues --    0.31133   0.31545   0.47688   0.47735   0.49974
 Alpha virt. eigenvalues --    0.50736   0.53069   0.53800   0.54400   0.54495
 Alpha virt. eigenvalues --    0.54704   0.55527   0.56229   0.57398   0.59309
 Alpha virt. eigenvalues --    0.59439   0.63473   0.63646   0.65363   0.65980
 Alpha virt. eigenvalues --    0.66891   0.66938   0.71015   0.74716   0.74763
 Alpha virt. eigenvalues --    0.74859   0.77169   0.79389   0.79629   0.79752
 Alpha virt. eigenvalues --    0.81420   0.83814   0.85783   0.86088   0.86124
 Alpha virt. eigenvalues --    0.90062   0.90174   0.99474   0.99811   1.00582
 Alpha virt. eigenvalues --    1.02412   1.09688   1.16459   1.16895   1.17046
 Alpha virt. eigenvalues --    1.24528   1.25088   1.28285   1.33849   1.37104
 Alpha virt. eigenvalues --    1.37195   1.37548   1.40847   1.43975   1.45531
 Alpha virt. eigenvalues --    1.45897   1.48961   1.49102   1.49286   1.50920
 Alpha virt. eigenvalues --    1.51135   1.51362   1.53588   1.55677   1.56005
 Alpha virt. eigenvalues --    1.57062   1.63491   1.63733   1.64969   1.67449
 Alpha virt. eigenvalues --    1.67562   1.68080   1.70668   1.74085   1.81326
 Alpha virt. eigenvalues --    1.83017   1.85796   1.87190   1.87748   1.93325
 Alpha virt. eigenvalues --    1.95415   1.95618   2.05260   2.05801   2.12861
 Alpha virt. eigenvalues --    2.23353   2.26218   2.26306   2.26541   2.30478
 Alpha virt. eigenvalues --    2.34645   2.34809   2.35321   2.36611   2.41723
 Alpha virt. eigenvalues --    2.42193   2.45868   2.46482   2.48842   2.51578
 Alpha virt. eigenvalues --    2.52088   2.54497   2.58314   2.61418   2.67977
 Alpha virt. eigenvalues --    2.70787   2.74851   2.75241   2.80693   2.81173
 Alpha virt. eigenvalues --    2.81568   2.88235   2.89660   2.90027   2.90795
 Alpha virt. eigenvalues --    2.93673   2.94267   2.96599   2.98539   2.99987
 Alpha virt. eigenvalues --    3.00265   3.02784   3.06869   3.08623   3.15388
 Alpha virt. eigenvalues --    3.15961   3.16062   3.18549   3.22599   3.26137
 Alpha virt. eigenvalues --    3.26240   3.26683   3.31451   3.31663   3.32469
 Alpha virt. eigenvalues --    3.37653   3.38396   3.38658   3.39528   3.43026
 Alpha virt. eigenvalues --    3.43193   3.43823   3.48944   3.50631   3.58481
 Alpha virt. eigenvalues --    3.61460   3.61723   3.66422   3.67773   3.72946
 Alpha virt. eigenvalues --    3.73490   3.73741   3.79871   3.80491   3.84190
 Alpha virt. eigenvalues --    3.84795   3.87468   4.06332   4.06835   4.14768
 Alpha virt. eigenvalues --    4.15268   4.17070   4.17921   4.19772   4.26707
 Alpha virt. eigenvalues --    4.27110   4.27493   4.30249   4.31400   4.36695
 Alpha virt. eigenvalues --    4.39647   4.40017   4.42622   4.43459   4.46966
 Alpha virt. eigenvalues --    4.51686   4.52161   4.52559   4.54935   4.55473
 Alpha virt. eigenvalues --    4.58014   4.64554   4.65282   4.68620   4.68745
 Alpha virt. eigenvalues --    4.71139   4.74093   4.74408   4.74436   4.76505
 Alpha virt. eigenvalues --    4.76766   4.82091   4.84172   4.87596   4.90051
 Alpha virt. eigenvalues --    4.90498   4.90927   4.92554   5.00332   5.04187
 Alpha virt. eigenvalues --    5.05006   5.05215   5.05534   5.06311   5.09567
 Alpha virt. eigenvalues --    5.11521   5.12755   5.17329   5.17967   5.22687
 Alpha virt. eigenvalues --    5.29608   5.37999   5.38877   5.40204   5.48903
 Alpha virt. eigenvalues --    5.50398   5.51174   5.51967   5.79083   5.92056
 Alpha virt. eigenvalues --    5.92981   5.95318   6.13727   6.65975   7.44267
 Alpha virt. eigenvalues --    7.45577  11.02732  11.74317  11.85092  11.86059
 Alpha virt. eigenvalues --   12.58299  12.60958  13.06417  13.06774
          Condensed to atoms (all electrons):
               1          2          3          4          5          6
     1  C    4.913776   0.383829  -0.035654  -0.036478  -0.001741  -0.025631
     2  C    0.383829   4.798128   0.390209  -0.047016  -0.026290   0.377268
     3  C   -0.035654   0.390209   4.913565   0.382681  -0.034738  -0.036264
     4  C   -0.036478  -0.047016   0.382681   4.796324   0.386921  -0.046637
     5  C   -0.001741  -0.026290  -0.034738   0.386921   4.914066   0.386210
     6  C   -0.025631   0.377268  -0.036264  -0.046637   0.386210   4.794681
     7  C   -0.034999  -0.036673  -0.001797  -0.025684  -0.035373   0.389235
     8  C    0.389321  -0.047319  -0.026225   0.382201  -0.036171  -0.047061
     9  H    0.365347  -0.031429  -0.004567  -0.005210  -0.000021   0.004659
    10  H    0.363524  -0.025062   0.004620   0.005705  -0.000309  -0.003898
    11  H   -0.046124   0.373211  -0.044730   0.007240   0.004004  -0.045269
    12  H    0.004988  -0.025998   0.365748  -0.031341  -0.005090  -0.005762
    13  H   -0.005164  -0.031401   0.362762  -0.025652   0.004607   0.005850
    14  H    0.004017   0.005947  -0.045832   0.373978  -0.044252   0.007164
    15  H   -0.000300  -0.004053  -0.005917  -0.031409   0.364216  -0.024828
    16  H   -0.000022   0.004794   0.005047  -0.026408   0.364357  -0.031554
    17  H    0.003982  -0.045039   0.003968   0.006061  -0.046518   0.373454
    18  H   -0.005133  -0.005801   0.000021   0.004553   0.004907  -0.025564
    19  H    0.004639   0.005878  -0.000315  -0.003561  -0.004969  -0.031401
    20  H   -0.044399   0.007304   0.004013  -0.045646   0.004078   0.005972
               7          8          9         10         11         12
     1  C   -0.034999   0.389321   0.365347   0.363524  -0.046124   0.004988
     2  C   -0.036673  -0.047319  -0.031429  -0.025062   0.373211  -0.025998
     3  C   -0.001797  -0.026225  -0.004567   0.004620  -0.044730   0.365748
     4  C   -0.025684   0.382201  -0.005210   0.005705   0.007240  -0.031341
     5  C   -0.035373  -0.036171  -0.000021  -0.000309   0.004004  -0.005090
     6  C    0.389235  -0.047061   0.004659  -0.003898  -0.045269  -0.005762
     7  C    4.913750   0.383851   0.005040  -0.005962   0.004011   0.000011
     8  C    0.383851   4.792472  -0.026097  -0.031395   0.006030   0.004650
     9  H    0.005040  -0.026097   0.649272  -0.043159   0.000974   0.000370
    10  H   -0.005962  -0.031395  -0.043159   0.653151  -0.001344  -0.000261
    11  H    0.004011   0.006030   0.000974  -0.001344   0.697631  -0.001439
    12  H    0.000011   0.004650   0.000370  -0.000261  -0.001439   0.649348
    13  H   -0.000317  -0.003682   0.001753   0.000288  -0.000181  -0.043190
    14  H    0.003980  -0.045444  -0.000015  -0.000111  -0.000261   0.001031
    15  H    0.004585   0.005630   0.000007   0.000025  -0.000096   0.001452
    16  H   -0.004451  -0.005093   0.000028   0.000007  -0.000067   0.000433
    17  H   -0.044982   0.007302  -0.000063  -0.000099  -0.003429  -0.000014
    18  H    0.366243  -0.031121   0.000427   0.001500  -0.000011   0.000031
    19  H    0.362415  -0.025501  -0.000268   0.000340  -0.000112   0.000008
    20  H   -0.046008   0.372634  -0.001548  -0.000131  -0.000264  -0.000068
              13         14         15         16         17         18
     1  C   -0.005164   0.004017  -0.000300  -0.000022   0.003982  -0.005133
     2  C   -0.031401   0.005947  -0.004053   0.004794  -0.045039  -0.005801
     3  C    0.362762  -0.045832  -0.005917   0.005047   0.003968   0.000021
     4  C   -0.025652   0.373978  -0.031409  -0.026408   0.006061   0.004553
     5  C    0.004607  -0.044252   0.364216   0.364357  -0.046518   0.004907
     6  C    0.005850   0.007164  -0.024828  -0.031554   0.373454  -0.025564
     7  C   -0.000317   0.003980   0.004585  -0.004451  -0.044982   0.366243
     8  C   -0.003682  -0.045444   0.005630  -0.005093   0.007302  -0.031121
     9  H    0.001753  -0.000015   0.000007   0.000028  -0.000063   0.000427
    10  H    0.000288  -0.000111   0.000025   0.000007  -0.000099   0.001500
    11  H   -0.000181  -0.000261  -0.000096  -0.000067  -0.003429  -0.000011
    12  H   -0.043190   0.001031   0.001452   0.000433  -0.000014   0.000031
    13  H    0.654325  -0.001355   0.000346  -0.000270  -0.000108   0.000007
    14  H   -0.001355   0.695292  -0.000063  -0.001480  -0.000261  -0.000068
    15  H    0.000346  -0.000063   0.651249  -0.042946  -0.001340  -0.000251
    16  H   -0.000270  -0.001480  -0.042946   0.650565   0.000974   0.000334
    17  H   -0.000108  -0.000261  -0.001340   0.000974   0.697820  -0.001436
    18  H    0.000007  -0.000068  -0.000251   0.000334  -0.001436   0.647177
    19  H    0.000024  -0.000099   0.000256   0.002052  -0.000179  -0.042987
    20  H   -0.000102  -0.003420  -0.000110  -0.000018  -0.000265   0.001053
              19         20
     1  C    0.004639  -0.044399
     2  C    0.005878   0.007304
     3  C   -0.000315   0.004013
     4  C   -0.003561  -0.045646
     5  C   -0.004969   0.004078
     6  C   -0.031401   0.005972
     7  C    0.362415  -0.046008
     8  C   -0.025501   0.372634
     9  H   -0.000268  -0.001548
    10  H    0.000340  -0.000131
    11  H   -0.000112  -0.000264
    12  H    0.000008  -0.000068
    13  H    0.000024  -0.000102
    14  H   -0.000099  -0.003420
    15  H    0.000256  -0.000110
    16  H    0.002052  -0.000018
    17  H   -0.000179  -0.000265
    18  H   -0.042987   0.001053
    19  H    0.653740  -0.001420
    20  H   -0.001420   0.698602
 Mulliken charges:
               1
     1  C   -0.197779
     2  C   -0.020487
     3  C   -0.196595
     4  C   -0.020624
     5  C   -0.197893
     6  C   -0.020625
     7  C   -0.196874
     8  C   -0.018982
     9  H    0.084500
    10  H    0.082569
    11  H    0.050227
    12  H    0.085094
    13  H    0.081460
    14  H    0.051252
    15  H    0.083547
    16  H    0.083717
    17  H    0.050172
    18  H    0.086118
    19  H    0.081461
    20  H    0.049743
 Sum of Mulliken charges =  -0.00000
 Mulliken charges with hydrogens summed into heavy atoms:
               1
     1  C   -0.030710
     2  C    0.029740
     3  C   -0.030041
     4  C    0.030628
     5  C   -0.030629
     6  C    0.029547
     7  C   -0.029295
     8  C    0.030761
 Electronic spatial extent (au):  <R**2>=            716.5645
 Charge=             -0.0000 electrons
 Dipole moment (field-independent basis, Debye):
    X=             -0.0044    Y=             -0.0014    Z=             -0.0028  Tot=              0.0054
 Quadrupole moment (field-independent basis, Debye-Ang):
   XX=            -49.8173   YY=            -49.8948   ZZ=            -49.5338
   XY=             -0.0158   XZ=             -0.0269   YZ=              0.0228
 Traceless Quadrupole moment (field-independent basis, Debye-Ang):
   XX=             -0.0686   YY=             -0.1462   ZZ=              0.2148
   XY=             -0.0158   XZ=             -0.0269   YZ=              0.0228
 Octapole moment (field-independent basis, Debye-Ang**2):
  XXX=             -0.0352  YYY=              0.0316  ZZZ=              0.0688  XYY=              0.0329
  XXY=             -0.0267  XXZ=             -1.4334  XZZ=             -0.0581  YZZ=             -0.0061
  YYZ=              1.3637  XYZ=              0.1076
 Hexadecapole moment (field-independent basis, Debye-Ang**3):
 XXXX=           -373.0146 YYYY=           -369.9978 ZZZZ=           -232.9575 XXXY=             -0.6278
 XXXZ=             -0.1129 YYYX=              0.5708 YYYZ=              0.0940 ZZZX=             -0.1714
 ZZZY=              0.0589 XXYY=           -128.5082 XXZZ=           -101.1186 YYZZ=           -100.6436
 XXYZ=              0.0461 YYXZ=             -0.0128 ZZXY=             -0.0621
 N-N= 4.061615037277D+02 E-N=-1.534440391076D+03  KE= 3.095865301114D+02
 PrsmSu:  requested number of processors reduced to:  13 ShMem   1 Linda.
 Calling FoFJK, ICntrl=      2127 FMM=F ISym2X=0 I1Cent= 0 IOpClX= 0 NMat=1 NMatS=1 NMatT=0.
 ***** Axes restored to original set *****
 -------------------------------------------------------------------
 Center     Atomic                   Forces (Hartrees/Bohr)
 Number     Number              X              Y              Z
 -------------------------------------------------------------------
      1        6          -0.005102686   -0.007920046    0.003498387
      2        6          -0.016050652    0.003770883    0.012348582
      3        6          -0.009012648    0.004617621   -0.003112456
      4        6           0.003597286    0.014817701   -0.007039804
      5        6           0.005818571    0.006497471    0.000824028
      6        6           0.013606436   -0.003655805    0.012856490
      7        6           0.009576556   -0.002849883   -0.001930553
      8        6          -0.004078449   -0.017456896   -0.016303341
      9        1          -0.001050092    0.003084654    0.007383105
     10        1           0.000526028   -0.000471934   -0.003931745
     11        1           0.003270529    0.001088881    0.002760060
     12        1           0.002314609    0.001097536   -0.008085441
     13        1          -0.001299262   -0.001434991    0.003962783
     14        1           0.001393318   -0.002060178   -0.004385884
     15        1          -0.000422092    0.000480196   -0.003714709
     16        1           0.001362342   -0.003059613    0.007335105
     17        1          -0.003268202   -0.001009388    0.003022378
     18        1          -0.002097027   -0.000562132   -0.008234290
     19        1           0.002172962    0.001112574    0.003205710
     20        1          -0.001257527    0.003913348   -0.000458408
 -------------------------------------------------------------------
 Cartesian Forces:  Max     0.017456896 RMS     0.006421616

 GradGradGradGradGradGradGradGradGradGradGradGradGradGradGradGradGradGrad
 Berny optimization.
 FormGI is forming the generalized inverse of G from B-inverse, IUseBI=4.
 Internal  Forces:  Max     0.012447553 RMS     0.003183319
 Search for a local minimum.
 Step number   1 out of a maximum of  120
 All quantities printed in internal units (Hartrees-Bohrs-Radians)
 Mixed Optimization -- RFO/linear search
 Second derivative matrix not updated -- first step.
 ITU=  0
     Eigenvalues ---    0.00931   0.01708   0.01722   0.01838   0.02429
     Eigenvalues ---    0.02739   0.03302   0.03352   0.03396   0.04148
     Eigenvalues ---    0.04195   0.04376   0.04474   0.05171   0.05186
     Eigenvalues ---    0.05198   0.05223   0.05648   0.05770   0.05806
     Eigenvalues ---    0.05826   0.06177   0.06198   0.06209   0.06925
     Eigenvalues ---    0.07677   0.07679   0.08066   0.09888   0.10005
     Eigenvalues ---    0.11478   0.11518   0.15011   0.20639   0.20824
     Eigenvalues ---    0.24204   0.24222   0.24369   0.26822   0.27070
     Eigenvalues ---    0.27118   0.28784   0.33991   0.34063   0.34127
     Eigenvalues ---    0.34141   0.34254   0.34297   0.34318   0.34422
     Eigenvalues ---    0.34502   0.34859   0.34897   0.35262
 RFO step:  Lambda=-1.35974595D-02 EMin= 9.30529754D-03
 Linear search not attempted -- first point.
 Iteration  1 RMS(Cart)=  0.04463695 RMS(Int)=  0.00135209
 Iteration  2 RMS(Cart)=  0.00136360 RMS(Int)=  0.00044489
 Iteration  3 RMS(Cart)=  0.00000090 RMS(Int)=  0.00044489
 Variable       Old X    -DE/DX   Delta X   Delta X   Delta X     New X
                                 (Linear)    (Quad)   (Total)
    R1        2.91900   0.00765   0.00000   0.01834   0.01812   2.93712
    R2        2.86714   0.01245   0.00000   0.04789   0.04812   2.91526
    R3        2.07093  -0.00180   0.00000  -0.00506  -0.00506   2.06588
    R4        2.06903  -0.00115   0.00000  -0.00324  -0.00324   2.06579
    R5        2.86960   0.01114   0.00000   0.04250   0.04318   2.91278
    R6        3.04164   0.00950   0.00000   0.03148   0.03075   3.07239
    R7        2.05905   0.00095   0.00000   0.00261   0.00261   2.06166
    R8        2.92059   0.00808   0.00000   0.02060   0.02080   2.94140
    R9        2.07224  -0.00237   0.00000  -0.00669  -0.00669   2.06556
   R10        2.06797  -0.00055   0.00000  -0.00155  -0.00155   2.06642
   R11        2.87367   0.01133   0.00000   0.04449   0.04454   2.91821
   R12        3.03412   0.00811   0.00000   0.02903   0.02825   3.06238
   R13        2.05251   0.00296   0.00000   0.00807   0.00807   2.06058
   R14        2.91379   0.00750   0.00000   0.01815   0.01800   2.93179
   R15        2.06832  -0.00108   0.00000  -0.00302  -0.00302   2.06530
   R16        2.07116  -0.00154   0.00000  -0.00433  -0.00433   2.06683
   R17        2.87015   0.01070   0.00000   0.04191   0.04243   2.91258
   R18        2.05842   0.00119   0.00000   0.00327   0.00327   2.06169
   R19        2.91377   0.00831   0.00000   0.02353   0.02381   2.93758
   R20        2.07345  -0.00292   0.00000  -0.00825  -0.00825   2.06520
   R21        2.06492   0.00059   0.00000   0.00164   0.00164   2.06655
   R22        2.06623  -0.00136   0.00000  -0.00381  -0.00381   2.06242
    A1        1.60630   0.00109   0.00000   0.02113   0.02067   1.62696
    A2        2.00950  -0.00450   0.00000  -0.06388  -0.06404   1.94545
    A3        1.98846   0.00224   0.00000   0.03099   0.03152   2.01998
    A4        1.96387   0.00252   0.00000   0.03466   0.03570   1.99957
    A5        1.99496  -0.00141   0.00000  -0.01564  -0.01623   1.97873
    A6        1.89152   0.00011   0.00000  -0.00461  -0.00469   1.88683
    A7        1.70674  -0.00140   0.00000  -0.01974  -0.01967   1.68707
    A8        1.82758  -0.00018   0.00000  -0.02040  -0.02100   1.80658
    A9        2.01413   0.00156   0.00000   0.02224   0.02210   2.03623
   A10        1.76824   0.00005   0.00000   0.01838   0.01782   1.78607
   A11        2.04760   0.00262   0.00000   0.02132   0.02156   2.06916
   A12        2.05080  -0.00270   0.00000  -0.02409  -0.02353   2.02726
   A13        1.61038   0.00088   0.00000   0.01757   0.01697   1.62735
   A14        1.95148   0.00264   0.00000   0.04042   0.04153   1.99301
   A15        2.00468  -0.00159   0.00000  -0.02234  -0.02276   1.98191
   A16        2.00763  -0.00462   0.00000  -0.06150  -0.06167   1.94596
   A17        1.98960   0.00264   0.00000   0.03228   0.03304   2.02264
   A18        1.89121   0.00004   0.00000  -0.00464  -0.00466   1.88655
   A19        1.69318  -0.00018   0.00000  -0.00145  -0.00153   1.69165
   A20        1.82534   0.00012   0.00000  -0.02008  -0.02088   1.80446
   A21        2.01684   0.00119   0.00000   0.01963   0.01954   2.03637
   A22        1.77303  -0.00018   0.00000   0.01187   0.01165   1.78468
   A23        2.05480   0.00237   0.00000   0.01782   0.01762   2.07242
   A24        2.04964  -0.00306   0.00000  -0.02691  -0.02627   2.02338
   A25        1.61140   0.00079   0.00000   0.01651   0.01625   1.62766
   A26        1.99455  -0.00164   0.00000  -0.01597  -0.01634   1.97821
   A27        1.95942   0.00308   0.00000   0.03907   0.03986   1.99928
   A28        1.98999   0.00193   0.00000   0.02806   0.02847   2.01846
   A29        2.00715  -0.00409   0.00000  -0.06041  -0.06057   1.94658
   A30        1.89224  -0.00001   0.00000  -0.00483  -0.00494   1.88730
   A31        1.82306   0.00029   0.00000  -0.01429  -0.01465   1.80841
   A32        1.76357   0.00072   0.00000   0.02387   0.02315   1.78672
   A33        2.05043  -0.00297   0.00000  -0.02457  -0.02410   2.02633
   A34        1.71762  -0.00234   0.00000  -0.03267  -0.03251   1.68512
   A35        2.01408   0.00161   0.00000   0.02223   0.02215   2.03623
   A36        2.04722   0.00260   0.00000   0.02204   0.02245   2.06966
   A37        1.60838   0.00113   0.00000   0.02033   0.01957   1.62795
   A38        1.95067   0.00225   0.00000   0.03795   0.03924   1.98991
   A39        2.00126  -0.00123   0.00000  -0.01910  -0.01964   1.98162
   A40        2.00826  -0.00482   0.00000  -0.06256  -0.06292   1.94534
   A41        1.99219   0.00261   0.00000   0.03089   0.03181   2.02400
   A42        1.89340   0.00009   0.00000  -0.00505  -0.00517   1.88824
   A43        1.77528  -0.00037   0.00000   0.01203   0.01162   1.78690
   A44        1.69981  -0.00057   0.00000  -0.00656  -0.00670   1.69310
   A45        2.05072   0.00265   0.00000   0.02147   0.02133   2.07204
   A46        1.83448  -0.00085   0.00000  -0.02979  -0.03044   1.80404
   A47        2.04251  -0.00252   0.00000  -0.02155  -0.02093   2.02157
   A48        2.01368   0.00161   0.00000   0.02245   0.02228   2.03596
    D1        1.21202  -0.00167   0.00000  -0.03497  -0.03523   1.17679
    D2       -0.60178  -0.00125   0.00000  -0.04413  -0.04412  -0.64590
    D3       -2.88440   0.00135   0.00000  -0.01124  -0.01121  -2.89561
    D4       -0.81440  -0.00390   0.00000  -0.06858  -0.06840  -0.88280
    D5       -2.62820  -0.00349   0.00000  -0.07774  -0.07729  -2.70550
    D6        1.37236  -0.00089   0.00000  -0.04484  -0.04438   1.32798
    D7       -3.01525  -0.00207   0.00000  -0.03312  -0.03309  -3.04834
    D8        1.45413  -0.00166   0.00000  -0.04228  -0.04198   1.41215
    D9       -0.82849   0.00094   0.00000  -0.00938  -0.00907  -0.83756
   D10       -0.74224   0.00103   0.00000   0.04046   0.04116  -0.70109
   D11        1.12834  -0.00008   0.00000   0.01018   0.00999   1.13833
   D12       -2.99605   0.00284   0.00000   0.04402   0.04403  -2.95202
   D13        1.32334  -0.00279   0.00000  -0.01120  -0.01056   1.31278
   D14       -3.08926  -0.00389   0.00000  -0.04149  -0.04172  -3.13098
   D15       -0.93046  -0.00098   0.00000  -0.00764  -0.00769  -0.93815
   D16       -2.79260  -0.00169   0.00000  -0.00144  -0.00069  -2.79329
   D17       -0.92201  -0.00280   0.00000  -0.03173  -0.03185  -0.95386
   D18        1.23679   0.00011   0.00000   0.00212   0.00219   1.23897
   D19       -1.12022  -0.00078   0.00000  -0.02188  -0.02177  -1.14200
   D20        3.10071   0.00324   0.00000   0.02744   0.02765   3.12836
   D21        0.93636   0.00225   0.00000   0.01801   0.01807   0.95443
   D22        0.74353  -0.00131   0.00000  -0.04430  -0.04519   0.69834
   D23       -1.31872   0.00271   0.00000   0.00502   0.00423  -1.31449
   D24        2.80011   0.00172   0.00000  -0.00441  -0.00534   2.79477
   D25        3.00025  -0.00304   0.00000  -0.04619  -0.04612   2.95413
   D26        0.93800   0.00097   0.00000   0.00313   0.00330   0.94130
   D27       -1.22636  -0.00001   0.00000  -0.00630  -0.00627  -1.23263
   D28        1.67210   0.00050   0.00000   0.03644   0.03584   1.70794
   D29       -0.10439   0.00270   0.00000   0.06754   0.06737  -0.03702
   D30       -2.35444   0.00069   0.00000   0.03538   0.03525  -2.31919
   D31       -0.09539   0.00203   0.00000   0.05704   0.05697  -0.03842
   D32       -1.87188   0.00422   0.00000   0.08814   0.08850  -1.78338
   D33        2.16126   0.00222   0.00000   0.05599   0.05638   2.21763
   D34       -2.35008   0.00038   0.00000   0.03005   0.03003  -2.32005
   D35        2.15661   0.00258   0.00000   0.06114   0.06156   2.21818
   D36       -0.09344   0.00057   0.00000   0.02899   0.02944  -0.06400
   D37       -1.21818   0.00212   0.00000   0.04522   0.04542  -1.17277
   D38        0.59612   0.00190   0.00000   0.05341   0.05324   0.64936
   D39        2.87732  -0.00122   0.00000   0.01497   0.01492   2.89225
   D40        0.79586   0.00437   0.00000   0.08417   0.08401   0.87987
   D41        2.61017   0.00414   0.00000   0.09237   0.09183   2.70200
   D42       -1.39181   0.00103   0.00000   0.05393   0.05352  -1.33830
   D43        2.99565   0.00270   0.00000   0.05194   0.05195   3.04760
   D44       -1.47323   0.00247   0.00000   0.06013   0.05977  -1.41346
   D45        0.80797  -0.00064   0.00000   0.02170   0.02146   0.82943
   D46        1.13136  -0.00010   0.00000   0.00646   0.00619   1.13755
   D47       -0.92331  -0.00224   0.00000  -0.02958  -0.02982  -0.95312
   D48       -3.08753  -0.00344   0.00000  -0.04233  -0.04266  -3.13020
   D49       -0.72760  -0.00014   0.00000   0.02543   0.02609  -0.70151
   D50       -2.78227  -0.00228   0.00000  -0.01061  -0.00992  -2.79218
   D51        1.33669  -0.00349   0.00000  -0.02337  -0.02276   1.31393
   D52       -2.99181   0.00242   0.00000   0.03857   0.03863  -2.95318
   D53        1.23671   0.00028   0.00000   0.00253   0.00262   1.23933
   D54       -0.92752  -0.00092   0.00000  -0.01022  -0.01023  -0.93775
   D55        0.10515  -0.00271   0.00000  -0.06800  -0.06737   0.03778
   D56       -1.65893  -0.00176   0.00000  -0.05691  -0.05562  -1.71455
   D57        2.36412  -0.00126   0.00000  -0.04456  -0.04425   2.31987
   D58        1.85907  -0.00293   0.00000  -0.07110  -0.07102   1.78805
   D59        0.09500  -0.00198   0.00000  -0.06002  -0.05928   0.03572
   D60       -2.16514  -0.00147   0.00000  -0.04766  -0.04790  -2.21304
   D61       -2.15667  -0.00208   0.00000  -0.05626  -0.05645  -2.21311
   D62        2.36244  -0.00113   0.00000  -0.04518  -0.04470   2.31774
   D63        0.10231  -0.00063   0.00000  -0.03282  -0.03333   0.06898
   D64       -0.61110  -0.00076   0.00000  -0.03439  -0.03441  -0.64550
   D65        1.20012  -0.00065   0.00000  -0.02214  -0.02246   1.17766
   D66       -2.88935   0.00175   0.00000  -0.00609  -0.00616  -2.89551
   D67        1.44745  -0.00166   0.00000  -0.03583  -0.03559   1.41186
   D68       -3.02452  -0.00155   0.00000  -0.02358  -0.02364  -3.04816
   D69       -0.83080   0.00085   0.00000  -0.00754  -0.00734  -0.83814
   D70       -2.63457  -0.00358   0.00000  -0.07124  -0.07083  -2.70541
   D71       -0.82336  -0.00347   0.00000  -0.05899  -0.05889  -0.88224
   D72        1.37036  -0.00106   0.00000  -0.04295  -0.04259   1.32777
   D73        0.74788  -0.00158   0.00000  -0.04975  -0.05095   0.69693
   D74       -1.31390   0.00265   0.00000   0.00016  -0.00075  -1.31465
   D75        2.80534   0.00165   0.00000  -0.00912  -0.01021   2.79513
   D76       -1.11290  -0.00145   0.00000  -0.03185  -0.03202  -1.14491
   D77        3.10850   0.00278   0.00000   0.01805   0.01818   3.12669
   D78        0.94456   0.00177   0.00000   0.00877   0.00873   0.95328
   D79        2.99999  -0.00313   0.00000  -0.04752  -0.04760   2.95240
   D80        0.93821   0.00109   0.00000   0.00239   0.00260   0.94081
   D81       -1.22574   0.00009   0.00000  -0.00689  -0.00685  -1.23259
   D82       -1.22528   0.00281   0.00000   0.05186   0.05199  -1.17328
   D83        0.59522   0.00207   0.00000   0.05647   0.05627   0.65149
   D84        2.87228  -0.00082   0.00000   0.01916   0.01909   2.89136
   D85        0.78694   0.00469   0.00000   0.08938   0.08910   0.87604
   D86        2.60744   0.00395   0.00000   0.09399   0.09337   2.70081
   D87       -1.39869   0.00106   0.00000   0.05668   0.05619  -1.34250
   D88        2.99275   0.00286   0.00000   0.05394   0.05390   3.04665
   D89       -1.46993   0.00212   0.00000   0.05855   0.05817  -1.41176
   D90        0.80712  -0.00077   0.00000   0.02124   0.02099   0.82811
         Item               Value     Threshold  Converged?
 Maximum Force            0.012448     0.000450     NO 
 RMS     Force            0.003183     0.000300     NO 
 Maximum Displacement     0.231634     0.001800     NO 
 RMS     Displacement     0.044796     0.001200     NO 
 Predicted change in Energy=-8.275358D-03
 GradGradGradGradGradGradGradGradGradGradGradGradGradGradGradGradGradGrad

                          Input orientation:                          
 ---------------------------------------------------------------------
 Center     Atomic      Atomic             Coordinates (Angstroms)
 Number     Number       Type             X           Y           Z
 ---------------------------------------------------------------------
      1          6           0       -1.332965   -0.950600   -0.052487
      2          6           0       -0.805918    0.119753    0.943642
      3          6           0       -0.957289    1.330478    0.001793
      4          6           0        0.121180    0.805593   -0.990252
      5          6           0        1.332171    0.951839   -0.043245
      6          6           0        0.802000   -0.120965    0.944159
      7          6           0        0.955911   -1.325224   -0.005364
      8          6           0       -0.120811   -0.796772   -0.994244
      9          1           0       -2.289412   -0.653023   -0.490407
     10          1           0       -1.443483   -1.960682    0.350680
     11          1           0       -1.286910    0.156937    1.922167
     12          1           0       -0.661747    2.283996    0.446995
     13          1           0       -1.965769    1.443938   -0.405451
     14          1           0        0.160256    1.284366   -1.969155
     15          1           0        1.442172    1.958953    0.366728
     16          1           0        2.289787    0.656074   -0.481099
     17          1           0        1.280560   -0.164061    1.923650
     18          1           0        0.659366   -2.280123    0.435735
     19          1           0        1.965530   -1.435416   -0.410861
     20          1           0       -0.157009   -1.269730   -1.977161
 ---------------------------------------------------------------------
                    Distance matrix (angstroms):
                    1          2          3          4          5
     1  C    0.000000
     2  C    1.554254   0.000000
     3  C    2.312443   1.541378   0.000000
     4  C    2.465391   2.251629   1.556519   0.000000
     5  C    3.274494   2.497546   2.320996   1.544250   0.000000
     6  C    2.497934   1.625838   2.467759   2.250326   1.551436
     7  C    2.319810   2.468322   3.273093   2.491417   2.308251
     8  C    1.542687   2.250509   2.493386   1.620539   2.464386
     9  H    1.093214   2.203278   2.439486   2.861532   3.986402
    10  H    1.093171   2.255283   3.345121   3.449427   4.042550
    11  H    2.264513   1.090985   2.274573   3.299342   3.369614
    12  H    3.341051   2.225172   1.093045   2.205522   2.447588
    13  H    2.501766   2.217830   1.093505   2.259388   3.354066
    14  H    3.301271   3.282407   2.266201   1.090414   2.278835
    15  H    4.042601   2.961316   2.507104   2.217352   1.092911
    16  H    3.986156   3.449771   3.351344   2.232587   1.093719
    17  H    3.369610   2.322576   3.306833   3.282562   2.261984
    18  H    2.444458   2.857348   3.979738   3.441616   3.335816
    19  H    3.353140   3.454585   4.045161   2.959636   2.497053
    20  H    2.277956   3.298914   3.364191   2.314809   3.300463
                    6          7          8          9         10
     6  C    0.000000
     7  C    1.541273   0.000000
     8  C    2.250711   1.554502   0.000000
     9  H    3.449333   3.349514   2.230996   0.000000
    10  H    2.962933   2.507522   2.216522   1.770026   0.000000
    11  H    2.323204   3.307934   3.282499   2.735244   2.641665
    12  H    2.858945   3.980944   3.443967   3.486273   4.317137
    13  H    3.454115   4.045311   2.961642   2.123490   3.526464
    14  H    3.297603   3.361473   2.315293   3.455582   4.299296
    15  H    2.251511   3.340766   3.448069   4.634848   4.867319
    16  H    2.201967   2.435383   2.860955   4.762656   4.634283
    17  H    1.091000   2.274817   3.298223   4.337218   3.622498
    18  H    2.222792   1.092858   2.203145   3.492920   2.128674
    19  H    2.217581   1.093573   2.258545   4.327009   3.532311
    20  H    3.282296   2.264874   1.091387   2.671686   2.747958
                   11         12         13         14         15
    11  H    0.000000
    12  H    2.662957   0.000000
    13  H    2.745000   1.769981   0.000000
    14  H    4.302066   2.740936   2.643977   0.000000
    15  H    3.621400   2.130392   3.532076   2.748586   0.000000
    16  H    4.337925   3.496147   4.328534   2.672819   1.770524
    17  H    2.587459   3.456306   4.306857   4.301971   2.637672
    18  H    3.454958   4.751489   4.633310   4.328763   4.311300
    19  H    4.307782   4.633847   4.872969   3.617252   3.521405
    20  H    4.303117   4.331311   3.620204   2.573738   4.298323
                   16         17         18         19         20
    16  H    0.000000
    17  H    2.733858   0.000000
    18  H    3.481395   2.660356   0.000000
    19  H    2.117642   2.745082   1.770966   0.000000
    20  H    3.454523   4.301794   2.740333   2.643089   0.000000
 Stoichiometry    C8H12
 Framework group  C1[X(C8H12)]
 Deg. of freedom    54
 Full point group                 C1      NOp   1
 Largest Abelian subgroup         C1      NOp   1
 Largest concise Abelian subgroup C1      NOp   1
                         Standard orientation:                         
 ---------------------------------------------------------------------
 Center     Atomic      Atomic             Coordinates (Angstroms)
 Number     Number       Type             X           Y           Z
 ---------------------------------------------------------------------
      1          6           0        1.216750   -1.096238    0.023280
      2          6           0        0.813034    0.030535   -0.968235
      3          6           0        1.099941    1.212813   -0.021795
      4          6           0       -0.030340    0.808595    0.969076
      5          6           0       -1.217559    1.093842    0.023638
      6          6           0       -0.811755   -0.027847   -0.968376
      7          6           0       -1.099752   -1.210920   -0.023433
      8          6           0        0.029935   -0.810821    0.966620
      9          1           0        2.200757   -0.909838    0.461575
     10          1           0        1.212834   -2.110733   -0.383915
     11          1           0        1.294790    0.017280   -1.947001
     12          1           0        0.913329    2.195275   -0.463032
     13          1           0        2.114935    1.210537    0.385064
     14          1           0       -0.014963    1.284837    1.949871
     15          1           0       -1.213766    2.108556   -0.382313
     16          1           0       -2.202195    0.905898    0.461118
     17          1           0       -1.292492   -0.012971   -1.947637
     18          1           0       -0.912630   -2.191351   -0.468495
     19          1           0       -2.115207   -1.208494    0.382457
     20          1           0        0.013087   -1.288747    1.947655
 ---------------------------------------------------------------------
 Rotational constants (GHZ):           3.0052781           2.9900103           2.3654291
 Standard basis: 6-31G(2df,p) (6D, 7F)
 There are   308 symmetry adapted cartesian basis functions of A   symmetry.
 There are   284 symmetry adapted basis functions of A   symmetry.
   284 basis functions,   436 primitive gaussians,   308 cartesian basis functions
    30 alpha electrons       30 beta electrons
       nuclear repulsion energy       402.7372569913 Hartrees.
 NAtoms=   20 NActive=   20 NUniq=   20 SFac= 1.00D+00 NAtFMM=   60 NAOKFM=F Big=F
 Integral buffers will be    131072 words long.
 Raffenetti 2 integral format.
 Two-electron integral symmetry is turned on.
 One-electron integrals computed using PRISM.
 PrsmSu:  requested number of processors reduced to:  13 ShMem   1 Linda.
 NBasis=   284 RedAO= T EigKep=  3.92D-04  NBF=   284
 NBsUse=   284 1.00D-06 EigRej= -1.00D+00 NBFU=   284
 Initial guess from the checkpoint file:  "C1C2CC3CC2CC13.chk"
 B after Tr=    -0.000000   -0.000000    0.000000
         Rot=    0.749260   -0.001765    0.000856    0.662273 Ang= -82.95 deg.
 ExpMin= 1.61D-01 ExpMax= 3.05D+03 ExpMxC= 4.57D+02 IAcc=2 IRadAn=         4 AccDes= 0.00D+00
 Harris functional with IExCor=  402 and IRadAn=       4 diagonalized for initial guess.
 HarFok:  IExCor=  402 AccDes= 0.00D+00 IRadAn=         4 IDoV= 1 UseB2=F ITyADJ=14
 ICtDFT=  3500011 ScaDFX=  1.000000  1.000000  1.000000  1.000000
 FoFCou: FMM=F IPFlag=           0 FMFlag=      100000 FMFlg1=           0
         NFxFlg=           0 DoJE=T BraDBF=F KetDBF=T FulRan=T
         wScrn=  0.000000 ICntrl=       500 IOpCl=  0 I1Cent=   200000004 NGrid=           0
         NMat0=    1 NMatS0=      1 NMatT0=    0 NMatD0=    1 NMtDS0=    0 NMtDT0=    0
 Petite list used in FoFCou.
 Requested convergence on RMS density matrix=1.00D-08 within 128 cycles.
 Requested convergence on MAX density matrix=1.00D-06.
 Requested convergence on             energy=1.00D-06.
 No special actions if energy rises.
 Integral accuracy reduced to 1.0D-05 until final iterations.
 Initial convergence to 1.0D-05 achieved.  Increase integral accuracy.
 SCF Done:  E(RB3LYP) =  -312.053650904     A.U. after   10 cycles
            NFock= 10  Conv=0.39D-08     -V/T= 2.0088
 PrsmSu:  requested number of processors reduced to:  13 ShMem   1 Linda.
 Calling FoFJK, ICntrl=      2127 FMM=F ISym2X=0 I1Cent= 0 IOpClX= 0 NMat=1 NMatS=1 NMatT=0.
 ***** Axes restored to original set *****
 -------------------------------------------------------------------
 Center     Atomic                   Forces (Hartrees/Bohr)
 Number     Number              X              Y              Z
 -------------------------------------------------------------------
      1        6           0.000124283    0.000264169    0.000699713
      2        6          -0.001301141   -0.001626089   -0.001181302
      3        6           0.002668260    0.001432090   -0.000249384
      4        6          -0.001563591    0.002107053    0.001648985
      5        6          -0.000209897    0.000897287   -0.000201334
      6        6           0.001303991    0.001029074   -0.000634829
      7        6          -0.002523169   -0.002171194    0.000665209
      8        6           0.001616476   -0.002052773   -0.000058550
      9        1          -0.000408784   -0.000447648    0.000986677
     10        1           0.001210592   -0.000202743   -0.000836703
     11        1           0.001194532    0.001467099   -0.000393686
     12        1          -0.000295037    0.000938075   -0.001374637
     13        1           0.000225172   -0.001430912    0.000776584
     14        1           0.001702950   -0.000637606    0.000274656
     15        1          -0.001113295    0.000485286   -0.000948437
     16        1           0.000111588    0.000610788    0.001159120
     17        1          -0.001129140   -0.001551953   -0.000430293
     18        1           0.000461381   -0.001247891   -0.001521631
     19        1          -0.000367583    0.001311486    0.000811739
     20        1          -0.001707589    0.000826403    0.000808104
 -------------------------------------------------------------------
 Cartesian Forces:  Max     0.002668260 RMS     0.001173276

 GradGradGradGradGradGradGradGradGradGradGradGradGradGradGradGradGradGrad
 Berny optimization.
 Using GEDIIS/GDIIS optimizer.
 FormGI is forming the generalized inverse of G from B-inverse, IUseBI=4.
 Internal  Forces:  Max     0.001645643 RMS     0.000553913
 Search for a local minimum.
 Step number   2 out of a maximum of  120
 All quantities printed in internal units (Hartrees-Bohrs-Radians)
 Mixed Optimization -- En-DIIS/RFO-DIIS
 Update second derivatives using D2CorX and points    1    2
 DE= -7.47D-03 DEPred=-8.28D-03 R= 9.03D-01
 TightC=F SS=  1.41D+00  RLast= 4.74D-01 DXNew= 5.0454D-01 1.4216D+00
 Trust test= 9.03D-01 RLast= 4.74D-01 DXMaxT set to 5.05D-01
 ITU=  1  0
 Use linear search instead of GDIIS.
     Eigenvalues ---    0.00977   0.01681   0.01688   0.01829   0.02466
     Eigenvalues ---    0.02799   0.03336   0.03352   0.03385   0.04115
     Eigenvalues ---    0.04162   0.04330   0.04567   0.05375   0.05393
     Eigenvalues ---    0.05400   0.05511   0.05654   0.05693   0.05705
     Eigenvalues ---    0.05759   0.06098   0.06251   0.06265   0.06589
     Eigenvalues ---    0.07668   0.07695   0.08247   0.10030   0.10084
     Eigenvalues ---    0.11276   0.11622   0.15357   0.20515   0.20897
     Eigenvalues ---    0.24258   0.24342   0.24424   0.26775   0.27115
     Eigenvalues ---    0.27120   0.29113   0.34000   0.34062   0.34119
     Eigenvalues ---    0.34139   0.34251   0.34295   0.34322   0.34422
     Eigenvalues ---    0.34522   0.34872   0.34943   0.35296
 RFO step:  Lambda=-1.09223209D-03 EMin= 9.77198446D-03
 Quartic linear search produced a step of  0.11793.
 Iteration  1 RMS(Cart)=  0.02245835 RMS(Int)=  0.00028696
 Iteration  2 RMS(Cart)=  0.00030996 RMS(Int)=  0.00012228
 Iteration  3 RMS(Cart)=  0.00000006 RMS(Int)=  0.00012228
 Variable       Old X    -DE/DX   Delta X   Delta X   Delta X     New X
                                 (Linear)    (Quad)   (Total)
    R1        2.93712  -0.00017   0.00214  -0.00634  -0.00409   2.93303
    R2        2.91526  -0.00075   0.00567  -0.00339   0.00241   2.91766
    R3        2.06588  -0.00016  -0.00060  -0.00000  -0.00060   2.06528
    R4        2.06579  -0.00024  -0.00038  -0.00045  -0.00083   2.06496
    R5        2.91278   0.00046   0.00509   0.00193   0.00706   2.91984
    R6        3.07239  -0.00159   0.00363  -0.01043  -0.00702   3.06537
    R7        2.06166  -0.00083   0.00031  -0.00290  -0.00260   2.05907
    R8        2.94140  -0.00165   0.00245  -0.01319  -0.01076   2.93063
    R9        2.06556   0.00018  -0.00079   0.00126   0.00047   2.06603
   R10        2.06642  -0.00064  -0.00018  -0.00192  -0.00210   2.06432
   R11        2.91821  -0.00108   0.00525  -0.00522   0.00016   2.91837
   R12        3.06238   0.00122   0.00333   0.00084   0.00394   3.06632
   R13        2.06058  -0.00047   0.00095  -0.00229  -0.00134   2.05925
   R14        2.93179   0.00097   0.00212  -0.00140   0.00083   2.93262
   R15        2.06530  -0.00002  -0.00036   0.00025  -0.00011   2.06519
   R16        2.06683  -0.00053  -0.00051  -0.00128  -0.00179   2.06503
   R17        2.91258   0.00081   0.00500   0.00305   0.00806   2.92064
   R18        2.06169  -0.00082   0.00039  -0.00294  -0.00255   2.05914
   R19        2.93758  -0.00084   0.00281  -0.01054  -0.00774   2.92984
   R20        2.06520   0.00035  -0.00097   0.00199   0.00101   2.06622
   R21        2.06655  -0.00077   0.00019  -0.00264  -0.00245   2.06410
   R22        2.06242  -0.00103  -0.00045  -0.00292  -0.00337   2.05905
    A1        1.62696  -0.00020   0.00244  -0.00278  -0.00064   1.62632
    A2        1.94545  -0.00046  -0.00755   0.00579  -0.00178   1.94367
    A3        2.01998   0.00074   0.00372   0.00123   0.00508   2.02506
    A4        1.99957   0.00054   0.00421   0.00906   0.01353   2.01310
    A5        1.97873  -0.00058  -0.00191  -0.01437  -0.01631   1.96242
    A6        1.88683  -0.00003  -0.00055   0.00118   0.00062   1.88745
    A7        1.68707   0.00053  -0.00232   0.00867   0.00644   1.69350
    A8        1.80658   0.00004  -0.00248  -0.00847  -0.01117   1.79541
    A9        2.03623   0.00020   0.00261   0.00876   0.01139   2.04762
   A10        1.78607  -0.00008   0.00210   0.00630   0.00825   1.79432
   A11        2.06916  -0.00011   0.00254  -0.00998  -0.00749   2.06167
   A12        2.02726  -0.00045  -0.00278  -0.00378  -0.00633   2.02094
   A13        1.62735  -0.00010   0.00200  -0.00236  -0.00060   1.62675
   A14        1.99301   0.00113   0.00490   0.01544   0.02054   2.01355
   A15        1.98191  -0.00093  -0.00268  -0.01482  -0.01749   1.96443
   A16        1.94596  -0.00043  -0.00727   0.00354  -0.00377   1.94219
   A17        2.02264   0.00036   0.00390  -0.00292   0.00106   2.02370
   A18        1.88655   0.00000  -0.00055   0.00135   0.00085   1.88740
   A19        1.69165  -0.00020  -0.00018  -0.00812  -0.00829   1.68336
   A20        1.80446   0.00015  -0.00246  -0.00367  -0.00626   1.79819
   A21        2.03637   0.00033   0.00230   0.00891   0.01113   2.04750
   A22        1.78468   0.00040   0.00137   0.01366   0.01487   1.79955
   A23        2.07242  -0.00027   0.00208  -0.01204  -0.00986   2.06256
   A24        2.02338  -0.00034  -0.00310   0.00112  -0.00177   2.02161
   A25        1.62766  -0.00034   0.00192  -0.00302  -0.00145   1.62621
   A26        1.97821  -0.00054  -0.00193  -0.01499  -0.01691   1.96131
   A27        1.99928   0.00054   0.00470   0.00864   0.01361   2.01289
   A28        2.01846   0.00095   0.00336   0.00380   0.00730   2.02576
   A29        1.94658  -0.00048  -0.00714   0.00557  -0.00157   1.94501
   A30        1.88730  -0.00011  -0.00058   0.00028  -0.00034   1.88696
   A31        1.80841  -0.00032  -0.00173  -0.01239  -0.01434   1.79406
   A32        1.78672  -0.00014   0.00273   0.00413   0.00675   1.79346
   A33        2.02633  -0.00032  -0.00284  -0.00344  -0.00608   2.02025
   A34        1.68512   0.00088  -0.00383   0.01631   0.01254   1.69766
   A35        2.03623   0.00027   0.00261   0.00874   0.01141   2.04765
   A36        2.06966  -0.00025   0.00265  -0.01138  -0.00881   2.06085
   A37        1.62795  -0.00042   0.00231  -0.00371  -0.00164   1.62631
   A38        1.98991   0.00132   0.00463   0.01897   0.02381   2.01373
   A39        1.98162  -0.00076  -0.00232  -0.01492  -0.01726   1.96436
   A40        1.94534  -0.00017  -0.00742   0.00448  -0.00298   1.94235
   A41        2.02400   0.00028   0.00375  -0.00371   0.00007   2.02407
   A42        1.88824  -0.00019  -0.00061  -0.00046  -0.00102   1.88721
   A43        1.78690   0.00005   0.00137   0.01003   0.01120   1.79810
   A44        1.69310  -0.00028  -0.00079  -0.00754  -0.00829   1.68481
   A45        2.07204  -0.00007   0.00252  -0.01230  -0.00969   2.06235
   A46        1.80404   0.00039  -0.00359  -0.00063  -0.00436   1.79969
   A47        2.02157  -0.00031  -0.00247   0.00156  -0.00071   2.02087
   A48        2.03596   0.00027   0.00263   0.00883   0.01135   2.04731
    D1        1.17679  -0.00025  -0.00415  -0.01375  -0.01794   1.15885
    D2       -0.64590  -0.00032  -0.00520  -0.02120  -0.02624  -0.67215
    D3       -2.89561   0.00009  -0.00132  -0.01533  -0.01653  -2.91214
    D4       -0.88280  -0.00063  -0.00807  -0.02404  -0.03214  -0.91494
    D5       -2.70550  -0.00070  -0.00912  -0.03150  -0.04045  -2.74594
    D6        1.32798  -0.00028  -0.00523  -0.02562  -0.03073   1.29725
    D7       -3.04834  -0.00080  -0.00390  -0.03156  -0.03556  -3.08390
    D8        1.41215  -0.00087  -0.00495  -0.03901  -0.04386   1.36829
    D9       -0.83756  -0.00045  -0.00107  -0.03313  -0.03415  -0.87171
   D10       -0.70109   0.00031   0.00485   0.02038   0.02546  -0.67563
   D11        1.13833   0.00065   0.00118   0.01964   0.02078   1.15912
   D12       -2.95202   0.00074   0.00519   0.01835   0.02362  -2.92839
   D13        1.31278  -0.00016  -0.00125   0.02800   0.02691   1.33969
   D14       -3.13098   0.00018  -0.00492   0.02726   0.02224  -3.10875
   D15       -0.93815   0.00026  -0.00091   0.02597   0.02508  -0.91307
   D16       -2.79329  -0.00024  -0.00008   0.02497   0.02507  -2.76821
   D17       -0.95386   0.00010  -0.00376   0.02423   0.02040  -0.93347
   D18        1.23897   0.00019   0.00026   0.02294   0.02324   1.26221
   D19       -1.14200  -0.00002  -0.00257  -0.00664  -0.00917  -1.15116
   D20        3.12836   0.00021   0.00326  -0.01365  -0.01033   3.11803
   D21        0.95443   0.00004   0.00213  -0.01593  -0.01372   0.94071
   D22        0.69834   0.00015  -0.00533  -0.01205  -0.01757   0.68077
   D23       -1.31449   0.00038   0.00050  -0.01906  -0.01874  -1.33323
   D24        2.79477   0.00021  -0.00063  -0.02134  -0.02213   2.77264
   D25        2.95413  -0.00061  -0.00544  -0.01886  -0.02430   2.92983
   D26        0.94130  -0.00038   0.00039  -0.02587  -0.02546   0.91583
   D27       -1.23263  -0.00055  -0.00074  -0.02815  -0.02885  -1.26148
   D28        1.70794   0.00085   0.00423   0.03531   0.03924   1.74718
   D29       -0.03702   0.00004   0.00795   0.02009   0.02790  -0.00912
   D30       -2.31919   0.00072   0.00416   0.03413   0.03823  -2.28097
   D31       -0.03842   0.00030   0.00672   0.02656   0.03311  -0.00531
   D32       -1.78338  -0.00051   0.01044   0.01134   0.02178  -1.76160
   D33        2.21763   0.00017   0.00665   0.02537   0.03210   2.24974
   D34       -2.32005   0.00083   0.00354   0.03717   0.04062  -2.27943
   D35        2.21818   0.00002   0.00726   0.02195   0.02928   2.24746
   D36       -0.06400   0.00070   0.00347   0.03598   0.03961  -0.02439
   D37       -1.17277  -0.00060   0.00536   0.00005   0.00548  -1.16729
   D38        0.64936  -0.00021   0.00628   0.01138   0.01758   0.66693
   D39        2.89225  -0.00030   0.00176   0.01609   0.01784   2.91009
   D40        0.87987   0.00048   0.00991   0.01699   0.02692   0.90679
   D41        2.70200   0.00088   0.01083   0.02833   0.03902   2.74102
   D42       -1.33830   0.00079   0.00631   0.03303   0.03928  -1.29901
   D43        3.04760   0.00041   0.00613   0.01952   0.02571   3.07332
   D44       -1.41346   0.00080   0.00705   0.03085   0.03781  -1.37564
   D45        0.82943   0.00071   0.00253   0.03556   0.03808   0.86751
[...]
 ,-0.10003732,0.01791189,-0.01802259,-0.04398998,-0.00120502,-0.0127586
 3,-0.00414059,0.00089001,0.00517360,-0.07503112,-0.00308237,-0.0124681
 6,-0.00414630,-0.02280029,-0.01111402,-0.04402907,-0.03459694,0.017220
 94,-0.10002345,0.02047062,0.12283257,0.63787999,-0.25351302,0.05795445
 ,-0.08688897,-0.00682755,0.00177368,-0.00168953,-0.00037210,0.00153163
 ,-0.00056935,0.00038334,0.00041736,0.00012834,0.00026754,0.00014754,-0
 .00016943,-0.00016855,0.00021518,-0.00053143,-0.00445339,-0.00111878,0
 .00264512,-0.01475413,0.00569584,-0.01127346,0.27535697,0.06206894,-0.
 06510006,0.02960567,-0.01806171,0.00267562,-0.00598305,-0.00240164,-0.
 00155200,-0.00198723,0.00028236,0.00029637,0.00002173,-0.00043529,0.00
 044072,-0.00007112,-0.00161250,-0.00259220,-0.00218987,0.00095665,-0.0
 0095318,-0.00037468,-0.00085498,-0.00116590,-0.00061350,-0.06489160,0.
 07499692,-0.08786404,0.02795417,-0.08465382,-0.02042473,0.00517053,-0.
 00731399,-0.00072375,0.00280982,-0.00007406,-0.00051936,-0.00059021,0.
 00014062,-0.00089524,0.00020520,-0.00027876,-0.00025147,-0.00312900,-0
 .00207577,0.00439457,0.00048903,-0.00299690,0.01844751,-0.00685555,0.0
 1091826,0.09766523,-0.02887480,0.08720242,-0.04821279,-0.00993232,0.00
 079229,-0.00115778,-0.00552750,0.00422167,-0.00137060,-0.00009748,-0.0
 0051032,-0.00278444,-0.00070603,0.00223800,0.00033003,-0.00046179,0.00
 012357,0.00052157,0.00023289,-0.00006133,-0.00171748,-0.00196076,0.002
 06034,-0.00345947,-0.01935377,0.00616225,0.00191925,0.02555341,-0.0105
 7965,0.05645321,-0.01407398,-0.27094095,0.09117177,0.00090175,-0.01473
 931,0.01036708,-0.00217358,-0.00399115,-0.00263082,0.00111085,0.000004
 77,-0.00020468,0.00012590,0.00037241,0.00013995,0.00036809,0.00015606,
 -0.00011180,0.00201339,-0.00023726,-0.00010817,0.00057782,-0.00080012,
 -0.00035204,-0.00040589,-0.00689830,0.00318246,0.01192892,0.29455166,0
 .00267002,0.09155107,-0.08408796,0.00035144,-0.01976466,0.01090947,-0.
 00191093,-0.00399086,-0.00303013,0.00303487,-0.00079519,-0.00205799,0.
 00010448,0.00091200,-0.00027420,0.00073188,0.00029709,0.00014518,-0.00
 241775,0.00160615,-0.00007387,0.00186920,0.02092990,-0.00721707,0.0005
 0524,0.01113894,-0.00450323,-0.00500730,-0.10105323,0.08655305,0.00633
 300,0.00159337,-0.01058870,-0.09907199,0.00866495,0.10626639,0.0013841
 7,-0.00174107,-0.00405634,-0.00042403,-0.00018067,-0.00121467,-0.00242
 765,0.00140833,0.00053957,-0.00522738,0.00061911,0.02247570,-0.0027034
 2,-0.00058124,0.00039379,-0.00097083,-0.00101793,-0.00268976,0.0000269
 0,0.00039268,0.00021946,0.00032111,0.00030480,0.00074959,0.10054003,0.
 01238679,0.00087809,-0.01800882,0.00867060,-0.04734365,-0.01728570,-0.
 01262705,0.00572797,0.02057795,0.00053774,-0.00445615,0.00466567,0.000
 21454,-0.00033123,0.00033149,0.00070361,-0.00124714,-0.00383386,0.0006
 2173,-0.00005183,-0.00049012,-0.00174271,-0.00387380,-0.00401055,-0.00
 038127,0.00026368,0.00010632,0.00031889,0.00064691,0.00112909,-0.00889
 757,0.04732891,0.00730121,0.00261627,-0.00965819,0.10489910,-0.0170528
 4,-0.26783364,0.00596394,-0.00478625,-0.00955783,-0.00062780,0.0014482
 3,-0.00309940,-0.00107310,0.00017969,-0.00004798,-0.00321279,0.0005254
 1,0.00481309,-0.00106970,0.00018308,-0.00005128,-0.00107749,-0.0011645
 6,-0.00313473,-0.00031087,0.00004753,-0.00023148,-0.00005692,-0.000359
 68,0.00073602,-0.11347362,0.01844659,0.28716980,-0.00094818,-0.0009721
 6,0.00038277,-0.00120063,0.00077168,0.00055848,-0.06494172,-0.06179921
 ,-0.02970490,0.00267726,0.01811976,0.00605767,-0.00156601,0.00241170,0
 .00199172,0.00029473,-0.00028093,-0.00002238,0.00043996,0.00043859,0.0
 0007466,-0.00261227,0.00160696,0.00218948,0.00083086,-0.00012970,0.000
 69354,0.00078978,-0.00041921,-0.00013305,0.00016193,-0.00014853,0.0000
 6305,0.07488809,0.00111047,-0.00445776,0.00264621,-0.00567085,-0.01475
 287,-0.01134636,-0.05767536,-0.25305951,-0.08739824,-0.00175933,-0.006
 80057,-0.00170272,-0.00152738,-0.00037154,-0.00057940,-0.00042069,0.00
 038586,0.00012670,-0.00014766,0.00026975,-0.00016947,-0.00021717,-0.00
 016790,-0.00053211,0.00005358,0.00023767,0.00015411,-0.00020606,-0.000
 99815,-0.00122879,-0.00013773,0.00081151,0.00035893,0.06457351,0.27482
 907,-0.00047775,0.00438833,-0.00298571,0.00680886,0.01838881,0.0109623
 3,-0.02803902,-0.08838487,-0.08521253,-0.00514044,-0.02035141,-0.00735
 499,-0.00282206,-0.00071742,-0.00008065,0.00059089,-0.00052106,0.00014
 318,-0.00020186,-0.00089142,-0.00028073,0.00312507,-0.00023907,-0.0020
 5780,0.00033509,0.00004371,-0.00018708,0.00027768,0.00118753,0.0014575
 1,0.00033366,-0.00131288,0.00073017,0.02901226,0.09824462,0.08780661,-
 0.00022933,-0.00199091,0.00010529,-0.00069693,-0.00059103,0.00038411,-
 0.27021833,0.01440454,-0.09192355,-0.01478212,-0.00087226,-0.01047018,
 -0.00402467,0.00217734,0.00263127,0.00000204,-0.00112602,0.00021486,0.
 00037679,-0.00012450,-0.00013665,0.00015638,-0.00036897,0.00011157,0.0
 0159389,-0.00084215,0.00077982,0.00078877,-0.00024814,0.00030135,0.000
 04937,0.00045838,-0.00030585,-0.00686302,0.00041666,-0.00320015,0.2937
 7287,0.00194840,-0.00169054,0.00205598,0.01937659,-0.00348135,0.006247
 85,0.01029507,-0.04825130,0.00098301,0.00548328,-0.00116963,0.00422816
 ,0.00009141,-0.00136895,-0.00050755,0.00069763,-0.00279619,0.00224012,
 0.00046373,0.00033051,0.00012690,-0.00023155,0.00051900,-0.00006095,-0
 .00059478,-0.00249394,0.00040502,-0.00006684,0.00028143,-0.00014899,-0
 .00031886,0.00024208,0.00006053,-0.02548304,0.00195927,-0.01066909,-0.
 01230910,0.05645046,-0.00159723,-0.00242581,-0.00007873,-0.02086365,0.
 00187839,-0.00728360,-0.09231789,0.00287052,-0.08483149,0.01967854,0.0
 0030852,0.01095690,0.00398650,-0.00190036,-0.00300686,0.00080360,0.003
 03155,-0.00204181,-0.00090973,0.00010495,-0.00027882,-0.00029718,0.000
 73009,0.00014473,0.00059826,-0.00066444,0.00146527,0.00060418,-0.00037
 127,-0.00018923,0.00017042,-0.00016918,-0.00023217,-0.01119887,0.00052
 733,-0.00458102,0.10189083,-0.00519402,0.08736004,-0.00005348,-0.00061
 876,0.00048956,-0.00389353,0.00174018,0.00401022,0.00081062,-0.0124480
 9,0.01802665,-0.04748750,-0.00914015,0.01818466,0.00579674,0.01264116,
 -0.02049393,-0.00443044,-0.00052687,-0.00467288,-0.00032856,-0.0002103
 7,-0.00033269,-0.00126077,-0.00069580,0.00381173,-0.00007572,-0.000009
 87,0.00010527,-0.00025850,-0.00018267,0.00014752,0.00035803,-0.0015932
 8,0.00102915,0.00026352,0.00038246,-0.00010290,0.00065084,-0.00031701,
 -0.00113069,0.04748128,0.00058084,-0.00270214,0.00039171,0.00102633,-0
 .00096579,-0.00268269,-0.00154456,0.00634376,-0.01056993,-0.00913787,-
 0.09945558,0.10652511,0.00174876,0.00137758,-0.00402623,0.00018882,-0.
 00042012,-0.00120874,-0.00140921,-0.00242725,0.00052917,-0.00071141,-0
 .00525791,0.02245059,-0.00024666,0.00007073,0.00012357,-0.00074556,-0.
 00012812,0.00082043,0.00001444,0.00090752,-0.00024444,-0.00039297,0.00
 002685,0.00021782,-0.00030894,0.00032034,0.00074791,0.00940179,0.10094
 706,-0.00018176,-0.00107731,-0.00005123,0.00116310,-0.00106771,-0.0031
 2084,-0.00257644,0.00728193,-0.00960284,0.01794958,0.10515141,-0.26728
 743,0.00485471,0.00603371,-0.00961813,-0.00145291,-0.00062550,-0.00312
 615,-0.00018283,-0.00107792,-0.00005119,-0.00055237,-0.00323305,0.0048
 5991,0.00004794,0.00003599,0.00007652,-0.00018934,-0.00002374,0.000237
 84,0.00010709,0.00105857,-0.00034097,-0.00004605,-0.00030857,-0.000232
 70,0.00035861,-0.00005933,0.00073495,-0.01942441,-0.11375721,0.2865854
 6,0.00033107,-0.00045943,-0.00012476,0.00052091,0.00023175,0.00006293,
 -0.00170762,-0.00194121,-0.00207151,-0.00345208,-0.01927271,-0.0062612
 3,-0.04824105,-0.00992561,-0.00085415,-0.00114948,-0.00555942,-0.00428
 689,-0.00138046,-0.00010706,0.00051614,-0.00277410,-0.00069583,-0.0022
 4294,-0.00001532,0.00002686,-0.00003560,-0.00013300,0.00004884,0.00038
 923,-0.00002481,-0.00002744,0.00004983,-0.00250544,0.00059423,-0.00042
 169,0.00027914,0.00006299,0.00015126,0.00024178,0.00031809,-0.00005804
 ,0.05643504,0.00012507,0.00037924,-0.00013563,0.00037099,0.00015561,0.
 00011357,0.00199399,-0.00022765,0.00011277,0.00059553,-0.00066216,0.00
 039905,-0.01404695,-0.26985900,-0.09229675,0.00091280,-0.01480223,-0.0
 1051025,-0.00219021,-0.00404328,0.00261959,0.00113098,-0.00000065,0.00
 022242,-0.00025938,0.00006575,0.00004624,0.00005163,0.00018193,-0.0000
 2278,-0.00026439,0.00002001,0.00003366,0.00084461,0.00159601,0.0007848
 6,0.00024766,0.00078903,0.00030524,-0.00045751,0.00004994,-0.00030724,
 0.01189297,0.29338818,-0.00010176,-0.00091078,-0.00028145,-0.00072756,
 -0.00029534,0.00014136,0.00242486,-0.00160967,-0.00008242,-0.00186648,
 -0.02092879,-0.00734963,-0.00275381,-0.09267204,-0.08517688,-0.0003529
 7,0.01961016,0.01095101,0.00190209,0.00398342,-0.00298370,-0.00303174,
 0.00080333,-0.00206143,0.00003126,-0.00004865,-0.00002412,-0.00039036,
 0.00002209,0.00030323,0.00015074,0.00005843,0.00007650,0.00065283,0.00
 060106,0.00147149,0.00037439,0.00060717,-0.00018514,0.00017058,0.00017
 218,-0.00023188,0.00509531,0.10228847,0.08776249,0.00026601,0.00014801
 ,0.00017254,-0.00017182,0.00020424,0.00054070,-0.00443568,-0.00110074,
 -0.00265512,-0.01473473,0.00562594,0.01124972,-0.25373432,0.05765367,0
 .08680903,-0.00689255,0.00177926,0.00170670,-0.00037850,0.00154082,0.0
 0058354,0.00038388,0.00042025,-0.00012528,0.00017901,-0.00005861,-0.00
 010788,-0.00001493,-0.00025911,-0.00003261,-0.00042915,-0.00012210,-0.
 00008392,0.00023805,-0.00005501,-0.00015290,-0.00099971,0.00020279,0.0
 0122017,0.00080836,0.00013674,-0.00035819,0.00192301,-0.00040557,-0.00
 050386,0.27559816,-0.00044072,0.00043958,0.00007336,-0.00161459,-0.002
 62186,0.00218051,0.00098134,-0.00095060,0.00038845,-0.00073969,-0.0012
 1061,0.00053176,0.06179901,-0.06485897,-0.02943768,-0.01817313,0.00267
 155,0.00599735,-0.00243041,-0.00158152,0.00198470,0.00027971,0.0002931
 3,-0.00002080,-0.00005833,-0.00012992,-0.00037691,0.00002624,0.0000666
 2,0.00004950,-0.00068705,0.00004588,-0.00017014,0.00012951,0.00083021,
 0.00069693,0.00042301,0.00079095,-0.00013223,0.00014584,0.00016129,0.0
 0006268,0.02550426,-0.00683736,-0.01109448,-0.06454802,0.07483598,0.00
 089236,-0.00020013,-0.00027591,0.00024430,0.00312311,-0.00204573,-0.00
 439195,-0.00047722,-0.00301320,-0.01849889,0.00681106,0.01094246,0.087
 80702,-0.02778402,-0.08460981,0.02032052,-0.00511259,-0.00726075,0.000
 71563,-0.00282209,-0.00007936,0.00052200,0.00059319,0.00014583,0.00010
 674,0.00037386,0.00030305,0.00003600,-0.00004630,-0.00002455,0.0008230
 8,-0.00013181,0.00023575,-0.00004162,0.00033770,-0.00018591,-0.0011971
 0,0.00027795,0.00145836,0.00131378,0.00033295,0.00073519,0.01073601,-0
 .00320510,-0.00456374,-0.09758472,0.02874324,0.08711673,-0.00243039,0.
 00141041,-0.00053731,-0.00517839,0.00075300,-0.02249170,-0.00270580,-0
 .00057721,-0.00040411,-0.00098145,-0.00103554,0.00269035,0.00632875,0.
 00153817,0.01063791,-0.09857322,0.00925012,-0.10580706,0.00138836,-0.0
 0177823,0.00407257,-0.00042905,-0.00018455,0.00122107,-0.00042684,-0.0
 0068404,-0.00082823,-0.00002421,-0.00026335,-0.00015265,0.00125170,-0.
 00015156,0.00090944,0.00007142,0.00024657,-0.00012323,-0.00012398,0.00
 074860,-0.00082024,0.00091076,-0.00001525,0.00024978,0.00032345,0.0003
 0870,-0.00074922,0.00002651,0.00039320,-0.00021581,0.09999915,0.000209
 87,-0.00032761,-0.00033234,0.00067498,-0.00126569,0.00380091,0.0006144
 0,-0.00005374,0.00049177,-0.00175885,-0.00390208,0.00400186,0.01238866
 ,0.00078556,0.01809631,0.00924781,-0.04754776,0.01860926,-0.01254654,0
 .00582360,-0.02051631,0.00054624,-0.00441845,-0.00467320,-0.00012304,0
 .00004411,0.00013028,-0.00002708,0.00002037,-0.00005877,-0.00014600,0.
 00040162,-0.00015465,0.00000946,-0.00007603,0.00010502,0.00018188,-0.0
 0025874,0.00014745,0.00159093,0.00035571,0.00103653,0.00032167,0.00065
 281,-0.00112990,-0.00038265,0.00026372,-0.00010342,-0.00952144,0.04754
 247,0.00106853,-0.00017713,-0.00004984,0.00319200,-0.00055958,0.004782
 87,0.00106685,-0.00018497,-0.00004795,0.00107348,0.00115679,-0.0030941
 6,-0.00719239,-0.00255441,-0.00955823,-0.10442983,0.01837437,-0.268113
 46,-0.00601158,0.00487668,-0.00965369,0.00063846,-0.00145623,-0.003129
 62,0.00008130,0.00016759,0.00023538,-0.00005012,-0.00003480,0.00007534
 ,-0.00090820,0.00015381,0.00046138,-0.00003584,0.00004882,0.00007602,0
 .00002228,-0.00018714,0.00023409,-0.00105013,0.00010807,-0.00034195,0.
 00005815,0.00035968,0.00073098,0.00030887,-0.00004345,-0.00023276,0.11
 296067,-0.01988307,0.28746934,-0.00157435,0.00242383,-0.00198228,0.000
 29465,-0.00028101,0.00002035,0.00044003,0.00043716,-0.00006979,-0.0026
 0110,0.00161920,-0.00217992,-0.00095426,-0.00096500,-0.00038051,-0.001
 17821,0.00082261,-0.00058572,-0.06502010,-0.06207690,0.02933412,0.0026
 6902,0.01811017,-0.00592124,0.00023781,0.00013122,0.00004330,-0.002511
 02,0.00085124,-0.00065706,0.00007094,0.00000950,0.00003598,-0.00012987
 ,0.00005749,0.00037489,0.00006613,-0.00002661,-0.00004897,0.00004471,0
 .00068389,0.00017064,0.00079300,-0.00041925,0.00012821,0.00083613,-0.0
 0013009,-0.00069428,0.00016338,-0.00015137,-0.00006507,0.07496617,-0.0
 0154657,-0.00037948,0.00057449,-0.00041735,0.00038160,-0.00012691,-0.0
 0014808,0.00026386,0.00017259,-0.00020173,-0.00017229,0.00054087,0.001
 10973,-0.00442755,-0.00265323,-0.00565108,-0.01472472,0.01117709,-0.05
 793626,-0.25415838,0.08626244,-0.00179406,-0.00692266,0.00169452,-0.00
 005569,0.00083748,-0.00033237,0.00059125,0.00160733,-0.00059968,0.0002
 4611,-0.00007485,-0.00004903,0.00005951,0.00017905,-0.00010768,0.00025
 907,-0.00001547,-0.00003156,0.00012223,-0.00043001,-0.00008447,-0.0002
 0706,-0.00100069,0.00121523,0.00005695,0.00023814,-0.00015227,-0.00013
 468,0.00080723,-0.00035863,0.06487172,0.27608049,0.00281107,0.00072309
 ,-0.00007321,-0.00059262,0.00052037,0.00014334,0.00020359,0.00089639,-
 0.00027412,-0.00312712,0.00025627,-0.00206373,0.00048875,-0.00439784,-
 0.00302495,-0.00686006,-0.01855056,0.01089892,0.02769189,0.08724371,-0
 .08403899,0.00514308,0.02039357,-0.00721911,0.00015369,-0.00069119,-0.
 00019129,0.00041834,-0.00078269,0.00146410,0.00012455,-0.00010586,0.00
 007557,-0.00037579,0.00010706,0.00030310,0.00004723,0.00003569,-0.0000
 2419,0.00013116,0.00082446,0.00023811,-0.00028164,-0.00120381,0.001458
 15,-0.00033456,-0.00004139,-0.00019006,-0.00033576,0.00131397,0.000735
 81,-0.02860245,-0.09697092,0.08649982,-0.00401348,0.00218675,-0.002620
 02,0.00000214,-0.00111654,-0.00021331,0.00037498,-0.00012624,0.0001388
 0,0.00015526,-0.00036971,-0.00011388,-0.00023531,-0.00201289,-0.000115
 90,-0.00076164,-0.00058332,-0.00036756,-0.27060309,0.01374033,0.091556
 21,-0.01476373,-0.00093964,0.01040618,-0.00100008,0.00041592,0.0011945
 9,0.00027935,0.00025099,-0.00037218,-0.00012665,0.00018253,-0.00002240
 ,0.00006630,0.00025941,-0.00004538,0.00018190,-0.00004994,0.00002203,0
 .00002042,0.00026380,-0.00003355,0.00079461,-0.00024994,-0.00030263,0.
 00160746,-0.00085099,-0.00078748,0.00004923,0.00045591,0.00030900,-0.0
 0687695,0.00039454,0.00318972,0.29420013,0.00011301,-0.00138302,0.0005
 1936,0.00070493,-0.00276290,-0.00224118,0.00045789,0.00033065,-0.00012
 143,-0.00023319,0.00052330,0.00006311,0.00195205,-0.00172733,-0.002073
 63,0.01925286,-0.00343184,-0.00617714,0.00959207,-0.04820790,-0.000675
 93,0.00560727,-0.00113753,-0.00428169,0.00021043,0.00079252,-0.0002816
 7,0.00006399,0.00079511,-0.00060155,0.00074223,-0.00025846,0.00018588,
 -0.00002651,-0.00001484,-0.00003591,-0.00005054,-0.00013306,0.00038864
 ,0.00002731,-0.00002511,0.00004969,-0.00006075,0.00027718,0.00015220,-
 0.00059080,-0.00251790,-0.00043394,-0.00031723,0.00024085,-0.00005855,
 -0.02557498,0.00188433,0.01064718,-0.01154628,0.05643173,-0.00398831,0
 .00191275,-0.00300655,-0.00079418,-0.00303563,-0.00207743,0.00091305,-
 0.00010133,-0.00027672,0.00029535,-0.00072921,0.00014171,0.00161676,0.
 00241595,-0.00007711,0.02099603,-0.00185829,-0.00728351,0.09192037,-0.
 00256435,-0.08443025,-0.01970050,-0.00039275,0.01090403,-0.00122435,0.
 00012882,0.00145766,-0.00015000,-0.00029921,-0.00019172,0.00082420,-0.
 00015001,0.00023649,0.00004914,0.00003225,-0.00002447,-0.00002299,-0.0
 0039101,0.00030324,-0.00005854,0.00015167,0.00007639,-0.00060418,0.000
 37498,-0.00018771,-0.00060235,0.00064450,0.00146931,-0.00017139,0.0001
 7261,-0.00023151,0.01103488,-0.00048166,-0.00448573,-0.10146161,0.0049
 2075,0.08695153,0.00575372,0.01253417,0.02060266,-0.00444379,-0.000557
 27,0.00466641,-0.00033050,-0.00021369,0.00033137,-0.00125277,-0.000681
 79,-0.00382213,-0.00005211,-0.00061751,-0.00049247,-0.00388186,0.00176
 137,-0.00400265,0.00085189,-0.01232894,-0.01807934,-0.04739831,-0.0087
 8875,-0.01771873,0.00081113,0.00015404,-0.00131334,0.00024115,-0.00045
 664,-0.00017128,0.00090873,0.00158719,0.00106276,0.00004525,0.00012283
 ,-0.00013102,0.00001997,0.00002724,0.00005864,0.00040143,0.00014892,0.
 00015442,-0.00025864,-0.00018172,-0.00014990,-0.00007519,-0.00000909,-
 0.00010558,0.00036061,-0.00158485,-0.00103645,0.00026389,0.00038145,0.
 00010695,0.00064915,-0.00032377,0.00112863,0.04738625,0.00177039,0.001
 39574,0.00410182,0.00017657,-0.00043294,0.00122666,-0.00141015,-0.0024
 3014,-0.00054729,-0.00066029,-0.00514310,-0.02251200,0.00057859,-0.002
 70686,-0.00040590,0.00102684,-0.00098668,0.00269742,-0.00158686,0.0063
 1930,0.01065665,-0.00878716,-0.09821496,-0.10555940,0.00013574,0.00016
 392,-0.00033627,0.00031797,0.00004876,-0.00016967,-0.00001351,0.000362
 95,-0.00010422,0.00068697,-0.00042608,-0.00082683,0.00026402,-0.000023
 89,-0.00015172,0.00014849,0.00125126,0.00091154,-0.00074515,-0.0001226
 9,-0.00082409,-0.00024606,0.00007168,-0.00012416,0.00001430,0.00091204
 ,0.00025214,-0.00039281,0.00002661,-0.00021749,-0.00030470,0.00032422,
 -0.00075083,0.00902681,0.09961084,-0.00480825,-0.00594384,-0.00959691,
 0.00145176,0.00064110,-0.00310319,0.00017443,0.00106372,-0.00004682,0.
 00053318,0.00317253,0.00473776,0.00018587,0.00105956,-0.00004808,-0.00
 115803,0.00108364,-0.00310817,0.00259418,-0.00721263,-0.00961489,-0.01
 748415,-0.10418280,-0.26863516,0.00035920,-0.00006532,0.00073132,0.000
 06099,0.00030754,-0.00023178,-0.00024693,-0.00102914,-0.00034710,-0.00
 016711,0.00008086,0.00023317,0.00003488,-0.00005031,0.00007548,-0.0001
 5411,-0.00090640,0.00046094,0.00018377,0.00002104,0.00023289,-0.000049
 88,-0.00003589,0.00007510,-0.00010509,-0.00105431,-0.00034803,0.000044
 90,0.00031118,-0.00023154,-0.00036063,0.00005582,0.00073236,0.01891102
 ,0.11268364,0.28803267\\0.00007771,-0.00014837,-0.00001526,-0.00005294
 ,0.00008044,-0.00003617,0.00000625,0.00005140,0.00005406,0.00004639,0.
 00003152,0.00000290,-0.00004166,-0.00005957,-0.00005597,-0.00000980,-0
 .00005969,0.00003408,0.00001587,0.00012713,0.00003282,-0.00010021,0.00
 000012,-0.00001512,0.00001898,-0.00000541,0.00002032,0.00000850,-0.000
 02594,-0.00002265,0.00000888,-0.00000956,-0.00001359,0.00001690,0.0000
 2569,-0.00002941,0.00002535,0.00001055,0.00002393,-0.00001121,-0.00000
 281,0.00000346,-0.00000521,-0.00002055,-0.00000153,0.00001281,-0.00003
 666,0.00000462,-0.00001060,0.00001030,0.00000221,-0.00001807,0.0000024
 4,-0.00000096,0.00000777,0.00002157,0.00000278,0.00000428,0.00000740,0
 .00000948\\\@


 FROM WHENCE IT HAPPENS, THAT THEY WHICH TRUST TO BOOKS, DO AS THEY THAT CAST UP MANY LITTLE SUMMS INTO GREATER,
 WITHOUT CONSIDERING WETHER THOSE LITTLE SUMMES WERE RIGHTLY CAST UP OR NOT...
 AND AT LAST FINDING THE ERROUR VISIBLE, AND NOT MISTRUSTING THEIR FIRST GROUNDS,
 KNOW NOT WHICH WAY TO CLEERE THEMSELVES...
 BUT SPEND TIME IN FLUTTERING OVER THEIR BOOKES....
 AS BIRDS THAT ENTERING BY THE CHIMNEY, AND FINDING THEMSELVES INCLOSED IN A CHAMBER,
 FLUTTER AT THE FALSE LIGHT OF A GLASSE WINDOW,
 FOR WANT OF WIT TO CONSIDER WHICH WAY THEY CAME IN....
           LEVIATHAN
 Job cpu time:       0 days  1 hours 53 minutes 40.6 seconds.
 Elapsed time:       0 days  0 hours 28 minutes 26.0 seconds.
 File lengths (MBytes):  RWF=    122 Int=      0 D2E=      0 Chk=      8 Scr=      1
 Normal termination of Gaussian 16 at Sun May 28 09:55:34 2023.
### All Done ###
