### Starting Gaussian ###
 Entering Gaussian System, Link 0=g16
 Initial command:
 /cluster/software/gaussian/gaussian-16-A.03/avx2/g16/l1.exe "/local/scratch/linjian/Gau-5949.inp" -scrdir="/local/scratch/linjian/"
 Entering Link 1 = /cluster/software/gaussian/gaussian-16-A.03/avx2/g16/l1.exe PID=      5950.
  
 Copyright (c) 1988,1990,1992,1993,1995,1998,2003,2009,2016,
            Gaussian, Inc.  All Rights Reserved.
  
 This is part of the Gaussian(R) 16 program.  It is based on
 the Gaussian(R) 09 system (copyright 2009, Gaussian, Inc.),
 the Gaussian(R) 03 system (copyright 2003, Gaussian, Inc.),
 the Gaussian(R) 98 system (copyright 1998, Gaussian, Inc.),
 the Gaussian(R) 94 system (copyright 1995, Gaussian, Inc.),
 the Gaussian 92(TM) system (copyright 1992, Gaussian, Inc.),
 the Gaussian 90(TM) system (copyright 1990, Gaussian, Inc.),
 the Gaussian 88(TM) system (copyright 1988, Gaussian, Inc.),
 the Gaussian 86(TM) system (copyright 1986, Carnegie Mellon
 University), and the Gaussian 82(TM) system (copyright 1983,
 Carnegie Mellon University). Gaussian is a federally registered
 trademark of Gaussian, Inc.
  
 This software contains proprietary and confidential information,
 including trade secrets, belonging to Gaussian, Inc.
  
 This software is provided under written license and may be
 used, copied, transmitted, or stored only in accord with that
 written license.
  
 The following legend is applicable only to US Government
 contracts under FAR:
  
                    RESTRICTED RIGHTS LEGEND
  
 Use, reproduction and disclosure by the US Government is
 subject to restrictions as set forth in subparagraphs (a)
 and (c) of the Commercial Computer Software - Restricted
 Rights clause in FAR 52.227-19.
  
 Gaussian, Inc.
 340 Quinnipiac St., Bldg. 40, Wallingford CT 06492
  
  
 ---------------------------------------------------------------
 Warning -- This program may not be used in any manner that
 competes with the business of Gaussian, Inc. or will provide
 assistance to any competitor of Gaussian, Inc.  The licensee
 of this program is prohibited from giving any competitor of
 Gaussian, Inc. access to this program.  By using this program,
 the user acknowledges that Gaussian, Inc. is engaged in the
 business of creating and licensing software in the field of
 computational chemistry and represents and warrants to the
 licensee that it is not a competitor of Gaussian, Inc. and that
 it will not use this program in any manner prohibited above.
 ---------------------------------------------------------------
  

 Cite this work as:
 Gaussian 16, Revision A.03,
 M. J. Frisch, G. W. Trucks, H. B. Schlegel, G. E. Scuseria, 
 M. A. Robb, J. R. Cheeseman, G. Scalmani, V. Barone, 
 G. A. Petersson, H. Nakatsuji, X. Li, M. Caricato, A. V. Marenich, 
 J. Bloino, B. G. Janesko, R. Gomperts, B. Mennucci, H. P. Hratchian, 
 J. V. Ortiz, A. F. Izmaylov, J. L. Sonnenberg, D. Williams-Young, 
 F. Ding, F. Lipparini, F. Egidi, J. Goings, B. Peng, A. Petrone, 
 T. Henderson, D. Ranasinghe, V. G. Zakrzewski, J. Gao, N. Rega, 
 G. Zheng, W. Liang, M. Hada, M. Ehara, K. Toyota, R. Fukuda, 
 J. Hasegawa, M. Ishida, T. Nakajima, Y. Honda, O. Kitao, H. Nakai, 
 T. Vreven, K. Throssell, J. A. Montgomery, Jr., J. E. Peralta, 
 F. Ogliaro, M. J. Bearpark, J. J. Heyd, E. N. Brothers, K. N. Kudin, 
 V. N. Staroverov, T. A. Keith, R. Kobayashi, J. Normand, 
 K. Raghavachari, A. P. Rendell, J. C. Burant, S. S. Iyengar, 
 J. Tomasi, M. Cossi, J. M. Millam, M. Klene, C. Adamo, R. Cammi, 
 J. W. Ochterski, R. L. Martin, K. Morokuma, O. Farkas, 
 J. B. Foresman, and D. J. Fox, Gaussian, Inc., Wallingford CT, 2016.
 
 ******************************************
 Gaussian 16:  ES64L-G16RevA.03 25-Dec-2016
                27-May-2023 
 ******************************************
 %chk=C1C2C3CC2C13.chk
 %NProcShared=20
 Will use up to   20 processors via shared memory.
 -----------------------------
 # opt freq b3lyp/6-31g(2df,p)
 -----------------------------
 1/18=20,19=15,26=3,38=1/1,3;
 2/9=110,12=2,17=6,18=5,40=1/2;
 3/5=1,6=6,7=104,11=2,25=1,30=1,71=1,74=-5/1,2,3;
 4//1;
 5/5=2,38=5/2;
 6/7=2,8=2,9=2,10=2,28=1/1;
 7//1,2,3,16;
 1/18=20,19=15,26=3/3(2);
 2/9=110/2;
 99//99;
 2/9=110/2;
 3/5=1,6=6,7=104,11=2,25=1,30=1,71=1,74=-5/1,2,3;
 4/5=5,16=3,69=1/1;
 5/5=2,38=5/2;
 7//1,2,3,16;
 1/18=20,19=15,26=3/3(-5);
 2/9=110/2;
 6/7=2,8=2,9=2,10=2,19=2,28=1/1;
 99/9=1/99;
 -------------------
 Title Card Required
 -------------------
 Symbolic Z-matrix:
 Charge =  0 Multiplicity = 1
 C                     0.67226   1.39351  -0.31359 
 C                    -0.31314   0.67056   0.57149 
 C                    -0.71432  -0.13767  -0.65813 
 C                    -0.91985  -1.2769    0.37458 
 C                     0.53424  -0.70788   0.70542 
 C                     0.97541  -0.03229  -0.76622 
 H                     1.4435    1.9856    0.19031 
 H                     0.29687   1.98138  -1.16511 
 H                    -1.08577   1.10224   1.21693 
 H                    -1.46778   0.3267   -1.28532 
 H                    -1.04351  -2.25897  -0.08256 
 H                    -1.58475  -1.18987   1.24423 
 H                     1.05872  -1.64691   0.43182 
 H                     2.03813  -0.14142  -0.47989 
 

 GradGradGradGradGradGradGradGradGradGradGradGradGradGradGradGradGradGrad
 Berny optimization.
 Initialization pass.
                           ----------------------------
                           !    Initial Parameters    !
                           ! (Angstroms and Degrees)  !
 --------------------------                            --------------------------
 ! Name  Definition              Value          Derivative Info.                !
 --------------------------------------------------------------------------------
 ! R1    R(1,2)                  1.509          estimate D2E/DX2                !
 ! R2    R(1,6)                  1.5263         estimate D2E/DX2                !
 ! R3    R(1,7)                  1.0951         estimate D2E/DX2                !
 ! R4    R(1,8)                  1.1007         estimate D2E/DX2                !
 ! R5    R(2,3)                  1.5252         estimate D2E/DX2                !
 ! R6    R(2,5)                  1.6236         estimate D2E/DX2                !
 ! R7    R(2,9)                  1.0954         estimate D2E/DX2                !
 ! R8    R(3,4)                  1.5513         estimate D2E/DX2                !
 ! R9    R(3,6)                  1.6965         estimate D2E/DX2                !
 ! R10   R(3,10)                 1.0848         estimate D2E/DX2                !
 ! R11   R(4,5)                  1.5961         estimate D2E/DX2                !
 ! R12   R(4,11)                 1.0903         estimate D2E/DX2                !
 ! R13   R(4,12)                 1.0982         estimate D2E/DX2                !
 ! R14   R(5,6)                  1.6783         estimate D2E/DX2                !
 ! R15   R(5,13)                 1.1098         estimate D2E/DX2                !
 ! R16   R(6,14)                 1.106          estimate D2E/DX2                !
 ! A1    A(2,1,6)               81.7261         estimate D2E/DX2                !
 ! A2    A(2,1,7)              116.6817         estimate D2E/DX2                !
 ! A3    A(2,1,8)              119.138          estimate D2E/DX2                !
 ! A4    A(6,1,7)              120.1078         estimate D2E/DX2                !
 ! A5    A(6,1,8)              109.7079         estimate D2E/DX2                !
 ! A6    A(7,1,8)              107.9014         estimate D2E/DX2                !
 ! A7    A(1,2,3)               87.2934         estimate D2E/DX2                !
 ! A8    A(1,2,5)               96.5642         estimate D2E/DX2                !
 ! A9    A(1,2,9)              128.1268         estimate D2E/DX2                !
 ! A10   A(3,2,5)               75.7519         estimate D2E/DX2                !
 ! A11   A(3,2,9)              119.8909         estimate D2E/DX2                !
 ! A12   A(5,2,9)              130.8515         estimate D2E/DX2                !
 ! A13   A(2,3,4)               83.5296         estimate D2E/DX2                !
 ! A14   A(2,3,6)               75.9041         estimate D2E/DX2                !
 ! A15   A(2,3,10)             114.9603         estimate D2E/DX2                !
 ! A16   A(4,3,6)              102.7087         estimate D2E/DX2                !
 ! A17   A(4,3,10)             127.3903         estimate D2E/DX2                !
 ! A18   A(6,3,10)             128.9321         estimate D2E/DX2                !
 ! A19   A(3,4,5)               75.8468         estimate D2E/DX2                !
 ! A20   A(3,4,11)             113.4147         estimate D2E/DX2                !
 ! A21   A(3,4,12)             123.3118         estimate D2E/DX2                !
 ! A22   A(5,4,11)             120.7538         estimate D2E/DX2                !
 ! A23   A(5,4,12)             111.0504         estimate D2E/DX2                !
 ! A24   A(11,4,12)            109.5573         estimate D2E/DX2                !
 ! A25   A(2,5,4)               79.0532         estimate D2E/DX2                !
 ! A26   A(2,5,6)               73.9251         estimate D2E/DX2                !
 ! A27   A(2,5,13)             160.8484         estimate D2E/DX2                !
 ! A28   A(4,5,6)              101.6087         estimate D2E/DX2                !
 ! A29   A(4,5,13)              94.4615         estimate D2E/DX2                !
 ! A30   A(6,5,13)              90.0115         estimate D2E/DX2                !
 ! A31   A(1,6,3)               80.8689         estimate D2E/DX2                !
 ! A32   A(1,6,5)               93.6573         estimate D2E/DX2                !
 ! A33   A(1,6,14)             101.902          estimate D2E/DX2                !
 ! A34   A(3,6,5)               69.9589         estimate D2E/DX2                !
 ! A35   A(3,6,14)             159.1346         estimate D2E/DX2                !
 ! A36   A(5,6,14)              89.1894         estimate D2E/DX2                !
 ! D1    D(6,1,2,3)            -45.8388         estimate D2E/DX2                !
 ! D2    D(6,1,2,5)             29.4788         estimate D2E/DX2                !
 ! D3    D(6,1,2,9)           -172.5024         estimate D2E/DX2                !
 ! D4    D(7,1,2,3)           -165.458          estimate D2E/DX2                !
 ! D5    D(7,1,2,5)            -90.1405         estimate D2E/DX2                !
 ! D6    D(7,1,2,9)             67.8783         estimate D2E/DX2                !
 ! D7    D(8,1,2,3)             62.165          estimate D2E/DX2                !
 ! D8    D(8,1,2,5)            137.4826         estimate D2E/DX2                !
 ! D9    D(8,1,2,9)            -64.4987         estimate D2E/DX2                !
 ! D10   D(2,1,6,3)             40.7302         estimate D2E/DX2                !
 ! D11   D(2,1,6,5)            -28.2878         estimate D2E/DX2                !
 ! D12   D(2,1,6,14)          -118.2296         estimate D2E/DX2                !
 ! D13   D(7,1,6,3)            156.8469         estimate D2E/DX2                !
 ! D14   D(7,1,6,5)             87.8289         estimate D2E/DX2                !
 ! D15   D(7,1,6,14)            -2.1129         estimate D2E/DX2                !
 ! D16   D(8,1,6,3)            -77.3405         estimate D2E/DX2                !
 ! D17   D(8,1,6,5)           -146.3585         estimate D2E/DX2                !
 ! D18   D(8,1,6,14)           123.6997         estimate D2E/DX2                !
 ! D19   D(1,2,3,4)            146.0671         estimate D2E/DX2                !
 ! D20   D(1,2,3,6)             41.1894         estimate D2E/DX2                !
 ! D21   D(1,2,3,10)           -85.5214         estimate D2E/DX2                !
 ! D22   D(5,2,3,4)             48.5928         estimate D2E/DX2                !
 ! D23   D(5,2,3,6)            -56.2849         estimate D2E/DX2                !
 ! D24   D(5,2,3,10)           177.0043         estimate D2E/DX2                !
 ! D25   D(9,2,3,4)            -80.6378         estimate D2E/DX2                !
 ! D26   D(9,2,3,6)            174.4845         estimate D2E/DX2                !
 ! D27   D(9,2,3,10)            47.7738         estimate D2E/DX2                !
 ! D28   D(1,2,5,4)           -133.0516         estimate D2E/DX2                !
 ! D29   D(1,2,5,6)            -27.445          estimate D2E/DX2                !
 ! D30   D(1,2,5,13)           -61.4383         estimate D2E/DX2                !
 ! D31   D(3,2,5,4)            -47.5403         estimate D2E/DX2                !
 ! D32   D(3,2,5,6)             58.0663         estimate D2E/DX2                !
 ! D33   D(3,2,5,13)            24.073          estimate D2E/DX2                !
 ! D34   D(9,2,5,4)             69.8572         estimate D2E/DX2                !
 ! D35   D(9,2,5,6)            175.4638         estimate D2E/DX2                !
 ! D36   D(9,2,5,13)           141.4706         estimate D2E/DX2                !
 ! D37   D(2,3,4,5)            -49.6958         estimate D2E/DX2                !
 ! D38   D(2,3,4,11)          -167.4371         estimate D2E/DX2                !
 ! D39   D(2,3,4,12)            56.418          estimate D2E/DX2                !
 ! D40   D(6,3,4,5)             24.2326         estimate D2E/DX2                !
 ! D41   D(6,3,4,11)           -93.5087         estimate D2E/DX2                !
 ! D42   D(6,3,4,12)           130.3464         estimate D2E/DX2                !
 ! D43   D(10,3,4,5)          -166.3018         estimate D2E/DX2                !
 ! D44   D(10,3,4,11)           75.9569         estimate D2E/DX2                !
 ! D45   D(10,3,4,12)          -60.188          estimate D2E/DX2                !
 ! D46   D(2,3,6,1)            -41.1999         estimate D2E/DX2                !
 ! D47   D(2,3,6,5)             56.1197         estimate D2E/DX2                !
 ! D48   D(2,3,6,14)            58.2854         estimate D2E/DX2                !
 ! D49   D(4,3,6,1)           -121.0784         estimate D2E/DX2                !
 ! D50   D(4,3,6,5)            -23.7588         estimate D2E/DX2                !
 ! D51   D(4,3,6,14)           -21.5931         estimate D2E/DX2                !
 ! D52   D(10,3,6,1)            69.6838         estimate D2E/DX2                !
 ! D53   D(10,3,6,5)           167.0034         estimate D2E/DX2                !
 ! D54   D(10,3,6,14)          169.169          estimate D2E/DX2                !
 ! D55   D(3,4,5,2)             46.4701         estimate D2E/DX2                !
 ! D56   D(3,4,5,6)            -24.4038         estimate D2E/DX2                !
 ! D57   D(3,4,5,13)          -115.3339         estimate D2E/DX2                !
 ! D58   D(11,4,5,2)           155.5471         estimate D2E/DX2                !
 ! D59   D(11,4,5,6)            84.6732         estimate D2E/DX2                !
 ! D60   D(11,4,5,13)           -6.2569         estimate D2E/DX2                !
 ! D61   D(12,4,5,2)           -74.1828         estimate D2E/DX2                !
 ! D62   D(12,4,5,6)          -145.0566         estimate D2E/DX2                !
 ! D63   D(12,4,5,13)          124.0132         estimate D2E/DX2                !
 ! D64   D(2,5,6,1)             26.9747         estimate D2E/DX2                !
 ! D65   D(2,5,6,3)            -51.9217         estimate D2E/DX2                !
 ! D66   D(2,5,6,14)           128.8496         estimate D2E/DX2                !
 ! D67   D(4,5,6,1)            101.8483         estimate D2E/DX2                !
 ! D68   D(4,5,6,3)             22.952          estimate D2E/DX2                !
 ! D69   D(4,5,6,14)          -156.2768         estimate D2E/DX2                !
 ! D70   D(13,5,6,1)          -163.5945         estimate D2E/DX2                !
 ! D71   D(13,5,6,3)           117.5092         estimate D2E/DX2                !
 ! D72   D(13,5,6,14)          -61.7196         estimate D2E/DX2                !
 --------------------------------------------------------------------------------
 Trust Radius=3.00D-01 FncErr=1.00D-07 GrdErr=1.00D-06 EigMax=2.50D+02 EigMin=1.00D-04
 Number of steps in this run=    100 maximum allowed number of steps=    100.
 GradGradGradGradGradGradGradGradGradGradGradGradGradGradGradGradGradGrad

                          Input orientation:                          
 ---------------------------------------------------------------------
 Center     Atomic      Atomic             Coordinates (Angstroms)
 Number     Number       Type             X           Y           Z
 ---------------------------------------------------------------------
      1          6           0        0.672260    1.393510   -0.313590
      2          6           0       -0.313140    0.670560    0.571490
      3          6           0       -0.714320   -0.137670   -0.658130
      4          6           0       -0.919850   -1.276900    0.374580
      5          6           0        0.534240   -0.707880    0.705420
      6          6           0        0.975410   -0.032290   -0.766220
      7          1           0        1.443500    1.985600    0.190310
      8          1           0        0.296870    1.981380   -1.165110
      9          1           0       -1.085770    1.102240    1.216930
     10          1           0       -1.467780    0.326700   -1.285320
     11          1           0       -1.043510   -2.258970   -0.082560
     12          1           0       -1.584750   -1.189870    1.244230
     13          1           0        1.058720   -1.646910    0.431820
     14          1           0        2.038130   -0.141420   -0.479890
 ---------------------------------------------------------------------
                    Distance matrix (angstroms):
                    1          2          3          4          5
     1  C    0.000000
     2  C    1.508985   0.000000
     3  C    2.094236   1.525171   0.000000
     4  C    3.184255   2.049261   1.551315   0.000000
     5  C    2.339502   1.623603   1.934764   1.596125   0.000000
     6  C    1.526329   1.985907   1.696460   2.538206   1.678326
     7  H    1.095124   2.227198   3.143933   4.032776   2.889105
     8  H    1.100725   2.259677   2.402063   3.803609   3.284410
     9  H    2.349042   1.095398   2.278421   2.529306   2.482460
    10  H    2.581107   2.213408   1.084762   2.372136   3.006906
    11  H    4.042011   3.089234   2.222512   1.090289   2.348635
    12  H    3.767592   2.351759   2.341740   1.098161   2.238917
    13  H    3.154226   2.696697   2.570888   2.013684   1.109826
    14  H    2.061375   2.700589   2.758218   3.281628   1.996878
                    6          7          8          9         10
     6  C    0.000000
     7  H    2.281652   0.000000
     8  H    2.162035   1.775371   0.000000
     9  H    3.077094   2.869056   2.891141   0.000000
    10  H    2.523394   3.661282   2.422066   2.647385   0.000000
    11  H    3.082456   4.927073   4.577019   3.603914   2.883110
    12  H    3.454898   4.512721   4.404797   2.345953   2.951659
    13  H    2.012272   3.660808   4.036718   3.573942   3.636882
    14  H    1.106014   2.308022   2.829804   3.766250   3.627569
                   11         12         13         14
    11  H    0.000000
    12  H    1.787816   0.000000
    13  H    2.249128   2.803004   0.000000
    14  H    3.760106   4.146938   2.014189   0.000000
 Stoichiometry    C6H8
 Framework group  C1[X(C6H8)]
 Deg. of freedom    36
 Full point group                 C1      NOp   1
 Largest Abelian subgroup         C1      NOp   1
 Largest concise Abelian subgroup C1      NOp   1
                         Standard orientation:                         
 ---------------------------------------------------------------------
 Center     Atomic      Atomic             Coordinates (Angstroms)
 Number     Number       Type             X           Y           Z
 ---------------------------------------------------------------------
      1          6           0        1.556415   -0.216285   -0.096081
      2          6           0        0.225358   -0.670182   -0.643165
      3          6           0       -0.323153   -0.529078    0.772947
      4          6           0       -1.623091   -0.106946    0.039092
      5          6           0       -0.486465    0.789034   -0.633901
      6          6           0        0.673339    0.830030    0.578515
      7          1           0        2.310247    0.090895   -0.828661
      8          1           0        2.057993   -0.827944    0.669352
      9          1           0        0.005557   -1.570918   -1.226484
     10          1           0       -0.177452   -1.395811    1.408757
     11          1           0       -2.367490    0.339679    0.698733
     12          1           0       -2.124578   -0.735335   -0.708969
     13          1           0       -0.904659    1.749210   -0.266630
     14          1           0        1.065967    1.770784    0.149453
 ---------------------------------------------------------------------
 Rotational constants (GHZ):           7.8861460           4.2282415           3.8900974
 Standard basis: 6-31G(2df,p) (6D, 7F)
 There are   226 symmetry adapted cartesian basis functions of A   symmetry.
 There are   208 symmetry adapted basis functions of A   symmetry.
   208 basis functions,   320 primitive gaussians,   226 cartesian basis functions
    22 alpha electrons       22 beta electrons
       nuclear repulsion energy       232.5267292700 Hartrees.
 NAtoms=   14 NActive=   14 NUniq=   14 SFac= 1.00D+00 NAtFMM=   60 NAOKFM=F Big=F
 Integral buffers will be    131072 words long.
 Raffenetti 2 integral format.
 Two-electron integral symmetry is turned on.
 One-electron integrals computed using PRISM.
 PrsmSu:  requested number of processors reduced to:  13 ShMem   1 Linda.
 NBasis=   208 RedAO= T EigKep=  3.77D-04  NBF=   208
 NBsUse=   208 1.00D-06 EigRej= -1.00D+00 NBFU=   208
 ExpMin= 1.61D-01 ExpMax= 3.05D+03 ExpMxC= 4.57D+02 IAcc=3 IRadAn=         5 AccDes= 0.00D+00
 Harris functional with IExCor=  402 and IRadAn=       5 diagonalized for initial guess.
 HarFok:  IExCor=  402 AccDes= 0.00D+00 IRadAn=         5 IDoV= 1 UseB2=F ITyADJ=14
 ICtDFT=  3500011 ScaDFX=  1.000000  1.000000  1.000000  1.000000
 FoFCou: FMM=F IPFlag=           0 FMFlag=      100000 FMFlg1=           0
         NFxFlg=           0 DoJE=T BraDBF=F KetDBF=T FulRan=T
         wScrn=  0.000000 ICntrl=       500 IOpCl=  0 I1Cent=   200000004 NGrid=           0
         NMat0=    1 NMatS0=      1 NMatT0=    0 NMatD0=    1 NMtDS0=    0 NMtDT0=    0
 Petite list used in FoFCou.
 Requested convergence on RMS density matrix=1.00D-08 within 128 cycles.
 Requested convergence on MAX density matrix=1.00D-06.
 Requested convergence on             energy=1.00D-06.
 No special actions if energy rises.
 Integral accuracy reduced to 1.0D-05 until final iterations.
 Initial convergence to 1.0D-05 achieved.  Increase integral accuracy.
 SCF Done:  E(RB3LYP) =  -233.110351614     A.U. after   13 cycles
            NFock= 13  Conv=0.76D-08     -V/T= 2.0082

 **********************************************************************

            Population analysis using the SCF density.

 **********************************************************************

 Orbital symmetries:
       Occupied  (A) (A) (A) (A) (A) (A) (A) (A) (A) (A) (A) (A)
                 (A) (A) (A) (A) (A) (A) (A) (A) (A) (A)
       Virtual   (A) (A) (A) (A) (A) (A) (A) (A) (A) (A) (A) (A)
                 (A) (A) (A) (A) (A) (A) (A) (A) (A) (A) (A) (A)
                 (A) (A) (A) (A) (A) (A) (A) (A) (A) (A) (A) (A)
                 (A) (A) (A) (A) (A) (A) (A) (A) (A) (A) (A) (A)
                 (A) (A) (A) (A) (A) (A) (A) (A) (A) (A) (A) (A)
                 (A) (A) (A) (A) (A) (A) (A) (A) (A) (A) (A) (A)
                 (A) (A) (A) (A) (A) (A) (A) (A) (A) (A) (A) (A)
                 (A) (A) (A) (A) (A) (A) (A) (A) (A) (A) (A) (A)
                 (A) (A) (A) (A) (A) (A) (A) (A) (A) (A) (A) (A)
                 (A) (A) (A) (A) (A) (A) (A) (A) (A) (A) (A) (A)
                 (A) (A) (A) (A) (A) (A) (A) (A) (A) (A) (A) (A)
                 (A) (A) (A) (A) (A) (A) (A) (A) (A) (A) (A) (A)
                 (A) (A) (A) (A) (A) (A) (A) (A) (A) (A) (A) (A)
                 (A) (A) (A) (A) (A) (A) (A) (A) (A) (A) (A) (A)
                 (A) (A) (A) (A) (A) (A) (A) (A) (A) (A) (A) (A)
                 (A) (A) (A) (A) (A) (A)
 The electronic state is 1-A.
 Alpha  occ. eigenvalues --  -10.23372 -10.22925 -10.19624 -10.19219 -10.18000
 Alpha  occ. eigenvalues --  -10.17217  -0.93205  -0.74518  -0.66922  -0.61033
 Alpha  occ. eigenvalues --   -0.59846  -0.50580  -0.50256  -0.45261  -0.42943
 Alpha  occ. eigenvalues --   -0.42168  -0.35506  -0.33136  -0.30950  -0.27452
 Alpha  occ. eigenvalues --   -0.26948  -0.19219
 Alpha virt. eigenvalues --   -0.02630   0.01982   0.10340   0.11786   0.14359
 Alpha virt. eigenvalues --    0.14996   0.15428   0.17563   0.18313   0.19027
 Alpha virt. eigenvalues --    0.19535   0.20082   0.21069   0.23937   0.25776
 Alpha virt. eigenvalues --    0.34818   0.42147   0.44487   0.45717   0.47542
 Alpha virt. eigenvalues --    0.52034   0.53081   0.53761   0.53985   0.55462
 Alpha virt. eigenvalues --    0.59004   0.60922   0.62436   0.63658   0.64375
 Alpha virt. eigenvalues --    0.66086   0.69381   0.71237   0.73171   0.74508
 Alpha virt. eigenvalues --    0.75288   0.77214   0.77881   0.79335   0.81222
 Alpha virt. eigenvalues --    0.84567   0.85861   0.87263   0.92982   0.96207
 Alpha virt. eigenvalues --    1.05368   1.10633   1.11623   1.14077   1.20814
 Alpha virt. eigenvalues --    1.23477   1.24309   1.26675   1.34570   1.34962
 Alpha virt. eigenvalues --    1.37455   1.39826   1.40673   1.45032   1.47129
 Alpha virt. eigenvalues --    1.49195   1.52652   1.53642   1.56452   1.57693
 Alpha virt. eigenvalues --    1.58811   1.66272   1.68050   1.70273   1.76708
 Alpha virt. eigenvalues --    1.77652   1.84031   1.87791   1.89481   1.96282
 Alpha virt. eigenvalues --    1.98711   2.04067   2.05489   2.21000   2.21582
 Alpha virt. eigenvalues --    2.27486   2.28517   2.32991   2.35521   2.39757
 Alpha virt. eigenvalues --    2.42005   2.43674   2.45871   2.52855   2.55065
 Alpha virt. eigenvalues --    2.56853   2.58638   2.66046   2.67506   2.70683
 Alpha virt. eigenvalues --    2.75798   2.80099   2.83200   2.85305   2.86955
 Alpha virt. eigenvalues --    2.92319   2.94055   2.95382   2.97647   3.00800
 Alpha virt. eigenvalues --    3.02157   3.03860   3.06295   3.10338   3.16937
 Alpha virt. eigenvalues --    3.17839   3.19554   3.23390   3.24195   3.25071
 Alpha virt. eigenvalues --    3.28273   3.33635   3.37334   3.39519   3.45028
 Alpha virt. eigenvalues --    3.49364   3.50674   3.59893   3.65288   3.69910
 Alpha virt. eigenvalues --    3.71861   3.73100   3.75909   3.82951   3.85295
 Alpha virt. eigenvalues --    3.87300   3.92019   3.96469   4.00044   4.02948
 Alpha virt. eigenvalues --    4.08797   4.16146   4.17304   4.25383   4.26314
 Alpha virt. eigenvalues --    4.30459   4.36594   4.39445   4.42774   4.44192
 Alpha virt. eigenvalues --    4.47793   4.51188   4.54075   4.57475   4.58468
 Alpha virt. eigenvalues --    4.62117   4.63222   4.64580   4.67082   4.70326
 Alpha virt. eigenvalues --    4.72661   4.73242   4.77043   4.79349   4.82166
 Alpha virt. eigenvalues --    4.86787   4.91610   4.92403   4.95370   4.99435
 Alpha virt. eigenvalues --    5.09448   5.10067   5.13422   5.17958   5.21262
 Alpha virt. eigenvalues --    5.23854   5.27210   5.33726   5.36850   5.47910
 Alpha virt. eigenvalues --    5.52715   5.64034   5.68534   5.81187   6.26291
 Alpha virt. eigenvalues --   10.82263  11.70406  11.75494  11.96462  12.02984
 Alpha virt. eigenvalues --   12.64765
          Condensed to atoms (all electrons):
               1          2          3          4          5          6
     1  C    4.961431   0.366796  -0.084882   0.015660  -0.055166   0.375177
     2  C    0.366796   4.944574   0.430034  -0.103320   0.273325  -0.137091
     3  C   -0.084882   0.430034   4.987928   0.339704  -0.134958   0.249503
     4  C    0.015660  -0.103320   0.339704   5.058677   0.327117  -0.023223
     5  C   -0.055166   0.273325  -0.134958   0.327117   5.262205   0.233011
     6  C    0.375177  -0.137091   0.249503  -0.023223   0.233011   5.255248
     7  H    0.344349  -0.017353   0.014707  -0.001213  -0.003968  -0.038001
     8  H    0.371433  -0.020880  -0.019149   0.000164   0.009776  -0.033819
     9  H   -0.043827   0.341454  -0.053956  -0.000871  -0.027472   0.022890
    10  H   -0.001734  -0.054687   0.328742  -0.044179   0.026601  -0.030319
    11  H   -0.001192   0.013822  -0.021580   0.339897  -0.030623  -0.003211
    12  H    0.000568  -0.015869  -0.018537   0.384495  -0.028752   0.006261
    13  H    0.002810   0.003706   0.011575  -0.049421   0.348537  -0.049669
    14  H   -0.044665   0.008914   0.001125   0.000881  -0.042769   0.353481
               7          8          9         10         11         12
     1  C    0.344349   0.371433  -0.043827  -0.001734  -0.001192   0.000568
     2  C   -0.017353  -0.020880   0.341454  -0.054687   0.013822  -0.015869
     3  C    0.014707  -0.019149  -0.053956   0.328742  -0.021580  -0.018537
     4  C   -0.001213   0.000164  -0.000871  -0.044179   0.339897   0.384495
     5  C   -0.003968   0.009776  -0.027472   0.026601  -0.030623  -0.028752
     6  C   -0.038001  -0.033819   0.022890  -0.030319  -0.003211   0.006261
     7  H    0.684866  -0.049732  -0.001237  -0.000682   0.000047   0.000019
     8  H   -0.049732   0.638700   0.001165   0.008643   0.000031   0.000001
     9  H   -0.001237   0.001165   0.664042   0.004939  -0.000433   0.007044
    10  H   -0.000682   0.008643   0.004939   0.677282  -0.000973   0.000419
    11  H    0.000047   0.000031  -0.000433  -0.000973   0.682091  -0.050423
    12  H    0.000019   0.000001   0.007044   0.000419  -0.050423   0.602512
    13  H    0.000606  -0.000451  -0.000533  -0.001964   0.001286   0.000363
    14  H    0.000107   0.001037  -0.001475  -0.000289   0.000315  -0.000274
              13         14
     1  C    0.002810  -0.044665
     2  C    0.003706   0.008914
     3  C    0.011575   0.001125
     4  C   -0.049421   0.000881
     5  C    0.348537  -0.042769
     6  C   -0.049669   0.353481
     7  H    0.000606   0.000107
     8  H   -0.000451   0.001037
     9  H   -0.000533  -0.001475
    10  H   -0.001964  -0.000289
    11  H    0.001286   0.000315
    12  H    0.000363  -0.000274
    13  H    0.559586  -0.001271
    14  H   -0.001271   0.567971
 Mulliken charges:
               1
     1  C   -0.206759
     2  C   -0.033427
     3  C   -0.030255
     4  C   -0.244368
     5  C   -0.156862
     6  C   -0.180237
     7  H    0.067486
     8  H    0.093081
     9  H    0.088270
    10  H    0.088201
    11  H    0.070948
    12  H    0.112172
    13  H    0.174839
    14  H    0.156913
 Sum of Mulliken charges =  -0.00000
 Mulliken charges with hydrogens summed into heavy atoms:
               1
     1  C   -0.046193
     2  C    0.054844
     3  C    0.057946
     4  C   -0.061249
     5  C    0.017976
     6  C   -0.023324
 Electronic spatial extent (au):  <R**2>=            433.2001
 Charge=              0.0000 electrons
 Dipole moment (field-independent basis, Debye):
    X=             -0.1876    Y=             -0.5980    Z=             -0.1303  Tot=              0.6401
 Quadrupole moment (field-independent basis, Debye-Ang):
   XX=            -37.6751   YY=            -35.2407   ZZ=            -39.5074
   XY=              0.1421   XZ=             -0.4551   YZ=              0.0881
 Traceless Quadrupole moment (field-independent basis, Debye-Ang):
   XX=             -0.2007   YY=              2.2337   ZZ=             -2.0330
   XY=              0.1421   XZ=             -0.4551   YZ=              0.0881
 Octapole moment (field-independent basis, Debye-Ang**2):
  XXX=             -0.4564  YYY=              0.2613  ZZZ=             -0.0496  XYY=             -0.3988
  XXY=              0.5471  XXZ=             -0.9359  XZZ=             -0.3381  YZZ=             -5.1535
  YYZ=             -0.3847  XYZ=             -2.8756
 Hexadecapole moment (field-independent basis, Debye-Ang**3):
 XXXX=           -327.1434 YYYY=           -149.8795 ZZZZ=           -128.4468 XXXY=              1.1696
 XXXZ=              1.3466 YYYX=              0.2071 YYYZ=              0.2790 ZZZX=             -1.9556
 ZZZY=              0.2337 XXYY=            -79.1753 XXZZ=            -73.8111 YYZZ=            -48.3623
 XXYZ=              0.2089 YYXZ=             -2.1600 ZZXY=              0.0156
 N-N= 2.325267292700D+02 E-N=-1.004248566536D+03  KE= 2.312138282181D+02
 PrsmSu:  requested number of processors reduced to:  13 ShMem   1 Linda.
 Calling FoFJK, ICntrl=      2127 FMM=F ISym2X=0 I1Cent= 0 IOpClX= 0 NMat=1 NMatS=1 NMatT=0.
 ***** Axes restored to original set *****
 -------------------------------------------------------------------
 Center     Atomic                   Forces (Hartrees/Bohr)
 Number     Number              X              Y              Z
 -------------------------------------------------------------------
      1        6           0.022253789    0.032013399    0.013294516
      2        6           0.028678945    0.043396005   -0.026304312
      3        6          -0.022316545   -0.028760282    0.048278957
      4        6           0.014951423   -0.023927518   -0.048426192
      5        6          -0.044331488   -0.029243445   -0.027501643
      6        6          -0.030277726    0.022226325    0.046827418
      7        1           0.007233779   -0.000972509   -0.001622140
      8        1          -0.008604090    0.004068130    0.009288580
      9        1           0.004775134   -0.006040111    0.009769690
     10        1           0.002392333   -0.001170461   -0.021533761
     11        1           0.003701421   -0.010286360    0.005254294
     12        1          -0.003900384    0.009951074   -0.010766203
     13        1           0.025611776    0.012862188    0.057632411
     14        1          -0.000168366   -0.024116435   -0.054191614
 -------------------------------------------------------------------
 Cartesian Forces:  Max     0.057632411 RMS     0.025805509

 GradGradGradGradGradGradGradGradGradGradGradGradGradGradGradGradGradGrad
 Berny optimization.
 FormGI is forming the generalized inverse of G from B-inverse, IUseBI=4.
 Internal  Forces:  Max     0.031079197 RMS     0.009449489
 Search for a local minimum.
 Step number   1 out of a maximum of  100
 All quantities printed in internal units (Hartrees-Bohrs-Radians)
 Mixed Optimization -- RFO/linear search
 Second derivative matrix not updated -- first step.
 ITU=  0
     Eigenvalues ---    0.00616   0.00651   0.01612   0.01773   0.01952
     Eigenvalues ---    0.02214   0.03180   0.03395   0.03975   0.04189
     Eigenvalues ---    0.04463   0.05441   0.06087   0.06706   0.06899
     Eigenvalues ---    0.07098   0.07209   0.07979   0.10828   0.13243
     Eigenvalues ---    0.13536   0.16244   0.17058   0.18625   0.20297
     Eigenvalues ---    0.24103   0.24760   0.27364   0.32618   0.33026
     Eigenvalues ---    0.33602   0.33886   0.34196   0.34227   0.34779
     Eigenvalues ---    0.35425
 RFO step:  Lambda=-7.38168652D-02 EMin= 6.15782515D-03
 Linear search not attempted -- first point.
 Maximum step size (   0.300) exceeded in Quadratic search.
    -- Step size scaled by   0.728
 Iteration  1 RMS(Cart)=  0.04795906 RMS(Int)=  0.00574436
 Iteration  2 RMS(Cart)=  0.00338605 RMS(Int)=  0.00193790
 Iteration  3 RMS(Cart)=  0.00008539 RMS(Int)=  0.00193512
 Iteration  4 RMS(Cart)=  0.00000028 RMS(Int)=  0.00193512
 Variable       Old X    -DE/DX   Delta X   Delta X   Delta X     New X
                                 (Linear)    (Quad)   (Total)
    R1        2.85157  -0.00089   0.00000  -0.00164   0.00014   2.85171
    R2        2.88434   0.02190   0.00000   0.04799   0.05056   2.93490
    R3        2.06948   0.00382   0.00000   0.00669   0.00669   2.07617
    R4        2.08007  -0.00208   0.00000  -0.00369  -0.00369   2.07638
    R5        2.88216   0.01383   0.00000   0.03262   0.02935   2.91150
    R6        3.06817   0.00544   0.00000   0.00611   0.00433   3.07249
    R7        2.07000   0.00001   0.00000   0.00001   0.00001   2.07002
    R8        2.93156  -0.01359   0.00000  -0.03704  -0.03624   2.89532
    R9        3.20584  -0.00748   0.00000  -0.03376  -0.03411   3.17173
   R10        2.04990   0.01029   0.00000   0.01750   0.01750   2.06740
   R11        3.01624   0.00592   0.00000   0.01957   0.02106   3.03730
   R12        2.06035   0.00664   0.00000   0.01147   0.01147   2.07182
   R13        2.07522  -0.00538   0.00000  -0.00948  -0.00948   2.06574
   R14        3.17158   0.01230   0.00000   0.04417   0.04314   3.21472
   R15        2.09727  -0.01299   0.00000  -0.02364  -0.02364   2.07363
   R16        2.09006  -0.01181   0.00000  -0.02129  -0.02129   2.06878
    A1        1.42639  -0.00886   0.00000  -0.02623  -0.02538   1.40101
    A2        2.03648   0.01025   0.00000   0.04195   0.04155   2.07803
    A3        2.07935  -0.00843   0.00000  -0.04758  -0.04713   2.03222
    A4        2.09628   0.00318   0.00000   0.00235   0.00249   2.09876
    A5        1.91476   0.00400   0.00000   0.02208   0.02074   1.93550
    A6        1.88323  -0.00145   0.00000   0.00077   0.00109   1.88433
    A7        1.52356   0.00952   0.00000   0.03573   0.03427   1.55783
    A8        1.68536   0.01094   0.00000   0.02573   0.02347   1.70883
    A9        2.23624  -0.00398   0.00000   0.00298   0.00415   2.24039
   A10        1.32212  -0.00326   0.00000  -0.00469  -0.00387   1.31825
   A11        2.09249  -0.00005   0.00000   0.00128   0.00067   2.09316
   A12        2.28379  -0.00813   0.00000  -0.03981  -0.03935   2.24444
   A13        1.45787   0.01269   0.00000   0.06183   0.06005   1.51792
   A14        1.32478  -0.00340   0.00000  -0.00924  -0.00677   1.31801
   A15        2.00644   0.00039   0.00000   0.01172   0.00999   2.01643
   A16        1.79260   0.00269   0.00000  -0.00230  -0.00459   1.78802
   A17        2.22338   0.00041   0.00000   0.01729   0.01666   2.24004
   A18        2.25029  -0.00488   0.00000  -0.02845  -0.02843   2.22186
   A19        1.32378   0.00356   0.00000   0.00932   0.00814   1.33192
   A20        1.97946   0.01243   0.00000   0.06524   0.06692   2.04638
   A21        2.15220  -0.01701   0.00000  -0.08189  -0.08294   2.06926
   A22        2.10755   0.00225   0.00000   0.00320   0.00239   2.10994
   A23        1.93820  -0.00450   0.00000  -0.00712  -0.00737   1.93083
   A24        1.91214   0.00217   0.00000   0.00548   0.00611   1.91824
   A25        1.37974   0.00863   0.00000   0.04875   0.04606   1.42580
   A26        1.29024  -0.00648   0.00000  -0.02296  -0.02046   1.26977
   A27        2.80733   0.02546   0.00000   0.13208   0.13302   2.94036
   A28        1.77341  -0.01298   0.00000  -0.05594  -0.05659   1.71682
   A29        1.64866  -0.00101   0.00000   0.00108   0.00204   1.65070
   A30        1.57100   0.02624   0.00000   0.12124   0.12481   1.69581
   A31        1.41143   0.00901   0.00000   0.03913   0.03660   1.44803
   A32        1.63463   0.00021   0.00000  -0.00627  -0.00893   1.62570
   A33        1.77853  -0.00718   0.00000  -0.01629  -0.02079   1.75773
   A34        1.22101   0.00049   0.00000   0.00247   0.00212   1.22313
   A35        2.77742   0.01718   0.00000   0.08106   0.07968   2.85710
   A36        1.55665   0.01683   0.00000   0.07983   0.08006   1.63671
    D1       -0.80004   0.00794   0.00000   0.03627   0.03559  -0.76445
    D2        0.51450   0.00503   0.00000   0.03419   0.03493   0.54944
    D3       -3.01074   0.00111   0.00000  -0.00076  -0.00106  -3.01180
    D4       -2.88779   0.00753   0.00000   0.04165   0.04105  -2.84674
    D5       -1.57325   0.00462   0.00000   0.03958   0.04039  -1.53286
    D6        1.18470   0.00071   0.00000   0.00462   0.00439   1.18909
    D7        1.08498   0.00750   0.00000   0.04607   0.04594   1.13092
    D8        2.39952   0.00460   0.00000   0.04399   0.04528   2.44481
    D9       -1.12571   0.00068   0.00000   0.00904   0.00928  -1.11643
   D10        0.71088  -0.00136   0.00000  -0.01547  -0.01623   0.69465
   D11       -0.49372  -0.00299   0.00000  -0.02432  -0.02424  -0.51795
   D12       -2.06350  -0.01980   0.00000  -0.10370  -0.10286  -2.16635
   D13        2.73749   0.00586   0.00000   0.01850   0.01787   2.75537
   D14        1.53290   0.00423   0.00000   0.00966   0.00987   1.54277
   D15       -0.03688  -0.01259   0.00000  -0.06972  -0.06875  -0.10563
   D16       -1.34985   0.01040   0.00000   0.04312   0.04237  -1.30747
   D17       -2.55444   0.00877   0.00000   0.03428   0.03437  -2.52007
   D18        2.15897  -0.00804   0.00000  -0.04510  -0.04426   2.11471
   D19        2.54935   0.00132   0.00000  -0.02699  -0.02954   2.51981
   D20        0.71889   0.00156   0.00000  -0.00835  -0.00871   0.71018
   D21       -1.49263   0.00827   0.00000   0.02628   0.02517  -1.46746
   D22        0.84810  -0.00777   0.00000  -0.04462  -0.04507   0.80304
   D23       -0.98236  -0.00753   0.00000  -0.02599  -0.02424  -1.00660
   D24        3.08931  -0.00082   0.00000   0.00864   0.00964   3.09895
   D25       -1.40739   0.00342   0.00000   0.00397   0.00256  -1.40483
   D26        3.04533   0.00366   0.00000   0.02260   0.02339   3.06872
   D27        0.83381   0.01037   0.00000   0.05723   0.05727   0.89108
   D28       -2.32219   0.00837   0.00000   0.03679   0.03633  -2.28586
   D29       -0.47901  -0.00685   0.00000  -0.03427  -0.03541  -0.51441
   D30       -1.07230   0.00226   0.00000   0.03802   0.03968  -1.03262
   D31       -0.82973   0.01495   0.00000   0.06654   0.06528  -0.76445
   D32        1.01345  -0.00027   0.00000  -0.00452  -0.00645   1.00699
   D33        0.42015   0.00884   0.00000   0.06778   0.06864   0.48879
   D34        1.21924   0.01083   0.00000   0.05784   0.05758   1.27682
   D35        3.06242  -0.00440   0.00000  -0.01322  -0.01416   3.04826
   D36        2.46913   0.00472   0.00000   0.05908   0.06093   2.53006
   D37       -0.86735   0.01034   0.00000   0.05587   0.05586  -0.81149
   D38       -2.92233   0.00732   0.00000   0.05278   0.05194  -2.87039
   D39        0.98468   0.00835   0.00000   0.05897   0.05871   1.04339
   D40        0.42294   0.00970   0.00000   0.06320   0.06488   0.48782
   D41       -1.63204   0.00668   0.00000   0.06011   0.06095  -1.57108
   D42        2.27497   0.00772   0.00000   0.06630   0.06773   2.34270
   D43       -2.90251  -0.00039   0.00000  -0.01296  -0.01319  -2.91570
   D44        1.32570  -0.00341   0.00000  -0.01604  -0.01711   1.30859
   D45       -1.05048  -0.00238   0.00000  -0.00986  -0.01034  -1.06082
   D46       -0.71907   0.00623   0.00000   0.02745   0.02687  -0.69221
   D47        0.97947   0.00285   0.00000   0.00494   0.00283   0.98230
   D48        1.01727   0.01443   0.00000   0.10684   0.10908   1.12635
   D49       -2.11322  -0.00558   0.00000  -0.03666  -0.03663  -2.14984
   D50       -0.41467  -0.00896   0.00000  -0.05917  -0.06067  -0.47533
   D51       -0.37687   0.00262   0.00000   0.04273   0.04559  -0.33128
   D52        1.21621   0.00393   0.00000   0.03431   0.03371   1.24992
   D53        2.91476   0.00055   0.00000   0.01179   0.00967   2.92443
   D54        2.95256   0.01213   0.00000   0.11369   0.11592   3.06848
   D55        0.81106  -0.00629   0.00000  -0.04261  -0.04454   0.76651
   D56       -0.42593  -0.00547   0.00000  -0.04763  -0.04804  -0.47397
   D57       -2.01296  -0.03108   0.00000  -0.16746  -0.17046  -2.18341
   D58        2.71481   0.00999   0.00000   0.03827   0.03777   2.75258
   D59        1.47783   0.01080   0.00000   0.03325   0.03427   1.51210
   D60       -0.10920  -0.01481   0.00000  -0.08658  -0.08814  -0.19735
   D61       -1.29473   0.01062   0.00000   0.04206   0.04143  -1.25330
   D62       -2.53172   0.01144   0.00000   0.03704   0.03793  -2.49379
   D63        2.16444  -0.01417   0.00000  -0.08279  -0.08448   2.07995
   D64        0.47080   0.00206   0.00000   0.02312   0.02331   0.49410
   D65       -0.90620  -0.00760   0.00000  -0.02162  -0.01955  -0.92576
   D66        2.24885  -0.00409   0.00000   0.01177   0.00738   2.25623
   D67        1.77759   0.01410   0.00000   0.08892   0.08740   1.86499
   D68        0.40059   0.00444   0.00000   0.04418   0.04454   0.44513
   D69       -2.72754   0.00795   0.00000   0.07758   0.07147  -2.65607
   D70       -2.85526   0.01826   0.00000   0.11408   0.10782  -2.74744
   D71        2.05092   0.00860   0.00000   0.06934   0.06496   2.11589
   D72       -1.07721   0.01211   0.00000   0.10274   0.09189  -0.98532
         Item               Value     Threshold  Converged?
 Maximum Force            0.031079     0.000450     NO 
 RMS     Force            0.009449     0.000300     NO 
 Maximum Displacement     0.351341     0.001800     NO 
 RMS     Displacement     0.050112     0.001200     NO 
 Predicted change in Energy=-4.512955D-02
 GradGradGradGradGradGradGradGradGradGradGradGradGradGradGradGradGradGrad

                          Input orientation:                          
 ---------------------------------------------------------------------
 Center     Atomic      Atomic             Coordinates (Angstroms)
 Number     Number       Type             X           Y           Z
 ---------------------------------------------------------------------
      1          6           0        0.694236    1.417301   -0.304513
      2          6           0       -0.297781    0.695761    0.574428
      3          6           0       -0.734418   -0.143471   -0.641629
      4          6           0       -0.914528   -1.312391    0.332345
      5          6           0        0.517748   -0.702010    0.731516
      6          6           0        0.935204   -0.041566   -0.779602
      7          1           0        1.507215    1.987866    0.165148
      8          1           0        0.275080    2.029266   -1.115133
      9          1           0       -1.052965    1.125026    1.241768
     10          1           0       -1.482881    0.320694   -1.290658
     11          1           0       -0.997890   -2.316889   -0.098978
     12          1           0       -1.623808   -1.201240    1.156679
     13          1           0        1.053068   -1.653112    0.617741
     14          1           0        2.011731   -0.137157   -0.605153
 ---------------------------------------------------------------------
                    Distance matrix (angstroms):
                    1          2          3          4          5
     1  C    0.000000
     2  C    1.509058   0.000000
     3  C    2.142594   1.540700   0.000000
     4  C    3.231861   2.114629   1.532136   0.000000
     5  C    2.365584   1.625894   1.940467   1.607270   0.000000
     6  C    1.553083   1.974158   1.678410   2.504582   1.701157
     7  H    1.098663   2.257223   3.196624   4.096888   2.921516
     8  H    1.098771   2.227335   2.442146   3.831061   3.305884
     9  H    2.351408   1.095406   2.292976   2.605229   2.462835
    10  H    2.629613   2.241357   1.094022   2.371524   3.022850
    11  H    4.104839   3.165389   2.255578   1.096359   2.365314
    12  H    3.790140   2.386624   2.267995   1.093142   2.239699
    13  H    3.225949   2.709958   2.657092   2.017171   1.097318
    14  H    2.059737   2.723786   2.746398   3.289843   2.082722
                    6          7          8          9         10
     6  C    0.000000
     7  H    2.310485   0.000000
     8  H    2.199247   1.777355   0.000000
     9  H    3.065891   2.908285   2.852427   0.000000
    10  H    2.497908   3.720149   2.457734   2.691646   0.000000
    11  H    3.062220   4.987607   4.641345   3.694240   2.934647
    12  H    3.412121   4.577863   4.382131   2.396792   2.885411
    13  H    2.136244   3.697000   4.143432   3.541587   3.737504
    14  H    1.094751   2.315950   2.823016   3.794283   3.590523
                   11         12         13         14
    11  H    0.000000
    12  H    1.792518   0.000000
    13  H    2.271721   2.767726   0.000000
    14  H    3.750368   4.177734   2.170858   0.000000
 Stoichiometry    C6H8
 Framework group  C1[X(C6H8)]
 Deg. of freedom    36
 Full point group                 C1      NOp   1
 Largest Abelian subgroup         C1      NOp   1
 Largest concise Abelian subgroup C1      NOp   1
                         Standard orientation:                         
 ---------------------------------------------------------------------
 Center     Atomic      Atomic             Coordinates (Angstroms)
 Number     Number       Type             X           Y           Z
 ---------------------------------------------------------------------
      1          6           0        1.592199   -0.174733   -0.085992
      2          6           0        0.280586   -0.650516   -0.660931
      3          6           0       -0.345123   -0.560049    0.744081
      4          6           0       -1.636121   -0.111656    0.051472
      5          6           0       -0.497693    0.776986   -0.653943
      6          6           0        0.621975    0.806678    0.626446
      7          1           0        2.365629    0.207728   -0.766132
      8          1           0        2.078567   -0.841002    0.639838
      9          1           0        0.091720   -1.528740   -1.287801
     10          1           0       -0.187207   -1.430616    1.387555
     11          1           0       -2.406157    0.353940    0.677786
     12          1           0       -2.102189   -0.785548   -0.672136
     13          1           0       -0.984521    1.735080   -0.432222
     14          1           0        1.049219    1.768896    0.326316
 ---------------------------------------------------------------------
 Rotational constants (GHZ):           7.8728336           4.1214566           3.8441723
 Standard basis: 6-31G(2df,p) (6D, 7F)
 There are   226 symmetry adapted cartesian basis functions of A   symmetry.
 There are   208 symmetry adapted basis functions of A   symmetry.
   208 basis functions,   320 primitive gaussians,   226 cartesian basis functions
    22 alpha electrons       22 beta electrons
       nuclear repulsion energy       231.2027130437 Hartrees.
 NAtoms=   14 NActive=   14 NUniq=   14 SFac= 1.00D+00 NAtFMM=   60 NAOKFM=F Big=F
 Integral buffers will be    131072 words long.
 Raffenetti 2 integral format.
 Two-electron integral symmetry is turned on.
 One-electron integrals computed using PRISM.
 PrsmSu:  requested number of processors reduced to:  13 ShMem   1 Linda.
 NBasis=   208 RedAO= T EigKep=  3.85D-04  NBF=   208
 NBsUse=   208 1.00D-06 EigRej= -1.00D+00 NBFU=   208
 Initial guess from the checkpoint file:  "C1C2C3CC2C13.chk"
 B after Tr=     0.000000   -0.000000   -0.000000
         Rot=    0.999856   -0.010639    0.008790   -0.009899 Ang=  -1.95 deg.
 ExpMin= 1.61D-01 ExpMax= 3.05D+03 ExpMxC= 4.57D+02 IAcc=2 IRadAn=         4 AccDes= 0.00D+00
 Harris functional with IExCor=  402 and IRadAn=       4 diagonalized for initial guess.
 HarFok:  IExCor=  402 AccDes= 0.00D+00 IRadAn=         4 IDoV= 1 UseB2=F ITyADJ=14
 ICtDFT=  3500011 ScaDFX=  1.000000  1.000000  1.000000  1.000000
 FoFCou: FMM=F IPFlag=           0 FMFlag=      100000 FMFlg1=           0
         NFxFlg=           0 DoJE=T BraDBF=F KetDBF=T FulRan=T
         wScrn=  0.000000 ICntrl=       500 IOpCl=  0 I1Cent=   200000004 NGrid=           0
         NMat0=    1 NMatS0=      1 NMatT0=    0 NMatD0=    1 NMtDS0=    0 NMtDT0=    0
 Petite list used in FoFCou.
 Requested convergence on RMS density matrix=1.00D-08 within 128 cycles.
 Requested convergence on MAX density matrix=1.00D-06.
 Requested convergence on             energy=1.00D-06.
 No special actions if energy rises.
 Integral accuracy reduced to 1.0D-05 until final iterations.
 Initial convergence to 1.0D-05 achieved.  Increase integral accuracy.
 SCF Done:  E(RB3LYP) =  -233.156497453     A.U. after   12 cycles
            NFock= 12  Conv=0.57D-08     -V/T= 2.0088
 PrsmSu:  requested number of processors reduced to:  13 ShMem   1 Linda.
 Calling FoFJK, ICntrl=      2127 FMM=F ISym2X=0 I1Cent= 0 IOpClX= 0 NMat=1 NMatS=1 NMatT=0.
 ***** Axes restored to original set *****
 -------------------------------------------------------------------
 Center     Atomic                   Forces (Hartrees/Bohr)
 Number     Number              X              Y              Z
 -------------------------------------------------------------------
      1        6           0.013682405    0.014662496    0.009057360
      2        6           0.019800231    0.023931501   -0.013407140
      3        6          -0.012685185   -0.014308326    0.027795440
      4        6           0.016916777   -0.010102050   -0.033202185
      5        6          -0.044927223   -0.020210320   -0.043767198
      6        6          -0.028020376    0.025568338    0.057303798
      7        1           0.002364007   -0.003917190   -0.000153459
      8        1          -0.004877699    0.002249536    0.005752607
      9        1           0.003373840   -0.004252825    0.008238660
     10        1           0.004511008   -0.003783148   -0.015223134
     11        1           0.003789257   -0.002339268    0.002814339
     12        1          -0.004473842    0.005102079   -0.005785078
     13        1           0.029019091    0.016491449    0.050652730
     14        1           0.001527710   -0.029092273   -0.050076739
 -------------------------------------------------------------------
 Cartesian Forces:  Max     0.057303798 RMS     0.022314176

 GradGradGradGradGradGradGradGradGradGradGradGradGradGradGradGradGradGrad
 Berny optimization.
 Using GEDIIS/GDIIS optimizer.
 FormGI is forming the generalized inverse of G from B-inverse, IUseBI=4.
 Internal  Forces:  Max     0.025010376 RMS     0.006778472
 Search for a local minimum.
 Step number   2 out of a maximum of  100
 All quantities printed in internal units (Hartrees-Bohrs-Radians)
 Mixed Optimization -- RFO/linear search
 Update second derivatives using D2CorX and points    1    2
 DE= -4.61D-02 DEPred=-4.51D-02 R= 1.02D+00
 TightC=F SS=  1.41D+00  RLast= 5.47D-01 DXNew= 5.0454D-01 1.6405D+00
 Trust test= 1.02D+00 RLast= 5.47D-01 DXMaxT set to 5.05D-01
 ITU=  1  0
 Use linear search instead of GDIIS.
 Linear search step of   0.601 exceeds DXMaxT=   0.505 but not scaled.
 Quartic linear search produced a step of  2.00000.
 Iteration  1 RMS(Cart)=  0.01046535 RMS(Int)=  0.08790887
 Iteration  2 RMS(Cart)=  0.00629116 RMS(Int)=  0.08170539
 Iteration  3 RMS(Cart)=  0.00492655 RMS(Int)=  0.07685706
 Iteration  4 RMS(Cart)=  0.00411883 RMS(Int)=  0.07281245
 Iteration  5 RMS(Cart)=  0.00355181 RMS(Int)=  0.06933004
 Iteration  6 RMS(Cart)=  0.00311547 RMS(Int)=  0.06627981
 Iteration  7 RMS(Cart)=  0.00276710 RMS(Int)=  0.06357442
 Iteration  8 RMS(Cart)=  0.00248316 RMS(Int)=  0.06115003
 Iteration  9 RMS(Cart)=  0.00224725 RMS(Int)=  0.05895904
 Iteration 10 RMS(Cart)=  0.00204819 RMS(Int)=  0.05696497
 Iteration 11 RMS(Cart)=  0.00187445 RMS(Int)=  0.05514272
 Iteration 12 RMS(Cart)=  0.00171907 RMS(Int)=  0.05347404
 Iteration 13 RMS(Cart)=  0.00158417 RMS(Int)=  0.05193864
 Iteration 14 RMS(Cart)=  0.00146613 RMS(Int)=  0.05051984
 Iteration 15 RMS(Cart)=  0.00136207 RMS(Int)=  0.04920379
 Iteration 16 RMS(Cart)=  0.00126977 RMS(Int)=  0.04797884
 Iteration 17 RMS(Cart)=  0.00118743 RMS(Int)=  0.04683515
 Iteration 18 RMS(Cart)=  0.00111358 RMS(Int)=  0.04576431
 Iteration 19 RMS(Cart)=  0.00104705 RMS(Int)=  0.04475908
 Iteration 20 RMS(Cart)=  0.00098684 RMS(Int)=  0.04381321
 Iteration 21 RMS(Cart)=  0.00093214 RMS(Int)=  0.04292124
 Iteration 22 RMS(Cart)=  0.00088226 RMS(Int)=  0.04207840
 Iteration 23 RMS(Cart)=  0.00083663 RMS(Int)=  0.04128050
 Iteration 24 RMS(Cart)=  0.00079475 RMS(Int)=  0.04052383
 Iteration 25 RMS(Cart)=  0.00075621 RMS(Int)=  0.03980507
 Iteration 26 RMS(Cart)=  0.00072063 RMS(Int)=  0.03912131
 Iteration 27 RMS(Cart)=  0.00068772 RMS(Int)=  0.03846991
 Iteration 28 RMS(Cart)=  0.00028521 RMS(Int)=  0.03820034
 Iteration 29 RMS(Cart)=  0.00027905 RMS(Int)=  0.03793678
 Iteration 30 RMS(Cart)=  0.00027310 RMS(Int)=  0.03767904
 Iteration 31 RMS(Cart)=  0.00026736 RMS(Int)=  0.03742689
 Iteration 32 RMS(Cart)=  0.00026182 RMS(Int)=  0.03718015
 Iteration 33 RMS(Cart)=  0.00025647 RMS(Int)=  0.03693864
 Iteration 34 RMS(Cart)=  0.00025129 RMS(Int)=  0.03670218
 Iteration 35 RMS(Cart)=  0.00024629 RMS(Int)=  0.03647060
 Iteration 36 RMS(Cart)=  0.00024145 RMS(Int)=  0.03624373
 Iteration 37 RMS(Cart)=  0.00023676 RMS(Int)=  0.03602144
 Iteration 38 RMS(Cart)=  0.00023222 RMS(Int)=  0.03580357
 New curvilinear step failed, DQL= 5.44D+00 SP=-2.59D-02.
 ITry= 1 IFail=1 DXMaxC= 4.48D-01 DCOld= 1.00D+10 DXMaxT= 5.05D-01 DXLimC= 3.00D+00 Rises=F
 Iteration  1 RMS(Cart)=  0.01046535 RMS(Int)=  0.08790887
 Iteration  2 RMS(Cart)=  0.00629116 RMS(Int)=  0.08170539
 Iteration  3 RMS(Cart)=  0.00492655 RMS(Int)=  0.07685706
 Iteration  4 RMS(Cart)=  0.00411883 RMS(Int)=  0.07281245
 Iteration  5 RMS(Cart)=  0.00355181 RMS(Int)=  0.06933004
 Iteration  6 RMS(Cart)=  0.00311547 RMS(Int)=  0.06627981
 Iteration  7 RMS(Cart)=  0.00276710 RMS(Int)=  0.06357442
 Iteration  8 RMS(Cart)=  0.00248316 RMS(Int)=  0.06115003
 Iteration  9 RMS(Cart)=  0.00224725 RMS(Int)=  0.05895904
 Iteration 10 RMS(Cart)=  0.00204819 RMS(Int)=  0.05696497
 Iteration 11 RMS(Cart)=  0.00187445 RMS(Int)=  0.05514272
 Iteration 12 RMS(Cart)=  0.00171907 RMS(Int)=  0.05347404
 Iteration 13 RMS(Cart)=  0.00158417 RMS(Int)=  0.05193864
 Iteration 14 RMS(Cart)=  0.00146613 RMS(Int)=  0.05051984
 Iteration 15 RMS(Cart)=  0.00136207 RMS(Int)=  0.04920379
 Iteration 16 RMS(Cart)=  0.00126977 RMS(Int)=  0.04797884
 Iteration 17 RMS(Cart)=  0.00118743 RMS(Int)=  0.04683515
 Iteration 18 RMS(Cart)=  0.00111358 RMS(Int)=  0.04576431
 Iteration 19 RMS(Cart)=  0.00104705 RMS(Int)=  0.04475908
 Iteration 20 RMS(Cart)=  0.00098684 RMS(Int)=  0.04381321
 Iteration 21 RMS(Cart)=  0.00093214 RMS(Int)=  0.04292124
 Iteration 22 RMS(Cart)=  0.00088226 RMS(Int)=  0.04207840
 Iteration 23 RMS(Cart)=  0.00083663 RMS(Int)=  0.04128050
 Iteration 24 RMS(Cart)=  0.00079475 RMS(Int)=  0.04052383
 Iteration 25 RMS(Cart)=  0.00075621 RMS(Int)=  0.03980507
 Iteration 26 RMS(Cart)=  0.00072063 RMS(Int)=  0.03912131
 Iteration 27 RMS(Cart)=  0.00068772 RMS(Int)=  0.03846991
 Iteration 28 RMS(Cart)=  0.00028521 RMS(Int)=  0.03820034
 Iteration 29 RMS(Cart)=  0.00027905 RMS(Int)=  0.03793678
 Iteration 30 RMS(Cart)=  0.00027310 RMS(Int)=  0.03767904
 Iteration 31 RMS(Cart)=  0.00026736 RMS(Int)=  0.03742689
 Iteration 32 RMS(Cart)=  0.00026182 RMS(Int)=  0.03718015
 Iteration 33 RMS(Cart)=  0.00025647 RMS(Int)=  0.03693864
 Iteration 34 RMS(Cart)=  0.00025129 RMS(Int)=  0.03670218
 Iteration 35 RMS(Cart)=  0.00024629 RMS(Int)=  0.03647060
 Iteration 36 RMS(Cart)=  0.00024145 RMS(Int)=  0.03624373
 Iteration 37 RMS(Cart)=  0.00023676 RMS(Int)=  0.03602144
 Iteration 38 RMS(Cart)=  0.00023222 RMS(Int)=  0.03580357
 New curvilinear step failed, DQL= 5.44D+00 SP=-2.59D-02.
 ITry= 2 IFail=1 DXMaxC= 4.48D-01 DCOld= 1.00D+10 DXMaxT= 5.05D-01 DXLimC= 3.00D+00 Rises=F
 Iteration  1 RMS(Cart)=  0.01046535 RMS(Int)=  0.08790887
 Iteration  2 RMS(Cart)=  0.00629116 RMS(Int)=  0.08170539
 Iteration  3 RMS(Cart)=  0.00492655 RMS(Int)=  0.07685706
 Iteration  4 RMS(Cart)=  0.00411883 RMS(Int)=  0.07281245
 Iteration  5 RMS(Cart)=  0.00355181 RMS(Int)=  0.06933004
 Iteration  6 RMS(Cart)=  0.00311547 RMS(Int)=  0.06627981
 Iteration  7 RMS(Cart)=  0.00276710 RMS(Int)=  0.06357442
 Iteration  8 RMS(Cart)=  0.00248316 RMS(Int)=  0.06115003
 Iteration  9 RMS(Cart)=  0.00224725 RMS(Int)=  0.05895904
 Iteration 10 RMS(Cart)=  0.00204819 RMS(Int)=  0.05696497
 Iteration 11 RMS(Cart)=  0.00187445 RMS(Int)=  0.05514272
 Iteration 12 RMS(Cart)=  0.00171907 RMS(Int)=  0.05347404
 Iteration 13 RMS(Cart)=  0.00158417 RMS(Int)=  0.05193864
 Iteration 14 RMS(Cart)=  0.00146613 RMS(Int)=  0.05051984
 Iteration 15 RMS(Cart)=  0.00136207 RMS(Int)=  0.04920379
 Iteration 16 RMS(Cart)=  0.00126977 RMS(Int)=  0.04797884
 Iteration 17 RMS(Cart)=  0.00118743 RMS(Int)=  0.04683515
 Iteration 18 RMS(Cart)=  0.00111358 RMS(Int)=  0.04576431
 Iteration 19 RMS(Cart)=  0.00104705 RMS(Int)=  0.04475908
 Iteration 20 RMS(Cart)=  0.00098684 RMS(Int)=  0.04381321
 Iteration 21 RMS(Cart)=  0.00093214 RMS(Int)=  0.04292124
 Iteration 22 RMS(Cart)=  0.00088226 RMS(Int)=  0.04207840
 Iteration 23 RMS(Cart)=  0.00083663 RMS(Int)=  0.04128050
 Iteration 24 RMS(Cart)=  0.00079475 RMS(Int)=  0.04052383
 Iteration 25 RMS(Cart)=  0.00075621 RMS(Int)=  0.03980507
 Iteration 26 RMS(Cart)=  0.00072063 RMS(Int)=  0.03912131
 Iteration 27 RMS(Cart)=  0.00068772 RMS(Int)=  0.03846991
 Iteration 28 RMS(Cart)=  0.00028521 RMS(Int)=  0.03820034
 Iteration 29 RMS(Cart)=  0.00027905 RMS(Int)=  0.03793678
 Iteration 30 RMS(Cart)=  0.00027310 RMS(Int)=  0.03767904
 Iteration 31 RMS(Cart)=  0.00026736 RMS(Int)=  0.03742689
 Iteration 32 RMS(Cart)=  0.00026182 RMS(Int)=  0.03718015
 Iteration 33 RMS(Cart)=  0.00025647 RMS(Int)=  0.03693864
 Iteration 34 RMS(Cart)=  0.00025129 RMS(Int)=  0.03670218
 Iteration 35 RMS(Cart)=  0.00024629 RMS(Int)=  0.03647060
 Iteration 36 RMS(Cart)=  0.00024145 RMS(Int)=  0.03624373
 Iteration 37 RMS(Cart)=  0.00023676 RMS(Int)=  0.03602144
 Iteration 38 RMS(Cart)=  0.00023222 RMS(Int)=  0.03580357
 New curvilinear step failed, DQL= 5.44D+00 SP=-2.59D-02.
 ITry= 3 IFail=1 DXMaxC= 4.48D-01 DCOld= 1.00D+10 DXMaxT= 5.05D-01 DXLimC= 3.00D+00 Rises=F
 Iteration  1 RMS(Cart)=  0.01046535 RMS(Int)=  0.08790887
 Iteration  2 RMS(Cart)=  0.00629116 RMS(Int)=  0.08170539
 Iteration  3 RMS(Cart)=  0.00492655 RMS(Int)=  0.07685706
 Iteration  4 RMS(Cart)=  0.00411883 RMS(Int)=  0.07281245
 Iteration  5 RMS(Cart)=  0.00355181 RMS(Int)=  0.06933004
 Iteration  6 RMS(Cart)=  0.00311547 RMS(Int)=  0.06627981
 Iteration  7 RMS(Cart)=  0.00276710 RMS(Int)=  0.06357442
 Iteration  8 RMS(Cart)=  0.00248316 RMS(Int)=  0.06115003
 Iteration  9 RMS(Cart)=  0.00224725 RMS(Int)=  0.05895904
 Iteration 10 RMS(Cart)=  0.00204819 RMS(Int)=  0.05696497
 Iteration 11 RMS(Cart)=  0.00187445 RMS(Int)=  0.05514272
 Iteration 12 RMS(Cart)=  0.00171907 RMS(Int)=  0.05347404
 Iteration 13 RMS(Cart)=  0.00158417 RMS(Int)=  0.05193864
 Iteration 14 RMS(Cart)=  0.00146613 RMS(Int)=  0.05051984
 Iteration 15 RMS(Cart)=  0.00136207 RMS(Int)=  0.04920379
 Iteration 16 RMS(Cart)=  0.00126977 RMS(Int)=  0.04797884
 Iteration 17 RMS(Cart)=  0.00118743 RMS(Int)=  0.04683515
 Iteration 18 RMS(Cart)=  0.00111358 RMS(Int)=  0.04576431
 Iteration 19 RMS(Cart)=  0.00104705 RMS(Int)=  0.04475908
 Iteration 20 RMS(Cart)=  0.00098684 RMS(Int)=  0.04381321
 Iteration 21 RMS(Cart)=  0.00093214 RMS(Int)=  0.04292124
 Iteration 22 RMS(Cart)=  0.00088226 RMS(Int)=  0.04207840
 Iteration 23 RMS(Cart)=  0.00083663 RMS(Int)=  0.04128050
 Iteration 24 RMS(Cart)=  0.00079475 RMS(Int)=  0.04052383
 Iteration 25 RMS(Cart)=  0.00075621 RMS(Int)=  0.03980507
 Iteration 26 RMS(Cart)=  0.00072063 RMS(Int)=  0.03912131
 Iteration 27 RMS(Cart)=  0.00068772 RMS(Int)=  0.03846991
 Iteration 28 RMS(Cart)=  0.00028521 RMS(Int)=  0.03820034
 Iteration 29 RMS(Cart)=  0.00027905 RMS(Int)=  0.03793678
 Iteration 30 RMS(Cart)=  0.00027310 RMS(Int)=  0.03767904
 Iteration 31 RMS(Cart)=  0.00026736 RMS(Int)=  0.03742689
 Iteration 32 RMS(Cart)=  0.00026182 RMS(Int)=  0.03718015
 Iteration 33 RMS(Cart)=  0.00025647 RMS(Int)=  0.03693864
 Iteration 34 RMS(Cart)=  0.00025129 RMS(Int)=  0.03670218
 Iteration 35 RMS(Cart)=  0.00024629 RMS(Int)=  0.03647060
 Iteration 36 RMS(Cart)=  0.00024145 RMS(Int)=  0.03624373
 Iteration 37 RMS(Cart)=  0.00023676 RMS(Int)=  0.03602144
 Iteration 38 RMS(Cart)=  0.00023222 RMS(Int)=  0.03580357
 New curvilinear step failed, DQL= 5.44D+00 SP=-2.59D-02.
 ITry= 4 IFail=1 DXMaxC= 4.48D-01 DCOld= 1.00D+10 DXMaxT= 5.05D-01 DXLimC= 3.00D+00 Rises=F
 Iteration  1 RMS(Cart)=  0.01046535 RMS(Int)=  0.08790887
 Iteration  2 RMS(Cart)=  0.00629116 RMS(Int)=  0.08170539
 Iteration  3 RMS(Cart)=  0.00492655 RMS(Int)=  0.07685706
 Iteration  4 RMS(Cart)=  0.00411883 RMS(Int)=  0.07281245
 Iteration  5 RMS(Cart)=  0.00355181 RMS(Int)=  0.06933004
 Iteration  6 RMS(Cart)=  0.00311547 RMS(Int)=  0.06627981
 Iteration  7 RMS(Cart)=  0.00276710 RMS(Int)=  0.06357442
 Iteration  8 RMS(Cart)=  0.00248316 RMS(Int)=  0.06115003
 Iteration  9 RMS(Cart)=  0.00224725 RMS(Int)=  0.05895904
 Iteration 10 RMS(Cart)=  0.00204819 RMS(Int)=  0.05696497
 Iteration 11 RMS(Cart)=  0.00187445 RMS(Int)=  0.05514272
 Iteration 12 RMS(Cart)=  0.00171907 RMS(Int)=  0.05347404
 Iteration 13 RMS(Cart)=  0.00158417 RMS(Int)=  0.05193864
 Iteration 14 RMS(Cart)=  0.00146613 RMS(Int)=  0.05051984
 Iteration 15 RMS(Cart)=  0.00136207 RMS(Int)=  0.04920379
 Iteration 16 RMS(Cart)=  0.00126977 RMS(Int)=  0.04797884
 Iteration 17 RMS(Cart)=  0.00118743 RMS(Int)=  0.04683515
 Iteration 18 RMS(Cart)=  0.00111358 RMS(Int)=  0.04576431
 Iteration 19 RMS(Cart)=  0.00104705 RMS(Int)=  0.04475908
 Iteration 20 RMS(Cart)=  0.00098684 RMS(Int)=  0.04381321
 Iteration 21 RMS(Cart)=  0.00093214 RMS(Int)=  0.04292124
 Iteration 22 RMS(Cart)=  0.00088226 RMS(Int)=  0.04207840
 Iteration 23 RMS(Cart)=  0.00083663 RMS(Int)=  0.04128050
 Iteration 24 RMS(Cart)=  0.00079475 RMS(Int)=  0.04052383
 Iteration 25 RMS(Cart)=  0.00075621 RMS(Int)=  0.03980507
 Iteration 26 RMS(Cart)=  0.00072063 RMS(Int)=  0.03912131
 Iteration 27 RMS(Cart)=  0.00068772 RMS(Int)=  0.03846991
 Iteration 28 RMS(Cart)=  0.00028521 RMS(Int)=  0.03820034
 Iteration 29 RMS(Cart)=  0.00027905 RMS(Int)=  0.03793678
 Iteration 30 RMS(Cart)=  0.00027310 RMS(Int)=  0.03767904
 Iteration 31 RMS(Cart)=  0.00026736 RMS(Int)=  0.03742689
 Iteration 32 RMS(Cart)=  0.00026182 RMS(Int)=  0.03718015
 Iteration 33 RMS(Cart)=  0.00025647 RMS(Int)=  0.03693864
 Iteration 34 RMS(Cart)=  0.00025129 RMS(Int)=  0.03670218
 Iteration 35 RMS(Cart)=  0.00024629 RMS(Int)=  0.03647060
 Iteration 36 RMS(Cart)=  0.00024145 RMS(Int)=  0.03624373
 Iteration 37 RMS(Cart)=  0.00023676 RMS(Int)=  0.03602144
 Iteration 38 RMS(Cart)=  0.00023222 RMS(Int)=  0.03580357
 New curvilinear step failed, DQL= 5.44D+00 SP=-2.59D-02.
 ITry= 5 IFail=1 DXMaxC= 4.48D-01 DCOld= 1.00D+10 DXMaxT= 5.05D-01 DXLimC= 3.00D+00 Rises=F
 Iteration  1 RMS(Cart)=  0.01046535 RMS(Int)=  0.08790887
 Iteration  2 RMS(Cart)=  0.00629116 RMS(Int)=  0.08170539
 Iteration  3 RMS(Cart)=  0.00492655 RMS(Int)=  0.07685706
 Iteration  4 RMS(Cart)=  0.00411883 RMS(Int)=  0.07281245
 Iteration  5 RMS(Cart)=  0.00355181 RMS(Int)=  0.06933004
 Iteration  6 RMS(Cart)=  0.00311547 RMS(Int)=  0.06627981
 Iteration  7 RMS(Cart)=  0.00276710 RMS(Int)=  0.06357442
 Iteration  8 RMS(Cart)=  0.00248316 RMS(Int)=  0.06115003
 Iteration  9 RMS(Cart)=  0.00224725 RMS(Int)=  0.05895904
 Iteration 10 RMS(Cart)=  0.00204819 RMS(Int)=  0.05696497
 Iteration 11 RMS(Cart)=  0.00187445 RMS(Int)=  0.05514272
 Iteration 12 RMS(Cart)=  0.00171907 RMS(Int)=  0.05347404
 Iteration 13 RMS(Cart)=  0.00158417 RMS(Int)=  0.05193864
 Iteration 14 RMS(Cart)=  0.00146613 RMS(Int)=  0.05051984
 Iteration 15 RMS(Cart)=  0.00136207 RMS(Int)=  0.04920379
 Iteration 16 RMS(Cart)=  0.00126977 RMS(Int)=  0.04797884
 Iteration 17 RMS(Cart)=  0.00118743 RMS(Int)=  0.04683515
 Iteration 18 RMS(Cart)=  0.00111358 RMS(Int)=  0.04576431
 Iteration 19 RMS(Cart)=  0.00104705 RMS(Int)=  0.04475908
 Iteration 20 RMS(Cart)=  0.00098684 RMS(Int)=  0.04381321
 Iteration 21 RMS(Cart)=  0.00093214 RMS(Int)=  0.04292124
 Iteration 22 RMS(Cart)=  0.00088226 RMS(Int)=  0.04207840
 Iteration 23 RMS(Cart)=  0.00083663 RMS(Int)=  0.04128050
 Iteration 24 RMS(Cart)=  0.00079475 RMS(Int)=  0.04052383
 Iteration 25 RMS(Cart)=  0.00075621 RMS(Int)=  0.03980507
 Iteration 26 RMS(Cart)=  0.00072063 RMS(Int)=  0.03912131
 Iteration 27 RMS(Cart)=  0.00068772 RMS(Int)=  0.03846991
 Iteration 28 RMS(Cart)=  0.00028521 RMS(Int)=  0.03820034
 Iteration 29 RMS(Cart)=  0.00027905 RMS(Int)=  0.03793678
 Iteration 30 RMS(Cart)=  0.00027310 RMS(Int)=  0.03767904
 Iteration 31 RMS(Cart)=  0.00026736 RMS(Int)=  0.03742689
 Iteration 32 RMS(Cart)=  0.00026182 RMS(Int)=  0.03718015
 Iteration 33 RMS(Cart)=  0.00025647 RMS(Int)=  0.03693864
 Iteration 34 RMS(Cart)=  0.00025129 RMS(Int)=  0.03670218
 Iteration 35 RMS(Cart)=  0.00024629 RMS(Int)=  0.03647060
 Iteration 36 RMS(Cart)=  0.00024145 RMS(Int)=  0.03624373
 Iteration 37 RMS(Cart)=  0.00023676 RMS(Int)=  0.03602144
 Iteration 38 RMS(Cart)=  0.00023222 RMS(Int)=  0.03580357
 New curvilinear step failed, DQL= 5.44D+00 SP=-2.59D-02.
 ITry= 6 IFail=1 DXMaxC= 4.48D-01 DCOld= 1.00D+10 DXMaxT= 5.05D-01 DXLimC= 3.00D+00 Rises=F
 Iteration  1 RMS(Cart)=  0.01046535 RMS(Int)=  0.08790887
 Iteration  2 RMS(Cart)=  0.00629116 RMS(Int)=  0.08170539
 Iteration  3 RMS(Cart)=  0.00492655 RMS(Int)=  0.07685706
 Iteration  4 RMS(Cart)=  0.00411883 RMS(Int)=  0.07281245
 Iteration  5 RMS(Cart)=  0.00355181 RMS(Int)=  0.06933004
 Iteration  6 RMS(Cart)=  0.00311547 RMS(Int)=  0.06627981
 Iteration  7 RMS(Cart)=  0.00276710 RMS(Int)=  0.06357442
 Iteration  8 RMS(Cart)=  0.00248316 RMS(Int)=  0.06115003
 Iteration  9 RMS(Cart)=  0.00224725 RMS(Int)=  0.05895904
 Iteration 10 RMS(Cart)=  0.00204819 RMS(Int)=  0.05696497
 Iteration 11 RMS(Cart)=  0.00187445 RMS(Int)=  0.05514272
 Iteration 12 RMS(Cart)=  0.00171907 RMS(Int)=  0.05347404
 Iteration 13 RMS(Cart)=  0.00158417 RMS(Int)=  0.05193864
 Iteration 14 RMS(Cart)=  0.00146613 RMS(Int)=  0.05051984
 Iteration 15 RMS(Cart)=  0.00136207 RMS(Int)=  0.04920379
 Iteration 16 RMS(Cart)=  0.00126977 RMS(Int)=  0.04797884
 Iteration 17 RMS(Cart)=  0.00118743 RMS(Int)=  0.04683515
 Iteration 18 RMS(Cart)=  0.00111358 RMS(Int)=  0.04576431
 Iteration 19 RMS(Cart)=  0.00104705 RMS(Int)=  0.04475908
 Iteration 20 RMS(Cart)=  0.00098684 RMS(Int)=  0.04381321
 Iteration 21 RMS(Cart)=  0.00093214 RMS(Int)=  0.04292124
 Iteration 22 RMS(Cart)=  0.00088226 RMS(Int)=  0.04207840
 Iteration 23 RMS(Cart)=  0.00083663 RMS(Int)=  0.04128050
 Iteration 24 RMS(Cart)=  0.00079475 RMS(Int)=  0.04052383
 Iteration 25 RMS(Cart)=  0.00075621 RMS(Int)=  0.03980507
 Iteration 26 RMS(Cart)=  0.00072063 RMS(Int)=  0.03912131
 Iteration 27 RMS(Cart)=  0.00068772 RMS(Int)=  0.03846991
 Iteration 28 RMS(Cart)=  0.00028521 RMS(Int)=  0.03820034
 Iteration 29 RMS(Cart)=  0.00027905 RMS(Int)=  0.03793678
 Iteration 30 RMS(Cart)=  0.00027310 RMS(Int)=  0.03767904
 Iteration 31 RMS(Cart)=  0.00026736 RMS(Int)=  0.03742689
 Iteration 32 RMS(Cart)=  0.00026182 RMS(Int)=  0.03718015
 Iteration 33 RMS(Cart)=  0.00025647 RMS(Int)=  0.03693864
 Iteration 34 RMS(Cart)=  0.00025129 RMS(Int)=  0.03670218
 Iteration 35 RMS(Cart)=  0.00024629 RMS(Int)=  0.03647060
 Iteration 36 RMS(Cart)=  0.00024145 RMS(Int)=  0.03624373
 Iteration 37 RMS(Cart)=  0.00023676 RMS(Int)=  0.03602144
 Iteration 38 RMS(Cart)=  0.00023222 RMS(Int)=  0.03580357
 New curvilinear step failed, DQL= 5.44D+00 SP=-2.59D-02.
 ITry= 7 IFail=1 DXMaxC= 4.48D-01 DCOld= 1.00D+10 DXMaxT= 5.05D-01 DXLimC= 3.00D+00 Rises=F
 Iteration  1 RMS(Cart)=  0.01046535 RMS(Int)=  0.08790887
 Iteration  2 RMS(Cart)=  0.00629116 RMS(Int)=  0.08170539
 Iteration  3 RMS(Cart)=  0.00492655 RMS(Int)=  0.07685706
 Iteration  4 RMS(Cart)=  0.00411883 RMS(Int)=  0.07281245
 Iteration  5 RMS(Cart)=  0.00355181 RMS(Int)=  0.06933004
 Iteration  6 RMS(Cart)=  0.00311547 RMS(Int)=  0.06627981
 Iteration  7 RMS(Cart)=  0.00276710 RMS(Int)=  0.06357442
 Iteration  8 RMS(Cart)=  0.00248316 RMS(Int)=  0.06115003
 Iteration  9 RMS(Cart)=  0.00224725 RMS(Int)=  0.05895904
 Iteration 10 RMS(Cart)=  0.00204819 RMS(Int)=  0.05696497
 Iteration 11 RMS(Cart)=  0.00187445 RMS(Int)=  0.05514272
 Iteration 12 RMS(Cart)=  0.00171907 RMS(Int)=  0.05347404
 Iteration 13 RMS(Cart)=  0.00158417 RMS(Int)=  0.05193864
 Iteration 14 RMS(Cart)=  0.00146613 RMS(Int)=  0.05051984
 Iteration 15 RMS(Cart)=  0.00136207 RMS(Int)=  0.04920379
 Iteration 16 RMS(Cart)=  0.00126977 RMS(Int)=  0.04797884
 Iteration 17 RMS(Cart)=  0.00118743 RMS(Int)=  0.04683515
 Iteration 18 RMS(Cart)=  0.00111358 RMS(Int)=  0.04576431
 Iteration 19 RMS(Cart)=  0.00104705 RMS(Int)=  0.04475908
 Iteration 20 RMS(Cart)=  0.00098684 RMS(Int)=  0.04381321
 Iteration 21 RMS(Cart)=  0.00093214 RMS(Int)=  0.04292124
 Iteration 22 RMS(Cart)=  0.00088226 RMS(Int)=  0.04207840
 Iteration 23 RMS(Cart)=  0.00083663 RMS(Int)=  0.04128050
 Iteration 24 RMS(Cart)=  0.00079475 RMS(Int)=  0.04052383
 Iteration 25 RMS(Cart)=  0.00075621 RMS(Int)=  0.03980507
 Iteration 26 RMS(Cart)=  0.00072063 RMS(Int)=  0.03912131
 Iteration 27 RMS(Cart)=  0.00068772 RMS(Int)=  0.03846991
 Iteration 28 RMS(Cart)=  0.00028521 RMS(Int)=  0.03820034
 Iteration 29 RMS(Cart)=  0.00027905 RMS(Int)=  0.03793678
 Iteration 30 RMS(Cart)=  0.00027310 RMS(Int)=  0.03767904
 Iteration 31 RMS(Cart)=  0.00026736 RMS(Int)=  0.03742689
 Iteration 32 RMS(Cart)=  0.00026182 RMS(Int)=  0.03718015
 Iteration 33 RMS(Cart)=  0.00025647 RMS(Int)=  0.03693864
 Iteration 34 RMS(Cart)=  0.00025129 RMS(Int)=  0.03670218
 Iteration 35 RMS(Cart)=  0.00024629 RMS(Int)=  0.03647060
 Iteration 36 RMS(Cart)=  0.00024145 RMS(Int)=  0.03624373
 Iteration 37 RMS(Cart)=  0.00023676 RMS(Int)=  0.03602144
 Iteration 38 RMS(Cart)=  0.00023222 RMS(Int)=  0.03580357
 New curvilinear step failed, DQL= 5.44D+00 SP=-2.59D-02.
 ITry= 8 IFail=1 DXMaxC= 4.48D-01 DCOld= 1.00D+10 DXMaxT= 5.05D-01 DXLimC= 3.00D+00 Rises=F
 Iteration  1 RMS(Cart)=  0.01046535 RMS(Int)=  0.08790887
 Iteration  2 RMS(Cart)=  0.00629116 RMS(Int)=  0.08170539
 Iteration  3 RMS(Cart)=  0.00492655 RMS(Int)=  0.07685706
 Iteration  4 RMS(Cart)=  0.00411883 RMS(Int)=  0.07281245
 Iteration  5 RMS(Cart)=  0.00355181 RMS(Int)=  0.06933004
 Iteration  6 RMS(Cart)=  0.00311547 RMS(Int)=  0.06627981
 Iteration  7 RMS(Cart)=  0.00276710 RMS(Int)=  0.06357442
 Iteration  8 RMS(Cart)=  0.00248316 RMS(Int)=  0.06115003
 Iteration  9 RMS(Cart)=  0.00224725 RMS(Int)=  0.05895904
 Iteration 10 RMS(Cart)=  0.00204819 RMS(Int)=  0.05696497
 Iteration 11 RMS(Cart)=  0.00187445 RMS(Int)=  0.05514272
 Iteration 12 RMS(Cart)=  0.00171907 RMS(Int)=  0.05347404
 Iteration 13 RMS(Cart)=  0.00158417 RMS(Int)=  0.05193864
 Iteration 14 RMS(Cart)=  0.00146613 RMS(Int)=  0.05051984
 Iteration 15 RMS(Cart)=  0.00136207 RMS(Int)=  0.04920379
 Iteration 16 RMS(Cart)=  0.00126977 RMS(Int)=  0.04797884
 Iteration 17 RMS(Cart)=  0.00118743 RMS(Int)=  0.04683515
 Iteration 18 RMS(Cart)=  0.00111358 RMS(Int)=  0.04576431
 Iteration 19 RMS(Cart)=  0.00104705 RMS(Int)=  0.04475908
 Iteration 20 RMS(Cart)=  0.00098684 RMS(Int)=  0.04381321
 Iteration 21 RMS(Cart)=  0.00093214 RMS(Int)=  0.04292124
 Iteration 22 RMS(Cart)=  0.00088226 RMS(Int)=  0.04207840
 Iteration 23 RMS(Cart)=  0.00083663 RMS(Int)=  0.04128050
 Iteration 24 RMS(Cart)=  0.00079475 RMS(Int)=  0.04052383
 Iteration 25 RMS(Cart)=  0.00075621 RMS(Int)=  0.03980507
 Iteration 26 RMS(Cart)=  0.00072063 RMS(Int)=  0.03912131
 Iteration 27 RMS(Cart)=  0.00068772 RMS(Int)=  0.03846991
 Iteration 28 RMS(Cart)=  0.00028521 RMS(Int)=  0.03820034
 Iteration 29 RMS(Cart)=  0.00027905 RMS(Int)=  0.03793678
 Iteration 30 RMS(Cart)=  0.00027310 RMS(Int)=  0.03767904
 Iteration 31 RMS(Cart)=  0.00026736 RMS(Int)=  0.03742689
 Iteration 32 RMS(Cart)=  0.00026182 RMS(Int)=  0.03718015
 Iteration 33 RMS(Cart)=  0.00025647 RMS(Int)=  0.03693864
 Iteration 34 RMS(Cart)=  0.00025129 RMS(Int)=  0.03670218
 Iteration 35 RMS(Cart)=  0.00024629 RMS(Int)=  0.03647060
 Iteration 36 RMS(Cart)=  0.00024145 RMS(Int)=  0.03624373
 Iteration 37 RMS(Cart)=  0.00023676 RMS(Int)=  0.03602144
 Iteration 38 RMS(Cart)=  0.00023222 RMS(Int)=  0.03580357
 New curvilinear step failed, DQL= 5.44D+00 SP=-2.59D-02.
 ITry= 9 IFail=1 DXMaxC= 4.48D-01 DCOld= 1.00D+10 DXMaxT= 5.05D-01 DXLimC= 3.00D+00 Rises=F
 Iteration  1 RMS(Cart)=  0.01046535 RMS(Int)=  0.08790887
 Iteration  2 RMS(Cart)=  0.00629116 RMS(Int)=  0.08170539
 Iteration  3 RMS(Cart)=  0.00492655 RMS(Int)=  0.07685706
 Iteration  4 RMS(Cart)=  0.00411883 RMS(Int)=  0.07281245
 Iteration  5 RMS(Cart)=  0.00355181 RMS(Int)=  0.06933004
 Iteration  6 RMS(Cart)=  0.00311547 RMS(Int)=  0.06627981
 Iteration  7 RMS(Cart)=  0.00276710 RMS(Int)=  0.06357442
 Iteration  8 RMS(Cart)=  0.00248316 RMS(Int)=  0.06115003
 Iteration  9 RMS(Cart)=  0.00224725 RMS(Int)=  0.05895904
 Iteration 10 RMS(Cart)=  0.00204819 RMS(Int)=  0.05696497
 Iteration 11 RMS(Cart)=  0.00187445 RMS(Int)=  0.05514272
 Iteration 12 RMS(Cart)=  0.00171907 RMS(Int)=  0.05347404
 Iteration 13 RMS(Cart)=  0.00158417 RMS(Int)=  0.05193864
 Iteration 14 RMS(Cart)=  0.00146613 RMS(Int)=  0.05051984
 Iteration 15 RMS(Cart)=  0.00136207 RMS(Int)=  0.04920379
 Iteration 16 RMS(Cart)=  0.00126977 RMS(Int)=  0.04797884
 Iteration 17 RMS(Cart)=  0.00118743 RMS(Int)=  0.04683515
 Iteration 18 RMS(Cart)=  0.00111358 RMS(Int)=  0.04576431
 Iteration 19 RMS(Cart)=  0.00104705 RMS(Int)=  0.04475908
 Iteration 20 RMS(Cart)=  0.00098684 RMS(Int)=  0.04381321
 Iteration 21 RMS(Cart)=  0.00093214 RMS(Int)=  0.04292124
 Iteration 22 RMS(Cart)=  0.00088226 RMS(Int)=  0.04207840
 Iteration 23 RMS(Cart)=  0.00083663 RMS(Int)=  0.04128050
 Iteration 24 RMS(Cart)=  0.00079475 RMS(Int)=  0.04052383
 Iteration 25 RMS(Cart)=  0.00075621 RMS(Int)=  0.03980507
 Iteration 26 RMS(Cart)=  0.00072063 RMS(Int)=  0.03912131
 Iteration 27 RMS(Cart)=  0.00068772 RMS(Int)=  0.03846991
 Iteration 28 RMS(Cart)=  0.00028521 RMS(Int)=  0.03820034
 Iteration 29 RMS(Cart)=  0.00027905 RMS(Int)=  0.03793678
 Iteration 30 RMS(Cart)=  0.00027310 RMS(Int)=  0.03767904
 Iteration 31 RMS(Cart)=  0.00026736 RMS(Int)=  0.03742689
 Iteration 32 RMS(Cart)=  0.00026182 RMS(Int)=  0.03718015
 Iteration 33 RMS(Cart)=  0.00025647 RMS(Int)=  0.03693864
 Iteration 34 RMS(Cart)=  0.00025129 RMS(Int)=  0.03670218
 Iteration 35 RMS(Cart)=  0.00024629 RMS(Int)=  0.03647060
 Iteration 36 RMS(Cart)=  0.00024145 RMS(Int)=  0.03624373
 Iteration 37 RMS(Cart)=  0.00023676 RMS(Int)=  0.03602144
 Iteration 38 RMS(Cart)=  0.00023222 RMS(Int)=  0.03580357
 New curvilinear step failed, DQL= 5.44D+00 SP=-2.59D-02.
 ITry=10 IFail=1 DXMaxC= 4.48D-01 DCOld= 1.00D+10 DXMaxT= 5.05D-01 DXLimC= 3.00D+00 Rises=F
 RedQX1 iteration     1 Try  1 RMS(Cart)=  0.01999532 RMS(Int)=  0.07824182 XScale=  4.89492317
 RedQX1 iteration     1 Try  2 RMS(Cart)=  0.01999157 RMS(Int)=  0.05761114 XScale=  2.35016125
 RedQX1 iteration     1 Try  3 RMS(Cart)=  0.01999119 RMS(Int)=  0.04239129 XScale=  1.40246910
 RedQX1 iteration     1 Try  4 RMS(Cart)=  0.02014528 RMS(Int)=  0.47811087 XScale=  0.21034467
 RedQX1 iteration     2 Try  1 RMS(Cart)=  0.00805811 RMS(Int)=  0.03794510 XScale=  1.24778165
 RedQX1 iteration     2 Try  2 RMS(Cart)=  0.00810851 RMS(Int)=  0.43982498 XScale=  0.22928841
 RedQX1 iteration     3 Try  1 RMS(Cart)=  0.00648681 RMS(Int)=  0.39086800 XScale=  0.25857557
 RedQX1 iteration     4 Try  1 RMS(Cart)=  0.00129736 RMS(Int)=  0.03586662 XScale=  1.24645392
 RedQX1 iteration     4 Try  2 RMS(Cart)=  0.00129635 RMS(Int)=  0.03351273 XScale=  1.24839834
 RedQX1 iteration     4 Try  3 RMS(Cart)=  0.00129475 RMS(Int)=  0.03090804 XScale=  1.25374014
 RedQX1 iteration     4 Try  4 RMS(Cart)=  0.00129255 RMS(Int)=  0.02821179 XScale=  1.26208064
 RedQX1 iteration     4 Try  5 RMS(Cart)=  0.00128992 RMS(Int)=  0.48634839 XScale=  0.20720899
 RedQX1 iteration     5 Try  1 RMS(Cart)=  0.00108354 RMS(Int)=  0.48885563 XScale=  0.20614544
 RedQX1 iteration     6 Try  1 RMS(Cart)=  0.00021671 RMS(Int)=  0.02835048 XScale=  1.25384202
[...]
 ! D44   D(10,3,4,11)           66.9841         -DE/DX =    0.0                 !
 ! D45   D(10,3,4,12)          -67.0033         -DE/DX =    0.0                 !
 ! D46   D(2,3,6,1)            -36.5418         -DE/DX =    0.0                 !
 ! D47   D(2,3,6,5)             55.5826         -DE/DX =    0.0                 !
 ! D48   D(2,3,6,14)           178.452          -DE/DX =    0.0                 !
 ! D49   D(4,3,6,1)           -128.6656         -DE/DX =    0.0                 !
 ! D50   D(4,3,6,5)            -36.5413         -DE/DX =    0.0                 !
 ! D51   D(4,3,6,14)            86.3281         -DE/DX =    0.0                 !
 ! D52   D(10,3,6,1)            86.3454         -DE/DX =    0.0                 !
 ! D53   D(10,3,6,5)           178.4697         -DE/DX =    0.0                 !
 ! D54   D(10,3,6,14)          -58.6608         -DE/DX =    0.0                 !
 ! D55   D(3,4,5,2)             36.9858         -DE/DX =    0.0                 !
 ! D56   D(3,4,5,6)            -36.9889         -DE/DX =    0.0                 !
 ! D57   D(3,4,5,13)           179.9991         -DE/DX =    0.0                 !
 ! D58   D(11,4,5,2)           149.996          -DE/DX =    0.0                 !
 ! D59   D(11,4,5,6)            76.0213         -DE/DX =    0.0                 !
 ! D60   D(11,4,5,13)          -66.9908         -DE/DX =    0.0                 !
 ! D61   D(12,4,5,2)           -76.0103         -DE/DX =    0.0                 !
 ! D62   D(12,4,5,6)          -149.985          -DE/DX =    0.0                 !
 ! D63   D(12,4,5,13)           67.003          -DE/DX =    0.0                 !
 ! D64   D(2,5,6,1)             36.5391         -DE/DX =    0.0                 !
 ! D65   D(2,5,6,3)            -55.5853         -DE/DX =    0.0                 !
 ! D66   D(2,5,6,14)          -178.4572         -DE/DX =    0.0                 !
 ! D67   D(4,5,6,1)            128.6678         -DE/DX =    0.0                 !
 ! D68   D(4,5,6,3)             36.5433         -DE/DX =    0.0                 !
 ! D69   D(4,5,6,14)           -86.3285         -DE/DX =    0.0                 !
 ! D70   D(13,5,6,1)           -86.3355         -DE/DX =    0.0                 !
 ! D71   D(13,5,6,3)          -178.46           -DE/DX =    0.0                 !
 ! D72   D(13,5,6,14)           58.6682         -DE/DX =    0.0                 !
 --------------------------------------------------------------------------------
 GradGradGradGradGradGradGradGradGradGradGradGradGradGradGradGradGradGrad


 ----------------------------------------------------------------------

 Electric dipole moment (input orientation):
 (Debye = 10**-18 statcoulomb cm , SI units = C m)
                  (au)            (Debye)         (10**-30 SI)
   Tot        0.298502D-04      0.758717D-04      0.253081D-03
   x          0.140664D-04      0.357532D-04      0.119260D-03
   y          0.000000D+00      0.000000D+00      0.000000D+00
   z         -0.263282D-04     -0.669195D-04     -0.223220D-03

 Dipole polarizability, Alpha (input orientation).
 (esu units = cm**3 , SI units = C**2 m**2 J**-1)
 Alpha(0;0):
               (au)            (10**-24 esu)      (10**-40 SI)
   iso        0.573116D+02      0.849271D+01      0.944941D+01
   aniso      0.101603D+02      0.150560D+01      0.167521D+01
   xx         0.564309D+02      0.836220D+01      0.930420D+01
   yx         0.433438D+01      0.642289D+00      0.714643D+00
   yy         0.614194D+02      0.910142D+01      0.101267D+02
   zx        -0.631309D+00     -0.935504D-01     -0.104089D+00
   zy        -0.109242D+01     -0.161880D+00     -0.180116D+00
   zz         0.540846D+02      0.801451D+01      0.891734D+01

 ----------------------------------------------------------------------

 Dipole orientation:
     6          1.17983330         -2.68493427          0.96135597
     6         -0.03010248         -1.40657747         -1.35920009
     6         -1.92830607          0.14982226          0.30452026
     6         -1.20771329          2.66668098         -0.97218429
     6          1.29562385          1.18735733         -0.80516213
     6          0.60699280          0.03287211          1.83819623
     1          3.17424566         -3.21387685          0.80210261
     1          0.09771062         -4.20277496          1.86036144
     1         -0.42201861         -2.18754549         -3.22765982
     1         -3.77040906         -0.50196449          0.96520979
     1         -1.36038225          4.37679333          0.18327230
     1         -1.96826811          3.00291366         -2.86729044
     1          3.18386951          1.73576336         -1.42844305
     1          0.95245695          0.91768719          3.66912978

 Electric dipole moment (dipole orientation):
 (Debye = 10**-18 statcoulomb cm , SI units = C m)
                  (au)            (Debye)         (10**-30 SI)
   Tot        0.298695D-04      0.759208D-04      0.253245D-03
   x          0.000000D+00      0.000000D+00      0.000000D+00
   y          0.000000D+00      0.000000D+00      0.000000D+00
   z          0.298695D-04      0.759208D-04      0.253245D-03

 Dipole polarizability, Alpha (dipole orientation).
 (esu units = cm**3 , SI units = C**2 m**2 J**-1)
 Alpha(0;0):
               (au)            (10**-24 esu)      (10**-40 SI)
   iso        0.573116D+02      0.849271D+01      0.944941D+01
   aniso      0.101603D+02      0.150560D+01      0.167521D+01
   xx         0.554460D+02      0.821625D+01      0.914181D+01
   yx        -0.340940D+01     -0.505222D+00     -0.562135D+00
   yy         0.615664D+02      0.912320D+01      0.101509D+02
   zx         0.123125D+01      0.182452D+00      0.203005D+00
   zy        -0.276127D+01     -0.409178D+00     -0.455272D+00
   zz         0.549225D+02      0.813867D+01      0.905549D+01

 ----------------------------------------------------------------------
 1\1\GINC-LEWIS4-R630-HPC4RC-NODE355\Freq\RB3LYP\6-31G(2df,p)\C6H8\LINJ
 IAN\28-May-2023\0\\#N Geom=AllCheck Guess=TCheck SCRF=Check GenChk RB3
 LYP/6-31G(2df,p) Freq\\Title Card Required\\0,1\C,0.8031092964,1.40715
 561,-0.205484096\C,-0.3460705279,0.7695376874,0.5997146223\C,-0.824961
 2001,-0.094207057,-0.619730256\C,-0.8187352257,-1.3974297649,0.2032396
 875\C,0.3984936457,-0.6063984256,0.7210262389\C,0.7412741317,-0.049470
 7225,-0.7055128343\H,1.6969357923,1.6993972335,0.3557480161\H,0.529238
 4191,2.1875492722,-0.9233657204\H,-0.9909253073,1.2162119155,1.3587061
 179\H,-1.5171059057,0.2291206923,-1.3993626256\H,-0.6102020048,-2.3244
 743428,-0.341212836\H,-1.6476324682,-1.542795126,0.9040527687\H,1.1219
 925639,-0.8755491175,1.4927415698\H,1.3545987907,-0.5505678544,-1.4566
 00653\\Version=ES64L-G16RevA.03\State=1-A\HF=-233.3392122\RMSD=1.769e-
 09\RMSF=2.263e-05\ZeroPoint=0.1217021\Thermal=0.1260784\Dipole=0.00001
 41,-0.0000011,-0.0000263\DipoleDeriv=0.134119,0.0418299,0.1993579,0.04
 18548,0.1141635,-0.1225094,0.1993129,-0.1225238,0.1062742,0.0693021,-0
 .0022874,-0.1968036,-0.0127138,0.0258704,0.0770194,-0.2007905,0.067442
 8,0.0635962,0.0357392,-0.0223585,0.1649409,-0.0121885,0.0482071,-0.131
 6659,0.1585733,-0.1401244,0.0746275,0.0923766,0.0068193,-0.2064174,0.0
 06822,0.168293,0.1103035,-0.2064389,0.1102753,0.0937985,0.1095823,0.03
 62067,0.1897209,0.0260086,-0.0052318,-0.0662797,0.1961256,-0.057854,0.
 0542863,0.0036024,-0.0446951,-0.1530457,-0.0342304,0.1113066,0.1292854
 ,-0.1490796,0.1388165,0.0437149,-0.1154406,-0.1135142,-0.0813172,-0.05
 92859,-0.0230687,0.007546,-0.1153394,-0.0376304,-0.0048043,0.0189201,0
 .0289253,-0.0587471,-0.0253937,-0.120336,0.0968099,-0.0246619,0.142057
 7,-0.0420248,-0.0637928,0.0522309,0.1294162,0.0274221,-0.042826,-0.062
 8172,0.1199299,-0.0854502,-0.0859267,-0.0767811,0.013492,-0.1192286,0.
 0376034,-0.0220751,0.0804128,-0.1343778,0.060329,-0.0936543,0.0269644,
 0.0276698,0.0477118,-0.0280589,-0.1695945,-0.0650229,0.0264263,-0.1158
 846,-0.0007176,-0.0925476,-0.0863603,0.1132018,-0.030587,-0.013995,-0.
 0032827,0.1345012,0.0476091,-0.0368893,-0.0902118,0.0288148,-0.1400248
 ,0.0047052,-0.0123369,0.0469119,-0.1249123,0.0670162,-0.0899717,-0.051
 8325,0.0332269,0.1112348,0.0580422,-0.0583767,-0.0967111,0.1207311,-0.
 0740791,-0.0823089\Polar=56.4309047,4.3343826,61.4194338,-0.6313093,-1
 .0924198,54.0845617\Quadrupole=0.0671929,-0.3132727,0.2460798,-0.33029
 75,0.0484521,0.0836852\PG=C01 [X(C6H8)]\NImag=0\\0.50161773,0.06967393
 ,0.53668624,0.12536676,-0.09136965,0.46043851,-0.12936249,-0.03115022,
 0.04231530,0.44690033,-0.03490828,-0.06306483,0.03452780,-0.05673587,0
 .44062293,0.04087671,0.03107460,-0.09542543,-0.18298272,0.11683114,0.4
 8169758,-0.03207011,-0.01757120,-0.01729584,-0.06000380,-0.01234890,-0
 .02459437,0.48243460,-0.05073619,-0.02495312,-0.02540309,-0.01361503,-
 0.07646513,-0.03905951,-0.02600529,0.39335395,0.00350984,0.00222417,0.
 00345386,-0.02033809,-0.04149477,-0.10184799,0.19325311,-0.09901689,0.
 49330641,-0.00487571,-0.00384355,0.00056040,0.00320004,0.00334380,0.00
 011265,-0.05144232,0.01310501,0.00721543,0.47405993,-0.00384308,-0.009
 29915,0.00096780,-0.03072303,-0.06023024,0.00429660,0.00943586,-0.1399
 1031,0.05172207,0.04652053,0.57248328,0.00056058,0.00096957,-0.0027945
 3,-0.01290050,-0.02679101,0.00346180,0.00951094,0.05477948,-0.09642675
 ,-0.14225144,0.06221597,0.45219441,0.00477923,-0.02658506,0.01906409,-
 0.06636542,0.03903725,-0.00130167,-0.04802687,0.02858388,-0.07413892,-
 0.13657746,-0.04267567,-0.02868559,0.48568092,0.00657820,-0.05161758,0
 .03907661,0.03843097,-0.11868351,0.00527331,0.01422887,-0.00134965,0.0
 2489339,-0.04635073,-0.07834443,-0.03334934,-0.02392228,0.39112699,-0.
 00174864,0.01145544,-0.00672465,-0.00627817,0.00598397,-0.05331702,-0.
 06513600,0.03685525,-0.05799695,-0.02638230,-0.03030088,-0.07294445,0.
 19462650,-0.09581275,0.49234611,-0.05375497,0.00199021,-0.01405977,-0.
 03454441,0.02538229,0.05893139,-0.13934522,-0.00365396,0.00330329,-0.0
 2955197,-0.01263999,0.02389283,-0.05569284,-0.00318400,0.02067774,0.44
 399976,0.00576365,-0.16153819,-0.04024746,0.04013065,-0.01889708,-0.05
 124374,-0.00308579,-0.04592696,0.00134015,-0.04670285,-0.01757027,0.03
 517177,-0.00563645,-0.05970271,0.02961379,-0.05814532,0.44431809,-0.01
 261520,-0.03681296,-0.07251957,0.06457345,-0.03779237,-0.05393358,0.00
 641373,-0.00261787,-0.05304129,0.01087842,0.00408641,-0.00644320,0.016
 85350,0.03185249,-0.12284093,-0.18088245,0.11961372,0.48075256,-0.2182
 8771,-0.05067665,-0.11043075,-0.01309537,-0.00510343,-0.01408490,-0.00
 096542,-0.00250857,0.00190708,0.00017389,-0.00083198,-0.00077286,-0.00
 005161,0.00033707,0.00106898,0.00290800,0.00058081,0.00358732,0.235158
 96,-0.05007015,-0.06572860,-0.03032802,-0.00308627,-0.00373198,-0.0050
 7430,-0.00355934,-0.00564921,-0.00027770,-0.00153263,-0.00010088,-0.00
 012985,0.00019798,0.00181448,-0.00196691,-0.02282948,-0.00220335,-0.00
 913887,0.06228911,0.06994540,-0.11081647,-0.03083136,-0.12052999,0.012
 60783,0.00405611,0.01175808,0.00256664,0.00059746,0.00039733,-0.000332
 66,0.00045477,0.00116535,0.00115470,-0.00185478,0.00053805,-0.00967379
 ,-0.00044481,-0.00575928,0.12189479,0.03432024,0.12193067,-0.06970900,
 0.04739982,-0.04818498,0.00930004,-0.01594488,0.01154039,0.00163098,0.
 00129797,0.00186579,0.00090738,-0.00105137,-0.00002230,-0.00148256,-0.
 00389958,0.00235051,-0.00234014,0.00126771,-0.00137325,-0.00586897,0.0
 1826038,-0.01636948,0.06746801,0.04678482,-0.17313563,0.11779616,0.002
 80368,-0.00558079,0.00093155,0.00143965,0.00059749,-0.00017435,-0.0003
 5067,-0.00063119,0.00118782,-0.00284630,-0.00527849,0.00008285,0.00391
 919,-0.01280007,0.01984520,-0.00225546,0.00626088,-0.00579094,-0.04770
 587,0.19122157,-0.04780338,0.11831142,-0.16162876,-0.00722401,0.010755
 67,-0.00879661,0.00177872,-0.00028957,0.00007534,-0.00046229,0.0006035
 5,0.00096236,0.00169011,-0.00079448,0.00053976,0.00396444,-0.00781242,
 0.01004541,-0.00349594,0.01129997,-0.00997665,0.05119823,-0.13343551,0
 .16832079,-0.00243318,0.01061428,0.00469913,-0.14291004,0.06080545,0.1
 1215849,0.00963387,-0.00456596,-0.00590166,0.00013482,0.00130277,-0.00
 148751,-0.00507249,-0.00074788,0.00722878,-0.00458457,0.00133896,0.003
 69129,-0.00036325,0.00029618,-0.00003056,0.00015813,-0.00024021,0.0001
 2538,0.14314388,-0.00396755,0.00870110,0.00760214,0.05979865,-0.098418
 55,-0.07480070,0.00795486,-0.00309515,0.00077387,0.00196016,0.00136351
 ,-0.00048899,0.00382372,-0.00038699,-0.01599873,0.00143253,-0.00429478
 ,-0.00252719,-0.00004668,0.00033642,-0.00019683,0.00025855,0.00034190,
 0.00031078,-0.07050085,0.09276376,-0.00086781,-0.00570383,-0.00311179,
 0.11176904,-0.07571589,-0.17633549,0.01307888,-0.00236644,-0.00539647,
 -0.00123613,0.00011042,-0.00087106,-0.00522104,0.00273323,0.00660597,0
 .00372656,-0.00244113,-0.00543355,0.00010940,0.00028859,0.00017973,0.0
 0004308,-0.00003343,-0.00034769,-0.12328048,0.08542429,0.18265440,-0.0
 0038758,0.00170029,0.00031181,-0.00125026,0.00139256,0.00370805,-0.156
 34554,0.04575876,-0.12112950,0.00301792,-0.00066536,0.00436902,-0.0053
 8458,0.00076187,-0.00404658,-0.00260630,0.00491705,-0.01774660,-0.0000
 4624,-0.00082131,-0.00000933,0.00020070,-0.00080801,0.00025428,0.00035
 979,-0.00028229,-0.00003064,0.16035733,0.00105981,0.00182663,-0.001543
 94,-0.01094086,0.00796927,-0.00514470,0.04673352,-0.07776502,0.0592334
 4,0.01352833,0.00331063,0.00811189,0.00067011,-0.00325689,0.00191141,0
 .00061980,-0.00262369,-0.00163701,-0.00027967,-0.00061226,0.00051736,0
 .00038232,-0.00003901,0.00065936,0.00041402,0.00044113,0.00023010,-0.0
 5356933,0.06754382,0.00071388,-0.00101062,-0.00081187,-0.00835796,0.00
 998296,-0.00556607,-0.12174811,0.05842310,-0.18354958,-0.00453811,-0.0
 0371487,-0.00317339,-0.00398963,0.00198839,-0.00567101,0.00476335,-0.0
 0290767,0.00637430,-0.00034903,0.00006607,0.00025114,-0.00049232,-0.00
 033288,0.00030301,0.00021408,0.00007651,0.00008081,0.13595012,-0.06347
 125,0.19064902,0.00097519,-0.00105159,0.00028455,-0.00179185,-0.004138
 70,-0.00119300,-0.00251911,0.00277064,0.00230926,-0.06176286,0.0444639
 4,0.02995578,0.00884697,-0.01938098,-0.00911875,0.00121343,0.00084194,
 -0.00223619,0.00017020,0.00011401,-0.00018670,-0.00040005,-0.00000830,
 0.00044140,-0.00000772,-0.00079233,0.00023678,0.00005070,0.00054292,0.
 00018436,0.05893869,-0.00033150,-0.00093155,-0.00071355,-0.00305860,-0
 .00472596,0.00150757,0.00131861,-0.01430527,-0.01435430,0.04383661,-0.
 22647897,-0.10834348,0.00405425,-0.00818317,-0.00136104,0.00098281,0.0
 0065200,-0.00004324,-0.00054695,-0.00007665,0.00025586,-0.00008117,-0.
 00012008,0.00024072,-0.00023593,-0.00066678,-0.00026233,0.00018592,-0.
 00007660,0.00024738,-0.04401554,0.25081467,0.00055962,-0.00005582,0.00
 119490,-0.00077994,0.00249372,0.00029806,-0.00316063,0.01335047,0.0117
 6267,0.02971184,-0.10891055,-0.11628480,0.00475143,-0.00901505,-0.0057
 4004,-0.00218135,0.00008767,0.00043693,0.00033366,-0.00003405,-0.00032
 594,-0.00035942,-0.00013962,0.00028835,0.00044921,0.00024544,0.0002671
 6,-0.00016006,-0.00010997,0.00017865,-0.03234795,0.11995798,0.11727591
 ,0.00032331,-0.00064948,0.00103278,-0.00027861,0.00025458,-0.00109645,
 0.00367461,-0.00039248,-0.00469017,-0.19385365,-0.02057869,0.12562199,
 -0.01260290,-0.00167652,0.01735263,-0.00133421,-0.00283467,-0.00111454
 ,-0.00015244,0.00012468,0.00004765,0.00015601,-0.00063961,-0.00024260,
 0.00019758,-0.00081816,-0.00003206,0.00028384,-0.00017172,-0.00003343,
 -0.00408101,-0.00103641,0.00335192,0.20802921,-0.00136993,-0.00008254,
 0.00055886,0.00011319,0.00259696,0.00149776,-0.01916011,-0.00003154,0.
 00989564,-0.01994967,-0.05441490,0.01556587,-0.00489296,-0.00260482,0.
 00882677,-0.00391691,-0.00532376,0.00206119,0.00007114,-0.00036693,-0.
 00037076,0.00014862,-0.00013318,-0.00002261,0.00040460,-0.00004504,-0.
 00057908,0.00033590,0.00021620,0.00002179,0.02003765,0.00394294,-0.016
 78860,0.02869311,0.05662655,0.00075817,-0.00009812,0.00099766,-0.00115
 195,0.00136563,-0.00001518,0.01347253,-0.00097427,-0.00872866,0.125857
 15,0.01614091,-0.15623386,-0.00920325,-0.00036260,0.01013386,-0.001525
 06,0.00107580,0.00043770,-0.00002424,0.00051447,0.00028727,0.00010956,
 -0.00023782,-0.00025462,0.00043446,0.00053672,0.00031199,0.00021601,0.
 00025251,-0.00034726,0.01140272,0.00244212,-0.00944645,-0.14059592,-0.
 02055271,0.16237023,0.00035864,0.00154910,0.00102640,-0.00520851,-0.00
 246615,-0.00580500,-0.00537917,0.00067185,-0.00398640,-0.00290163,0.00
 965044,-0.00703666,-0.16734253,0.03953066,-0.12638104,0.00871499,-0.00
 303031,0.00531034,0.00016226,0.00035632,-0.00050829,-0.00006198,-0.000
 29006,-0.00035581,0.00001352,0.00003527,0.00001128,0.00135376,0.000801
 55,-0.00196217,0.00013616,-0.00027066,-0.00011135,-0.00036794,0.000270
 85,0.00002331,0.17018568,0.00218743,0.00128366,-0.00026418,0.00669714,
 0.00289740,0.01634724,0.00076448,-0.00326107,0.00199248,-0.00454429,0.
 00759645,-0.00963591,0.03855325,-0.06981761,0.04741257,0.00444038,-0.0
 0287889,-0.00190612,-0.00083223,-0.00001148,-0.00036977,-0.00083146,-0
 .00060097,0.00005058,-0.00000126,0.00054295,-0.00040271,0.00082779,0.0
 0290431,0.00081592,0.00019562,0.00024456,-0.00047088,-0.00004538,0.000
 30491,0.00017278,-0.04713082,0.06044205,0.00062623,-0.00079579,-0.0010
 1808,0.00505386,-0.00168018,0.00345632,-0.00404596,0.00191544,-0.00567
 123,0.00187197,0.00219133,-0.00154001,-0.12577514,0.04823011,-0.180497
 43,-0.01598038,0.00225714,-0.00468384,0.00023832,0.00062042,0.00031339
 ,-0.00001581,0.00050158,0.00025542,0.00001718,0.00035014,0.00032554,-0
 .00197893,0.00079371,0.00095803,-0.00014239,-0.00007782,-0.00022775,-0
 .00004114,-0.00034660,0.00021600,0.14009839,-0.05363143,0.18792246,0.0
 0282667,-0.00139987,-0.00468989,-0.00458966,0.00143028,0.00373042,-0.0
 0127649,0.00928938,0.01682093,-0.00052837,0.00163562,-0.00075427,-0.00
 070785,-0.00070567,-0.00421367,-0.13308155,0.06459461,0.10466016,0.000
 25771,0.00026054,-0.00034433,0.00004146,0.00019717,0.00013146,0.001729
 65,0.00114411,0.00169313,0.00039646,0.00020920,-0.00035502,0.00023125,
 -0.00080142,-0.00005697,0.00000620,-0.00078549,0.00022650,0.00033676,-
 0.00028066,0.00007380,0.13435777,0.01317883,0.00185356,-0.01065946,0.0
 0133561,-0.00428848,-0.00243682,-0.00014522,-0.00123900,0.00324281,0.0
 0097995,0.00222646,0.00073622,-0.00836172,0.00628438,0.00329825,0.0656
 0246,-0.11121032,-0.08498338,-0.00019650,0.00012416,-0.00034255,0.0004
 9896,-0.00010244,0.00012253,0.00111584,0.00241651,-0.00128180,0.000266
 17,0.00016148,-0.00018483,0.00042072,-0.00008915,-0.00061075,-0.000229
 25,-0.00068487,-0.00027542,0.00032197,0.00035374,-0.00032806,-0.074787
 80,0.10419395,0.00087971,0.00264295,-0.00152026,0.00369384,-0.00252278
 ,-0.00543446,-0.00409364,0.00380643,0.00366332,-0.00100494,0.00013649,
 -0.00107187,0.01017492,-0.01285852,-0.00443126,0.10504319,-0.08406281,
 -0.17339166,0.00001817,-0.00016008,-0.00022916,-0.00029002,-0.00020061
 ,0.00021389,0.00168221,-0.00130747,0.00107044,0.00029235,0.00019708,0.
 00032419,0.00041012,0.00050414,0.00032235,0.00043933,0.00023249,0.0002
 7133,-0.00032300,-0.00011059,0.00019116,-0.11692225,0.09370326,0.18002
 197\\0.00002309,-0.00001613,0.00005344,0.00005043,0.00002360,-0.000025
 13,-0.00002989,-0.00000635,0.00001214,0.00002856,-0.00002334,-0.000005
 69,-0.00005533,-0.00002927,0.00001846,0.00001688,0.00005799,-0.0000371
 7,0.00000225,0.00001573,-0.00000903,-0.00001254,-0.00000410,-0.0000126
 9,-0.00001296,-0.00001633,-0.00000203,0.00000398,0.00000232,-0.0000085
 4,-0.00000528,-0.00000568,0.00000164,-0.00000204,0.00000925,0.00000118
 ,0.00000862,0.00001264,0.00000412,-0.00001578,-0.00002034,0.00000930\\
 \@


 QUANTUM MECHANICS IS BOHRING -- M.S. GORDON
 Job cpu time:       0 days  0 hours 46 minutes  1.9 seconds.
 Elapsed time:       0 days  0 hours 11 minutes 31.1 seconds.
 File lengths (MBytes):  RWF=     53 Int=      0 D2E=      0 Chk=      5 Scr=      1
 Normal termination of Gaussian 16 at Sun May 28 02:33:18 2023.
### All Done ###
