### Starting Gaussian ###
 Entering Gaussian System, Link 0=g16
 Initial command:
 /cluster/software/gaussian/gaussian-16-A.03/avx2/g16/l1.exe "/local/scratch/linjian/Gau-25752.inp" -scrdir="/local/scratch/linjian/"
 Entering Link 1 = /cluster/software/gaussian/gaussian-16-A.03/avx2/g16/l1.exe PID=     25753.
  
 Copyright (c) 1988,1990,1992,1993,1995,1998,2003,2009,2016,
            Gaussian, Inc.  All Rights Reserved.
  
 This is part of the Gaussian(R) 16 program.  It is based on
 the Gaussian(R) 09 system (copyright 2009, Gaussian, Inc.),
 the Gaussian(R) 03 system (copyright 2003, Gaussian, Inc.),
 the Gaussian(R) 98 system (copyright 1998, Gaussian, Inc.),
 the Gaussian(R) 94 system (copyright 1995, Gaussian, Inc.),
 the Gaussian 92(TM) system (copyright 1992, Gaussian, Inc.),
 the Gaussian 90(TM) system (copyright 1990, Gaussian, Inc.),
 the Gaussian 88(TM) system (copyright 1988, Gaussian, Inc.),
 the Gaussian 86(TM) system (copyright 1986, Carnegie Mellon
 University), and the Gaussian 82(TM) system (copyright 1983,
 Carnegie Mellon University). Gaussian is a federally registered
 trademark of Gaussian, Inc.
  
 This software contains proprietary and confidential information,
 including trade secrets, belonging to Gaussian, Inc.
  
 This software is provided under written license and may be
 used, copied, transmitted, or stored only in accord with that
 written license.
  
 The following legend is applicable only to US Government
 contracts under FAR:
  
                    RESTRICTED RIGHTS LEGEND
  
 Use, reproduction and disclosure by the US Government is
 subject to restrictions as set forth in subparagraphs (a)
 and (c) of the Commercial Computer Software - Restricted
 Rights clause in FAR 52.227-19.
  
 Gaussian, Inc.
 340 Quinnipiac St., Bldg. 40, Wallingford CT 06492
  
  
 ---------------------------------------------------------------
 Warning -- This program may not be used in any manner that
 competes with the business of Gaussian, Inc. or will provide
 assistance to any competitor of Gaussian, Inc.  The licensee
 of this program is prohibited from giving any competitor of
 Gaussian, Inc. access to this program.  By using this program,
 the user acknowledges that Gaussian, Inc. is engaged in the
 business of creating and licensing software in the field of
 computational chemistry and represents and warrants to the
 licensee that it is not a competitor of Gaussian, Inc. and that
 it will not use this program in any manner prohibited above.
 ---------------------------------------------------------------
  

 Cite this work as:
 Gaussian 16, Revision A.03,
 M. J. Frisch, G. W. Trucks, H. B. Schlegel, G. E. Scuseria, 
 M. A. Robb, J. R. Cheeseman, G. Scalmani, V. Barone, 
 G. A. Petersson, H. Nakatsuji, X. Li, M. Caricato, A. V. Marenich, 
 J. Bloino, B. G. Janesko, R. Gomperts, B. Mennucci, H. P. Hratchian, 
 J. V. Ortiz, A. F. Izmaylov, J. L. Sonnenberg, D. Williams-Young, 
 F. Ding, F. Lipparini, F. Egidi, J. Goings, B. Peng, A. Petrone, 
 T. Henderson, D. Ranasinghe, V. G. Zakrzewski, J. Gao, N. Rega, 
 G. Zheng, W. Liang, M. Hada, M. Ehara, K. Toyota, R. Fukuda, 
 J. Hasegawa, M. Ishida, T. Nakajima, Y. Honda, O. Kitao, H. Nakai, 
 T. Vreven, K. Throssell, J. A. Montgomery, Jr., J. E. Peralta, 
 F. Ogliaro, M. J. Bearpark, J. J. Heyd, E. N. Brothers, K. N. Kudin, 
 V. N. Staroverov, T. A. Keith, R. Kobayashi, J. Normand, 
 K. Raghavachari, A. P. Rendell, J. C. Burant, S. S. Iyengar, 
 J. Tomasi, M. Cossi, J. M. Millam, M. Klene, C. Adamo, R. Cammi, 
 J. W. Ochterski, R. L. Martin, K. Morokuma, O. Farkas, 
 J. B. Foresman, and D. J. Fox, Gaussian, Inc., Wallingford CT, 2016.
 
 ******************************************
 Gaussian 16:  ES64L-G16RevA.03 25-Dec-2016
                28-May-2023 
 ******************************************
 %chk=C1CC2CC1C2.chk
 %NProcShared=20
 Will use up to   20 processors via shared memory.
 -----------------------------
 # opt freq b3lyp/6-31g(2df,p)
 -----------------------------
 1/18=20,19=15,26=3,38=1/1,3;
 2/9=110,12=2,17=6,18=5,40=1/2;
 3/5=1,6=6,7=104,11=2,25=1,30=1,71=1,74=-5/1,2,3;
 4//1;
 5/5=2,38=5/2;
 6/7=2,8=2,9=2,10=2,28=1/1;
 7//1,2,3,16;
 1/18=20,19=15,26=3/3(2);
 2/9=110/2;
 99//99;
 2/9=110/2;
 3/5=1,6=6,7=104,11=2,25=1,30=1,71=1,74=-5/1,2,3;
 4/5=5,16=3,69=1/1;
 5/5=2,38=5/2;
 7//1,2,3,16;
 1/18=20,19=15,26=3/3(-5);
 2/9=110/2;
 6/7=2,8=2,9=2,10=2,19=2,28=1/1;
 99/9=1/99;
 -------------------
 Title Card Required
 -------------------
 Symbolic Z-matrix:
 Charge =  0 Multiplicity = 1
 C                    -1.22382   0.77869   0.06982 
 C                    -1.23894  -0.75288   0.06537 
 C                     0.26435  -1.0129   -0.0005 
 C                     0.77344  -0.02067  -1.0925 
 C                     0.28261   1.00967  -0.02652 
 C                     0.90595   0.00647   0.99368 
 H                    -1.64643   1.18904   0.9922 
 H                    -1.76181   1.19645  -0.78665 
 H                    -1.76037  -1.15188  -0.81076 
 H                    -1.69607  -1.16342   0.97043 
 H                     0.6305   -2.03763  -0.00845 
 H                     0.24107  -0.02899  -2.04853 
 H                     1.85122  -0.03431  -1.29062 
 H                     0.66711   2.02706  -0.06205 
 H                     0.5045    0.02485   2.01115 
 H                     2.00118  -0.00136   1.04916 
 

 GradGradGradGradGradGradGradGradGradGradGradGradGradGradGradGradGradGrad
 Berny optimization.
 Initialization pass.
                           ----------------------------
                           !    Initial Parameters    !
                           ! (Angstroms and Degrees)  !
 --------------------------                            --------------------------
 ! Name  Definition              Value          Derivative Info.                !
 --------------------------------------------------------------------------------
 ! R1    R(1,2)                  1.5317         estimate D2E/DX2                !
 ! R2    R(1,5)                  1.5271         estimate D2E/DX2                !
 ! R3    R(1,7)                  1.0944         estimate D2E/DX2                !
 ! R4    R(1,8)                  1.0943         estimate D2E/DX2                !
 ! R5    R(2,3)                  1.527          estimate D2E/DX2                !
 ! R6    R(2,9)                  1.0948         estimate D2E/DX2                !
 ! R7    R(2,10)                 1.0939         estimate D2E/DX2                !
 ! R8    R(3,4)                  1.5608         estimate D2E/DX2                !
 ! R9    R(3,6)                  1.5618         estimate D2E/DX2                !
 ! R10   R(3,11)                 1.0882         estimate D2E/DX2                !
 ! R11   R(4,5)                  1.5617         estimate D2E/DX2                !
 ! R12   R(4,12)                 1.0943         estimate D2E/DX2                !
 ! R13   R(4,13)                 1.0959         estimate D2E/DX2                !
 ! R14   R(5,6)                  1.5607         estimate D2E/DX2                !
 ! R15   R(5,14)                 1.0882         estimate D2E/DX2                !
 ! R16   R(6,15)                 1.094          estimate D2E/DX2                !
 ! R17   R(6,16)                 1.0967         estimate D2E/DX2                !
 ! A1    A(2,1,5)               99.2535         estimate D2E/DX2                !
 ! A2    A(2,1,7)              111.9355         estimate D2E/DX2                !
 ! A3    A(2,1,8)              112.0003         estimate D2E/DX2                !
 ! A4    A(5,1,7)              112.1717         estimate D2E/DX2                !
 ! A5    A(5,1,8)              112.2013         estimate D2E/DX2                !
 ! A6    A(7,1,8)              109.0654         estimate D2E/DX2                !
 ! A7    A(1,2,3)               99.2461         estimate D2E/DX2                !
 ! A8    A(1,2,9)              111.8045         estimate D2E/DX2                !
 ! A9    A(1,2,10)             112.1478         estimate D2E/DX2                !
 ! A10   A(3,2,9)              111.8562         estimate D2E/DX2                !
 ! A11   A(3,2,10)             112.5303         estimate D2E/DX2                !
 ! A12   A(9,2,10)             109.0436         estimate D2E/DX2                !
 ! A13   A(2,3,4)              104.0654         estimate D2E/DX2                !
 ! A14   A(2,3,6)              105.4161         estimate D2E/DX2                !
 ! A15   A(2,3,11)             119.4654         estimate D2E/DX2                !
 ! A16   A(4,3,6)               84.056          estimate D2E/DX2                !
 ! A17   A(4,3,11)             118.9319         estimate D2E/DX2                !
 ! A18   A(6,3,11)             118.7538         estimate D2E/DX2                !
 ! A19   A(3,4,5)               80.7551         estimate D2E/DX2                !
 ! A20   A(3,4,12)             116.5975         estimate D2E/DX2                !
 ! A21   A(3,4,13)             116.0615         estimate D2E/DX2                !
 ! A22   A(5,4,12)             116.6446         estimate D2E/DX2                !
 ! A23   A(5,4,13)             116.1488         estimate D2E/DX2                !
 ! A24   A(12,4,13)            108.6877         estimate D2E/DX2                !
 ! A25   A(1,5,4)              104.6739         estimate D2E/DX2                !
 ! A26   A(1,5,6)              104.8052         estimate D2E/DX2                !
 ! A27   A(1,5,14)             119.4742         estimate D2E/DX2                !
 ! A28   A(4,5,6)               84.0636         estimate D2E/DX2                !
 ! A29   A(4,5,14)             118.9139         estimate D2E/DX2                !
 ! A30   A(6,5,14)             118.7627         estimate D2E/DX2                !
 ! A31   A(3,6,5)               80.7557         estimate D2E/DX2                !
 ! A32   A(3,6,15)             116.8894         estimate D2E/DX2                !
 ! A33   A(3,6,16)             115.9649         estimate D2E/DX2                !
 ! A34   A(5,6,15)             116.7829         estimate D2E/DX2                !
 ! A35   A(5,6,16)             115.8831         estimate D2E/DX2                !
 ! A36   A(15,6,16)            108.6362         estimate D2E/DX2                !
 ! D1    D(5,1,2,3)              1.2143         estimate D2E/DX2                !
 ! D2    D(5,1,2,9)           -116.909          estimate D2E/DX2                !
 ! D3    D(5,1,2,10)           120.2532         estimate D2E/DX2                !
 ! D4    D(7,1,2,3)           -117.3283         estimate D2E/DX2                !
 ! D5    D(7,1,2,9)            124.5484         estimate D2E/DX2                !
 ! D6    D(7,1,2,10)             1.7106         estimate D2E/DX2                !
 ! D7    D(8,1,2,3)            119.8172         estimate D2E/DX2                !
 ! D8    D(8,1,2,9)              1.694          estimate D2E/DX2                !
 ! D9    D(8,1,2,10)          -121.1438         estimate D2E/DX2                !
 ! D10   D(2,1,5,4)             42.9072         estimate D2E/DX2                !
 ! D11   D(2,1,5,6)            -44.7216         estimate D2E/DX2                !
 ! D12   D(2,1,5,14)           179.1348         estimate D2E/DX2                !
 ! D13   D(7,1,5,4)            161.2732         estimate D2E/DX2                !
 ! D14   D(7,1,5,6)             73.6444         estimate D2E/DX2                !
 ! D15   D(7,1,5,14)           -62.4992         estimate D2E/DX2                !
 ! D16   D(8,1,5,4)            -75.5456         estimate D2E/DX2                !
 ! D17   D(8,1,5,6)           -163.1745         estimate D2E/DX2                !
 ! D18   D(8,1,5,14)            60.6819         estimate D2E/DX2                !
 ! D19   D(1,2,3,4)            -45.0915         estimate D2E/DX2                !
 ! D20   D(1,2,3,6)             42.5211         estimate D2E/DX2                !
 ! D21   D(1,2,3,11)           179.3174         estimate D2E/DX2                !
 ! D22   D(9,2,3,4)             72.993          estimate D2E/DX2                !
 ! D23   D(9,2,3,6)            160.6056         estimate D2E/DX2                !
 ! D24   D(9,2,3,11)           -62.5981         estimate D2E/DX2                !
 ! D25   D(10,2,3,4)          -163.8456         estimate D2E/DX2                !
 ! D26   D(10,2,3,6)           -76.233          estimate D2E/DX2                !
 ! D27   D(10,2,3,11)           60.5633         estimate D2E/DX2                !
 ! D28   D(2,3,4,5)             64.5017         estimate D2E/DX2                !
 ! D29   D(2,3,4,12)           -50.7522         estimate D2E/DX2                !
 ! D30   D(2,3,4,13)           179.1745         estimate D2E/DX2                !
 ! D31   D(6,3,4,5)            -39.9426         estimate D2E/DX2                !
 ! D32   D(6,3,4,12)          -155.1965         estimate D2E/DX2                !
 ! D33   D(6,3,4,13)            74.7302         estimate D2E/DX2                !
 ! D34   D(11,3,4,5)          -159.6167         estimate D2E/DX2                !
 ! D35   D(11,3,4,12)           85.1294         estimate D2E/DX2                !
 ! D36   D(11,3,4,13)          -44.9438         estimate D2E/DX2                !
 ! D37   D(2,3,6,5)            -63.0156         estimate D2E/DX2                !
 ! D38   D(2,3,6,15)            52.4107         estimate D2E/DX2                !
 ! D39   D(2,3,6,16)          -177.3887         estimate D2E/DX2                !
 ! D40   D(4,3,6,5)             39.9727         estimate D2E/DX2                !
 ! D41   D(4,3,6,15)           155.399          estimate D2E/DX2                !
 ! D42   D(4,3,6,16)           -74.4004         estimate D2E/DX2                !
 ! D43   D(11,3,6,5)           159.8183         estimate D2E/DX2                !
 ! D44   D(11,3,6,15)          -84.7554         estimate D2E/DX2                !
 ! D45   D(11,3,6,16)           45.4452         estimate D2E/DX2                !
 ! D46   D(3,4,5,1)            -63.8135         estimate D2E/DX2                !
 ! D47   D(3,4,5,6)             39.9753         estimate D2E/DX2                !
 ! D48   D(3,4,5,14)           159.6606         estimate D2E/DX2                !
 ! D49   D(12,4,5,1)            51.3904         estimate D2E/DX2                !
 ! D50   D(12,4,5,6)           155.1792         estimate D2E/DX2                !
 ! D51   D(12,4,5,14)          -85.1356         estimate D2E/DX2                !
 ! D52   D(13,4,5,1)          -178.3931         estimate D2E/DX2                !
 ! D53   D(13,4,5,6)           -74.6043         estimate D2E/DX2                !
 ! D54   D(13,4,5,14)           45.081          estimate D2E/DX2                !
 ! D55   D(1,5,6,3)             63.7016         estimate D2E/DX2                !
 ! D56   D(1,5,6,15)           -51.8378         estimate D2E/DX2                !
 ! D57   D(1,5,6,16)           178.1623         estimate D2E/DX2                !
 ! D58   D(4,5,6,3)            -39.9457         estimate D2E/DX2                !
 ! D59   D(4,5,6,15)          -155.4851         estimate D2E/DX2                !
 ! D60   D(4,5,6,16)            74.5149         estimate D2E/DX2                !
 ! D61   D(14,5,6,3)          -159.7765         estimate D2E/DX2                !
 ! D62   D(14,5,6,15)           84.6841         estimate D2E/DX2                !
 ! D63   D(14,5,6,16)          -45.3159         estimate D2E/DX2                !
 --------------------------------------------------------------------------------
 Trust Radius=3.00D-01 FncErr=1.00D-07 GrdErr=1.00D-06 EigMax=2.50D+02 EigMin=1.00D-04
 Number of steps in this run=    100 maximum allowed number of steps=    100.
 GradGradGradGradGradGradGradGradGradGradGradGradGradGradGradGradGradGrad

                          Input orientation:                          
 ---------------------------------------------------------------------
 Center     Atomic      Atomic             Coordinates (Angstroms)
 Number     Number       Type             X           Y           Z
 ---------------------------------------------------------------------
      1          6           0       -1.223820    0.778690    0.069820
      2          6           0       -1.238940   -0.752880    0.065370
      3          6           0        0.264350   -1.012900   -0.000500
      4          6           0        0.773440   -0.020670   -1.092500
      5          6           0        0.282610    1.009670   -0.026520
      6          6           0        0.905950    0.006470    0.993680
      7          1           0       -1.646430    1.189040    0.992200
      8          1           0       -1.761810    1.196450   -0.786650
      9          1           0       -1.760370   -1.151880   -0.810760
     10          1           0       -1.696070   -1.163420    0.970430
     11          1           0        0.630500   -2.037630   -0.008450
     12          1           0        0.241070   -0.028990   -2.048530
     13          1           0        1.851220   -0.034310   -1.290620
     14          1           0        0.667110    2.027060   -0.062050
     15          1           0        0.504500    0.024850    2.011150
     16          1           0        2.001180   -0.001360    1.049160
 ---------------------------------------------------------------------
                    Distance matrix (angstroms):
                    1          2          3          4          5
     1  C    0.000000
     2  C    1.531651   0.000000
     3  C    2.330105   1.527033   0.000000
     4  C    2.445202   2.434434   1.560819   0.000000
     5  C    1.527077   2.330266   2.022820   1.561675   0.000000
     6  C    2.446582   2.457422   1.561781   2.090560   1.560696
     7  H    1.094427   2.190003   3.079785   3.415427   2.188872
     8  H    1.094302   2.190712   3.099126   2.828855   2.189141
     9  H    2.188700   1.094849   2.185252   2.789123   3.075890
    10  H    2.192239   1.093912   2.192854   3.414680   3.103450
    11  H    3.372875   2.269546   1.088210   2.294281   3.067147
    12  H    2.699196   2.680116   2.272234   1.094294   2.273558
    13  H    3.459427   3.450238   2.267202   1.095923   2.269004
    14  H    2.269677   3.373030   3.067142   2.294849   1.088203
    15  H    2.706312   2.725896   2.276254   3.115613   2.274028
    16  H    3.459510   3.468574   2.267505   2.468689   2.265558
                    6          7          8          9         10
     6  C    0.000000
     7  H    2.813026   0.000000
     8  H    3.420902   1.782603   0.000000
     9  H    3.421555   2.956950   2.348454   0.000000
    10  H    2.853014   2.353084   2.942896   1.782388   0.000000
    11  H    2.293138   4.073955   4.097318   2.672922   2.671213
    12  H    3.114220   3.780515   2.665628   2.607435   3.762122
    13  H    2.472494   4.352173   3.850031   3.810881   4.355514
    14  H    2.292247   2.676974   2.667323   4.069261   4.102414
    15  H    1.093958   2.649547   3.786356   3.804932   2.708799
    16  H    1.096662   3.837363   4.354887   4.351121   3.876369
                   11         12         13         14         15
    11  H    0.000000
    12  H    2.889328   0.000000
    13  H    2.673464   1.779618   0.000000
    14  H    4.065208   2.890494   2.675957   0.000000
    15  H    2.889374   4.068574   3.566348   2.886771   0.000000
    16  H    2.672770   3.562925   2.344812   2.670022   1.779371
                   16
    16  H    0.000000
 Stoichiometry    C6H10
 Framework group  C1[X(C6H10)]
 Deg. of freedom    42
 Full point group                 C1      NOp   1
 Largest Abelian subgroup         C1      NOp   1
 Largest concise Abelian subgroup C1      NOp   1
                         Standard orientation:                         
 ---------------------------------------------------------------------
 Center     Atomic      Atomic             Coordinates (Angstroms)
 Number     Number       Type             X           Y           Z
 ---------------------------------------------------------------------
      1          6           0        1.180980    0.766350    0.005261
      2          6           0        1.181706   -0.765034   -0.023372
      3          6           0       -0.325351   -1.010921   -0.035512
      4          6           0       -0.877317   -0.037320    1.052418
      5          6           0       -0.326143    1.010696    0.034235
      6          6           0       -0.908805    0.036239   -1.036610
      7          1           0        1.651359    1.192154   -0.886482
      8          1           0        1.680879    1.159950    0.895586
      9          1           0        1.656564   -1.188213    0.867764
     10          1           0        1.678138   -1.160614   -0.914279
     11          1           0       -0.700918   -2.031759   -0.067770
     12          1           0       -0.391774   -0.071770    2.032490
     13          1           0       -1.963478   -0.044136    1.198212
     14          1           0       -0.702485    2.030987    0.073708
     15          1           0       -0.458599    0.072456   -2.032978
     16          1           0       -2.000110    0.040888   -1.144772
 ---------------------------------------------------------------------
 Rotational constants (GHZ):           5.4309480           4.3495712           3.9425029
 Standard basis: 6-31G(2df,p) (6D, 7F)
 There are   236 symmetry adapted cartesian basis functions of A   symmetry.
 There are   218 symmetry adapted basis functions of A   symmetry.
   218 basis functions,   334 primitive gaussians,   236 cartesian basis functions
    23 alpha electrons       23 beta electrons
       nuclear repulsion energy       249.6596241525 Hartrees.
 NAtoms=   16 NActive=   16 NUniq=   16 SFac= 1.00D+00 NAtFMM=   60 NAOKFM=F Big=F
 Integral buffers will be    131072 words long.
 Raffenetti 2 integral format.
 Two-electron integral symmetry is turned on.
 One-electron integrals computed using PRISM.
 PrsmSu:  requested number of processors reduced to:  13 ShMem   1 Linda.
 NBasis=   218 RedAO= T EigKep=  4.53D-04  NBF=   218
 NBsUse=   218 1.00D-06 EigRej= -1.00D+00 NBFU=   218
 ExpMin= 1.61D-01 ExpMax= 3.05D+03 ExpMxC= 4.57D+02 IAcc=3 IRadAn=         5 AccDes= 0.00D+00
 Harris functional with IExCor=  402 and IRadAn=       5 diagonalized for initial guess.
 HarFok:  IExCor=  402 AccDes= 0.00D+00 IRadAn=         5 IDoV= 1 UseB2=F ITyADJ=14
 ICtDFT=  3500011 ScaDFX=  1.000000  1.000000  1.000000  1.000000
 FoFCou: FMM=F IPFlag=           0 FMFlag=      100000 FMFlg1=           0
         NFxFlg=           0 DoJE=T BraDBF=F KetDBF=T FulRan=T
         wScrn=  0.000000 ICntrl=       500 IOpCl=  0 I1Cent=   200000004 NGrid=           0
         NMat0=    1 NMatS0=      1 NMatT0=    0 NMatD0=    1 NMtDS0=    0 NMtDT0=    0
 Petite list used in FoFCou.
 Requested convergence on RMS density matrix=1.00D-08 within 128 cycles.
 Requested convergence on MAX density matrix=1.00D-06.
 Requested convergence on             energy=1.00D-06.
 No special actions if energy rises.
 Integral accuracy reduced to 1.0D-05 until final iterations.
 Initial convergence to 1.0D-05 achieved.  Increase integral accuracy.
 SCF Done:  E(RB3LYP) =  -234.632118245     A.U. after   12 cycles
            NFock= 12  Conv=0.25D-08     -V/T= 2.0087

 **********************************************************************

            Population analysis using the SCF density.

 **********************************************************************

 Orbital symmetries:
       Occupied  (A) (A) (A) (A) (A) (A) (A) (A) (A) (A) (A) (A)
                 (A) (A) (A) (A) (A) (A) (A) (A) (A) (A) (A)
       Virtual   (A) (A) (A) (A) (A) (A) (A) (A) (A) (A) (A) (A)
                 (A) (A) (A) (A) (A) (A) (A) (A) (A) (A) (A) (A)
                 (A) (A) (A) (A) (A) (A) (A) (A) (A) (A) (A) (A)
                 (A) (A) (A) (A) (A) (A) (A) (A) (A) (A) (A) (A)
                 (A) (A) (A) (A) (A) (A) (A) (A) (A) (A) (A) (A)
                 (A) (A) (A) (A) (A) (A) (A) (A) (A) (A) (A) (A)
                 (A) (A) (A) (A) (A) (A) (A) (A) (A) (A) (A) (A)
                 (A) (A) (A) (A) (A) (A) (A) (A) (A) (A) (A) (A)
                 (A) (A) (A) (A) (A) (A) (A) (A) (A) (A) (A) (A)
                 (A) (A) (A) (A) (A) (A) (A) (A) (A) (A) (A) (A)
                 (A) (A) (A) (A) (A) (A) (A) (A) (A) (A) (A) (A)
                 (A) (A) (A) (A) (A) (A) (A) (A) (A) (A) (A) (A)
                 (A) (A) (A) (A) (A) (A) (A) (A) (A) (A) (A) (A)
                 (A) (A) (A) (A) (A) (A) (A) (A) (A) (A) (A) (A)
                 (A) (A) (A) (A) (A) (A) (A) (A) (A) (A) (A) (A)
                 (A) (A) (A) (A) (A) (A) (A) (A) (A) (A) (A) (A)
                 (A) (A) (A)
 The electronic state is 1-A.
 Alpha  occ. eigenvalues --  -10.18274 -10.18271 -10.17433 -10.17407 -10.17360
 Alpha  occ. eigenvalues --  -10.17339  -0.88268  -0.72508  -0.67837  -0.64773
 Alpha  occ. eigenvalues --   -0.54400  -0.53740  -0.49347  -0.45533  -0.45362
 Alpha  occ. eigenvalues --   -0.37559  -0.36244  -0.35739  -0.33205  -0.32248
 Alpha  occ. eigenvalues --   -0.29476  -0.29142  -0.29118
 Alpha virt. eigenvalues --    0.09033   0.13022   0.13133   0.13210   0.14904
 Alpha virt. eigenvalues --    0.15746   0.16976   0.17802   0.17999   0.20306
 Alpha virt. eigenvalues --    0.20780   0.21787   0.22890   0.24520   0.25008
 Alpha virt. eigenvalues --    0.26647   0.30481   0.45671   0.47108   0.48624
 Alpha virt. eigenvalues --    0.50194   0.50299   0.51803   0.55480   0.56082
 Alpha virt. eigenvalues --    0.58502   0.59127   0.61947   0.62331   0.62373
 Alpha virt. eigenvalues --    0.64273   0.64491   0.69484   0.72278   0.75360
 Alpha virt. eigenvalues --    0.76333   0.76714   0.78198   0.79049   0.79213
 Alpha virt. eigenvalues --    0.83220   0.83423   0.83617   0.83751   0.86600
 Alpha virt. eigenvalues --    0.99238   1.00785   1.02416   1.06581   1.09753
 Alpha virt. eigenvalues --    1.17089   1.21458   1.26360   1.31652   1.35062
 Alpha virt. eigenvalues --    1.36325   1.38137   1.38615   1.42245   1.42904
 Alpha virt. eigenvalues --    1.45020   1.47314   1.49055   1.49961   1.52610
 Alpha virt. eigenvalues --    1.56100   1.57026   1.60340   1.64870   1.65215
 Alpha virt. eigenvalues --    1.65374   1.68543   1.68831   1.77978   1.81276
 Alpha virt. eigenvalues --    1.84150   1.87774   1.93786   1.96312   1.98572
 Alpha virt. eigenvalues --    2.17139   2.22447   2.24216   2.24474   2.31067
 Alpha virt. eigenvalues --    2.31818   2.32483   2.36838   2.39688   2.40360
 Alpha virt. eigenvalues --    2.43558   2.43950   2.54788   2.56233   2.56820
 Alpha virt. eigenvalues --    2.57367   2.64274   2.73929   2.76745   2.79499
 Alpha virt. eigenvalues --    2.80765   2.81528   2.86343   2.90157   2.90376
 Alpha virt. eigenvalues --    2.92567   2.94413   2.96333   3.00794   3.02342
 Alpha virt. eigenvalues --    3.02743   3.05214   3.09560   3.12617   3.16602
 Alpha virt. eigenvalues --    3.17189   3.18225   3.22445   3.25413   3.26145
 Alpha virt. eigenvalues --    3.28973   3.30304   3.32125   3.33419   3.39729
 Alpha virt. eigenvalues --    3.44214   3.48585   3.51440   3.52090   3.55867
 Alpha virt. eigenvalues --    3.60806   3.64529   3.64580   3.70152   3.73513
 Alpha virt. eigenvalues --    3.79858   3.89679   3.90449   3.92565   3.95325
 Alpha virt. eigenvalues --    4.00692   4.01593   4.11477   4.22892   4.25567
 Alpha virt. eigenvalues --    4.32082   4.34080   4.34263   4.41400   4.42664
 Alpha virt. eigenvalues --    4.46081   4.46332   4.46716   4.55627   4.59276
 Alpha virt. eigenvalues --    4.61697   4.61955   4.66345   4.68825   4.70137
 Alpha virt. eigenvalues --    4.70500   4.73813   4.74839   4.76058   4.80797
 Alpha virt. eigenvalues --    4.81950   4.83005   4.85056   4.87990   4.88986
 Alpha virt. eigenvalues --    4.91019   4.92893   4.94681   4.97930   5.10280
 Alpha virt. eigenvalues --    5.16304   5.18638   5.23241   5.24446   5.31005
 Alpha virt. eigenvalues --    5.37797   5.46192   5.46659   5.55959   5.56235
 Alpha virt. eigenvalues --    5.64094   5.76750   6.23477   6.97877  11.00429
 Alpha virt. eigenvalues --   11.68126  11.85651  11.89827  12.60696  12.86035
          Condensed to atoms (all electrons):
               1          2          3          4          5          6
     1  C    4.887852   0.354520  -0.056034  -0.028240   0.431366  -0.027901
     2  C    0.354520   4.887753   0.431382  -0.028277  -0.056004  -0.027813
     3  C   -0.056034   0.431382   4.693312   0.371555  -0.038091   0.373621
     4  C   -0.028240  -0.028277   0.371555   4.966973   0.373500  -0.083078
     5  C    0.431366  -0.056004  -0.038091   0.373500   4.693184   0.371795
     6  C   -0.027901  -0.027813   0.373621  -0.083078   0.371795   4.967081
     7  H    0.370248  -0.028499   0.002076   0.004615  -0.028692  -0.005433
     8  H    0.370120  -0.028664   0.002619  -0.005263  -0.028448   0.004568
     9  H   -0.028393   0.370368  -0.028624  -0.005778   0.001994   0.004582
    10  H   -0.028768   0.370059  -0.028539   0.004603   0.002693  -0.004948
    11  H    0.010098  -0.052902   0.365723  -0.041251   0.007757  -0.042489
    12  H   -0.005076  -0.005073  -0.028302   0.351497  -0.027875   0.010214
    13  H    0.003856   0.003788  -0.024114   0.374205  -0.024028  -0.004426
    14  H   -0.052899   0.010095   0.007763  -0.041938   0.365738  -0.041833
    15  H   -0.004916  -0.004900  -0.027574   0.010215  -0.028034   0.351399
    16  H    0.003741   0.003800  -0.023783  -0.004804  -0.023863   0.374746
               7          8          9         10         11         12
     1  C    0.370248   0.370120  -0.028393  -0.028768   0.010098  -0.005076
     2  C   -0.028499  -0.028664   0.370368   0.370059  -0.052902  -0.005073
     3  C    0.002076   0.002619  -0.028624  -0.028539   0.365723  -0.028302
     4  C    0.004615  -0.005263  -0.005778   0.004603  -0.041251   0.351497
     5  C   -0.028692  -0.028448   0.001994   0.002693   0.007757  -0.027875
     6  C   -0.005433   0.004568   0.004582  -0.004948  -0.042489   0.010214
     7  H    0.636201  -0.042325   0.004292  -0.010172  -0.000144  -0.000113
     8  H   -0.042325   0.636726  -0.010376   0.004161  -0.000148   0.003117
     9  H    0.004292  -0.010376   0.635804  -0.042364  -0.000051   0.003491
    10  H   -0.010172   0.004161  -0.042364   0.637214  -0.000201  -0.000104
    11  H   -0.000144  -0.000148  -0.000051  -0.000201   0.707219   0.001171
    12  H   -0.000113   0.003117   0.003491  -0.000104   0.001171   0.664669
    13  H   -0.000147  -0.000018  -0.000001  -0.000152  -0.001785  -0.043141
    14  H   -0.000056  -0.000192  -0.000149  -0.000142  -0.000750   0.001190
    15  H    0.003279  -0.000112  -0.000119   0.002900   0.001200  -0.000752
    16  H   -0.000013  -0.000148  -0.000143  -0.000026  -0.001827   0.000018
              13         14         15         16
     1  C    0.003856  -0.052899  -0.004916   0.003741
     2  C    0.003788   0.010095  -0.004900   0.003800
     3  C   -0.024114   0.007763  -0.027574  -0.023783
     4  C    0.374205  -0.041938   0.010215  -0.004804
     5  C   -0.024028   0.365738  -0.028034  -0.023863
     6  C   -0.004426  -0.041833   0.351399   0.374746
     7  H   -0.000147  -0.000056   0.003279  -0.000013
     8  H   -0.000018  -0.000192  -0.000112  -0.000148
     9  H   -0.000001  -0.000149  -0.000119  -0.000143
    10  H   -0.000152  -0.000142   0.002900  -0.000026
    11  H   -0.001785  -0.000750   0.001200  -0.001827
    12  H   -0.043141   0.001190  -0.000752   0.000018
    13  H    0.615468  -0.001824  -0.000002   0.003642
    14  H   -0.001824   0.707256   0.001184  -0.001795
    15  H   -0.000002   0.001184   0.664521  -0.043433
    16  H    0.003642  -0.001795  -0.043433   0.614212
 Mulliken charges:
               1
     1  C   -0.199575
     2  C   -0.199633
     3  C    0.007010
     4  C   -0.218535
     5  C    0.007005
     6  C   -0.220085
     7  H    0.094881
     8  H    0.094382
     9  H    0.095467
    10  H    0.093785
    11  H    0.048380
    12  H    0.075070
    13  H    0.098679
    14  H    0.048352
    15  H    0.075144
    16  H    0.099674
 Sum of Mulliken charges =  -0.00000
 Mulliken charges with hydrogens summed into heavy atoms:
               1
     1  C   -0.010312
     2  C   -0.010380
     3  C    0.055389
     4  C   -0.044787
     5  C    0.055357
     6  C   -0.045267
 Electronic spatial extent (au):  <R**2>=            471.8354
 Charge=             -0.0000 electrons
 Dipole moment (field-independent basis, Debye):
    X=              0.0047    Y=              0.0002    Z=              0.0034  Tot=              0.0058
 Quadrupole moment (field-independent basis, Debye-Ang):
   XX=            -37.3307   YY=            -38.8524   ZZ=            -38.1501
   XY=              0.0001   XZ=             -0.0018   YZ=             -0.0249
 Traceless Quadrupole moment (field-independent basis, Debye-Ang):
   XX=              0.7803   YY=             -0.7413   ZZ=             -0.0390
   XY=              0.0001   XZ=             -0.0018   YZ=             -0.0249
 Octapole moment (field-independent basis, Debye-Ang**2):
  XXX=             -2.9426  YYY=             -0.0008  ZZZ=             -0.0415  XYY=              0.0222
  XXY=             -0.0032  XXZ=              0.0488  XZZ=              1.8581  YZZ=              0.0047
  YYZ=             -0.0055  XYZ=             -0.0319
 Hexadecapole moment (field-independent basis, Debye-Ang**3):
 XXXX=           -268.8211 YYYY=           -201.2088 ZZZZ=           -172.3648 XXXY=              0.0008
 XXXZ=             -0.0359 YYYX=             -0.0017 YYYZ=              0.2359 ZZZX=             -0.0478
 ZZZY=             -0.2470 XXYY=            -79.9951 XXZZ=            -71.7438 YYZZ=            -63.6768
 XXYZ=             -0.0404 YYXZ=             -0.0126 ZZXY=              0.0016
 N-N= 2.496596241525D+02 E-N=-1.041830038448D+03  KE= 2.326141577876D+02
 PrsmSu:  requested number of processors reduced to:  13 ShMem   1 Linda.
 Calling FoFJK, ICntrl=      2127 FMM=F ISym2X=0 I1Cent= 0 IOpClX= 0 NMat=1 NMatS=1 NMatT=0.
 ***** Axes restored to original set *****
 -------------------------------------------------------------------
 Center     Atomic                   Forces (Hartrees/Bohr)
 Number     Number              X              Y              Z
 -------------------------------------------------------------------
      1        6           0.000075647    0.010963800   -0.000291069
      2        6          -0.000092383   -0.010953247    0.001154388
      3        6           0.031063898   -0.013043966   -0.002741004
      4        6          -0.022289444    0.000266141   -0.009028081
      5        6           0.031339128    0.012399595   -0.002124084
      6        6          -0.022649829    0.000209420    0.011526251
      7        1          -0.000121824    0.002466475   -0.001698901
      8        1          -0.000026728    0.002439462    0.001734427
      9        1           0.000059516   -0.002530613    0.002040149
     10        1          -0.000237634   -0.002328098   -0.001364966
     11        1          -0.004294908   -0.004598486    0.000088532
     12        1          -0.000544393   -0.000072352   -0.002547956
     13        1          -0.003066233    0.000395694    0.006863093
     14        1          -0.004223517    0.004690431    0.000112448
     15        1          -0.000535464    0.000015312    0.002710365
     16        1          -0.004455833   -0.000319568   -0.006433591
 -------------------------------------------------------------------
 Cartesian Forces:  Max     0.031339128 RMS     0.009124927

 GradGradGradGradGradGradGradGradGradGradGradGradGradGradGradGradGradGrad
 Berny optimization.
 FormGI is forming the generalized inverse of G from B-inverse, IUseBI=4.
 Internal  Forces:  Max     0.018629404 RMS     0.003577056
 Search for a local minimum.
 Step number   1 out of a maximum of  100
 All quantities printed in internal units (Hartrees-Bohrs-Radians)
 Mixed Optimization -- RFO/linear search
 Second derivative matrix not updated -- first step.
 ITU=  0
     Eigenvalues ---    0.00627   0.01936   0.02027   0.02296   0.02781
     Eigenvalues ---    0.02938   0.03264   0.03804   0.03806   0.03935
     Eigenvalues ---    0.04359   0.05127   0.05462   0.05851   0.06217
     Eigenvalues ---    0.06217   0.06320   0.06471   0.06798   0.06810
     Eigenvalues ---    0.07860   0.08835   0.09715   0.12153   0.12780
     Eigenvalues ---    0.19834   0.21533   0.22283   0.25191   0.26764
     Eigenvalues ---    0.27896   0.29678   0.34054   0.34137   0.34258
     Eigenvalues ---    0.34306   0.34320   0.34321   0.34359   0.34364
     Eigenvalues ---    0.35020   0.35021
 RFO step:  Lambda=-1.23912556D-02 EMin= 6.26547207D-03
 Linear search not attempted -- first point.
 Iteration  1 RMS(Cart)=  0.04029788 RMS(Int)=  0.00133767
 Iteration  2 RMS(Cart)=  0.00128960 RMS(Int)=  0.00088723
 Iteration  3 RMS(Cart)=  0.00000065 RMS(Int)=  0.00088723
 Variable       Old X    -DE/DX   Delta X   Delta X   Delta X     New X
                                 (Linear)    (Quad)   (Total)
    R1        2.89440   0.01863   0.00000   0.07717   0.07616   2.97056
    R2        2.88576   0.00065   0.00000   0.00462   0.00447   2.89023
    R3        2.06817  -0.00046   0.00000  -0.00129  -0.00129   2.06687
    R4        2.06793  -0.00041   0.00000  -0.00116  -0.00116   2.06677
    R5        2.88567   0.00066   0.00000   0.00471   0.00454   2.89021
    R6        2.06896  -0.00074   0.00000  -0.00208  -0.00208   2.06688
    R7        2.06720  -0.00016   0.00000  -0.00044  -0.00044   2.06676
    R8        2.94952   0.00236   0.00000   0.00306   0.00338   2.95290
    R9        2.95134   0.00147   0.00000  -0.00082  -0.00050   2.95084
   R10        2.05642   0.00288   0.00000   0.00796   0.00796   2.06437
   R11        2.95114   0.00221   0.00000   0.00093   0.00105   2.95219
   R12        2.06792   0.00249   0.00000   0.00701   0.00701   2.07492
   R13        2.07099  -0.00426   0.00000  -0.01205  -0.01205   2.05895
   R14        2.94929   0.00164   0.00000   0.00153   0.00210   2.95139
   R15        2.05641   0.00289   0.00000   0.00797   0.00797   2.06437
   R16        2.06728   0.00272   0.00000   0.00763   0.00763   2.07492
   R17        2.07239  -0.00477   0.00000  -0.01352  -0.01352   2.05887
    A1        1.73230  -0.00050   0.00000   0.00127   0.00047   1.73278
    A2        1.95364   0.00127   0.00000   0.01443   0.01460   1.96824
    A3        1.95477   0.00147   0.00000   0.01819   0.01847   1.97324
    A4        1.95777  -0.00044   0.00000  -0.00912  -0.00905   1.94871
    A5        1.95828  -0.00021   0.00000  -0.00374  -0.00349   1.95479
    A6        1.90355  -0.00140   0.00000  -0.01831  -0.01869   1.88486
    A7        1.73217  -0.00048   0.00000   0.00137   0.00055   1.73273
    A8        1.95136   0.00123   0.00000   0.01567   0.01611   1.96747
    A9        1.95735   0.00149   0.00000   0.01670   0.01673   1.97408
   A10        1.95226  -0.00037   0.00000  -0.00804  -0.00798   1.94428
   A11        1.96402  -0.00030   0.00000  -0.00493  -0.00465   1.95937
   A12        1.90317  -0.00138   0.00000  -0.01810  -0.01848   1.88469
   A13        1.81628  -0.00447   0.00000  -0.05186  -0.05031   1.76598
   A14        1.83986  -0.00544   0.00000  -0.06769  -0.06672   1.77313
   A15        2.08507  -0.00020   0.00000  -0.00692  -0.00665   2.07841
   A16        1.46705   0.00109   0.00000   0.04387   0.03978   1.50683
   A17        2.07575   0.00403   0.00000   0.04171   0.03997   2.11572
   A18        2.07264   0.00433   0.00000   0.04310   0.04132   2.11397
   A19        1.40944   0.00582   0.00000   0.03699   0.03463   1.44408
   A20        2.03501   0.00202   0.00000   0.02063   0.02065   2.05566
   A21        2.02566  -0.00651   0.00000  -0.04549  -0.04510   1.98055
   A22        2.03583   0.00202   0.00000   0.02077   0.02082   2.05665
   A23        2.02718  -0.00665   0.00000  -0.04854  -0.04823   1.97895
   A24        1.89696   0.00302   0.00000   0.01529   0.01533   1.91229
   A25        1.82690  -0.00453   0.00000  -0.05644  -0.05509   1.77181
   A26        1.82920  -0.00537   0.00000  -0.06310  -0.06193   1.76726
   A27        2.08522  -0.00023   0.00000  -0.00713  -0.00682   2.07839
   A28        1.46719   0.00108   0.00000   0.04381   0.03970   1.50688
   A29        2.07544   0.00393   0.00000   0.04069   0.03888   2.11432
   A30        2.07280   0.00445   0.00000   0.04430   0.04258   2.11538
   A31        1.40945   0.00624   0.00000   0.03794   0.03548   1.44493
   A32        2.04011   0.00200   0.00000   0.01994   0.02001   2.06011
   A33        2.02397  -0.00698   0.00000  -0.04924  -0.04890   1.97507
   A34        2.03825   0.00204   0.00000   0.02071   0.02077   2.05901
   A35        2.02254  -0.00684   0.00000  -0.04624  -0.04581   1.97673
   A36        1.89606   0.00322   0.00000   0.01609   0.01611   1.91217
    D1        0.02119  -0.00023   0.00000  -0.00997  -0.01021   0.01098
    D2       -2.04045  -0.00002   0.00000  -0.00772  -0.00780  -2.04825
    D3        2.09881  -0.00022   0.00000  -0.00802  -0.00830   2.09052
    D4       -2.04777   0.00004   0.00000  -0.00600  -0.00597  -2.05374
    D5        2.17378   0.00024   0.00000  -0.00375  -0.00356   2.17022
    D6        0.02986   0.00005   0.00000  -0.00405  -0.00406   0.02580
    D7        2.09121  -0.00015   0.00000  -0.00620  -0.00636   2.08485
    D8        0.02957   0.00005   0.00000  -0.00395  -0.00395   0.02562
    D9       -2.11436  -0.00015   0.00000  -0.00425  -0.00444  -2.11880
   D10        0.74887  -0.00050   0.00000   0.01513   0.01481   0.76368
   D11       -0.78054   0.00085   0.00000  -0.00133  -0.00067  -0.78121
   D12        3.12649   0.00025   0.00000   0.00783   0.00786   3.13435
   D13        2.81475   0.00051   0.00000   0.02878   0.02821   2.84296
   D14        1.28534   0.00186   0.00000   0.01231   0.01273   1.29807
   D15       -1.09082   0.00125   0.00000   0.02147   0.02126  -1.06956
   D16       -1.31852  -0.00184   0.00000  -0.00504  -0.00535  -1.32387
   D17       -2.84793  -0.00049   0.00000  -0.02150  -0.02083  -2.86876
   D18        1.05910  -0.00109   0.00000  -0.01234  -0.01230   1.04680
   D19       -0.78699   0.00114   0.00000   0.00464   0.00477  -0.78223
   D20        0.74213  -0.00020   0.00000   0.02138   0.02047   0.76261
   D21        3.12968   0.00011   0.00000   0.00447   0.00444   3.13412
   D22        1.27397   0.00214   0.00000   0.02018   0.02036   1.29433
   D23        2.80310   0.00080   0.00000   0.03692   0.03607   2.83916
   D24       -1.09254   0.00111   0.00000   0.02000   0.02003  -1.07251
   D25       -2.85965  -0.00019   0.00000  -0.01345  -0.01300  -2.87265
   D26       -1.33052  -0.00153   0.00000   0.00329   0.00271  -1.32781
   D27        1.05703  -0.00121   0.00000  -0.01362  -0.01333   1.04370
   D28        1.12577   0.00346   0.00000   0.04026   0.04089   1.16666
   D29       -0.88579  -0.00170   0.00000  -0.00179  -0.00192  -0.88771
   D30        3.12719  -0.00155   0.00000   0.00125   0.00104   3.12822
   D31       -0.69713   0.00863   0.00000   0.09769   0.09918  -0.59795
   D32       -2.70869   0.00348   0.00000   0.05564   0.05636  -2.65233
   D33        1.30429   0.00362   0.00000   0.05868   0.05932   1.36361
   D34       -2.78584   0.00220   0.00000   0.01428   0.01446  -2.77137
   D35        1.48579  -0.00295   0.00000  -0.02777  -0.02835   1.45744
   D36       -0.78442  -0.00281   0.00000  -0.02473  -0.02539  -0.80981
   D37       -1.09983  -0.00441   0.00000  -0.05855  -0.05922  -1.15906
   D38        0.91474   0.00102   0.00000  -0.01571  -0.01567   0.89907
   D39       -3.09602   0.00062   0.00000  -0.02250  -0.02232  -3.11834
   D40        0.69765  -0.00854   0.00000  -0.09810  -0.09959   0.59806
   D41        2.71222  -0.00311   0.00000  -0.05526  -0.05603   2.65619
   D42       -1.29853  -0.00350   0.00000  -0.06205  -0.06269  -1.36122
   D43        2.78936  -0.00241   0.00000  -0.01630  -0.01633   2.77302
   D44       -1.47926   0.00301   0.00000   0.02653   0.02722  -1.45204
   D45        0.79317   0.00262   0.00000   0.01974   0.02057   0.81374
   D46       -1.11376  -0.00359   0.00000  -0.04629  -0.04690  -1.16066
   D47        0.69770  -0.00869   0.00000  -0.09847  -0.09988   0.59782
   D48        2.78660  -0.00215   0.00000  -0.01393  -0.01407   2.77253
   D49        0.89693   0.00157   0.00000  -0.00433  -0.00421   0.89272
   D50        2.70839  -0.00353   0.00000  -0.05650  -0.05719   2.65120
   D51       -1.48590   0.00301   0.00000   0.02803   0.02861  -1.45728
   D52       -3.11355   0.00127   0.00000  -0.01057  -0.01036  -3.12390
   D53       -1.30209  -0.00383   0.00000  -0.06275  -0.06333  -1.36542
   D54        0.78681   0.00271   0.00000   0.02178   0.02247   0.80928
   D55        1.11180   0.00429   0.00000   0.05248   0.05321   1.16501
   D56       -0.90474  -0.00108   0.00000   0.01057   0.01053  -0.89421
   D57        3.10952  -0.00090   0.00000   0.01319   0.01304   3.12255
   D58       -0.69718   0.00848   0.00000   0.09739   0.09896  -0.59823
   D59       -2.71373   0.00311   0.00000   0.05548   0.05627  -2.65745
   D60        1.30053   0.00330   0.00000   0.05810   0.05878   1.35931
   D61       -2.78863   0.00245   0.00000   0.01656   0.01663  -2.77200
   D62        1.47802  -0.00292   0.00000  -0.02535  -0.02605   1.45196
   D63       -0.79091  -0.00273   0.00000  -0.02273  -0.02354  -0.81446
         Item               Value     Threshold  Converged?
 Maximum Force            0.018629     0.000450     NO 
 RMS     Force            0.003577     0.000300     NO 
 Maximum Displacement     0.169330     0.001800     NO 
 RMS     Displacement     0.040251     0.001200     NO 
 Predicted change in Energy=-7.301125D-03
 GradGradGradGradGradGradGradGradGradGradGradGradGradGradGradGradGradGrad

                          Input orientation:                          
 ---------------------------------------------------------------------
 Center     Atomic      Atomic             Coordinates (Angstroms)
 Number     Number       Type             X           Y           Z
 ---------------------------------------------------------------------
      1          6           0       -1.187882    0.798563    0.065215
      2          6           0       -1.202896   -0.773311    0.069982
      3          6           0        0.302025   -1.034515   -0.008479
      4          6           0        0.728804   -0.017600   -1.115497
      5          6           0        0.320784    1.030528   -0.031287
      6          6           0        0.854760    0.004313    1.017998
      7          1           0       -1.604608    1.228687    0.980423
      8          1           0       -1.723901    1.229491   -0.785159
      9          1           0       -1.726412   -1.193519   -0.793523
     10          1           0       -1.650144   -1.195522    0.974329
     11          1           0        0.662221   -2.065803   -0.017662
     12          1           0        0.168099   -0.023566   -2.059522
     13          1           0        1.797780   -0.028340   -1.325948
     14          1           0        0.699491    2.054656   -0.064780
     15          1           0        0.414894    0.020151    2.023914
     16          1           0        1.941475   -0.006022    1.095228
 ---------------------------------------------------------------------
                    Distance matrix (angstroms):
                    1          2          3          4          5
     1  C    0.000000
     2  C    1.571953   0.000000
     3  C    2.363351   1.529435   0.000000
     4  C    2.394553   2.389126   1.562608   0.000000
     5  C    1.529442   2.363406   2.065254   1.562230   0.000000
     6  C    2.389772   2.395283   1.561517   2.137322   1.561809
     7  H    1.093742   2.235682   3.120138   3.375044   2.184023
     8  H    1.093688   2.239181   3.135814   2.771302   2.188297
     9  H    2.235136   1.093747   2.180856   2.741266   3.117434
    10  H    2.239765   1.093680   2.191529   3.378500   3.138649
    11  H    3.410915   2.270876   1.092419   2.324825   3.115129
    12  H    2.651243   2.641312   2.290574   1.098002   2.290887
    13  H    3.396069   3.392294   2.232800   1.089549   2.231338
    14  H    2.270869   3.410958   3.115144   2.323598   1.092419
    15  H    2.647889   2.657947   2.292528   3.155292   2.292066
    16  H    3.391336   3.395134   2.227951   2.521509   2.229375
                    6          7          8          9         10
     6  C    0.000000
     7  H    2.747543   0.000000
     8  H    3.376674   1.769608   0.000000
     9  H    3.373256   3.004796   2.423026   0.000000
    10  H    2.777778   2.424644   2.996986   1.769497   0.000000
    11  H    2.322723   4.121693   4.140240   2.658648   2.662418
    12  H    3.153317   3.735223   2.602655   2.561389   3.726089
    13  H    2.526745   4.298339   3.778469   3.749807   4.306016
    14  H    2.323881   2.661494   2.659450   4.119067   4.142968
    15  H    1.097998   2.574456   3.732002   3.741141   2.616080
    16  H    1.089505   3.756647   4.300852   4.293126   3.785401
                   11         12         13         14         15
    11  H    0.000000
    12  H    2.929860   0.000000
    13  H    2.674390   1.787181   0.000000
    14  H    4.120896   2.929229   2.671265   0.000000
    15  H    2.929234   4.091121   3.624404   2.929649   0.000000
    16  H    2.667905   3.619063   2.425539   2.671054   1.787063
                   16
    16  H    0.000000
 Stoichiometry    C6H10
 Framework group  C1[X(C6H10)]
 Deg. of freedom    42
 Full point group                 C1      NOp   1
 Largest Abelian subgroup         C1      NOp   1
 Largest concise Abelian subgroup C1      NOp   1
                         Standard orientation:                         
 ---------------------------------------------------------------------
 Center     Atomic      Atomic             Coordinates (Angstroms)
 Number     Number       Type             X           Y           Z
 ---------------------------------------------------------------------
      1          6           0        1.151057    0.786079    0.004603
      2          6           0        1.151261   -0.785833   -0.006743
      3          6           0       -0.358114   -1.032547   -0.016137
      4          6           0       -0.838092   -0.016120    1.069332
      5          6           0       -0.358370    1.032467    0.015342
      6          6           0       -0.840922    0.015950   -1.067748
      7          1           0        1.623831    1.215906   -0.883094
      8          1           0        1.641385    1.208155    0.886409
      9          1           0        1.620199   -1.214777    0.883419
     10          1           0        1.645715   -1.208638   -0.885884
     11          1           0       -0.728105   -2.060271   -0.032557
     12          1           0       -0.332692   -0.031549    2.043981
     13          1           0       -1.917457   -0.017225    1.217949
     14          1           0       -0.728549    2.060122    0.031869
     15          1           0       -0.343800    0.031667   -2.046636
     16          1           0       -1.921446    0.016629   -1.207350
 ---------------------------------------------------------------------
 Rotational constants (GHZ):           5.2176979           4.4632270           4.0057074
 Standard basis: 6-31G(2df,p) (6D, 7F)
 There are   236 symmetry adapted cartesian basis functions of A   symmetry.
 There are   218 symmetry adapted basis functions of A   symmetry.
   218 basis functions,   334 primitive gaussians,   236 cartesian basis functions
    23 alpha electrons       23 beta electrons
       nuclear repulsion energy       249.3466632468 Hartrees.
 NAtoms=   16 NActive=   16 NUniq=   16 SFac= 1.00D+00 NAtFMM=   60 NAOKFM=F Big=F
 Integral buffers will be    131072 words long.
 Raffenetti 2 integral format.
 Two-electron integral symmetry is turned on.
 One-electron integrals computed using PRISM.
 PrsmSu:  requested number of processors reduced to:  13 ShMem   1 Linda.
 NBasis=   218 RedAO= T EigKep=  4.83D-04  NBF=   218
 NBsUse=   218 1.00D-06 EigRej= -1.00D+00 NBFU=   218
 Initial guess from the checkpoint file:  "C1CC2CC1C2.chk"
 B after Tr=    -0.000000   -0.000000   -0.000000
         Rot=    0.999950    0.008825    0.004592    0.000228 Ang=   1.14 deg.
 ExpMin= 1.61D-01 ExpMax= 3.05D+03 ExpMxC= 4.57D+02 IAcc=2 IRadAn=         4 AccDes= 0.00D+00
 Harris functional with IExCor=  402 and IRadAn=       4 diagonalized for initial guess.
 HarFok:  IExCor=  402 AccDes= 0.00D+00 IRadAn=         4 IDoV= 1 UseB2=F ITyADJ=14
 ICtDFT=  3500011 ScaDFX=  1.000000  1.000000  1.000000  1.000000
 FoFCou: FMM=F IPFlag=           0 FMFlag=      100000 FMFlg1=           0
         NFxFlg=           0 DoJE=T BraDBF=F KetDBF=T FulRan=T
         wScrn=  0.000000 ICntrl=       500 IOpCl=  0 I1Cent=   200000004 NGrid=           0
         NMat0=    1 NMatS0=      1 NMatT0=    0 NMatD0=    1 NMtDS0=    0 NMtDT0=    0
 Petite list used in FoFCou.
 Requested convergence on RMS density matrix=1.00D-08 within 128 cycles.
 Requested convergence on MAX density matrix=1.00D-06.
 Requested convergence on             energy=1.00D-06.
 No special actions if energy rises.
 Integral accuracy reduced to 1.0D-05 until final iterations.
 Initial convergence to 1.0D-05 achieved.  Increase integral accuracy.
 SCF Done:  E(RB3LYP) =  -234.637312591     A.U. after   10 cycles
            NFock= 10  Conv=0.14D-08     -V/T= 2.0090
 PrsmSu:  requested number of processors reduced to:  13 ShMem   1 Linda.
 Calling FoFJK, ICntrl=      2127 FMM=F ISym2X=0 I1Cent= 0 IOpClX= 0 NMat=1 NMatS=1 NMatT=0.
 ***** Axes restored to original set *****
 -------------------------------------------------------------------
 Center     Atomic                   Forces (Hartrees/Bohr)
 Number     Number              X              Y              Z
 -------------------------------------------------------------------
      1        6          -0.004348184    0.001074116    0.000333932
      2        6          -0.004406377   -0.000986362   -0.000358793
      3        6           0.007814275    0.004925057   -0.000461557
      4        6          -0.000724422    0.000021432    0.001591262
      5        6           0.007719429   -0.005073854   -0.000314824
      6        6          -0.000198870   -0.000022206   -0.001430434
      7        1          -0.001484089   -0.000589124   -0.000009791
      8        1          -0.001313957   -0.000875387    0.000032388
      9        1          -0.001761591    0.000644039    0.000270108
     10        1          -0.000970173    0.000883121    0.000198695
     11        1          -0.002850109    0.000587942    0.000035780
     12        1           0.000618058    0.000023379    0.001710510
     13        1           0.002304004   -0.000046114    0.001125155
     14        1          -0.002849101   -0.000532088    0.000261051
     15        1           0.000198674   -0.000039929   -0.001891769
     16        1           0.002252433    0.000005978   -0.001091712
 -------------------------------------------------------------------
 Cartesian Forces:  Max     0.007814275 RMS     0.002344773

 GradGradGradGradGradGradGradGradGradGradGradGradGradGradGradGradGradGrad
 Berny optimization.
 Using GEDIIS/GDIIS optimizer.
 FormGI is forming the generalized inverse of G from B-inverse, IUseBI=4.
 Internal  Forces:  Max     0.006871305 RMS     0.001291648
 Search for a local minimum.
 Step number   2 out of a maximum of  100
 All quantities printed in internal units (Hartrees-Bohrs-Radians)
 Mixed Optimization -- RFO/linear search
 Update second derivatives using D2CorX and points    1    2
 DE= -5.19D-03 DEPred=-7.30D-03 R= 7.11D-01
 TightC=F SS=  1.41D+00  RLast= 3.69D-01 DXNew= 5.0454D-01 1.1060D+00
 Trust test= 7.11D-01 RLast= 3.69D-01 DXMaxT set to 5.05D-01
 ITU=  1  0
 Use linear search instead of GDIIS.
     Eigenvalues ---    0.00641   0.01898   0.02131   0.02530   0.02663
     Eigenvalues ---    0.02875   0.03439   0.03981   0.04019   0.04065
     Eigenvalues ---    0.04541   0.04632   0.05404   0.05735   0.06175
     Eigenvalues ---    0.06264   0.06274   0.06523   0.06740   0.06862
     Eigenvalues ---    0.08072   0.09776   0.09855   0.12929   0.13208
     Eigenvalues ---    0.19808   0.22380   0.22406   0.24255   0.26809
     Eigenvalues ---    0.27638   0.31251   0.34090   0.34225   0.34262
     Eigenvalues ---    0.34306   0.34320   0.34341   0.34364   0.34705
     Eigenvalues ---    0.35021   0.35564
 RFO step:  Lambda=-8.66420964D-04 EMin= 6.41179153D-03
 Quartic linear search produced a step of -0.12562.
 Iteration  1 RMS(Cart)=  0.01566998 RMS(Int)=  0.00015276
 Iteration  2 RMS(Cart)=  0.00012042 RMS(Int)=  0.00010571
 Iteration  3 RMS(Cart)=  0.00000001 RMS(Int)=  0.00010571
 Variable       Old X    -DE/DX   Delta X   Delta X   Delta X     New X
                                 (Linear)    (Quad)   (Total)
    R1        2.97056  -0.00159  -0.00957   0.00472  -0.00473   2.96583
    R2        2.89023   0.00687  -0.00056   0.02007   0.01953   2.90976
    R3        2.06687   0.00033   0.00016   0.00056   0.00072   2.06760
    R4        2.06677   0.00027   0.00015   0.00046   0.00060   2.06737
    R5        2.89021   0.00687  -0.00057   0.02010   0.01955   2.90976
    R6        2.06688   0.00038   0.00026   0.00055   0.00081   2.06769
    R7        2.06676   0.00022   0.00006   0.00047   0.00052   2.06728
    R8        2.95290  -0.00277  -0.00042  -0.00600  -0.00648   2.94642
    R9        2.95084  -0.00251   0.00006  -0.00615  -0.00610   2.94474
   R10        2.06437  -0.00150  -0.00100  -0.00209  -0.00309   2.06129
   R11        2.95219  -0.00267  -0.00013  -0.00668  -0.00678   2.94541
   R12        2.07492  -0.00179  -0.00088  -0.00310  -0.00398   2.07095
   R13        2.05895   0.00204   0.00151   0.00274   0.00426   2.06321
   R14        2.95139  -0.00259  -0.00026  -0.00534  -0.00571   2.94568
   R15        2.06437  -0.00149  -0.00100  -0.00208  -0.00309   2.06129
   R16        2.07492  -0.00181  -0.00096  -0.00303  -0.00399   2.07092
   R17        2.05887   0.00217   0.00170   0.00278   0.00447   2.06334
    A1        1.73278  -0.00077  -0.00006  -0.00238  -0.00236   1.73041
    A2        1.96824  -0.00030  -0.00183  -0.00387  -0.00574   1.96250
    A3        1.97324  -0.00049  -0.00232  -0.00503  -0.00736   1.96589
    A4        1.94871   0.00088   0.00114   0.00944   0.01060   1.95931
    A5        1.95479   0.00113   0.00044   0.01047   0.01083   1.96562
    A6        1.88486  -0.00038   0.00235  -0.00736  -0.00511   1.87975
    A7        1.73273  -0.00076  -0.00007  -0.00232  -0.00232   1.73041
    A8        1.96747  -0.00040  -0.00202  -0.00301  -0.00513   1.96234
    A9        1.97408  -0.00040  -0.00210  -0.00598  -0.00805   1.96603
   A10        1.94428   0.00117   0.00100   0.01323   0.01426   1.95854
   A11        1.95937   0.00083   0.00058   0.00659   0.00709   1.96646
   A12        1.88469  -0.00038   0.00232  -0.00721  -0.00499   1.87971
   A13        1.76598   0.00129   0.00632   0.00668   0.01283   1.77880
   A14        1.77313   0.00130   0.00838  -0.00129   0.00702   1.78016
   A15        2.07841  -0.00151   0.00084  -0.02258  -0.02178   2.05663
   A16        1.50683  -0.00080  -0.00500  -0.00385  -0.00841   1.49843
   A17        2.11572   0.00013  -0.00502   0.01225   0.00751   2.12323
   A18        2.11397   0.00011  -0.00519   0.01315   0.00818   2.12215
   A19        1.44408  -0.00006  -0.00435   0.00268  -0.00146   1.44261
   A20        2.05566  -0.00054  -0.00259   0.00585   0.00327   2.05893
   A21        1.98055   0.00019   0.00567  -0.01470  -0.00909   1.97146
   A22        2.05665  -0.00055  -0.00262   0.00567   0.00308   2.05973
   A23        1.97895   0.00023   0.00606  -0.01471  -0.00872   1.97023
   A24        1.91229   0.00055  -0.00193   0.01085   0.00893   1.92122
   A25        1.77181   0.00125   0.00692   0.00146   0.00826   1.78007
   A26        1.76726   0.00134   0.00778   0.00398   0.01164   1.77890
   A27        2.07839  -0.00152   0.00086  -0.02263  -0.02182   2.05658
   A28        1.50688  -0.00081  -0.00499  -0.00389  -0.00844   1.49845
   A29        2.11432   0.00017  -0.00488   0.01261   0.00796   2.12228
   A30        2.11538   0.00007  -0.00535   0.01284   0.00776   2.12314
   A31        1.44493  -0.00015  -0.00446   0.00233  -0.00189   1.44304
   A32        2.06011  -0.00059  -0.00251   0.00357   0.00108   2.06119
   A33        1.97507   0.00034   0.00614  -0.01259  -0.00651   1.96856
   A34        2.05901  -0.00058  -0.00261   0.00404   0.00144   2.06045
   A35        1.97673   0.00031   0.00575  -0.01261  -0.00691   1.96982
   A36        1.91217   0.00050  -0.00202   0.01095   0.00892   1.92108
    D1        0.01098  -0.00005   0.00128  -0.01023  -0.00886   0.00212
    D2       -2.04825  -0.00082   0.00098  -0.02303  -0.02197  -2.07022
    D3        2.09052   0.00030   0.00104  -0.00642  -0.00533   2.08519
    D4       -2.05374  -0.00051   0.00075  -0.01825  -0.01745  -2.07119
    D5        2.17022  -0.00128   0.00045  -0.03104  -0.03056   2.13966
    D6        0.02580  -0.00016   0.00051  -0.01444  -0.01392   0.01188
    D7        2.08485   0.00061   0.00080  -0.00152  -0.00069   2.08415
    D8        0.02562  -0.00016   0.00050  -0.01431  -0.01380   0.01181
    D9       -2.11880   0.00097   0.00056   0.00230   0.00284  -2.11596
   D10        0.76368  -0.00018  -0.00186   0.00665   0.00485   0.76853
   D11       -0.78121   0.00015   0.00008   0.00962   0.00963  -0.77158
   D12        3.13435   0.00001  -0.00099   0.00664   0.00568   3.14004
   D13        2.84296  -0.00059  -0.00354   0.00475   0.00126   2.84422
   D14        1.29807  -0.00026  -0.00160   0.00773   0.00604   1.30411
   D15       -1.06956  -0.00040  -0.00267   0.00474   0.00210  -1.06746
   D16       -1.32387   0.00034   0.00067   0.00942   0.01018  -1.31369
   D17       -2.86876   0.00067   0.00262   0.01239   0.01496  -2.85381
   D18        1.04680   0.00054   0.00155   0.00941   0.01101   1.05781
   D19       -0.78223   0.00018  -0.00060   0.01099   0.01039  -0.77184
   D20        0.76261  -0.00015  -0.00257   0.00807   0.00564   0.76825
   D21        3.13412   0.00000  -0.00056   0.00606   0.00557   3.13969
   D22        1.29433  -0.00021  -0.00256   0.01162   0.00901   1.30334
   D23        2.83916  -0.00054  -0.00453   0.00871   0.00426   2.84342
   D24       -1.07251  -0.00039  -0.00252   0.00670   0.00420  -1.06832
   D25       -2.87265   0.00072   0.00163   0.01645   0.01806  -2.85459
   D26       -1.32781   0.00039  -0.00034   0.01354   0.01331  -1.31450
   D27        1.04370   0.00055   0.00167   0.01153   0.01325   1.05695
   D28        1.16666  -0.00021  -0.00514  -0.00435  -0.00959   1.15707
   D29       -0.88771   0.00052   0.00024  -0.01300  -0.01277  -0.90048
   D30        3.12822   0.00002  -0.00013  -0.01988  -0.02001   3.10821
   D31       -0.59795  -0.00135  -0.01246  -0.00213  -0.01475  -0.61271
   D32       -2.65233  -0.00062  -0.00708  -0.01078  -0.01793  -2.67026
   D33        1.36361  -0.00111  -0.00745  -0.01766  -0.02517   1.33843
   D34       -2.77137  -0.00096  -0.00182  -0.01964  -0.02144  -2.79281
   D35        1.45744  -0.00023   0.00356  -0.02828  -0.02462   1.43282
   D36       -0.80981  -0.00073   0.00319  -0.03517  -0.03186  -0.84167
   D37       -1.15906   0.00022   0.00744  -0.00424   0.00331  -1.15574
   D38        0.89907  -0.00060   0.00197   0.00211   0.00409   0.90316
   D39       -3.11834  -0.00007   0.00280   0.00901   0.01181  -3.10653
   D40        0.59806   0.00134   0.01251   0.00186   0.01454   0.61261
   D41        2.65619   0.00052   0.00704   0.00821   0.01532   2.67151
   D42       -1.36122   0.00105   0.00787   0.01511   0.02304  -1.33818
   D43        2.77302   0.00098   0.00205   0.01856   0.02064   2.79366
   D44       -1.45204   0.00015  -0.00342   0.02491   0.02142  -1.43062
   D45        0.81374   0.00068  -0.00258   0.03181   0.02914   0.84288
   D46       -1.16066   0.00019   0.00589  -0.00132   0.00468  -1.15597
   D47        0.59782   0.00137   0.01255   0.00195   0.01466   0.61248
   D48        2.77253   0.00095   0.00177   0.01915   0.02096   2.79349
   D49        0.89272  -0.00053   0.00053   0.00752   0.00805   0.90077
   D50        2.65120   0.00065   0.00718   0.01078   0.01802   2.66922
   D51       -1.45728   0.00023  -0.00359   0.02799   0.02433  -1.43295
   D52       -3.12390  -0.00001   0.00130   0.01420   0.01549  -3.10842
   D53       -1.36542   0.00117   0.00796   0.01746   0.02546  -1.33996
   D54        0.80928   0.00075  -0.00282   0.03467   0.03177   0.84105
   D55        1.16501  -0.00023  -0.00668  -0.00137  -0.00817   1.15684
   D56       -0.89421   0.00061  -0.00132  -0.00725  -0.00859  -0.90280
   D57        3.12255   0.00009  -0.00164  -0.01461  -0.01626   3.10630
   D58       -0.59823  -0.00131  -0.01243  -0.00202  -0.01462  -0.61285
   D59       -2.65745  -0.00048  -0.00707  -0.00789  -0.01504  -2.67249
   D60        1.35931  -0.00099  -0.00738  -0.01525  -0.02271   1.33661
   D61       -2.77200  -0.00099  -0.00209  -0.01903  -0.02110  -2.79310
   D62        1.45196  -0.00015   0.00327  -0.02491  -0.02152   1.43044
   D63       -0.81446  -0.00067   0.00296  -0.03227  -0.02919  -0.84364
         Item               Value     Threshold  Converged?
 Maximum Force            0.006871     0.000450     NO 
 RMS     Force            0.001292     0.000300     NO 
 Maximum Displacement     0.061200     0.001800     NO 
 RMS     Displacement     0.015671     0.001200     NO 
 Predicted change in Energy=-5.418232D-04
 GradGradGradGradGradGradGradGradGradGradGradGradGradGradGradGradGradGrad

                          Input orientation:                          
 ---------------------------------------------------------------------
 Center     Atomic      Atomic             Coordinates (Angstroms)
 Number     Number       Type             X           Y           Z
 ---------------------------------------------------------------------
      1          6           0       -1.196896    0.797398    0.062344
      2          6           0       -1.211502   -0.771943    0.073377
      3          6           0        0.303856   -1.031389   -0.012062
      4          6           0        0.743171   -0.014928   -1.109718
      5          6           0        0.322824    1.027354   -0.029755
      6          6           0        0.867372    0.001357    1.009773
      7          1           0       -1.626428    1.225521    0.973017
      8          1           0       -1.738505    1.217549   -0.790289
      9          1           0       -1.751713   -1.190501   -0.781140
     10          1           0       -1.658946   -1.182613    0.983259
     11          1           0        0.643315   -2.067951   -0.023010
     12          1           0        0.198950   -0.018542   -2.060929
     13          1           0        1.819333   -0.025374   -1.293563
     14          1           0        0.681216    2.057159   -0.059295
     15          1           0        0.440606    0.014380    2.019064
     16          1           0        1.957838   -0.009286    1.064155
 ---------------------------------------------------------------------
                    Distance matrix (angstroms):
                    1          2          3          4          5
     1  C    0.000000
     2  C    1.569448   0.000000
     3  C    2.366908   1.539780   0.000000
     4  C    2.407792   2.406976   1.559179   0.000000
     5  C    1.539776   2.366910   2.058906   1.558642   0.000000
     6  C    2.406762   2.407602   1.558288   2.123190   1.558788
     7  H    1.094126   2.229659   3.128900   3.389911   2.201001
     8  H    1.094007   2.231978   3.136016   2.789221   2.205372
     9  H    2.229581   1.094175   2.200492   2.777478   3.128445
    10  H    2.232044   1.093957   2.205930   3.393260   3.136489
    11  H    3.406448   2.264790   1.090786   2.325040   3.111860
    12  H    2.668789   2.666880   2.287951   1.095897   2.287993
    13  H    3.407796   3.407616   2.225080   1.091802   2.223732
    14  H    2.264751   3.406435   3.111874   2.323956   1.090787
    15  H    2.668948   2.670855   2.288626   3.143515   2.288590
    16  H    3.406862   3.407052   2.222295   2.490216   2.223630
                    6          7          8          9         10
     6  C    0.000000
     7  H    2.778303   0.000000
     8  H    3.392631   1.766881   0.000000
     9  H    3.389322   2.988299   2.408104   0.000000
    10  H    2.790120   2.408376   2.985394   1.766854   0.000000
    11  H    2.323548   4.121985   4.129927   2.660985   2.663983
    12  H    3.142673   3.752935   2.626058   2.610830   3.751522
    13  H    2.492449   4.309917   3.802152   3.791104   4.315269
    14  H    2.324625   2.661298   2.663522   4.121590   4.130303
    15  H    1.095886   2.614136   3.753479   3.754883   2.629412
    16  H    1.091873   3.792099   4.313588   4.308266   3.803205
                   11         12         13         14         15
    11  H    0.000000
    12  H    2.924149   0.000000
    13  H    2.677581   1.792913   0.000000
    14  H    4.125443   2.923637   2.675008   0.000000
    15  H    2.923569   4.087276   3.588309   2.924109   0.000000
    16  H    2.673574   3.586073   2.361837   2.676210   1.792876
                   16
    16  H    0.000000
 Stoichiometry    C6H10
 Framework group  C1[X(C6H10)]
 Deg. of freedom    42
 Full point group                 C1      NOp   1
 Largest Abelian subgroup         C1      NOp   1
 Largest concise Abelian subgroup C1      NOp   1
                         Standard orientation:                         
 ---------------------------------------------------------------------
 Center     Atomic      Atomic             Coordinates (Angstroms)
 Number     Number       Type             X           Y           Z
 ---------------------------------------------------------------------
      1          6           0        1.161422    0.784731    0.000764
      2          6           0        1.161441   -0.784716   -0.000811
      3          6           0       -0.358762   -1.029458   -0.002834
      4          6           0       -0.851670   -0.002335    1.061638
      5          6           0       -0.358784    1.029442    0.002457
      6          6           0       -0.851501    0.002336   -1.061547
      7          1           0        1.647622    1.203322   -0.885522
      8          1           0        1.656269    1.204929    0.881338
      9          1           0        1.646656   -1.203151    0.886149
     10          1           0        1.657348   -1.205030   -0.880671
     11          1           0       -0.708309   -2.062715   -0.006114
     12          1           0       -0.364088   -0.005306    2.043089
     13          1           0       -1.936794   -0.001608    1.182205
     14          1           0       -0.708295    2.062713    0.005328
     15          1           0       -0.366315    0.005284   -2.044172
     16          1           0       -1.936970    0.001565   -1.179630
 ---------------------------------------------------------------------
 Rotational constants (GHZ):           5.2612019           4.4280817           3.9686745
 Standard basis: 6-31G(2df,p) (6D, 7F)
 There are   236 symmetry adapted cartesian basis functions of A   symmetry.
 There are   218 symmetry adapted basis functions of A   symmetry.
   218 basis functions,   334 primitive gaussians,   236 cartesian basis functions
    23 alpha electrons       23 beta electrons
       nuclear repulsion energy       249.0990691236 Hartrees.
 NAtoms=   16 NActive=   16 NUniq=   16 SFac= 1.00D+00 NAtFMM=   60 NAOKFM=F Big=F
 Integral buffers will be    131072 words long.
 Raffenetti 2 integral format.
 Two-electron integral symmetry is turned on.
 One-electron integrals computed using PRISM.
 PrsmSu:  requested number of processors reduced to:  13 ShMem   1 Linda.
 NBasis=   218 RedAO= T EigKep=  4.92D-04  NBF=   218
 NBsUse=   218 1.00D-06 EigRej= -1.00D+00 NBFU=   218
 Initial guess from the checkpoint file:  "C1CC2CC1C2.chk"
 B after Tr=    -0.000000    0.000000   -0.000000
         Rot=    0.999986    0.005355    0.000500    0.000054 Ang=   0.62 deg.
 ExpMin= 1.61D-01 ExpMax= 3.05D+03 ExpMxC= 4.57D+02 IAcc=2 IRadAn=         4 AccDes= 0.00D+00
 Harris functional with IExCor=  402 and IRadAn=       4 diagonalized for initial guess.
 HarFok:  IExCor=  402 AccDes= 0.00D+00 IRadAn=         4 IDoV= 1 UseB2=F ITyADJ=14
 ICtDFT=  3500011 ScaDFX=  1.000000  1.000000  1.000000  1.000000
 FoFCou: FMM=F IPFlag=           0 FMFlag=      100000 FMFlg1=           0
         NFxFlg=           0 DoJE=T BraDBF=F KetDBF=T FulRan=T
         wScrn=  0.000000 ICntrl=       500 IOpCl=  0 I1Cent=   200000004 NGrid=           0
         NMat0=    1 NMatS0=      1 NMatT0=    0 NMatD0=    1 NMtDS0=    0 NMtDT0=    0
 Petite list used in FoFCou.
 Requested convergence on RMS density matrix=1.00D-08 within 128 cycles.
 Requested convergence on MAX density matrix=1.00D-06.
 Requested convergence on             energy=1.00D-06.
 No special actions if energy rises.
 Integral accuracy reduced to 1.0D-05 until final iterations.
 Initial convergence to 1.0D-05 achieved.  Increase integral accuracy.
 SCF Done:  E(RB3LYP) =  -234.637916049     A.U. after    9 cycles
            NFock=  9  Conv=0.28D-08     -V/T= 2.0091
 PrsmSu:  requested number of processors reduced to:  13 ShMem   1 Linda.
 Calling FoFJK, ICntrl=      2127 FMM=F ISym2X=0 I1Cent= 0 IOpClX= 0 NMat=1 NMatS=1 NMatT=0.
 ***** Axes restored to original set *****
 -------------------------------------------------------------------
 Center     Atomic                   Forces (Hartrees/Bohr)
 Number     Number              X              Y              Z
 -------------------------------------------------------------------
      1        6          -0.000872005   -0.000759764    0.000684846
      2        6          -0.000944644    0.000775751   -0.000776812
      3        6           0.002217098    0.001881980    0.000015491
      4        6          -0.001920311   -0.000118430   -0.000272605
      5        6           0.002158187   -0.001914281   -0.000280128
      6        6          -0.001417429    0.000139183    0.000527504
      7        1           0.000024591    0.000066248    0.000001319
      8        1           0.000326210   -0.000045617   -0.000189773
      9        1          -0.000020448   -0.000049912    0.000036744
     10        1           0.000400702    0.000021749    0.000191320
     11        1          -0.000793555   -0.000035944   -0.000015273
     12        1           0.000419491    0.000030967    0.000341682
     13        1           0.000487589   -0.000094573    0.000384060
     14        1          -0.000782586    0.000049888    0.000094840
     15        1           0.000281677   -0.000034745   -0.000434387
     16        1           0.000435431    0.000087498   -0.000308828
 -------------------------------------------------------------------
 Cartesian Forces:  Max     0.002217098 RMS     0.000786627

 GradGradGradGradGradGradGradGradGradGradGradGradGradGradGradGradGradGrad
 Berny optimization.
 Using GEDIIS/GDIIS optimizer.
 FormGI is forming the generalized inverse of G from B-inverse, IUseBI=4.
 Internal  Forces:  Max     0.000983974 RMS     0.000243309
 Search for a local minimum.
 Step number   3 out of a maximum of  100
 All quantities printed in internal units (Hartrees-Bohrs-Radians)
 Mixed Optimization -- En-DIIS/RFO-DIIS
 Update second derivatives using D2CorX and points    1    2    3
 DE= -6.03D-04 DEPred=-5.42D-04 R= 1.11D+00
 TightC=F SS=  1.41D+00  RLast= 1.46D-01 DXNew= 8.4853D-01 4.3722D-01
 Trust test= 1.11D+00 RLast= 1.46D-01 DXMaxT set to 5.05D-01
 ITU=  1  1  0
 Use linear search instead of GDIIS.
     Eigenvalues ---    0.00640   0.01757   0.02133   0.02536   0.02645
     Eigenvalues ---    0.02890   0.03438   0.03949   0.04001   0.04022
     Eigenvalues ---    0.04336   0.04537   0.05416   0.05881   0.06145
     Eigenvalues ---    0.06245   0.06246   0.06692   0.06774   0.06841
     Eigenvalues ---    0.08031   0.09771   0.10056   0.12870   0.13153
     Eigenvalues ---    0.19821   0.22270   0.22369   0.24154   0.26796
     Eigenvalues ---    0.27816   0.30602   0.34081   0.34163   0.34268
     Eigenvalues ---    0.34273   0.34309   0.34334   0.34346   0.34371
     Eigenvalues ---    0.35021   0.35109
 RFO step:  Lambda=-5.85132136D-05 EMin= 6.39708829D-03
 Quartic linear search produced a step of  0.13552.
 Iteration  1 RMS(Cart)=  0.00283575 RMS(Int)=  0.00001331
 Iteration  2 RMS(Cart)=  0.00001131 RMS(Int)=  0.00000735
 Iteration  3 RMS(Cart)=  0.00000000 RMS(Int)=  0.00000735
 Variable       Old X    -DE/DX   Delta X   Delta X   Delta X     New X
                                 (Linear)    (Quad)   (Total)
    R1        2.96583  -0.00098  -0.00064  -0.00319  -0.00383   2.96200
    R2        2.90976   0.00050   0.00265   0.00028   0.00292   2.91268
    R3        2.06760   0.00002   0.00010  -0.00002   0.00008   2.06768
    R4        2.06737  -0.00003   0.00008  -0.00017  -0.00009   2.06728
    R5        2.90976   0.00049   0.00265   0.00026   0.00291   2.91267
    R6        2.06769   0.00000   0.00011  -0.00009   0.00002   2.06771
    R7        2.06728  -0.00001   0.00007  -0.00009  -0.00002   2.06726
    R8        2.94642  -0.00091  -0.00088  -0.00348  -0.00436   2.94206
    R9        2.94474  -0.00065  -0.00083  -0.00168  -0.00251   2.94223
   R10        2.06129  -0.00021  -0.00042  -0.00034  -0.00076   2.06053
   R11        2.94541  -0.00075  -0.00092  -0.00220  -0.00311   2.94229
   R12        2.07095  -0.00051  -0.00054  -0.00128  -0.00182   2.06913
   R13        2.06321   0.00042   0.00058   0.00090   0.00147   2.06468
   R14        2.94568  -0.00081  -0.00077  -0.00293  -0.00371   2.94197
   R15        2.06129  -0.00021  -0.00042  -0.00034  -0.00076   2.06053
   R16        2.07092  -0.00051  -0.00054  -0.00128  -0.00182   2.06910
   R17        2.06334   0.00042   0.00061   0.00087   0.00147   2.06482
    A1        1.73041  -0.00011  -0.00032  -0.00094  -0.00127   1.72915
    A2        1.96250   0.00014  -0.00078   0.00293   0.00215   1.96465
    A3        1.96589  -0.00001  -0.00100   0.00027  -0.00073   1.96516
    A4        1.95931  -0.00000   0.00144   0.00000   0.00144   1.96075
    A5        1.96562  -0.00010   0.00147  -0.00466  -0.00320   1.96242
    A6        1.87975   0.00006  -0.00069   0.00210   0.00139   1.88114
    A7        1.73041  -0.00011  -0.00031  -0.00094  -0.00126   1.72915
    A8        1.96234   0.00012  -0.00070   0.00300   0.00230   1.96464
    A9        1.96603   0.00002  -0.00109   0.00022  -0.00088   1.96515
   A10        1.95854   0.00005   0.00193   0.00062   0.00256   1.96109
   A11        1.96646  -0.00016   0.00096  -0.00534  -0.00439   1.96208
   A12        1.87971   0.00007  -0.00068   0.00213   0.00144   1.88115
   A13        1.77880   0.00002   0.00174  -0.00101   0.00073   1.77953
   A14        1.78016   0.00010   0.00095   0.00012   0.00108   1.78123
   A15        2.05663  -0.00027  -0.00295  -0.00580  -0.00874   2.04789
   A16        1.49843   0.00024  -0.00114   0.00390   0.00275   1.50117
   A17        2.12323   0.00001   0.00102   0.00201   0.00301   2.12624
   A18        2.12215   0.00004   0.00111   0.00283   0.00392   2.12607
   A19        1.44261  -0.00017  -0.00020  -0.00216  -0.00236   1.44025
   A20        2.05893   0.00014   0.00044   0.00351   0.00395   2.06288
   A21        1.97146  -0.00013  -0.00123  -0.00416  -0.00540   1.96606
   A22        2.05973   0.00013   0.00042   0.00292   0.00334   2.06307
   A23        1.97023  -0.00009  -0.00118  -0.00237  -0.00357   1.96666
   A24        1.92122   0.00005   0.00121   0.00117   0.00239   1.92361
[...]

 Dipole orientation:
     6          0.03048844          1.48215073         -2.28185552
     6         -0.02156547         -1.47847192         -2.28176734
     6         -0.02746608         -1.93870398          0.59507369
     6          2.01145992         -0.03211155          1.52426919
     6          0.03888402          1.94251514          0.59496217
     6         -1.99933744          0.03596810          1.52572287
     1         -1.62668480          2.30659356         -3.20287613
     1          1.71369875          2.24878430         -3.20547884
     1          1.63466376         -2.30301871         -3.20433603
     1         -1.70572566         -2.24507377         -3.20373741
     1         -0.06063175         -3.89648929          1.23821417
     1          3.86841327         -0.06394589          0.61295644
     1          2.22532504         -0.03517695          3.57798886
     1          0.07251327          3.90033515          1.23797491
     1         -3.85701256          0.06776691          0.61586991
     1         -2.21169643          0.03912088          3.57961234

 Electric dipole moment (dipole orientation):
 (Debye = 10**-18 statcoulomb cm , SI units = C m)
                  (au)            (Debye)         (10**-30 SI)
   Tot        0.185089D-01      0.470448D-01      0.156925D+00
   x          0.000000D+00      0.000000D+00      0.000000D+00
   y          0.000000D+00      0.000000D+00      0.000000D+00
   z          0.185089D-01      0.470448D-01      0.156925D+00

 Dipole polarizability, Alpha (dipole orientation).
 (esu units = cm**3 , SI units = C**2 m**2 J**-1)
 Alpha(0;0):
               (au)            (10**-24 esu)      (10**-40 SI)
   iso        0.594705D+02      0.881261D+01      0.980535D+01
   aniso      0.349328D+01      0.517651D+00      0.575965D+00
   xx         0.587487D+02      0.870566D+01      0.968636D+01
   yx        -0.128657D-01     -0.190650D-02     -0.212127D-02
   yy         0.579138D+02      0.858194D+01      0.954870D+01
   zx         0.158725D-02      0.235206D-03      0.261702D-03
   zy         0.531581D-04      0.787722D-05      0.876459D-05
   zz         0.617488D+02      0.915023D+01      0.101810D+02

 ----------------------------------------------------------------------
 1\1\GINC-LEWIS4-R630-HPC4-NODE229\Freq\RB3LYP\6-31G(2df,p)\C6H10\LINJI
 AN\28-May-2023\0\\#N Geom=AllCheck Guess=TCheck SCRF=Check GenChk RB3L
 YP/6-31G(2df,p) Freq\\Title Card Required\\0,1\C,-1.1982525565,0.79615
 31648,0.0618086877\C,-1.2127580172,-0.770667935,0.0740647118\C,0.30461
 79318,-1.0290277295,-0.0137992325\C,0.743177744,-0.013862584,-1.109679
 2335\C,0.3236940853,1.0249812178,-0.0288680496\C,0.8676438918,0.000270
 3142,1.0093498976\H,-1.6293323034,1.2280851482,0.9698313665\H,-1.73373
 50412,1.2157348198,-0.7949601078\H,-1.7555349548,-1.1931707094,-0.7766
 738413\H,-1.652189962,-1.1807383024,0.9881831554\H,0.6346985324,-2.068
 4303569,-0.0261663863\H,0.2044997134,-0.0158849567,-2.0627177267\H,1.8
 214724902,-0.0248887113,-1.285928699\H,0.6730161975,2.0577846137,-0.05
 63615162\H,0.4443041552,0.0116439031,2.018864778\H,1.9591680933,-0.009
 7918965,1.0582821958\\Version=ES64L-G16RevA.03\State=1-A\HF=-234.63795
 77\RMSD=4.872e-10\RMSF=7.314e-05\ZeroPoint=0.1467734\Thermal=0.1515093
 \Dipole=0.0184766,-0.00018,-0.0010773\DipoleDeriv=0.0858129,-0.052892,
 0.0055845,-0.0395869,0.0213895,0.0033966,0.0054129,0.0042703,0.1727428
 ,0.0875001,0.0517544,0.0046273,0.0384392,0.0196133,-0.001164,0.0047812
 ,-0.0018526,0.1728302,0.0718518,-0.0364912,-0.0043558,-0.1063311,0.238
 8616,0.0046491,-0.0038683,0.0004303,-0.0054187,0.1224772,-0.0014322,0.
 0617632,-0.0010514,-0.0869408,0.0009381,0.1125384,0.000527,0.1348146,0
 .0745658,0.0394683,-0.0049542,0.1093198,0.23603,-0.0080075,-0.0054471,
 -0.0039857,-0.0053012,0.1024156,-0.0022507,-0.057899,-0.0026388,-0.086
 9143,0.0022056,-0.1086766,0.0027346,0.1548948,-0.0293718,0.0508981,0.0
 576791,0.0383941,-0.0242575,-0.0447147,0.0963625,-0.0897141,-0.0942454
 ,-0.0482746,0.0601252,-0.0640178,0.041835,-0.0223891,0.0390922,-0.1023
 516,0.0822169,-0.0768807,-0.0502059,-0.0606305,-0.0638171,-0.0429911,-
 0.0223824,-0.0387492,-0.1033401,-0.0812038,-0.075283,-0.0309854,-0.049
 8425,0.0592824,-0.036682,-0.020557,0.0424874,0.0984765,0.086721,-0.096
 0024,-0.0129353,0.0527712,0.0021082,0.0503733,-0.2090366,-0.001354,0.0
 02127,-0.0014453,0.0285833,-0.0121957,-0.0004237,-0.112837,0.0000646,0
 .0322653,-0.0004574,-0.0447081,-0.0011038,-0.1769027,-0.1701544,0.0025
 885,0.0740077,0.0021819,0.0495203,-0.0009174,0.026863,-0.0005184,0.010
 6878,-0.0149201,-0.0563338,0.0029383,-0.053942,-0.2069635,0.0047609,0.
 0029149,0.0049378,0.0284951,0.003869,0.0009457,0.091519,0.000459,0.032
 2406,-0.0024764,0.0234009,-0.0018553,-0.1929476,-0.1794491,0.0017451,-
 0.0516289,0.0021564,0.0495207,0.0003106,-0.0044853,-0.0001589,0.019933
 \Polar=61.7381306,-0.0369213,57.9140067,-0.1758434,0.0064305,58.759242
 4\Quadrupole=0.116555,-0.1976125,0.0810575,-0.0029976,-0.0020986,0.001
 1088\PG=C01 [X(C6H10)]\NImag=0\\0.47891922,-0.10234544,0.43508148,0.00
 844471,0.00720664,0.60779106,-0.06680462,-0.00104062,-0.00073010,0.482
 68195,-0.00036882,-0.14228879,0.00047827,0.10157221,0.43111779,-0.0007
 3443,0.00051931,-0.07927445,0.00661674,-0.00472815,0.60799469,-0.00776
 491,0.02165932,0.00017148,-0.15895682,0.01577631,0.00521626,0.42532456
 ,0.03218490,-0.02631828,-0.00172443,0.01214720,-0.07505417,-0.00065785
 ,-0.07345849,0.68343231,0.00009486,-0.00110992,-0.00227139,0.00523939,
 -0.00086881,-0.06888934,-0.00437003,0.00207142,0.34131949,-0.02228657,
 0.01464588,0.03446546,-0.02266685,-0.01369622,0.03479160,-0.07429862,-
 0.00954072,0.01204676,0.61678388,0.00882226,0.00035445,-0.00780592,-0.
 00827553,0.00090850,0.00704854,-0.01000666,-0.09580036,0.04916648,-0.0
 0273167,0.29777397,0.00719668,-0.00143278,-0.00654466,0.00732900,0.001
 18173,-0.00667093,0.01556385,0.04705061,-0.10021186,0.03097666,0.00191
 117,0.58700523,-0.15944434,-0.01412857,0.00543066,-0.00876924,-0.02197
 947,0.00053677,0.00768659,-0.00490763,-0.00002501,-0.07394565,0.009856
 09,0.01459553,0.42811642,-0.01049979,-0.07454355,0.00066897,-0.0325043
 6,-0.02526540,0.00207415,0.00289662,-0.10053250,0.00056091,0.00933857,
 -0.09764941,-0.04746130,0.07813259,0.68048732,0.00540491,0.00088509,-0
 .06890999,0.00061090,0.00144801,-0.00231972,-0.00008804,0.00101797,0.0
 0660549,0.01105003,-0.04950020,-0.09889920,-0.00573196,-0.00681851,0.3
 4147206,-0.02690013,0.01424561,-0.03225025,-0.02738365,-0.01421576,-0.
 03217447,-0.07786068,-0.01522922,-0.01451125,0.00966922,0.00000106,0.0
 0902642,-0.07727159,0.01460819,-0.01377446,0.60916540,0.00958036,0.000
 46306,0.00665582,-0.00914726,0.00080899,-0.00610224,-0.01598638,-0.097
 16408,-0.04773680,-0.00020624,0.00312388,-0.00074591,0.01531509,-0.096
 28659,0.04793837,-0.00313486,0.29780029,-0.00491451,-0.00033503,-0.002
 00362,-0.00478266,0.00037868,-0.00191336,-0.01801815,-0.04570509,-0.09
 547554,-0.02060270,-0.00047008,-0.08852698,-0.01733221,0.04596089,-0.0
 9676161,-0.03352852,0.00256509,0.59461685,-0.08509594,0.03964849,0.081
 26579,0.00063317,-0.00208459,-0.00386283,-0.00040509,-0.00051241,0.000
 26294,-0.00733392,-0.00149262,-0.00011851,-0.01146619,0.01445705,0.026
 29435,0.00215232,-0.00107195,0.00193698,0.09315054,0.03957504,-0.08453
 492,-0.08407131,0.01081363,-0.01135446,-0.02455014,-0.00080351,-0.0037
 4509,-0.00060324,-0.00211148,-0.00009580,0.00037552,-0.00221037,0.0033
 0533,0.00787655,0.00073218,0.00034857,-0.00086851,-0.04350071,0.092627
 44,0.08312240,-0.08533034,-0.23255317,-0.00200010,0.00259160,0.0015603
 2,-0.00016201,0.00112164,0.00003126,0.00054494,0.00106030,0.00061450,0
 .00010624,-0.00033351,-0.00144415,-0.00037305,0.00000551,0.00120135,-0
 .09207400,0.09108966,0.24886048,-0.10650649,0.04807653,-0.09703210,0.0
 0132051,-0.00230677,0.00390457,-0.00040983,-0.00064087,-0.00020176,0.0
 0195908,-0.00109165,-0.00201334,-0.01436000,0.01402695,-0.02493132,-0.
 00726160,-0.00159977,0.00107130,0.00662801,-0.00491212,0.01010823,0.11
 692005,0.04782616,-0.08227789,0.07698589,0.01365226,-0.01103133,0.0232
 7021,-0.00072172,-0.00375078,0.00074599,0.00083432,0.00035979,0.000788
 18,-0.00310802,0.00318592,-0.00761181,-0.00214236,-0.00011364,-0.00011
 559,-0.00624785,0.00473170,-0.00979319,-0.05240977,0.09018090,-0.09887
 398,0.07821987,-0.21349077,0.00184088,-0.00216198,0.00056804,0.0002259
 1,-0.00100127,0.00004064,0.00026973,0.00013389,0.00138344,0.00147800,-
 0.00139515,0.00162557,0.00041995,-0.00086855,0.00056742,-0.01337523,0.
 01008469,-0.02161322,0.10858218,-0.08339196,0.22754646,0.00110563,0.00
 213663,0.00343970,-0.10815846,-0.04903850,-0.09763206,-0.01460773,-0.0
 1407809,-0.02459837,0.00196200,0.00103145,-0.00204098,-0.00038566,0.00
 057511,-0.00022477,-0.00719981,0.00174526,0.00104832,0.00006433,0.0010
 5479,0.00014795,0.00097122,-0.00043552,0.00013203,0.11879924,-0.013854
 66,-0.01115405,-0.02317109,-0.04882024,-0.08282289,-0.07713923,0.00346
 577,0.00352783,0.00803970,-0.00085930,0.00034358,-0.00073595,0.0006624
 8,-0.00376986,-0.00068470,0.00227927,-0.00016967,0.00010639,-0.0011413
 3,-0.00375777,-0.00004240,0.00045724,0.00202976,0.00008277,0.05350323,
 0.09074806,0.00208877,0.00230388,0.00089025,-0.09951112,-0.07834338,-0
 .21122690,0.00144490,0.00133301,0.00147984,0.00028129,-0.00012481,0.00
 139706,0.00023367,0.00105405,0.00003645,0.00039919,0.00087095,0.000553
 83,-0.00007905,-0.00016919,0.00066595,0.00012407,-0.00009302,0.0015267
 4,0.10924875,0.08343227,0.22510782,0.00046712,0.00181081,-0.00343593,-
 0.08666178,-0.03839047,0.08349877,-0.01164117,-0.01377621,0.02632775,-
 0.00725483,0.00162519,-0.00014993,-0.00038203,0.00045406,0.00026673,0.
 00215966,0.00106731,0.00193902,0.00094918,-0.00042346,-0.00005832,0.00
 006432,0.00106909,-0.00009285,0.00683492,0.00600325,-0.01364662,0.0948
 0155,-0.01105651,-0.01083300,0.02479470,-0.03828445,-0.08059187,0.0802
 6646,0.00248295,0.00340146,-0.00843960,0.00225265,-0.00018794,-0.00036
 168,0.00073868,-0.00377564,0.00065557,-0.00077200,0.00035445,0.0008443
 6,0.00044242,0.00202943,-0.00014241,-0.00112295,-0.00375161,0.00023925
 ,0.00502860,0.00451598,-0.01022655,0.04207061,0.08833867,-0.00188277,-
 0.00236686,0.00122018,0.08536616,0.08148677,-0.23499824,0.00006326,0.0
 0025181,-0.00131411,0.00048752,-0.00105917,0.00063545,-0.00019479,-0.0
 0106136,0.00003789,-0.00036066,0.00001258,0.00118782,-0.00006187,0.000
 13601,0.00154923,0.00016659,0.00010796,0.00066061,0.01021890,0.0092124
 5,-0.02160417,-0.09446914,-0.08694441,0.25149143,-0.00530831,0.0013700
 4,0.00037923,-0.00314381,0.02761708,-0.00006127,-0.07383687,0.07928975
 ,0.00068568,0.00192833,-0.00912307,-0.00205967,-0.00232864,-0.00402755
 ,0.00001895,0.00335983,-0.01083897,0.00238215,-0.00002250,0.00121980,-
 0.00017733,0.00000549,0.00121133,0.00016775,0.00067552,-0.00063103,-0.
 00062695,0.00071829,-0.00063220,0.00055994,0.07548775,-0.00128059,0.00
 034453,0.00008110,-0.00195737,0.00069030,0.00010240,0.07998982,-0.2905
 4800,-0.00309468,0.00421906,-0.00774885,-0.00419802,-0.00200366,-0.006
 75465,0.00014419,0.00482707,-0.00790450,0.00382957,0.00012218,0.000024
 82,0.00006722,0.00011435,0.00002290,-0.00008073,0.00059663,0.00005614,
 0.00016185,0.00057062,0.00005145,-0.00022946,-0.08563822,0.31253809,0.
 00039602,-0.00007442,0.00125863,0.00014062,-0.00163695,-0.00095776,0.0
 0067839,-0.00304662,-0.05310248,-0.00983393,0.01545340,0.00486452,0.00
 000549,0.00026520,-0.00246693,0.00996138,-0.01412501,0.00358234,-0.000
 05759,0.00001685,0.00006462,0.00006290,-0.00015923,0.00003917,0.000158
 90,0.00012725,0.00007332,-0.00024228,-0.00005252,0.00003080,-0.0013058
 3,0.00321536,0.04350823,0.00147499,0.00019442,0.00072773,0.00150866,-0
 .00019306,0.00071195,0.00232405,0.00066840,0.00744458,-0.11856103,-0.0
 0020725,-0.11356909,0.00206816,-0.00054260,0.00719057,-0.00014469,0.00
 000075,0.00209278,0.00010497,-0.00005326,-0.00016252,0.00024749,0.0001
 6488,-0.00019765,0.00023473,-0.00017165,-0.00020372,0.00010776,0.00004
 426,-0.00016724,0.00000532,0.00000313,-0.00019513,0.12260977,-0.001980
 66,0.00090958,0.00078169,0.00194836,0.00086456,-0.00079993,0.01322294,
 0.00317731,0.01422138,-0.00019362,-0.05080177,-0.00031679,-0.01330817,
 0.00328863,-0.01456642,0.00001247,-0.00163258,-0.00006328,-0.00013708,
 -0.00021901,0.00020637,0.00049408,0.00000995,0.00042681,-0.00048343,0.
 00002002,-0.00042097,0.00013064,-0.00022356,-0.00019451,0.00007368,-0.
 00031507,0.00077406,0.00015754,0.04318051,-0.00144732,0.00004276,0.000
 64511,-0.00147624,-0.00001990,0.00065825,-0.00723146,-0.00424882,-0.01
 114198,-0.11215885,-0.00033418,-0.23743676,-0.00696089,0.00417443,-0.0
 1099737,0.00356462,-0.00008005,-0.00775206,0.00005384,-0.00009496,0.00
 036172,0.00099636,-0.00033211,0.00020237,0.00100962,0.00031710,0.00020
 332,0.00005427,0.00010244,0.00036201,0.00011979,0.00032574,-0.00036892
 ,0.12174350,0.00047901,0.26194819,0.00026142,0.00053445,0.00151384,0.0
 0022666,-0.00057785,0.00160707,-0.00686248,0.00123976,0.00008002,-0.30
 747831,0.00270872,0.03826840,-0.00642587,-0.00108746,0.00002243,0.0005
 0633,-0.00003456,-0.00198043,-0.00044114,-0.00017482,0.00016838,0.0002
 1640,-0.00007111,-0.00005313,0.00022339,0.00006508,-0.00005438,-0.0004
 7167,0.00019748,0.00016967,0.00046115,-0.00035985,0.00009772,-0.013758
 07,0.00014835,0.00311783,0.33162579,0.00141731,-0.00368109,-0.00503418
 ,-0.00147428,-0.00356381,0.00500828,-0.02571434,0.00160348,0.00439474,
 0.00267582,-0.03920431,-0.00046517,0.02609180,0.00112674,-0.00446385,-
 0.00000177,-0.00173957,0.00003432,0.00202297,0.00063882,-0.00028102,-0
 .00034508,-0.00006578,0.00000567,0.00034158,-0.00006957,-0.00000035,-0
 .00198322,0.00067432,0.00026934,0.00060904,0.00052689,-0.00128393,-0.0
 0006689,-0.00013846,0.00000844,-0.00294362,0.04298646,0.00073491,-0.00
 042531,-0.00329952,0.00076048,0.00041238,-0.00337746,0.01509960,-0.003
 44087,-0.00275466,0.03488373,-0.00043286,-0.05636883,0.01479781,0.0030
 9746,-0.00274509,0.00280130,-0.00000910,0.00063180,0.00117836,0.000143
 95,0.00016554,0.00013707,-0.00025169,0.00020522,0.00013657,0.00025349,
 0.00020106,0.00120324,-0.00017387,0.00016392,-0.00037252,0.00004127,0.
 00087525,-0.02653363,0.00028192,0.00511625,-0.04355008,0.00053005,0.06
 079741,-0.00361865,-0.02753507,0.00034415,-0.00530799,-0.00125942,0.00
 039511,-0.00221809,0.00394302,-0.00004074,0.00201726,0.00891727,-0.002
 11219,-0.07686851,-0.08323705,0.00195752,0.00346609,0.01065374,0.00215
 478,0.00072286,0.00062931,0.00055411,0.00067212,0.00060896,-0.00063926
 ,-0.00001953,-0.00120840,0.00018725,-0.00004694,-0.00122042,-0.0001604
 2,0.00148938,0.00119222,0.00002976,0.00000370,-0.00007819,0.00011478,0
 .00045787,-0.00061323,-0.00036474,0.07874937,0.00203945,0.00118730,-0.
 00013600,0.00139121,0.00034413,-0.00007580,0.00191890,-0.00687025,-0.0
 0008541,-0.00454920,-0.00800493,0.00442390,-0.08393788,-0.28737599,0.0
 0651262,-0.00488703,-0.00785285,-0.00370591,-0.00058677,0.00005539,0.0
 0021996,-0.00060536,0.00005083,-0.00014861,-0.00011253,0.00005077,0.00
 007744,-0.00012173,0.00004875,-0.00006366,-0.00124157,-0.00119964,0.00
 009604,-0.00001199,-0.00032915,-0.00032810,0.00036248,0.00055125,-0.00
 002969,0.08995033,0.30912583,0.00014346,0.00160165,-0.00098007,0.00037
 827,0.00008016,0.00125872,-0.00002726,-0.00020229,-0.00246187,-0.01005
 551,-0.01508923,0.00502493,0.00196420,0.00647626,-0.05324233,0.0102928
 4,0.01409619,0.00343138,-0.00023362,0.00005705,0.00002692,0.00016490,-
 0.00012932,0.00007740,0.00006767,0.00015821,0.00003579,-0.00005601,-0.
 00001524,0.00006565,0.00004670,-0.00004698,0.00213445,-0.00020910,-0.0
 0077092,-0.00035217,0.00011468,0.00128744,0.00085760,-0.00267973,-0.00
 707486,0.04365830,0.00154959,0.00017543,-0.00083318,0.00158288,-0.0002
 0231,-0.00082398,0.00210515,0.00103968,-0.00901434,-0.00090667,-0.0000
 2744,-0.00289933,0.00186996,-0.00114518,-0.00869881,-0.09393288,0.0011
 1227,0.09663621,0.00015301,0.00020530,0.00020143,0.00012073,-0.0000384
 8,0.00019173,0.00012497,0.00003539,0.00019438,0.00014159,-0.00020499,0
 .00021267,0.00000892,-0.00003283,0.00015145,0.00122841,0.00000208,-0.0
 0124772,0.00052164,-0.00000973,-0.00045611,0.00000986,0.00002887,0.000
 16560,0.09620079,-0.00204059,0.00089966,-0.00054991,0.00204733,0.00087
 420,0.00055940,0.01154148,0.00303187,-0.01586645,-0.00003880,-0.001631
 47,-0.00001130,-0.01143633,0.00343476,0.01582496,0.00109921,-0.0508314
 8,-0.00245000,0.00042704,0.00000749,-0.00047846,-0.00015920,-0.0002199
 6,-0.00018110,0.00015360,-0.00022271,0.00018595,-0.00044433,0.00002264
 ,0.00047812,-0.00001926,-0.00032946,-0.00077789,0.00001737,0.00241217,
 -0.00001868,-0.00000483,-0.00020307,0.00000858,0.00001089,-0.00031464,
 0.00077422,-0.00124390,0.04321117,0.00136877,-0.00006929,0.00058142,0.
 00134026,0.00003898,0.00057182,0.00551121,0.00396114,-0.01077745,-0.00
 437193,-0.00000080,-0.00699105,0.00560188,-0.00426764,-0.01094538,0.09
 522446,-0.00244142,-0.26203043,-0.00099695,0.00031472,0.00029788,-0.00
 002407,0.00010808,0.00034575,-0.00002767,-0.00009941,0.00034572,-0.000
 99611,-0.00029117,0.00029587,-0.00016374,-0.00032418,-0.00035694,0.000
 88483,-0.00003851,-0.00185036,0.00023812,0.00000246,0.00042639,-0.0001
 5804,0.00032694,-0.00037373,-0.10218666,0.00275285,0.28832332,-0.00004
 803,0.00055209,-0.00190119,-0.00010062,-0.00065237,-0.00198979,-0.0085
 7806,0.00163092,0.00057949,0.00041268,-0.00000615,0.00200650,-0.008093
 41,-0.00144514,0.00063298,-0.31252384,0.00254520,-0.00810237,0.0002063
 6,-0.00004031,0.00005364,-0.00058751,-0.00019217,-0.00007605,-0.000624
 77,0.00021491,-0.00008044,0.00021402,0.00003587,0.00005217,0.00050014,
 -0.00036256,-0.00004785,0.00054576,-0.00000899,-0.00025212,0.00093689,
 -0.00000636,-0.00045600,0.00049119,0.00036284,-0.00007709,-0.01077795,
 0.00009033,-0.00124437,0.33802714,0.00198158,-0.00360848,0.00483974,-0
 .00206809,-0.00363575,-0.00479541,-0.02626299,0.00160923,-0.00139571,-
 0.00003907,-0.00173932,-0.00000221,0.02622337,0.00112487,0.00134217,0.
 00257793,-0.03920430,-0.00000580,-0.00034483,-0.00006195,0.00003907,0.
 00202438,0.00063925,0.00003642,-0.00201882,0.00067438,-0.00004112,0.00
 033785,-0.00007353,-0.00003561,0.00076115,0.00054504,0.00120843,-0.000
 00405,-0.00020315,0.00000688,-0.00000220,0.00055771,-0.00000572,-0.000
 75395,0.00053321,-0.00120234,0.00030585,-0.00014118,0.00002726,-0.0027
 1810,0.04298398,-0.00114247,0.00036474,-0.00305902,-0.00112248,-0.0003
 3740,-0.00298369,-0.01407792,0.00321963,-0.00107603,-0.00277481,0.0000
 4347,0.00072514,-0.01450539,-0.00299483,-0.00104571,-0.00471748,-0.000
 03542,-0.05130919,-0.00013262,0.00026237,0.00021078,-0.00111559,-0.000
 12839,0.00031516,-0.00108455,0.00014316,0.00031391,-0.00014260,-0.0002
 5532,0.00021566,0.00040710,0.00000535,0.00082171,0.00044213,0.00000009
 ,0.00040238,0.00023987,-0.00001224,-0.00089490,0.00041766,-0.00000885,
 0.00083903,0.02840666,-0.00025031,0.00213716,0.01090248,-0.00001604,0.
 05438760\\0.00006796,0.00024588,-0.00018970,0.00008429,-0.00024803,0.0
 0017358,-0.00001706,0.00007410,-0.00004530,-0.00001619,0.00003972,-0.0
 0000582,-0.00001194,-0.00007441,0.00004085,-0.00004949,-0.00003877,0.0
 0000082,0.00002008,-0.00001916,0.00001286,-0.00005145,-0.00001271,0.00
 001963,0.00002067,0.00002017,-0.00000690,-0.00005316,0.00001292,-0.000
 00460,-0.00003432,-0.00000736,0.00000305,0.00000827,-0.00000674,0.0000
 8306,0.00003491,0.00003426,0.00006006,-0.00003460,0.00000834,0.0000008
 7,0.00000294,0.00000683,-0.00008005,0.00002909,-0.00003503,-0.00006243
 \\\@


 DON'T WORRY CHARLIE BROWN...WE LEARN MORE FROM LOSING 
 THAN WE DO FROM WINNING.
 THEN THAT MAKES ME THE SMARTEST PERSON IN THE WORLD...
 CHARLES SCHULZ 'PEANUTS'
 Job cpu time:       0 days  0 hours 54 minutes 17.0 seconds.
 Elapsed time:       0 days  0 hours 13 minutes 34.7 seconds.
 File lengths (MBytes):  RWF=     62 Int=      0 D2E=      0 Chk=      5 Scr=      1
 Normal termination of Gaussian 16 at Sun May 28 00:36:52 2023.
### All Done ###
