### Starting Gaussian ###
 Entering Gaussian System, Link 0=g16
 Initial command:
 /cluster/software/gaussian/gaussian-16-A.03/avx2/g16/l1.exe "/local/scratch/linjian/Gau-22588.inp" -scrdir="/local/scratch/linjian/"
 Entering Link 1 = /cluster/software/gaussian/gaussian-16-A.03/avx2/g16/l1.exe PID=     22589.
  
 Copyright (c) 1988,1990,1992,1993,1995,1998,2003,2009,2016,
            Gaussian, Inc.  All Rights Reserved.
  
 This is part of the Gaussian(R) 16 program.  It is based on
 the Gaussian(R) 09 system (copyright 2009, Gaussian, Inc.),
 the Gaussian(R) 03 system (copyright 2003, Gaussian, Inc.),
 the Gaussian(R) 98 system (copyright 1998, Gaussian, Inc.),
 the Gaussian(R) 94 system (copyright 1995, Gaussian, Inc.),
 the Gaussian 92(TM) system (copyright 1992, Gaussian, Inc.),
 the Gaussian 90(TM) system (copyright 1990, Gaussian, Inc.),
 the Gaussian 88(TM) system (copyright 1988, Gaussian, Inc.),
 the Gaussian 86(TM) system (copyright 1986, Carnegie Mellon
 University), and the Gaussian 82(TM) system (copyright 1983,
 Carnegie Mellon University). Gaussian is a federally registered
 trademark of Gaussian, Inc.
  
 This software contains proprietary and confidential information,
 including trade secrets, belonging to Gaussian, Inc.
  
 This software is provided under written license and may be
 used, copied, transmitted, or stored only in accord with that
 written license.
  
 The following legend is applicable only to US Government
 contracts under FAR:
  
                    RESTRICTED RIGHTS LEGEND
  
 Use, reproduction and disclosure by the US Government is
 subject to restrictions as set forth in subparagraphs (a)
 and (c) of the Commercial Computer Software - Restricted
 Rights clause in FAR 52.227-19.
  
 Gaussian, Inc.
 340 Quinnipiac St., Bldg. 40, Wallingford CT 06492
  
  
 ---------------------------------------------------------------
 Warning -- This program may not be used in any manner that
 competes with the business of Gaussian, Inc. or will provide
 assistance to any competitor of Gaussian, Inc.  The licensee
 of this program is prohibited from giving any competitor of
 Gaussian, Inc. access to this program.  By using this program,
 the user acknowledges that Gaussian, Inc. is engaged in the
 business of creating and licensing software in the field of
 computational chemistry and represents and warrants to the
 licensee that it is not a competitor of Gaussian, Inc. and that
 it will not use this program in any manner prohibited above.
 ---------------------------------------------------------------
  

 Cite this work as:
 Gaussian 16, Revision A.03,
 M. J. Frisch, G. W. Trucks, H. B. Schlegel, G. E. Scuseria, 
 M. A. Robb, J. R. Cheeseman, G. Scalmani, V. Barone, 
 G. A. Petersson, H. Nakatsuji, X. Li, M. Caricato, A. V. Marenich, 
 J. Bloino, B. G. Janesko, R. Gomperts, B. Mennucci, H. P. Hratchian, 
 J. V. Ortiz, A. F. Izmaylov, J. L. Sonnenberg, D. Williams-Young, 
 F. Ding, F. Lipparini, F. Egidi, J. Goings, B. Peng, A. Petrone, 
 T. Henderson, D. Ranasinghe, V. G. Zakrzewski, J. Gao, N. Rega, 
 G. Zheng, W. Liang, M. Hada, M. Ehara, K. Toyota, R. Fukuda, 
 J. Hasegawa, M. Ishida, T. Nakajima, Y. Honda, O. Kitao, H. Nakai, 
 T. Vreven, K. Throssell, J. A. Montgomery, Jr., J. E. Peralta, 
 F. Ogliaro, M. J. Bearpark, J. J. Heyd, E. N. Brothers, K. N. Kudin, 
 V. N. Staroverov, T. A. Keith, R. Kobayashi, J. Normand, 
 K. Raghavachari, A. P. Rendell, J. C. Burant, S. S. Iyengar, 
 J. Tomasi, M. Cossi, J. M. Millam, M. Klene, C. Adamo, R. Cammi, 
 J. W. Ochterski, R. L. Martin, K. Morokuma, O. Farkas, 
 J. B. Foresman, and D. J. Fox, Gaussian, Inc., Wallingford CT, 2016.
 
 ******************************************
 Gaussian 16:  ES64L-G16RevA.03 25-Dec-2016
                28-May-2023 
 ******************************************
 %chk=C1CC2CCCC2C1.chk
 %NProcShared=20
 Will use up to   20 processors via shared memory.
 -----------------------------
 # opt freq b3lyp/6-31g(2df,p)
 -----------------------------
 1/18=20,19=15,26=3,38=1/1,3;
 2/9=110,12=2,17=6,18=5,40=1/2;
 3/5=1,6=6,7=104,11=2,25=1,30=1,71=1,74=-5/1,2,3;
 4//1;
 5/5=2,38=5/2;
 6/7=2,8=2,9=2,10=2,28=1/1;
 7//1,2,3,16;
 1/18=20,19=15,26=3/3(2);
 2/9=110/2;
 99//99;
 2/9=110/2;
 3/5=1,6=6,7=104,11=2,25=1,30=1,71=1,74=-5/1,2,3;
 4/5=5,16=3,69=1/1;
 5/5=2,38=5/2;
 7//1,2,3,16;
 1/18=20,19=15,26=3/3(-5);
 2/9=110/2;
 6/7=2,8=2,9=2,10=2,19=2,28=1/1;
 99/9=1/99;
 -------------------
 Title Card Required
 -------------------
 Symbolic Z-matrix:
 Charge =  0 Multiplicity = 1
 C                    -1.72462   0.12158   0.80911 
 C                    -1.0392    1.32305   0.17394 
 C                     0.0846    0.76722  -0.71234 
 C                     1.48096   1.02268  -0.15383 
 C                     1.72451  -0.12493   0.80954 
 C                     1.0382   -1.32276   0.16841 
 C                    -0.08417  -0.76213  -0.71661 
 C                    -1.48179  -1.01968  -0.16194 
 H                    -2.79068   0.29997   0.97441 
 H                    -1.26771  -0.1028    1.78022 
 H                    -0.68151   2.02375   0.93425 
 H                    -1.75677   1.86773  -0.45259 
 H                    -0.00324   1.1902   -1.71937 
 H                     1.57233   1.9954    0.33822 
 H                     2.21873   0.99025  -0.96544 
 H                     1.26908   0.09354   1.78265 
 H                     2.79083  -0.30435   0.97233 
 H                     0.67894  -2.02626   0.92542 
 H                     1.75579  -1.86576  -0.45957 
 H                     0.00517  -1.17998  -1.72562 
 H                    -1.57577  -1.99584   0.32261 
 H                    -2.21824  -0.97948  -0.9745 
 

 GradGradGradGradGradGradGradGradGradGradGradGradGradGradGradGradGradGrad
 Berny optimization.
 Initialization pass.
                           ----------------------------
                           !    Initial Parameters    !
                           ! (Angstroms and Degrees)  !
 --------------------------                            --------------------------
 ! Name  Definition              Value          Derivative Info.                !
 --------------------------------------------------------------------------------
 ! R1    R(1,2)                  1.5221         estimate D2E/DX2                !
 ! R2    R(1,8)                  1.518          estimate D2E/DX2                !
 ! R3    R(1,9)                  1.0934         estimate D2E/DX2                !
 ! R4    R(1,10)                 1.0964         estimate D2E/DX2                !
 ! R5    R(2,3)                  1.5354         estimate D2E/DX2                !
 ! R6    R(2,11)                 1.0941         estimate D2E/DX2                !
 ! R7    R(2,12)                 1.0973         estimate D2E/DX2                !
 ! R8    R(3,4)                  1.5255         estimate D2E/DX2                !
 ! R9    R(3,7)                  1.5386         estimate D2E/DX2                !
 ! R10   R(3,13)                 1.0958         estimate D2E/DX2                !
 ! R11   R(4,5)                  1.518          estimate D2E/DX2                !
 ! R12   R(4,14)                 1.0939         estimate D2E/DX2                !
 ! R13   R(4,15)                 1.0973         estimate D2E/DX2                !
 ! R14   R(5,6)                  1.5221         estimate D2E/DX2                !
 ! R15   R(5,16)                 1.0964         estimate D2E/DX2                !
 ! R16   R(5,17)                 1.0935         estimate D2E/DX2                !
 ! R17   R(6,7)                  1.5353         estimate D2E/DX2                !
 ! R18   R(6,18)                 1.0941         estimate D2E/DX2                !
 ! R19   R(6,19)                 1.0973         estimate D2E/DX2                !
 ! R20   R(7,8)                  1.5256         estimate D2E/DX2                !
 ! R21   R(7,20)                 1.0958         estimate D2E/DX2                !
 ! R22   R(8,21)                 1.0939         estimate D2E/DX2                !
 ! R23   R(8,22)                 1.0974         estimate D2E/DX2                !
 ! A1    A(2,1,8)              104.7421         estimate D2E/DX2                !
 ! A2    A(2,1,9)              111.9218         estimate D2E/DX2                !
 ! A3    A(2,1,10)             110.0892         estimate D2E/DX2                !
 ! A4    A(8,1,9)              112.0437         estimate D2E/DX2                !
 ! A5    A(8,1,10)             110.2459         estimate D2E/DX2                !
 ! A6    A(9,1,10)             107.805          estimate D2E/DX2                !
 ! A7    A(1,2,3)              106.5425         estimate D2E/DX2                !
 ! A8    A(1,2,11)             111.2703         estimate D2E/DX2                !
 ! A9    A(1,2,12)             109.6091         estimate D2E/DX2                !
 ! A10   A(3,2,11)             113.1851         estimate D2E/DX2                !
 ! A11   A(3,2,12)             109.1927         estimate D2E/DX2                !
 ! A12   A(11,2,12)            107.0179         estimate D2E/DX2                !
 ! A13   A(2,3,4)              113.455          estimate D2E/DX2                !
 ! A14   A(2,3,7)              106.3287         estimate D2E/DX2                !
 ! A15   A(2,3,13)             109.3947         estimate D2E/DX2                !
 ! A16   A(4,3,7)              105.5378         estimate D2E/DX2                !
 ! A17   A(4,3,13)             110.1945         estimate D2E/DX2                !
 ! A18   A(7,3,13)             111.8596         estimate D2E/DX2                !
 ! A19   A(3,4,5)              104.6321         estimate D2E/DX2                !
 ! A20   A(3,4,14)             112.9579         estimate D2E/DX2                !
 ! A21   A(3,4,15)             109.8585         estimate D2E/DX2                !
 ! A22   A(5,4,14)             111.924          estimate D2E/DX2                !
 ! A23   A(5,4,15)             109.8268         estimate D2E/DX2                !
 ! A24   A(14,4,15)            107.6269         estimate D2E/DX2                !
 ! A25   A(4,5,6)              104.7899         estimate D2E/DX2                !
 ! A26   A(4,5,16)             110.2413         estimate D2E/DX2                !
 ! A27   A(4,5,17)             112.0225         estimate D2E/DX2                !
 ! A28   A(6,5,16)             110.0816         estimate D2E/DX2                !
 ! A29   A(6,5,17)             111.9173         estimate D2E/DX2                !
 ! A30   A(16,5,17)            107.796          estimate D2E/DX2                !
 ! A31   A(5,6,7)              106.5621         estimate D2E/DX2                !
 ! A32   A(5,6,18)             111.2614         estimate D2E/DX2                !
 ! A33   A(5,6,19)             109.6091         estimate D2E/DX2                !
 ! A34   A(7,6,18)             113.1778         estimate D2E/DX2                !
 ! A35   A(7,6,19)             109.1992         estimate D2E/DX2                !
 ! A36   A(18,6,19)            107.0085         estimate D2E/DX2                !
 ! A37   A(3,7,6)              106.3295         estimate D2E/DX2                !
 ! A38   A(3,7,8)              105.5027         estimate D2E/DX2                !
 ! A39   A(3,7,20)             111.8788         estimate D2E/DX2                !
 ! A40   A(6,7,8)              113.4837         estimate D2E/DX2                !
 ! A41   A(6,7,20)             109.3872         estimate D2E/DX2                !
 ! A42   A(8,7,20)             110.189          estimate D2E/DX2                !
 ! A43   A(1,8,7)              104.6081         estimate D2E/DX2                !
 ! A44   A(1,8,21)             111.9509         estimate D2E/DX2                !
 ! A45   A(1,8,22)             109.8016         estimate D2E/DX2                !
 ! A46   A(7,8,21)             112.9812         estimate D2E/DX2                !
 ! A47   A(7,8,22)             109.8414         estimate D2E/DX2                !
 ! A48   A(21,8,22)            107.6402         estimate D2E/DX2                !
 ! D1    D(8,1,2,3)            -26.3184         estimate D2E/DX2                !
 ! D2    D(8,1,2,11)          -150.1223         estimate D2E/DX2                !
 ! D3    D(8,1,2,12)            91.7076         estimate D2E/DX2                !
 ! D4    D(9,1,2,3)           -147.935          estimate D2E/DX2                !
 ! D5    D(9,1,2,11)            88.2612         estimate D2E/DX2                !
 ! D6    D(9,1,2,12)           -29.9089         estimate D2E/DX2                !
 ! D7    D(10,1,2,3)            92.1874         estimate D2E/DX2                !
 ! D8    D(10,1,2,11)          -31.6165         estimate D2E/DX2                !
 ! D9    D(10,1,2,12)         -149.7866         estimate D2E/DX2                !
 ! D10   D(2,1,8,7)             35.5161         estimate D2E/DX2                !
 ! D11   D(2,1,8,21)           158.2032         estimate D2E/DX2                !
 ! D12   D(2,1,8,22)           -82.3004         estimate D2E/DX2                !
 ! D13   D(9,1,8,7)            157.0525         estimate D2E/DX2                !
 ! D14   D(9,1,8,21)           -80.2604         estimate D2E/DX2                !
 ! D15   D(9,1,8,22)            39.2361         estimate D2E/DX2                !
 ! D16   D(10,1,8,7)           -82.8835         estimate D2E/DX2                !
 ! D17   D(10,1,8,21)           39.8036         estimate D2E/DX2                !
 ! D18   D(10,1,8,22)          159.3001         estimate D2E/DX2                !
 ! D19   D(1,2,3,4)           -108.4479         estimate D2E/DX2                !
 ! D20   D(1,2,3,7)              7.1077         estimate D2E/DX2                !
 ! D21   D(1,2,3,13)           128.0693         estimate D2E/DX2                !
 ! D22   D(11,2,3,4)            14.1604         estimate D2E/DX2                !
 ! D23   D(11,2,3,7)           129.716          estimate D2E/DX2                !
 ! D24   D(11,2,3,13)         -109.3224         estimate D2E/DX2                !
 ! D25   D(12,2,3,4)           133.2522         estimate D2E/DX2                !
 ! D26   D(12,2,3,7)          -111.1922         estimate D2E/DX2                !
 ! D27   D(12,2,3,13)            9.7693         estimate D2E/DX2                !
 ! D28   D(2,3,4,5)             85.1035         estimate D2E/DX2                !
 ! D29   D(2,3,4,14)           -36.8804         estimate D2E/DX2                !
 ! D30   D(2,3,4,15)          -157.0564         estimate D2E/DX2                !
 ! D31   D(7,3,4,5)            -30.9194         estimate D2E/DX2                !
 ! D32   D(7,3,4,14)          -152.9033         estimate D2E/DX2                !
 ! D33   D(7,3,4,15)            86.9207         estimate D2E/DX2                !
 ! D34   D(13,3,4,5)          -151.8525         estimate D2E/DX2                !
 ! D35   D(13,3,4,14)           86.1636         estimate D2E/DX2                !
 ! D36   D(13,3,4,15)          -34.0124         estimate D2E/DX2                !
 ! D37   D(2,3,7,6)           -106.1047         estimate D2E/DX2                !
 ! D38   D(2,3,7,8)             14.7045         estimate D2E/DX2                !
 ! D39   D(2,3,7,20)           134.5281         estimate D2E/DX2                !
 ! D40   D(4,3,7,6)             14.6888         estimate D2E/DX2                !
 ! D41   D(4,3,7,8)            135.4981         estimate D2E/DX2                !
 ! D42   D(4,3,7,20)          -104.6783         estimate D2E/DX2                !
 ! D43   D(13,3,7,6)           134.5304         estimate D2E/DX2                !
 ! D44   D(13,3,7,8)          -104.6604         estimate D2E/DX2                !
 ! D45   D(13,3,7,20)           15.1633         estimate D2E/DX2                !
 ! D46   D(3,4,5,6)             35.3305         estimate D2E/DX2                !
 ! D47   D(3,4,5,16)           -83.0845         estimate D2E/DX2                !
 ! D48   D(3,4,5,17)           156.8801         estimate D2E/DX2                !
 ! D49   D(14,4,5,6)           157.9894         estimate D2E/DX2                !
 ! D50   D(14,4,5,16)           39.5744         estimate D2E/DX2                !
 ! D51   D(14,4,5,17)          -80.461          estimate D2E/DX2                !
 ! D52   D(15,4,5,6)           -82.5313         estimate D2E/DX2                !
 ! D53   D(15,4,5,16)          159.0537         estimate D2E/DX2                !
 ! D54   D(15,4,5,17)           39.0183         estimate D2E/DX2                !
 ! D55   D(4,5,6,7)            -26.1473         estimate D2E/DX2                !
 ! D56   D(4,5,6,18)          -149.9496         estimate D2E/DX2                !
 ! D57   D(4,5,6,19)            91.8975         estimate D2E/DX2                !
 ! D58   D(16,5,6,7)            92.3759         estimate D2E/DX2                !
 ! D59   D(16,5,6,18)          -31.4264         estimate D2E/DX2                !
 ! D60   D(16,5,6,19)         -149.5794         estimate D2E/DX2                !
 ! D61   D(17,5,6,7)          -147.7659         estimate D2E/DX2                !
 ! D62   D(17,5,6,18)           88.4318         estimate D2E/DX2                !
 ! D63   D(17,5,6,19)          -29.7211         estimate D2E/DX2                !
 ! D64   D(5,6,7,3)              7.0118         estimate D2E/DX2                !
 ! D65   D(5,6,7,8)           -108.5169         estimate D2E/DX2                !
 ! D66   D(5,6,7,20)           127.9927         estimate D2E/DX2                !
 ! D67   D(18,6,7,3)           129.6179         estimate D2E/DX2                !
 ! D68   D(18,6,7,8)            14.0892         estimate D2E/DX2                !
 ! D69   D(18,6,7,20)         -109.4012         estimate D2E/DX2                !
 ! D70   D(19,6,7,3)          -111.3025         estimate D2E/DX2                !
 ! D71   D(19,6,7,8)           133.1688         estimate D2E/DX2                !
 ! D72   D(19,6,7,20)            9.6784         estimate D2E/DX2                !
 ! D73   D(3,7,8,1)            -31.0443         estimate D2E/DX2                !
 ! D74   D(3,7,8,21)          -153.0587         estimate D2E/DX2                !
 ! D75   D(3,7,8,22)            86.745          estimate D2E/DX2                !
 ! D76   D(6,7,8,1)             84.9728         estimate D2E/DX2                !
 ! D77   D(6,7,8,21)           -37.0417         estimate D2E/DX2                !
 ! D78   D(6,7,8,22)          -157.238          estimate D2E/DX2                !
 ! D79   D(20,7,8,1)          -151.9765         estimate D2E/DX2                !
 ! D80   D(20,7,8,21)           86.0091         estimate D2E/DX2                !
 ! D81   D(20,7,8,22)          -34.1872         estimate D2E/DX2                !
 --------------------------------------------------------------------------------
 Trust Radius=3.00D-01 FncErr=1.00D-07 GrdErr=1.00D-06 EigMax=2.50D+02 EigMin=1.00D-04
 Number of steps in this run=    132 maximum allowed number of steps=    132.
 GradGradGradGradGradGradGradGradGradGradGradGradGradGradGradGradGradGrad

                          Input orientation:                          
 ---------------------------------------------------------------------
 Center     Atomic      Atomic             Coordinates (Angstroms)
 Number     Number       Type             X           Y           Z
 ---------------------------------------------------------------------
      1          6           0       -1.724620    0.121580    0.809110
      2          6           0       -1.039200    1.323050    0.173940
      3          6           0        0.084600    0.767220   -0.712340
      4          6           0        1.480960    1.022680   -0.153830
      5          6           0        1.724510   -0.124930    0.809540
      6          6           0        1.038200   -1.322760    0.168410
      7          6           0       -0.084170   -0.762130   -0.716610
      8          6           0       -1.481790   -1.019680   -0.161940
      9          1           0       -2.790680    0.299970    0.974410
     10          1           0       -1.267710   -0.102800    1.780220
     11          1           0       -0.681510    2.023750    0.934250
     12          1           0       -1.756770    1.867730   -0.452590
     13          1           0       -0.003240    1.190200   -1.719370
     14          1           0        1.572330    1.995400    0.338220
     15          1           0        2.218730    0.990250   -0.965440
     16          1           0        1.269080    0.093540    1.782650
     17          1           0        2.790830   -0.304350    0.972330
     18          1           0        0.678940   -2.026260    0.925420
     19          1           0        1.755790   -1.865760   -0.459570
     20          1           0        0.005170   -1.179980   -1.725620
     21          1           0       -1.575770   -1.995840    0.322610
     22          1           0       -2.218240   -0.979480   -0.974500
 ---------------------------------------------------------------------
                    Distance matrix (angstroms):
                    1          2          3          4          5
     1  C    0.000000
     2  C    1.522094   0.000000
     3  C    2.450498   1.535372   0.000000
     4  C    3.466263   2.559074   1.525455   0.000000
     5  C    3.457928   3.184137   2.408600   1.518027   0.000000
     6  C    3.182733   3.363916   2.460303   2.408519   1.522125
     7  C    2.408286   2.460312   1.538640   2.439652   2.450812
     8  C    1.518018   2.407714   2.439166   3.598498   3.467666
     9  H    1.093449   2.180625   3.366108   4.476845   4.538134
    10  H    1.096434   2.159954   2.966232   3.544353   3.145805
    11  H    2.173014   1.094072   2.208405   2.619606   3.228205
    12  H    2.154521   1.097325   2.160841   3.359503   4.205113
    13  H    3.240109   2.162287   1.095782   2.163753   3.333178
    14  H    3.821363   2.701690   2.196689   1.093913   2.177407
    15  H    4.410626   3.467427   2.160628   1.097300   2.153702
    16  H    3.148143   3.070472   2.842853   2.158275   1.096398
    17  H    4.538430   4.237333   3.363043   2.178303   1.093495
    18  H    3.225499   3.838568   3.292268   3.332274   2.172947
    19  H    4.203846   4.287402   3.128794   2.917549   2.154555
    20  H    3.333330   3.311223   2.196505   3.082238   3.239799
    21  H    2.177684   3.365270   3.385624   4.322274   3.824821
    22  H    2.153429   2.830317   2.902199   4.285583   4.411160
                    6          7          8          9         10
     6  C    0.000000
     7  C    1.535344   0.000000
     8  C    2.559558   1.525560   0.000000
     9  H    4.235943   3.363451   2.178523   0.000000
    10  H    3.066505   2.840712   2.158352   1.769461   0.000000
    11  H    3.839667   3.292914   3.332349   2.724267   2.362522
    12  H    4.286808   3.127852   2.915001   2.358637   3.017881
    13  H    3.311084   2.196285   3.081439   3.977283   3.939272
    14  H    3.365162   3.385355   4.320708   4.723884   3.814136
    15  H    2.833599   2.904497   4.287106   5.416059   4.570413
    16  H    2.159857   2.968124   3.547954   4.144577   2.544378
    17  H    2.180633   3.365666   4.478119   5.614130   4.143073
    18  H    1.094095   2.208308   2.619983   4.177560   2.867024
    19  H    1.097335   2.160908   3.359518   5.236132   4.155266
    20  H    2.162149   1.095756   2.163756   4.158989   3.882197
    21  H    2.703637   2.197018   1.093851   2.677983   2.408968
    22  H    3.468211   2.160556   1.097373   2.400610   3.043116
                   11         12         13         14         15
    11  H    0.000000
    12  H    1.761775   0.000000
    13  H    2.862963   2.266858   0.000000
    14  H    2.331491   3.424118   2.713751   0.000000
    15  H    3.617781   4.103363   2.354897   1.768527   0.000000
    16  H    2.872333   4.159305   3.884019   2.407366   3.042683
    17  H    4.180747   5.237270   4.157614   2.678747   2.399633
    18  H    4.272410   4.795284   4.219704   4.161334   3.878871
    19  H    4.797025   5.126117   3.744352   3.946984   2.937177
    20  H    4.220228   3.743471   2.370203   4.098593   3.191805
    21  H    4.163041   3.944727   4.097973   5.083382   4.997403
    22  H    3.876114   2.931203   3.188819   4.994153   4.854546
                   16         17         18         19         20
    16  H    0.000000
    17  H    1.769367   0.000000
    18  H    2.361495   2.725299   0.000000
    19  H    3.017166   2.357890   1.761693   0.000000
    20  H    3.940467   3.975621   2.863244   2.266682   0.000000
    21  H    3.819738   4.727628   2.334100   3.424619   2.712977
    22  H    4.573254   5.416339   3.619267   4.104091   2.355405
                   21         22
    21  H    0.000000
    22  H    1.768686   0.000000
 Stoichiometry    C8H14
 Framework group  C1[X(C8H14)]
 Deg. of freedom    60
 Full point group                 C1      NOp   1
 Largest Abelian subgroup         C1      NOp   1
 Largest concise Abelian subgroup C1      NOp   1
                         Standard orientation:                         
 ---------------------------------------------------------------------
 Center     Atomic      Atomic             Coordinates (Angstroms)
 Number     Number       Type             X           Y           Z
 ---------------------------------------------------------------------
      1          6           0        1.724411    0.114993   -0.761190
      2          6           0        1.045090    1.317921   -0.122238
      3          6           0       -0.080645    0.764942    0.763369
      4          6           0       -1.476205    1.028453    0.206605
      5          6           0       -1.725835   -0.115376   -0.759702
      6          6           0       -1.044666   -1.318146   -0.122349
      7          6           0        0.080969   -0.765187    0.763350
      8          6           0        1.476958   -1.027760    0.206933
      9          1           0        2.791172    0.288843   -0.926804
     10          1           0        1.265739   -0.104600   -1.732563
     11          1           0        0.690123    2.022356   -0.880370
     12          1           0        1.765664    1.857529    0.505233
     13          1           0        0.009917    1.184760    1.771480
     14          1           0       -1.563385    2.002927   -0.282728
     15          1           0       -2.213520    0.997263    1.018677
     16          1           0       -1.270105    0.103612   -1.732555
     17          1           0       -2.793103   -0.289361   -0.922179
     18          1           0       -0.689261   -2.021254   -0.881541
     19          1           0       -1.764326   -1.859493    0.504689
     20          1           0       -0.009582   -1.185363    1.771286
     21          1           0        1.566011   -2.003025   -0.280342
     22          1           0        2.214188   -0.993221    1.019046
 ---------------------------------------------------------------------
 Rotational constants (GHZ):           3.2107827           2.1164561           1.6798314
 Standard basis: 6-31G(2df,p) (6D, 7F)
 There are   318 symmetry adapted cartesian basis functions of A   symmetry.
 There are   294 symmetry adapted basis functions of A   symmetry.
   294 basis functions,   450 primitive gaussians,   318 cartesian basis functions
    31 alpha electrons       31 beta electrons
       nuclear repulsion energy       407.9642399017 Hartrees.
 NAtoms=   22 NActive=   22 NUniq=   22 SFac= 1.00D+00 NAtFMM=   60 NAOKFM=F Big=F
 Integral buffers will be    131072 words long.
 Raffenetti 2 integral format.
 Two-electron integral symmetry is turned on.
 One-electron integrals computed using PRISM.
 PrsmSu:  requested number of processors reduced to:  13 ShMem   1 Linda.
 NBasis=   294 RedAO= T EigKep=  4.18D-04  NBF=   294
 NBsUse=   294 1.00D-06 EigRej= -1.00D+00 NBFU=   294
 ExpMin= 1.61D-01 ExpMax= 3.05D+03 ExpMxC= 4.57D+02 IAcc=3 IRadAn=         5 AccDes= 0.00D+00
 Harris functional with IExCor=  402 and IRadAn=       5 diagonalized for initial guess.
 HarFok:  IExCor=  402 AccDes= 0.00D+00 IRadAn=         5 IDoV= 1 UseB2=F ITyADJ=14
 ICtDFT=  3500011 ScaDFX=  1.000000  1.000000  1.000000  1.000000
 FoFCou: FMM=F IPFlag=           0 FMFlag=      100000 FMFlg1=           0
         NFxFlg=           0 DoJE=T BraDBF=F KetDBF=T FulRan=T
         wScrn=  0.000000 ICntrl=       500 IOpCl=  0 I1Cent=   200000004 NGrid=           0
         NMat0=    1 NMatS0=      1 NMatT0=    0 NMatD0=    1 NMtDS0=    0 NMtDT0=    0
 Petite list used in FoFCou.
 Requested convergence on RMS density matrix=1.00D-08 within 128 cycles.
 Requested convergence on MAX density matrix=1.00D-06.
 Requested convergence on             energy=1.00D-06.
 No special actions if energy rises.
 Integral accuracy reduced to 1.0D-05 until final iterations.
 Initial convergence to 1.0D-05 achieved.  Increase integral accuracy.
 SCF Done:  E(RB3LYP) =  -313.308685838     A.U. after   11 cycles
            NFock= 11  Conv=0.90D-08     -V/T= 2.0081

 **********************************************************************

            Population analysis using the SCF density.

 **********************************************************************

 Orbital symmetries:
       Occupied  (A) (A) (A) (A) (A) (A) (A) (A) (A) (A) (A) (A)
                 (A) (A) (A) (A) (A) (A) (A) (A) (A) (A) (A) (A)
                 (A) (A) (A) (A) (A) (A) (A)
       Virtual   (A) (A) (A) (A) (A) (A) (A) (A) (A) (A) (A) (A)
                 (A) (A) (A) (A) (A) (A) (A) (A) (A) (A) (A) (A)
                 (A) (A) (A) (A) (A) (A) (A) (A) (A) (A) (A) (A)
                 (A) (A) (A) (A) (A) (A) (A) (A) (A) (A) (A) (A)
                 (A) (A) (A) (A) (A) (A) (A) (A) (A) (A) (A) (A)
                 (A) (A) (A) (A) (A) (A) (A) (A) (A) (A) (A) (A)
                 (A) (A) (A) (A) (A) (A) (A) (A) (A) (A) (A) (A)
                 (A) (A) (A) (A) (A) (A) (A) (A) (A) (A) (A) (A)
                 (A) (A) (A) (A) (A) (A) (A) (A) (A) (A) (A) (A)
                 (A) (A) (A) (A) (A) (A) (A) (A) (A) (A) (A) (A)
                 (A) (A) (A) (A) (A) (A) (A) (A) (A) (A) (A) (A)
                 (A) (A) (A) (A) (A) (A) (A) (A) (A) (A) (A) (A)
                 (A) (A) (A) (A) (A) (A) (A) (A) (A) (A) (A) (A)
                 (A) (A) (A) (A) (A) (A) (A) (A) (A) (A) (A) (A)
                 (A) (A) (A) (A) (A) (A) (A) (A) (A) (A) (A) (A)
                 (A) (A) (A) (A) (A) (A) (A) (A) (A) (A) (A) (A)
                 (A) (A) (A) (A) (A) (A) (A) (A) (A) (A) (A) (A)
                 (A) (A) (A) (A) (A) (A) (A) (A) (A) (A) (A) (A)
                 (A) (A) (A) (A) (A) (A) (A) (A) (A) (A) (A) (A)
                 (A) (A) (A) (A) (A) (A) (A) (A) (A) (A) (A) (A)
                 (A) (A) (A) (A) (A) (A) (A) (A) (A) (A) (A) (A)
                 (A) (A) (A) (A) (A) (A) (A) (A) (A) (A) (A)
 The electronic state is 1-A.
 Alpha  occ. eigenvalues --  -10.16826 -10.16806 -10.16675 -10.16674 -10.16556
 Alpha  occ. eigenvalues --  -10.16556 -10.16546 -10.16543  -0.85450  -0.77811
 Alpha  occ. eigenvalues --   -0.72810  -0.68615  -0.65374  -0.57158  -0.54727
 Alpha  occ. eigenvalues --   -0.52370  -0.49655  -0.45797  -0.44900  -0.42819
 Alpha  occ. eigenvalues --   -0.41255  -0.38827  -0.35025  -0.33725  -0.33594
 Alpha  occ. eigenvalues --   -0.31759  -0.31178  -0.30769  -0.30604  -0.29972
 Alpha  occ. eigenvalues --   -0.29376
 Alpha virt. eigenvalues --    0.06931   0.08317   0.12527   0.13161   0.14038
 Alpha virt. eigenvalues --    0.14470   0.15154   0.17719   0.17870   0.18294
 Alpha virt. eigenvalues --    0.19409   0.20036   0.21297   0.22090   0.22154
 Alpha virt. eigenvalues --    0.22510   0.24188   0.24950   0.24974   0.28400
 Alpha virt. eigenvalues --    0.31859   0.35539   0.35792   0.43505   0.47239
 Alpha virt. eigenvalues --    0.49906   0.50172   0.52369   0.52600   0.52969
 Alpha virt. eigenvalues --    0.55792   0.56224   0.57165   0.58260   0.58352
 Alpha virt. eigenvalues --    0.59435   0.61489   0.62183   0.63236   0.63754
 Alpha virt. eigenvalues --    0.64564   0.66974   0.67526   0.70054   0.70486
 Alpha virt. eigenvalues --    0.73263   0.73971   0.75562   0.77320   0.78580
 Alpha virt. eigenvalues --    0.78862   0.79624   0.80979   0.82297   0.82776
 Alpha virt. eigenvalues --    0.84642   0.84969   0.86514   0.87414   0.88324
 Alpha virt. eigenvalues --    0.89117   0.91368   1.05849   1.08887   1.10482
 Alpha virt. eigenvalues --    1.13228   1.16523   1.16935   1.21342   1.23269
 Alpha virt. eigenvalues --    1.26324   1.29155   1.29186   1.30436   1.33201
 Alpha virt. eigenvalues --    1.36449   1.37627   1.40636   1.42781   1.45456
 Alpha virt. eigenvalues --    1.47424   1.50024   1.50895   1.53180   1.53559
 Alpha virt. eigenvalues --    1.54371   1.56237   1.57276   1.57987   1.58885
 Alpha virt. eigenvalues --    1.61576   1.61861   1.64760   1.70708   1.71357
 Alpha virt. eigenvalues --    1.74809   1.76822   1.77989   1.78921   1.82946
 Alpha virt. eigenvalues --    1.86871   1.89889   1.91671   1.92608   1.97604
 Alpha virt. eigenvalues --    1.98798   2.05136   2.09497   2.13187   2.17640
 Alpha virt. eigenvalues --    2.17829   2.25174   2.25455   2.28309   2.29620
 Alpha virt. eigenvalues --    2.30496   2.34732   2.34753   2.36915   2.37957
 Alpha virt. eigenvalues --    2.39610   2.43413   2.45665   2.49344   2.52793
 Alpha virt. eigenvalues --    2.53736   2.55446   2.59678   2.61601   2.63510
 Alpha virt. eigenvalues --    2.64090   2.66788   2.70871   2.71879   2.72526
 Alpha virt. eigenvalues --    2.76741   2.77873   2.79675   2.80135   2.85947
 Alpha virt. eigenvalues --    2.89240   2.90634   2.92029   2.93094   2.94698
 Alpha virt. eigenvalues --    2.96454   2.97229   2.99220   3.01158   3.01592
 Alpha virt. eigenvalues --    3.07471   3.10579   3.11433   3.16666   3.17834
 Alpha virt. eigenvalues --    3.20077   3.21022   3.24789   3.25302   3.29555
 Alpha virt. eigenvalues --    3.30660   3.32976   3.37174   3.39186   3.40063
 Alpha virt. eigenvalues --    3.40805   3.41141   3.43799   3.47076   3.48241
 Alpha virt. eigenvalues --    3.49633   3.53747   3.56481   3.59595   3.60785
 Alpha virt. eigenvalues --    3.62942   3.64964   3.70872   3.71196   3.71726
 Alpha virt. eigenvalues --    3.73024   3.78872   3.79107   3.80159   3.86371
 Alpha virt. eigenvalues --    3.87927   3.90233   3.93399   3.94959   4.08335
 Alpha virt. eigenvalues --    4.09031   4.10192   4.13973   4.17372   4.17860
 Alpha virt. eigenvalues --    4.24831   4.30596   4.34336   4.40451   4.44400
 Alpha virt. eigenvalues --    4.45846   4.49867   4.50647   4.53809   4.55791
 Alpha virt. eigenvalues --    4.57341   4.58042   4.61351   4.61704   4.63376
 Alpha virt. eigenvalues --    4.63985   4.66939   4.68110   4.70156   4.71487
 Alpha virt. eigenvalues --    4.73797   4.74968   4.78019   4.78929   4.79717
 Alpha virt. eigenvalues --    4.81471   4.81494   4.83340   4.84736   4.85224
 Alpha virt. eigenvalues --    4.88880   4.88915   4.89662   4.90188   4.94626
 Alpha virt. eigenvalues --    4.97198   4.98868   5.00224   5.02258   5.06329
 Alpha virt. eigenvalues --    5.08932   5.13701   5.14985   5.15869   5.23898
 Alpha virt. eigenvalues --    5.28253   5.32267   5.38640   5.42094   5.42164
 Alpha virt. eigenvalues --    5.48815   5.49686   5.51060   5.59894   5.65457
 Alpha virt. eigenvalues --    5.65936   5.92915   6.44988   6.46682   7.42244
 Alpha virt. eigenvalues --   10.92204  11.50206  11.95331  12.11910  12.42074
 Alpha virt. eigenvalues --   12.65108  12.75332  13.14798
          Condensed to atoms (all electrons):
               1          2          3          4          5          6
     1  C    4.846064   0.415986  -0.057597   0.002497   0.000247   0.000066
     2  C    0.415986   4.897229   0.405928  -0.026451   0.000091  -0.002468
     3  C   -0.057597   0.405928   4.695454   0.406421  -0.049349  -0.044109
     4  C    0.002497  -0.026451   0.406421   4.901700   0.416528  -0.068781
     5  C    0.000247   0.000091  -0.049349   0.416528   4.846063   0.415972
     6  C    0.000066  -0.002468  -0.044109  -0.068781   0.415972   4.897280
     7  C   -0.049265  -0.044094   0.436691  -0.047268  -0.057619   0.405971
     8  C    0.416491  -0.068737  -0.047264   0.003032   0.002511  -0.026434
     9  H    0.368186  -0.028997   0.005206  -0.000095   0.000040  -0.000110
    10  H    0.370556  -0.033393   0.001001   0.000031  -0.000606   0.001447
    11  H   -0.029953   0.366819  -0.032525  -0.012262   0.000013   0.000472
    12  H   -0.033007   0.358371  -0.021063   0.004360  -0.000134  -0.000119
    13  H    0.004804  -0.044098   0.362774  -0.045439   0.006029   0.007495
    14  H    0.000156  -0.011317  -0.026657   0.365015  -0.031354   0.005745
    15  H   -0.000161   0.004748  -0.025226   0.359421  -0.034942   0.000194
    16  H   -0.000601   0.001431  -0.000597  -0.034415   0.370569  -0.033427
    17  H    0.000040  -0.000111   0.004753  -0.028855   0.368165  -0.028980
    18  H    0.000017   0.000474   0.003950   0.005457  -0.029946   0.366795
    19  H   -0.000133  -0.000118   0.002128   0.001966  -0.032999   0.358383
    20  H    0.006027   0.007496  -0.043243   0.006261   0.004804  -0.044116
    21  H   -0.031364   0.005745   0.004895  -0.000153   0.000154  -0.011257
    22  H   -0.034968   0.000159   0.000245  -0.000153  -0.000161   0.004745
               7          8          9         10         11         12
     1  C   -0.049265   0.416491   0.368186   0.370556  -0.029953  -0.033007
     2  C   -0.044094  -0.068737  -0.028997  -0.033393   0.366819   0.358371
     3  C    0.436691  -0.047264   0.005206   0.001001  -0.032525  -0.021063
     4  C   -0.047268   0.003032  -0.000095   0.000031  -0.012262   0.004360
     5  C   -0.057619   0.002511   0.000040  -0.000606   0.000013  -0.000134
     6  C    0.405971  -0.026434  -0.000110   0.001447   0.000472  -0.000119
     7  C    4.695472   0.406357   0.004753  -0.000640   0.003960   0.002105
     8  C    0.406357   4.901759  -0.028840  -0.034422   0.005459   0.001937
     9  H    0.004753  -0.028840   0.647152  -0.040829   0.003336  -0.010366
    10  H   -0.000640  -0.034422  -0.040829   0.644428  -0.009870   0.006214
    11  H    0.003960   0.005459   0.003336  -0.009870   0.646485  -0.041439
    12  H    0.002105   0.001937  -0.010366   0.006214  -0.041439   0.654898
    13  H   -0.043264   0.006266  -0.000231  -0.000196   0.005318  -0.013143
    14  H    0.004889  -0.000152  -0.000011  -0.000010   0.005386   0.000266
    15  H    0.000282  -0.000154   0.000005  -0.000006   0.000203  -0.000285
    16  H    0.001037   0.000028   0.000040   0.002535   0.000790   0.000000
    17  H    0.005198  -0.000095  -0.000001   0.000040  -0.000078   0.000003
    18  H   -0.032525  -0.012261  -0.000079   0.000803  -0.000001   0.000011
    19  H   -0.021047   0.004357   0.000003   0.000000   0.000011   0.000006
    20  H    0.362801  -0.045473  -0.000240  -0.000081  -0.000175  -0.000285
    21  H   -0.026645   0.364989   0.002374  -0.007163  -0.000209  -0.000135
    22  H   -0.025219   0.359404  -0.008803   0.006183  -0.000133   0.001674
              13         14         15         16         17         18
     1  C    0.004804   0.000156  -0.000161  -0.000601   0.000040   0.000017
     2  C   -0.044098  -0.011317   0.004748   0.001431  -0.000111   0.000474
     3  C    0.362774  -0.026657  -0.025226  -0.000597   0.004753   0.003950
     4  C   -0.045439   0.365015   0.359421  -0.034415  -0.028855   0.005457
     5  C    0.006029  -0.031354  -0.034942   0.370569   0.368165  -0.029946
     6  C    0.007495   0.005745   0.000194  -0.033427  -0.028980   0.366795
     7  C   -0.043264   0.004889   0.000282   0.001037   0.005198  -0.032525
     8  C    0.006266  -0.000152  -0.000154   0.000028  -0.000095  -0.012261
     9  H   -0.000231  -0.000011   0.000005   0.000040  -0.000001  -0.000079
    10  H   -0.000196  -0.000010  -0.000006   0.002535   0.000040   0.000803
    11  H    0.005318   0.005386   0.000203   0.000790  -0.000078  -0.000001
    12  H   -0.013143   0.000266  -0.000285   0.000000   0.000003   0.000011
    13  H    0.715219   0.002845  -0.008314  -0.000083  -0.000241  -0.000175
    14  H    0.002845   0.642637  -0.040372  -0.007223   0.002400  -0.000209
    15  H   -0.008314  -0.040372   0.660501   0.006182  -0.008854  -0.000134
    16  H   -0.000083  -0.007223   0.006182   0.644518  -0.040838  -0.009921
    17  H   -0.000241   0.002400  -0.008854  -0.040838   0.647191   0.003356
    18  H   -0.000175  -0.000209  -0.000134  -0.009921   0.003356   0.646496
    19  H   -0.000285  -0.000135   0.001647   0.006216  -0.010399  -0.041448
    20  H   -0.011295  -0.000172   0.000136  -0.000196  -0.000231   0.005331
    21  H   -0.000173   0.000007   0.000004  -0.000010  -0.000010   0.005364
    22  H    0.000140   0.000004  -0.000006  -0.000006   0.000005   0.000202
              19         20         21         22
     1  C   -0.000133   0.006027  -0.031364  -0.034968
     2  C   -0.000118   0.007496   0.005745   0.000159
     3  C    0.002128  -0.043243   0.004895   0.000245
     4  C    0.001966   0.006261  -0.000153  -0.000153
     5  C   -0.032999   0.004804   0.000154  -0.000161
     6  C    0.358383  -0.044116  -0.011257   0.004745
     7  C   -0.021047   0.362801  -0.026645  -0.025219
     8  C    0.004357  -0.045473   0.364989   0.359404
     9  H    0.000003  -0.000240   0.002374  -0.008803
    10  H    0.000000  -0.000081  -0.007163   0.006183
    11  H    0.000011  -0.000175  -0.000209  -0.000133
    12  H    0.000006  -0.000285  -0.000135   0.001674
    13  H   -0.000285  -0.011295  -0.000173   0.000140
    14  H   -0.000135  -0.000172   0.000007   0.000004
    15  H    0.001647   0.000136   0.000004  -0.000006
    16  H    0.006216  -0.000196  -0.000010  -0.000006
    17  H   -0.010399  -0.000231  -0.000010   0.000005
    18  H   -0.041448   0.005331   0.005364   0.000202
    19  H    0.654875  -0.013155   0.000264  -0.000284
    20  H   -0.013155   0.715231   0.002827  -0.008285
    21  H    0.000264   0.002827   0.642642  -0.040350
    22  H   -0.000284  -0.008285  -0.040350   0.660464
 Mulliken charges:
               1
     1  C   -0.194088
     2  C   -0.204691
     3  C    0.018185
     4  C   -0.208818
     5  C   -0.194075
     6  C   -0.204765
     7  C    0.018073
     8  C   -0.208757
     9  H    0.087507
    10  H    0.093979
    11  H    0.088393
    12  H    0.090131
    13  H    0.056048
    14  H    0.088263
    15  H    0.085130
    16  H    0.093971
    17  H    0.087542
    18  H    0.088442
    19  H    0.090150
    20  H    0.056035
    21  H    0.088203
    22  H    0.085141
 Sum of Mulliken charges =  -0.00000
 Mulliken charges with hydrogens summed into heavy atoms:
               1
     1  C   -0.012601
     2  C   -0.026167
     3  C    0.074233
     4  C   -0.035425
     5  C   -0.012562
     6  C   -0.026173
     7  C    0.074108
     8  C   -0.035414
 Electronic spatial extent (au):  <R**2>=            891.1729
 Charge=             -0.0000 electrons
 Dipole moment (field-independent basis, Debye):
    X=              0.0000    Y=             -0.0001    Z=              0.1084  Tot=              0.1084
 Quadrupole moment (field-independent basis, Debye-Ang):
   XX=            -51.4670   YY=            -51.8648   ZZ=            -50.8537
   XY=              0.3223   XZ=             -0.0010   YZ=             -0.0007
 Traceless Quadrupole moment (field-independent basis, Debye-Ang):
   XX=             -0.0718   YY=             -0.4696   ZZ=              0.5414
   XY=              0.3223   XZ=             -0.0010   YZ=             -0.0007
 Octapole moment (field-independent basis, Debye-Ang**2):
  XXX=              0.0001  YYY=             -0.0033  ZZZ=              0.9610  XYY=             -0.0003
  XXY=             -0.0004  XXZ=              2.2494  XZZ=             -0.0007  YZZ=              0.0019
  YYZ=             -0.7201  XYZ=              1.0566
 Hexadecapole moment (field-independent basis, Debye-Ang**3):
 XXXX=           -617.1132 YYYY=           -394.3731 ZZZZ=           -210.4219 XXXY=              5.7193
 XXXZ=             -0.0275 YYYX=             -1.3768 YYYZ=             -0.0110 ZZZX=              0.0043
 ZZZY=              0.0024 XXYY=           -172.4161 XXZZ=           -140.7194 YYZZ=            -99.0805
 XXYZ=              0.0020 YYXZ=             -0.0059 ZZXY=              0.2024
 N-N= 4.079642399017D+02 E-N=-1.540613825717D+03  KE= 3.108047774841D+02
 PrsmSu:  requested number of processors reduced to:  13 ShMem   1 Linda.
 Calling FoFJK, ICntrl=      2127 FMM=F ISym2X=0 I1Cent= 0 IOpClX= 0 NMat=1 NMatS=1 NMatT=0.
 ***** Axes restored to original set *****
 -------------------------------------------------------------------
 Center     Atomic                   Forces (Hartrees/Bohr)
 Number     Number              X              Y              Z
 -------------------------------------------------------------------
      1        6          -0.007808834    0.000248023    0.009674855
      2        6          -0.008316202    0.009741002   -0.001104812
      3        6           0.004709882    0.011993225   -0.008320169
      4        6           0.007637956    0.006573981   -0.003365647
      5        6           0.007842903   -0.000308827    0.009750473
      6        6           0.008306016   -0.009789471   -0.001158510
      7        6          -0.004750698   -0.011894006   -0.008362385
      8        6          -0.007594080   -0.006516295   -0.003399067
      9        1          -0.000279243   -0.000657590    0.003632360
     10        1          -0.001180131   -0.000670417    0.000708878
     11        1           0.000919363    0.001715386   -0.001683680
     12        1           0.000389152    0.000842555    0.001734488
     13        1           0.000038190   -0.000785751    0.000930599
     14        1           0.000677874    0.001754146   -0.002497522
     15        1           0.000604814    0.000526617    0.000304641
     16        1           0.001172968    0.000670567    0.000726668
     17        1           0.000251283    0.000625698    0.003644067
     18        1          -0.000915551   -0.001696193   -0.001687930
     19        1          -0.000424459   -0.000850948    0.001717098
     20        1          -0.000036947    0.000810289    0.000907107
     21        1          -0.000659089   -0.001768018   -0.002478444
     22        1          -0.000585169   -0.000563974    0.000326931
 -------------------------------------------------------------------
 Cartesian Forces:  Max     0.011993225 RMS     0.004627857

 GradGradGradGradGradGradGradGradGradGradGradGradGradGradGradGradGradGrad
 Berny optimization.
 FormGI is forming the generalized inverse of G from B-inverse, IUseBI=4.
 Internal  Forces:  Max     0.013610013 RMS     0.003248624
 Search for a local minimum.
 Step number   1 out of a maximum of  132
 All quantities printed in internal units (Hartrees-Bohrs-Radians)
 Mixed Optimization -- RFO/linear search
 Second derivative matrix not updated -- first step.
 ITU=  0
     Eigenvalues ---    0.00368   0.00575   0.00600   0.01472   0.02223
     Eigenvalues ---    0.02508   0.02813   0.03747   0.04243   0.04260
     Eigenvalues ---    0.04411   0.04656   0.04697   0.05011   0.05083
     Eigenvalues ---    0.05325   0.05442   0.05557   0.05797   0.05935
     Eigenvalues ---    0.06101   0.06236   0.07015   0.07115   0.07131
     Eigenvalues ---    0.07140   0.07153   0.07383   0.07389   0.08535
     Eigenvalues ---    0.09041   0.09627   0.11023   0.11545   0.15988
     Eigenvalues ---    0.18330   0.20914   0.24600   0.26843   0.26929
     Eigenvalues ---    0.27304   0.29183   0.29421   0.29487   0.29701
     Eigenvalues ---    0.29839   0.33974   0.33979   0.33980   0.33982
     Eigenvalues ---    0.34080   0.34084   0.34153   0.34156   0.34344
     Eigenvalues ---    0.34346   0.34364   0.34371   0.34412   0.34417
 RFO step:  Lambda=-6.57152524D-03 EMin= 3.68350301D-03
 Linear search not attempted -- first point.
 Iteration  1 RMS(Cart)=  0.02696246 RMS(Int)=  0.00029020
 Iteration  2 RMS(Cart)=  0.00031307 RMS(Int)=  0.00005696
 Iteration  3 RMS(Cart)=  0.00000005 RMS(Int)=  0.00005696
 Variable       Old X    -DE/DX   Delta X   Delta X   Delta X     New X
                                 (Linear)    (Quad)   (Total)
    R1        2.87634   0.01335   0.00000   0.04347   0.04348   2.91982
    R2        2.86864   0.01222   0.00000   0.03730   0.03727   2.90591
    R3        2.06632   0.00071   0.00000   0.00204   0.00204   2.06836
    R4        2.07196   0.00027   0.00000   0.00079   0.00079   2.07275
    R5        2.90143   0.01357   0.00000   0.04746   0.04751   2.94894
    R6        2.06750   0.00023   0.00000   0.00066   0.00066   2.06815
    R7        2.07364  -0.00083   0.00000  -0.00239  -0.00239   2.07126
    R8        2.88269   0.01164   0.00000   0.03744   0.03740   2.92009
    R9        2.90761   0.01361   0.00000   0.04826   0.04830   2.95591
   R10        2.07073  -0.00116   0.00000  -0.00334  -0.00334   2.06739
   R11        2.86866   0.01228   0.00000   0.03747   0.03743   2.90609
   R12        2.06720   0.00049   0.00000   0.00141   0.00141   2.06860
   R13        2.07360   0.00017   0.00000   0.00048   0.00048   2.07408
   R14        2.87640   0.01336   0.00000   0.04351   0.04352   2.91992
   R15        2.07189   0.00029   0.00000   0.00084   0.00084   2.07273
   R16        2.06641   0.00068   0.00000   0.00195   0.00195   2.06836
   R17        2.90138   0.01355   0.00000   0.04740   0.04745   2.94883
   R18        2.06754   0.00022   0.00000   0.00064   0.00064   2.06818
   R19        2.07366  -0.00084   0.00000  -0.00242  -0.00242   2.07124
   R20        2.88289   0.01157   0.00000   0.03718   0.03714   2.92003
   R21        2.07068  -0.00115   0.00000  -0.00330  -0.00330   2.06738
   R22        2.06708   0.00054   0.00000   0.00153   0.00153   2.06861
   R23        2.07374   0.00013   0.00000   0.00038   0.00038   2.07411
    A1        1.82809  -0.00132   0.00000  -0.01215  -0.01226   1.81583
    A2        1.95340   0.00096   0.00000   0.01253   0.01261   1.96601
    A3        1.92142   0.00102   0.00000   0.01005   0.01003   1.93145
    A4        1.95553   0.00107   0.00000   0.01147   0.01154   1.96707
    A5        1.92415  -0.00008   0.00000  -0.00169  -0.00161   1.92254
    A6        1.88155  -0.00157   0.00000  -0.01933  -0.01936   1.86219
    A7        1.85952   0.00093   0.00000   0.00380   0.00365   1.86317
    A8        1.94203   0.00120   0.00000   0.01265   0.01270   1.95474
    A9        1.91304  -0.00040   0.00000   0.00375   0.00369   1.91673
   A10        1.97545  -0.00205   0.00000  -0.01931  -0.01925   1.95620
   A11        1.90577   0.00104   0.00000   0.01372   0.01370   1.91947
   A12        1.86782  -0.00068   0.00000  -0.01369  -0.01369   1.85413
   A13        1.98016   0.00239   0.00000   0.02228   0.02232   2.00249
   A14        1.85579  -0.00126   0.00000  -0.01050  -0.01053   1.84526
   A15        1.90930  -0.00027   0.00000  -0.00043  -0.00058   1.90872
   A16        1.84198   0.00026   0.00000  -0.00080  -0.00083   1.84115
   A17        1.92326  -0.00075   0.00000  -0.00265  -0.00271   1.92054
   A18        1.95232  -0.00036   0.00000  -0.00836  -0.00838   1.94393
   A19        1.82617   0.00095   0.00000  -0.00020  -0.00044   1.82574
   A20        1.97149  -0.00127   0.00000  -0.00807  -0.00800   1.96349
   A21        1.91739   0.00046   0.00000   0.00630   0.00632   1.92371
   A22        1.95344   0.00084   0.00000   0.01767   0.01775   1.97119
   A23        1.91684  -0.00020   0.00000  -0.00107  -0.00099   1.91585
   A24        1.87844  -0.00072   0.00000  -0.01389  -0.01393   1.86451
   A25        1.82893  -0.00136   0.00000  -0.01245  -0.01257   1.81636
   A26        1.92407  -0.00006   0.00000  -0.00152  -0.00143   1.92264
   A27        1.95516   0.00108   0.00000   0.01155   0.01162   1.96678
   A28        1.92129   0.00104   0.00000   0.01030   0.01027   1.93156
   A29        1.95333   0.00095   0.00000   0.01233   0.01242   1.96574
   A30        1.88139  -0.00157   0.00000  -0.01933  -0.01936   1.86203
   A31        1.85986   0.00096   0.00000   0.00375   0.00360   1.86346
   A32        1.94188   0.00120   0.00000   0.01254   0.01259   1.95447
   A33        1.91304  -0.00040   0.00000   0.00403   0.00397   1.91701
   A34        1.97532  -0.00206   0.00000  -0.01937  -0.01930   1.95602
   A35        1.90589   0.00102   0.00000   0.01361   0.01359   1.91948
   A36        1.86765  -0.00068   0.00000  -0.01365  -0.01365   1.85400
   A37        1.85580  -0.00124   0.00000  -0.01031  -0.01035   1.84545
   A38        1.84137   0.00029   0.00000  -0.00039  -0.00042   1.84095
   A39        1.95265  -0.00037   0.00000  -0.00855  -0.00857   1.94409
   A40        1.98066   0.00234   0.00000   0.02162   0.02168   2.00234
   A41        1.90917  -0.00027   0.00000  -0.00032  -0.00047   1.90870
   A42        1.92316  -0.00074   0.00000  -0.00253  -0.00259   1.92057
   A43        1.82576   0.00095   0.00000  -0.00019  -0.00041   1.82534
   A44        1.95391   0.00086   0.00000   0.01768   0.01775   1.97167
   A45        1.91640  -0.00021   0.00000  -0.00097  -0.00089   1.91551
   A46        1.97189  -0.00127   0.00000  -0.00813  -0.00805   1.96384
   A47        1.91709   0.00046   0.00000   0.00627   0.00629   1.92338
   A48        1.87868  -0.00073   0.00000  -0.01392  -0.01397   1.86471
    D1       -0.45934  -0.00066   0.00000  -0.02727  -0.02725  -0.48660
    D2       -2.62013   0.00051   0.00000  -0.01371  -0.01368  -2.63380
    D3        1.60060   0.00088   0.00000  -0.00692  -0.00689   1.59371
    D4       -2.58195  -0.00165   0.00000  -0.04045  -0.04044  -2.62239
    D5        1.54045  -0.00047   0.00000  -0.02689  -0.02686   1.51359
    D6       -0.52201  -0.00011   0.00000  -0.02009  -0.02008  -0.54209
    D7        1.60897  -0.00099   0.00000  -0.03105  -0.03109   1.57788
    D8       -0.55181   0.00019   0.00000  -0.01749  -0.01751  -0.56933
    D9       -2.61427   0.00055   0.00000  -0.01069  -0.01073  -2.62500
   D10        0.61987   0.00058   0.00000   0.02771   0.02762   0.64750
   D11        2.76117   0.00013   0.00000   0.02773   0.02769   2.78885
   D12       -1.43641  -0.00037   0.00000   0.02095   0.02094  -1.41548
   D13        2.74108   0.00149   0.00000   0.04157   0.04151   2.78260
   D14       -1.40081   0.00104   0.00000   0.04159   0.04158  -1.35923
   D15        0.68480   0.00054   0.00000   0.03482   0.03483   0.71962
   D16       -1.44659   0.00016   0.00000   0.02355   0.02350  -1.42309
   D17        0.69470  -0.00029   0.00000   0.02356   0.02356   0.71826
   D18        2.78031  -0.00079   0.00000   0.01679   0.01681   2.79712
   D19       -1.89277   0.00000   0.00000   0.01292   0.01305  -1.87973
   D20        0.12405   0.00080   0.00000   0.01729   0.01728   0.14133
   D21        2.23523  -0.00051   0.00000   0.00089   0.00091   2.23614
   D22        0.24715   0.00088   0.00000   0.01935   0.01943   0.26657
   D23        2.26397   0.00168   0.00000   0.02372   0.02366   2.28763
   D24       -1.90804   0.00036   0.00000   0.00733   0.00729  -1.90074
   D25        2.32569  -0.00058   0.00000  -0.00082  -0.00075   2.32494
   D26       -1.94067   0.00022   0.00000   0.00355   0.00348  -1.93719
   D27        0.17051  -0.00110   0.00000  -0.01284  -0.01289   0.15762
   D28        1.48534  -0.00077   0.00000  -0.02260  -0.02262   1.46272
   D29       -0.64368  -0.00171   0.00000  -0.03953  -0.03951  -0.68320
   D30       -2.74115  -0.00027   0.00000  -0.02090  -0.02094  -2.76209
   D31       -0.53965  -0.00064   0.00000  -0.02103  -0.02106  -0.56071
   D32       -2.66867  -0.00158   0.00000  -0.03796  -0.03795  -2.70662
   D33        1.51705  -0.00014   0.00000  -0.01933  -0.01938   1.49767
   D34       -2.65033   0.00004   0.00000  -0.00910  -0.00910  -2.65943
   D35        1.50384  -0.00090   0.00000  -0.02604  -0.02600   1.47784
   D36       -0.59363   0.00054   0.00000  -0.00741  -0.00742  -0.60105
   D37       -1.85188  -0.00261   0.00000  -0.01940  -0.01938  -1.87125
   D38        0.25664  -0.00037   0.00000   0.00025   0.00026   0.25691
   D39        2.34796  -0.00130   0.00000  -0.00775  -0.00777   2.34019
   D40        0.25637  -0.00035   0.00000   0.00070   0.00071   0.25708
   D41        2.36489   0.00188   0.00000   0.02034   0.02035   2.38524
   D42       -1.82698   0.00096   0.00000   0.01234   0.01232  -1.81466
   D43        2.34800  -0.00129   0.00000  -0.00761  -0.00763   2.34037
   D44       -1.82667   0.00094   0.00000   0.01203   0.01201  -1.81466
   D45        0.26465   0.00002   0.00000   0.00403   0.00398   0.26863
   D46        0.61663   0.00060   0.00000   0.02871   0.02862   0.64526
   D47       -1.45010   0.00017   0.00000   0.02434   0.02429  -1.42580
   D48        2.73807   0.00149   0.00000   0.04220   0.04213   2.78021
   D49        2.75743   0.00014   0.00000   0.02878   0.02874   2.78617
   D50        0.69070  -0.00029   0.00000   0.02441   0.02441   0.71511
   D51       -1.40431   0.00104   0.00000   0.04227   0.04225  -1.36206
   D52       -1.44044  -0.00036   0.00000   0.02198   0.02196  -1.41848
   D53        2.77601  -0.00079   0.00000   0.01761   0.01763   2.79364
   D54        0.68100   0.00053   0.00000   0.03546   0.03547   0.71647
   D55       -0.45636  -0.00067   0.00000  -0.02792  -0.02790  -0.48426
   D56       -2.61711   0.00050   0.00000  -0.01420  -0.01416  -2.63127
   D57        1.60391   0.00086   0.00000  -0.00756  -0.00754   1.59638
   D58        1.61226  -0.00099   0.00000  -0.03153  -0.03158   1.58069
   D59       -0.54849   0.00018   0.00000  -0.01781  -0.01783  -0.56633
   D60       -2.61065   0.00054   0.00000  -0.01117  -0.01121  -2.62187
   D61       -2.57900  -0.00165   0.00000  -0.04090  -0.04089  -2.61989
   D62        1.54343  -0.00048   0.00000  -0.02718  -0.02715   1.51628
   D63       -0.51873  -0.00012   0.00000  -0.02054  -0.02053  -0.53926
   D64        0.12238   0.00080   0.00000   0.01741   0.01740   0.13978
   D65       -1.89398  -0.00003   0.00000   0.01278   0.01291  -1.88107
   D66        2.23389  -0.00052   0.00000   0.00097   0.00099   2.23488
   D67        2.26226   0.00168   0.00000   0.02364   0.02358   2.28583
   D68        0.24590   0.00085   0.00000   0.01901   0.01908   0.26498
   D69       -1.90941   0.00036   0.00000   0.00719   0.00716  -1.90226
   D70       -1.94259   0.00021   0.00000   0.00341   0.00334  -1.93925
   D71        2.32423  -0.00061   0.00000  -0.00122  -0.00115   2.32308
   D72        0.16892  -0.00111   0.00000  -0.01303  -0.01308   0.15584
   D73       -0.54182  -0.00062   0.00000  -0.02015  -0.02018  -0.56200
   D74       -2.67138  -0.00157   0.00000  -0.03707  -0.03706  -2.70844
   D75        1.51399  -0.00013   0.00000  -0.01834  -0.01839   1.49560
   D76        1.48305  -0.00072   0.00000  -0.02159  -0.02161   1.46145
   D77       -0.64650  -0.00168   0.00000  -0.03851  -0.03850  -0.68499
   D78       -2.74432  -0.00023   0.00000  -0.01978  -0.01982  -2.76414
   D79       -2.65249   0.00006   0.00000  -0.00832  -0.00832  -2.66081
   D80        1.50114  -0.00090   0.00000  -0.02524  -0.02520   1.47594
   D81       -0.59668   0.00055   0.00000  -0.00651  -0.00653  -0.60321
         Item               Value     Threshold  Converged?
 Maximum Force            0.013610     0.000450     NO 
 RMS     Force            0.003249     0.000300     NO 
 Maximum Displacement     0.106348     0.001800     NO 
 RMS     Displacement     0.026946     0.001200     NO 
 Predicted change in Energy=-3.495915D-03
 GradGradGradGradGradGradGradGradGradGradGradGradGradGradGradGradGradGrad

                          Input orientation:                          
 ---------------------------------------------------------------------
 Center     Atomic      Atomic             Coordinates (Angstroms)
 Number     Number       Type             X           Y           Z
 ---------------------------------------------------------------------
      1          6           0       -1.749276    0.115902    0.828371
      2          6           0       -1.063245    1.336300    0.174666
      3          6           0        0.090042    0.779731   -0.717162
      4          6           0        1.511782    1.029202   -0.165614
      5          6           0        1.748958   -0.119390    0.829085
      6          6           0        1.062065   -1.335876    0.168904
      7          6           0       -0.089632   -0.774107   -0.721615
      8          6           0       -1.512182   -1.026324   -0.173507
      9          1           0       -2.811322    0.287380    1.029967
     10          1           0       -1.280270   -0.122223    1.790873
     11          1           0       -0.699031    2.049929    0.920210
     12          1           0       -1.785367    1.881338   -0.444063
     13          1           0        0.001068    1.194381   -1.725636
     14          1           0        1.616062    2.018195    0.291872
     15          1           0        2.248467    0.975343   -0.977413
     16          1           0        1.281155    0.113134    1.793531
     17          1           0        2.811130   -0.292521    1.028607
     18          1           0        0.696080   -2.052282    0.910929
     19          1           0        1.784018   -1.879309   -0.451414
     20          1           0        0.000777   -1.183293   -1.732187
     21          1           0       -1.618176   -2.018409    0.276843
     22          1           0       -2.247663   -0.965703   -0.985947
 ---------------------------------------------------------------------
                    Distance matrix (angstroms):
                    1          2          3          4          5
     1  C    0.000000
     2  C    1.545102   0.000000
     3  C    2.492475   1.560512   0.000000
     4  C    3.529394   2.615504   1.545246   0.000000
     5  C    3.506138   3.233540   2.439529   1.537837   0.000000
     6  C    3.232057   3.414308   2.491131   2.430585   1.545153
     7  C    2.439055   2.490996   1.564198   2.474993   2.492737
     8  C    1.537742   2.429972   2.474776   3.656448   3.530263
     9  H    1.094527   2.210780   3.422395   4.546311   4.582790
    10  H    1.096850   2.187810   2.996918   3.598496   3.178249
    11  H    2.202705   1.094419   2.217437   2.666194   3.272140
    12  H    2.176501   1.096062   2.192095   3.416850   4.256204
    13  H    3.278684   2.182670   1.094016   2.177891   3.362695
    14  H    3.902826   2.767201   2.209226   1.094658   2.208060
    15  H    4.470060   3.524913   2.182840   1.097553   2.170573
    16  H    3.180417   3.100495   2.857740   2.174998   1.096842
    17  H    4.583034   4.288712   3.406134   2.204863   1.094528
    18  H    3.269190   3.888419   3.322388   3.364500   2.202572
    19  H    4.254748   4.340395   3.163964   2.935171   2.176746
    20  H    3.362596   3.334154   2.211720   3.103614   3.278436
    21  H    2.208314   3.401832   3.425732   4.390938   3.904976
    22  H    2.170255   2.837092   2.929787   4.334284   4.470298
                    6          7          8          9         10
     6  C    0.000000
     7  C    1.560453   0.000000
     8  C    2.615304   1.545214   0.000000
     9  H    4.287134   3.406229   2.204979   0.000000
    10  H    3.096816   2.855726   2.174850   1.758088   0.000000
    11  H    3.889678   3.322971   3.364634   2.753252   2.411252
    12  H    4.339823   3.162901   2.932973   2.401260   3.043734
    13  H    3.334246   2.211612   3.103314   4.040487   3.967506
    14  H    3.401739   3.425420   4.389941   4.810637   3.900914
    15  H    2.839599   2.931333   4.335368   5.486741   4.617363
    16  H    2.187931   2.998702   3.601436   4.166745   2.572217
    17  H    2.210635   3.421932   4.546930   5.652278   4.165285
    18  H    1.094433   2.217268   2.665524   4.217827   2.899205
    19  H    1.096053   2.192041   3.416102   5.292087   4.183906
    20  H    2.182605   1.094012   2.177882   4.207170   3.896012
    21  H    2.767886   2.209446   1.094661   2.703231   2.449896
    22  H    3.524912   2.182585   1.097572   2.439640   3.059091
                   11         12         13         14         15
    11  H    0.000000
    12  H    1.752081   0.000000
    13  H    2.867508   2.303408   0.000000
    14  H    2.399056   3.482822   2.712419   0.000000
    15  H    3.666532   4.168586   2.378785   1.760274   0.000000
    16  H    2.904308   4.187712   3.897724   2.448754   3.058958
    17  H    4.221380   5.293600   4.206326   2.703770   2.438890
    18  H    4.332962   4.844270   4.239733   4.218813   3.891305
    19  H    4.846215   5.184885   3.774933   3.971300   2.939630
    20  H    4.240126   3.773797   2.377683   4.117704   3.206478
    21  H    4.220204   3.969343   4.117510   5.172494   5.048429
    22  H    3.889181   2.934792   3.204667   5.046270   4.897235
                   16         17         18         19         20
    16  H    0.000000
    17  H    1.757978   0.000000
    18  H    2.410462   2.753914   0.000000
    19  H    3.043432   2.400691   1.752001   0.000000
    20  H    3.968725   4.039003   2.867866   2.303208   0.000000
    21  H    3.905117   4.812753   2.399791   3.482045   2.711943
    22  H    4.619734   5.486618   3.666663   4.168315   2.379013
                   21         22
    21  H    0.000000
    22  H    1.760421   0.000000
 Stoichiometry    C8H14
 Framework group  C1[X(C8H14)]
 Deg. of freedom    60
 Full point group                 C1      NOp   1
 Largest Abelian subgroup         C1      NOp   1
 Largest concise Abelian subgroup C1      NOp   1
                         Standard orientation:                         
 ---------------------------------------------------------------------
 Center     Atomic      Atomic             Coordinates (Angstroms)
 Number     Number       Type             X           Y           Z
 ---------------------------------------------------------------------
      1          6           0        1.748618    0.116201   -0.779841
      2          6           0        1.063830    1.335316   -0.122450
      3          6           0       -0.089201    0.777144    0.768708
      4          6           0       -1.511160    1.028986    0.218804
      5          6           0       -1.749767   -0.116828   -0.778753
      6          6           0       -1.063207   -1.335492   -0.122254
      7          6           0        0.089469   -0.776816    0.768945
      8          6           0        1.511477   -1.028507    0.219189
      9          1           0        2.810636    0.287523   -0.981721
     10          1           0        1.278793   -0.119084   -1.742642
     11          1           0        0.699564    2.051141   -0.865859
     12          1           0        1.786732    1.878256    0.497213
     13          1           0        0.000739    1.189079    1.778209
     14          1           0       -1.615115    2.019248   -0.236004
     15          1           0       -2.247318    0.973465    1.030968
     16          1           0       -1.282480    0.117934   -1.742906
     17          1           0       -2.812188   -0.288746   -0.977994
     18          1           0       -0.698199   -2.050178   -0.866416
     19          1           0       -1.785083   -1.880091    0.497131
     20          1           0       -0.000507   -1.188603    1.778498
     21          1           0        1.616517   -2.019470   -0.233846
     22          1           0        2.247557   -0.970502    1.031276
 ---------------------------------------------------------------------
 Rotational constants (GHZ):           3.1441817           2.0490490           1.6331118
 Standard basis: 6-31G(2df,p) (6D, 7F)
 There are   318 symmetry adapted cartesian basis functions of A   symmetry.
 There are   294 symmetry adapted basis functions of A   symmetry.
   294 basis functions,   450 primitive gaussians,   318 cartesian basis functions
    31 alpha electrons       31 beta electrons
       nuclear repulsion energy       403.0682765637 Hartrees.
 NAtoms=   22 NActive=   22 NUniq=   22 SFac= 1.00D+00 NAtFMM=   60 NAOKFM=F Big=F
 Integral buffers will be    131072 words long.
 Raffenetti 2 integral format.
 Two-electron integral symmetry is turned on.
 One-electron integrals computed using PRISM.
 PrsmSu:  requested number of processors reduced to:  13 ShMem   1 Linda.
 NBasis=   294 RedAO= T EigKep=  4.49D-04  NBF=   294
 NBsUse=   294 1.00D-06 EigRej= -1.00D+00 NBFU=   294
 Initial guess from the checkpoint file:  "C1CC2CCCC2C1.chk"
 B after Tr=    -0.000000    0.000000   -0.000000
         Rot=    0.999998    0.000053    0.000029   -0.001854 Ang=   0.21 deg.
 ExpMin= 1.61D-01 ExpMax= 3.05D+03 ExpMxC= 4.57D+02 IAcc=2 IRadAn=         4 AccDes= 0.00D+00
 Harris functional with IExCor=  402 and IRadAn=       4 diagonalized for initial guess.
 HarFok:  IExCor=  402 AccDes= 0.00D+00 IRadAn=         4 IDoV= 1 UseB2=F ITyADJ=14
 ICtDFT=  3500011 ScaDFX=  1.000000  1.000000  1.000000  1.000000
 FoFCou: FMM=F IPFlag=           0 FMFlag=      100000 FMFlg1=           0
         NFxFlg=           0 DoJE=T BraDBF=F KetDBF=T FulRan=T
         wScrn=  0.000000 ICntrl=       500 IOpCl=  0 I1Cent=   200000004 NGrid=           0
         NMat0=    1 NMatS0=      1 NMatT0=    0 NMatD0=    1 NMtDS0=    0 NMtDT0=    0
 Petite list used in FoFCou.
 Requested convergence on RMS density matrix=1.00D-08 within 128 cycles.
 Requested convergence on MAX density matrix=1.00D-06.
 Requested convergence on             energy=1.00D-06.
 No special actions if energy rises.
 Integral accuracy reduced to 1.0D-05 until final iterations.
 Initial convergence to 1.0D-05 achieved.  Increase integral accuracy.
 SCF Done:  E(RB3LYP) =  -313.311818229     A.U. after   10 cycles
            NFock= 10  Conv=0.39D-08     -V/T= 2.0092
 PrsmSu:  requested number of processors reduced to:  13 ShMem   1 Linda.
 Calling FoFJK, ICntrl=      2127 FMM=F ISym2X=0 I1Cent= 0 IOpClX= 0 NMat=1 NMatS=1 NMatT=0.
 ***** Axes restored to original set *****
 -------------------------------------------------------------------
 Center     Atomic                   Forces (Hartrees/Bohr)
 Number     Number              X              Y              Z
 -------------------------------------------------------------------
      1        6           0.000160662    0.000269826   -0.000450640
      2        6          -0.000537412   -0.000290030    0.000441209
      3        6           0.001221974    0.001990481   -0.000108738
      4        6          -0.001323544   -0.000276988    0.000781323
      5        6          -0.000142318   -0.000264552   -0.000462468
      6        6           0.000547932    0.000268403    0.000440304
      7        6          -0.001232849   -0.002002122   -0.000119250
      8        6           0.001308483    0.000290793    0.000747194
      9        1           0.000268156    0.000070931    0.000293056
     10        1           0.000628157    0.000097232   -0.000510418
     11        1           0.000357487    0.000189208    0.000078072
     12        1           0.000422674   -0.000776097   -0.000324446
     13        1          -0.000240089   -0.000048157    0.000403116
     14        1           0.000152089    0.000285817   -0.000266935
     15        1          -0.000916215   -0.000656095   -0.000314235
     16        1          -0.000647782   -0.000095121   -0.000524116
     17        1          -0.000267229   -0.000065821    0.000303898
     18        1          -0.000353657   -0.000187780    0.000073516
     19        1          -0.000412764    0.000788073   -0.000319104
     20        1           0.000242541    0.000060443    0.000395287
     21        1          -0.000136325   -0.000271871   -0.000259026
     22        1           0.000900028    0.000623429   -0.000297597
 -------------------------------------------------------------------
 Cartesian Forces:  Max     0.002002122 RMS     0.000612864

 GradGradGradGradGradGradGradGradGradGradGradGradGradGradGradGradGradGrad
 Berny optimization.
 Using GEDIIS/GDIIS optimizer.
 FormGI is forming the generalized inverse of G from B-inverse, IUseBI=4.
 Internal  Forces:  Max     0.002140726 RMS     0.000381353
 Search for a local minimum.
 Step number   2 out of a maximum of  132
 All quantities printed in internal units (Hartrees-Bohrs-Radians)
 Mixed Optimization -- En-DIIS/RFO-DIIS
 Update second derivatives using D2CorX and points    1    2
 DE= -3.13D-03 DEPred=-3.50D-03 R= 8.96D-01
 TightC=F SS=  1.41D+00  RLast= 2.54D-01 DXNew= 5.0454D-01 7.6313D-01
 Trust test= 8.96D-01 RLast= 2.54D-01 DXMaxT set to 5.05D-01
 ITU=  1  0
 Use linear search instead of GDIIS.
     Eigenvalues ---    0.00370   0.00588   0.00604   0.01460   0.02221
     Eigenvalues ---    0.02489   0.02819   0.03674   0.04218   0.04250
     Eigenvalues ---    0.04363   0.04633   0.04765   0.05024   0.05069
     Eigenvalues ---    0.05345   0.05424   0.05570   0.05835   0.05937
     Eigenvalues ---    0.06112   0.06218   0.07045   0.07072   0.07084
     Eigenvalues ---    0.07138   0.07168   0.07417   0.07437   0.08403
     Eigenvalues ---    0.09045   0.09824   0.10994   0.11516   0.16156
     Eigenvalues ---    0.18286   0.20863   0.24541   0.26788   0.26847
     Eigenvalues ---    0.27383   0.28654   0.29392   0.29462   0.29684
     Eigenvalues ---    0.32340   0.33974   0.33979   0.33980   0.34044
     Eigenvalues ---    0.34081   0.34108   0.34154   0.34196   0.34345
     Eigenvalues ---    0.34361   0.34368   0.34374   0.34414   0.34483
 RFO step:  Lambda=-3.89696890D-04 EMin= 3.70329493D-03
 Quartic linear search produced a step of -0.02900.
 Iteration  1 RMS(Cart)=  0.02180127 RMS(Int)=  0.00023627
 Iteration  2 RMS(Cart)=  0.00029663 RMS(Int)=  0.00003266
 Iteration  3 RMS(Cart)=  0.00000003 RMS(Int)=  0.00003266
 Variable       Old X    -DE/DX   Delta X   Delta X   Delta X     New X
                                 (Linear)    (Quad)   (Total)
    R1        2.91982  -0.00083  -0.00126  -0.00126  -0.00253   2.91729
    R2        2.90591  -0.00010  -0.00108   0.00077  -0.00032   2.90559
    R3        2.06836  -0.00020  -0.00006  -0.00044  -0.00050   2.06786
    R4        2.07275  -0.00020  -0.00002  -0.00053  -0.00055   2.07220
    R5        2.94894  -0.00122  -0.00138  -0.00075  -0.00213   2.94681
    R6        2.06815   0.00030  -0.00002   0.00087   0.00085   2.06900
    R7        2.07126  -0.00048   0.00007  -0.00150  -0.00143   2.06983
    R8        2.92009  -0.00214  -0.00108  -0.00524  -0.00632   2.91378
    R9        2.95591   0.00059  -0.00140   0.00721   0.00582   2.96173
   R10        2.06739  -0.00037   0.00010  -0.00123  -0.00113   2.06626
   R11        2.90609  -0.00012  -0.00109   0.00070  -0.00040   2.90569
   R12        2.06860   0.00016  -0.00004   0.00053   0.00049   2.06909
   R13        2.07408  -0.00035  -0.00001  -0.00097  -0.00099   2.07309
   R14        2.91992  -0.00083  -0.00126  -0.00127  -0.00253   2.91739
   R15        2.07273  -0.00020  -0.00002  -0.00054  -0.00056   2.07217
   R16        2.06836  -0.00019  -0.00006  -0.00044  -0.00050   2.06786
   R17        2.94883  -0.00120  -0.00138  -0.00067  -0.00204   2.94679
   R18        2.06818   0.00029  -0.00002   0.00085   0.00084   2.06901
   R19        2.07124  -0.00048   0.00007  -0.00150  -0.00143   2.06981
   R20        2.92003  -0.00213  -0.00108  -0.00521  -0.00628   2.91376
   R21        2.06738  -0.00037   0.00010  -0.00122  -0.00112   2.06626
   R22        2.06861   0.00015  -0.00004   0.00051   0.00047   2.06908
   R23        2.07411  -0.00035  -0.00001  -0.00097  -0.00098   2.07313
    A1        1.81583   0.00028   0.00036  -0.00476  -0.00453   1.81130
    A2        1.96601  -0.00030  -0.00037   0.00097   0.00064   1.96666
    A3        1.93145  -0.00009  -0.00029  -0.00133  -0.00158   1.92986
    A4        1.96707   0.00012  -0.00033   0.00356   0.00328   1.97035
    A5        1.92254  -0.00021   0.00005  -0.00046  -0.00040   1.92214
    A6        1.86219   0.00018   0.00056   0.00184   0.00238   1.86457
    A7        1.86317  -0.00030  -0.00011  -0.00461  -0.00482   1.85835
    A8        1.95474   0.00015  -0.00037   0.00332   0.00297   1.95771
    A9        1.91673   0.00022  -0.00011   0.00144   0.00135   1.91808
   A10        1.95620  -0.00007   0.00056  -0.00283  -0.00222   1.95398
   A11        1.91947  -0.00018  -0.00040  -0.00143  -0.00181   1.91766
   A12        1.85413   0.00019   0.00040   0.00417   0.00454   1.85867
   A13        2.00249  -0.00046  -0.00065  -0.00388  -0.00450   1.99799
   A14        1.84526   0.00010   0.00031  -0.00132  -0.00109   1.84417
   A15        1.90872   0.00014   0.00002   0.00198   0.00200   1.91072
   A16        1.84115  -0.00006   0.00002  -0.00373  -0.00375   1.83741
   A17        1.92054   0.00033   0.00008   0.00552   0.00561   1.92615
   A18        1.94393  -0.00007   0.00024   0.00100   0.00128   1.94522
   A19        1.82574  -0.00003   0.00001  -0.00454  -0.00466   1.82108
   A20        1.96349  -0.00011   0.00023   0.00114   0.00142   1.96491
   A21        1.92371  -0.00036  -0.00018  -0.00622  -0.00637   1.91734
   A22        1.97119   0.00022  -0.00051   0.00581   0.00534   1.97653
   A23        1.91585   0.00009   0.00003   0.00062   0.00063   1.91648
   A24        1.86451   0.00017   0.00040   0.00280   0.00318   1.86769
   A25        1.81636   0.00028   0.00036  -0.00494  -0.00471   1.81165
   A26        1.92264  -0.00021   0.00004  -0.00046  -0.00041   1.92223
   A27        1.96678   0.00012  -0.00034   0.00360   0.00332   1.97010
   A28        1.93156  -0.00009  -0.00030  -0.00134  -0.00160   1.92996
   A29        1.96574  -0.00030  -0.00036   0.00105   0.00073   1.96647
   A30        1.86203   0.00019   0.00056   0.00192   0.00246   1.86449
   A31        1.86346  -0.00030  -0.00010  -0.00470  -0.00491   1.85854
   A32        1.95447   0.00015  -0.00037   0.00331   0.00297   1.95744
   A33        1.91701   0.00021  -0.00012   0.00140   0.00130   1.91831
   A34        1.95602  -0.00007   0.00056  -0.00285  -0.00223   1.95379
   A35        1.91948  -0.00017  -0.00039  -0.00131  -0.00169   1.91779
   A36        1.85400   0.00019   0.00040   0.00421   0.00458   1.85858
   A37        1.84545   0.00009   0.00030  -0.00139  -0.00117   1.84428
   A38        1.84095  -0.00006   0.00001  -0.00366  -0.00368   1.83728
   A39        1.94409  -0.00007   0.00025   0.00088   0.00117   1.94526
   A40        2.00234  -0.00045  -0.00063  -0.00391  -0.00451   1.99783
   A41        1.90870   0.00014   0.00001   0.00202   0.00204   1.91075
   A42        1.92057   0.00033   0.00007   0.00561   0.00569   1.92627
   A43        1.82534  -0.00004   0.00001  -0.00443  -0.00453   1.82081
   A44        1.97167   0.00022  -0.00051   0.00561   0.00515   1.97681
   A45        1.91551   0.00009   0.00003   0.00078   0.00079   1.91629
   A46        1.96384  -0.00011   0.00023   0.00097   0.00125   1.96509
   A47        1.92338  -0.00035  -0.00018  -0.00601  -0.00616   1.91722
   A48        1.86471   0.00016   0.00040   0.00269   0.00307   1.86778
    D1       -0.48660   0.00003   0.00079  -0.02656  -0.02575  -0.51234
    D2       -2.63380   0.00022   0.00040  -0.02198  -0.02156  -2.65536
    D3        1.59371  -0.00024   0.00020  -0.03016  -0.02996   1.56375
    D4       -2.62239  -0.00013   0.00117  -0.02835  -0.02715  -2.64955
    D5        1.51359   0.00006   0.00078  -0.02377  -0.02297   1.49062
    D6       -0.54209  -0.00041   0.00058  -0.03195  -0.03137  -0.57346
    D7        1.57788  -0.00010   0.00090  -0.03042  -0.02951   1.54837
    D8       -0.56933   0.00009   0.00051  -0.02584  -0.02533  -0.59465
    D9       -2.62500  -0.00037   0.00031  -0.03402  -0.03373  -2.65873
   D10        0.64750   0.00018  -0.00080   0.02684   0.02605   0.67354
   D11        2.78885   0.00014  -0.00080   0.02834   0.02752   2.81638
[...]
 -0.00058533,-0.00016613,-0.00044330,0.00008245,0.00016114,-0.00063486,
 0.00059816,0.00183385,0.00351806,-0.00048274,-0.01421794,0.00801282,-0
 .01299609,0.11486905,-0.06844905,0.15862562,-0.00270319,0.00140733,0.0
 0188658,-0.00273776,-0.00726337,0.02258979,-0.04327939,0.00237562,-0.0
 0951650,-0.00363504,0.01221891,-0.02708155,-0.00506925,-0.00088394,-0.
 00192289,-0.00098277,-0.00050173,-0.00059797,0.00036803,-0.00144226,0.
 00399766,-0.00042188,-0.00003921,0.00031263,-0.00047864,-0.00081656,0.
 00049838,0.00001781,-0.00017314,0.00020482,-0.00098001,0.00035249,0.00
 118877,0.00113411,-0.00049221,0.00046639,0.05754288,0.00080603,-0.0019
 0637,-0.00119584,0.00222189,0.00547964,-0.01296918,0.00234079,-0.08311
 022,0.09119692,-0.00076609,0.00398939,-0.00715193,-0.00137816,-0.00147
 955,-0.00049329,-0.00084382,-0.00342905,0.00082433,0.00235628,-0.01042
 455,0.02665939,0.00014129,-0.00184600,0.00044083,0.00012582,0.00047986
 ,-0.00003410,0.00005905,0.00011457,-0.00007182,0.00038368,-0.00058448,
 -0.00067797,-0.00066696,0.00118497,-0.00000902,-0.00623150,0.09017756,
 0.00185436,-0.00172382,-0.00046197,-0.00006460,0.00625693,-0.01454453,
 -0.00988994,0.09238842,-0.27182777,0.00019286,0.00537430,-0.01086895,-
 0.00249657,-0.00086923,0.00036800,-0.00016259,-0.00103496,0.00034088,-
 0.00014027,-0.00334645,0.00266750,-0.00007150,-0.00053901,-0.00022367,
 0.00031069,0.00069260,-0.00036380,-0.00012823,-0.00010371,0.00007249,0
 .00111595,-0.00030676,-0.00085525,0.00005618,-0.00014527,0.00204459,0.
 00949094,-0.09759130,0.29073646,0.00000300,-0.00003002,0.00009617,0.00
 188788,-0.00150285,-0.00105896,-0.00262590,-0.02524331,-0.01080976,-0.
 04761076,-0.01575785,-0.00756933,-0.00015343,0.00465984,0.00346459,-0.
 00093916,0.00037517,-0.00191288,-0.00409136,-0.00089574,-0.00187775,0.
 00029605,-0.00121249,-0.00009219,-0.00000066,0.00004235,0.00003430,-0.
 00002222,0.00002722,0.00006681,-0.00036695,0.00073089,0.00077329,0.000
 30716,0.00011457,0.00005667,-0.00033363,0.00024895,-0.00045349,0.05182
 175,0.00003674,-0.00000989,0.00019564,0.00082548,0.00032645,-0.0002978
 6,0.00068205,-0.00203070,-0.00059493,-0.01783774,-0.25381983,-0.101760
 96,-0.00236562,-0.01746167,-0.01175448,-0.00041645,-0.00272438,0.00334
 322,0.00046885,-0.00044346,0.00046008,0.00016573,0.00000389,-0.0003746
 9,-0.00000697,0.00009951,0.00000780,0.00001221,-0.00005646,-0.00001682
 ,-0.00048589,0.00065394,0.00067748,0.00008890,0.00027065,0.00029017,-0
 .00049530,-0.00024923,-0.00022829,0.01993842,0.27675667,0.00004442,0.0
 0017527,0.00013323,0.00145521,0.00021011,0.00033153,-0.00027925,-0.011
 26592,-0.00526175,-0.00889318,-0.10396237,-0.09804190,0.00264235,0.019
 90989,0.01073278,-0.00052323,0.00359946,-0.00269001,-0.00212389,0.0012
 6352,-0.00091404,0.00043058,-0.00057238,-0.00012716,-0.00002434,0.0000
 0400,0.00002475,0.00000232,0.00002191,0.00002159,-0.00001741,0.0003867
 0,0.00070436,0.00013474,0.00013418,-0.00003862,-0.00040136,0.00003418,
 -0.00039885,0.00914362,0.11145558,0.10364163,-0.00042872,0.00041421,-0
 .00003067,-0.00323326,-0.00196725,-0.00374659,-0.02208320,0.00348296,0
 .02093414,-0.16530653,0.00822031,0.12648912,0.00394297,0.00051483,-0.0
 0511823,-0.00008342,-0.00015145,0.00003496,0.00003574,0.00036793,-0.00
 038255,-0.00002851,0.00013373,0.00022807,-0.00012285,-0.00031364,0.000
 22204,0.00000327,-0.00009778,0.00009711,0.00030984,-0.00015960,-0.0002
 5237,-0.00131223,0.00028035,0.00063144,0.00148426,0.00071338,-0.000062
 22,0.00172566,0.00009750,-0.00173629,0.18279483,0.00016754,-0.00009077
 ,0.00028611,0.00060929,0.00007935,-0.00077031,-0.00267195,-0.00011766,
 0.00282540,0.00860980,-0.05087039,-0.01235422,-0.01713688,0.00080489,0
 .01991077,0.00009970,0.00112974,0.00023692,0.00029594,0.00004602,-0.00
 032165,0.00006342,0.00013609,0.00003862,-0.00003300,0.00006141,-0.0000
 7680,0.00003532,-0.00000966,-0.00010216,-0.00013969,0.00040341,0.00044
 995,0.00011795,0.00024349,0.00021364,0.00038732,0.00039298,-0.00007964
 ,0.02019690,-0.00134877,-0.02121888,-0.01109099,0.05164319,-0.00044547
 ,0.00020238,0.00006304,-0.00214193,-0.00135927,-0.00060721,-0.01191714
 ,0.00128813,0.00905607,0.12706898,-0.01265644,-0.17769084,0.01451587,-
 0.00052364,-0.01937639,-0.00003792,-0.00073885,0.00029826,0.00017540,0
 .00037116,-0.00008049,0.00006852,0.00021282,0.00003083,-0.00001228,-0.
 00013552,0.00018749,-0.00004491,-0.00008682,0.00017840,-0.00002967,0.0
 0027698,0.00006161,-0.00032274,0.00027777,0.00019909,0.00021339,0.0003
 4699,0.00176172,0.00992524,-0.00089547,-0.01067315,-0.13570957,0.00905
 133,0.19659877,-0.00120495,0.00012059,-0.00037720,0.00014659,0.0001445
 1,0.00008422,0.00032459,-0.00008678,0.00012399,0.00128096,-0.00140079,
 -0.00262866,-0.11425034,0.02323851,0.10706348,0.00663248,-0.00241900,-
 0.01114815,0.00021010,0.00000750,0.00026524,0.00007938,-0.00015368,-0.
 00000513,-0.00013367,0.00000654,-0.00003669,-0.00102649,-0.00000330,-0
 .00002503,-0.00000151,0.00004353,0.00003132,-0.00001397,-0.00005398,0.
 00006675,0.00008807,-0.00004341,0.00013672,0.00035270,-0.00041525,0.00
 016024,0.00115982,0.00007623,-0.00076610,0.12113877,0.00016485,-0.0000
 6347,-0.00050892,0.00042498,0.00039778,0.00028511,-0.00035956,0.000439
 16,-0.00064553,-0.01527319,0.00304424,0.02412056,0.02307767,-0.0520385
 4,-0.03719195,0.01443666,-0.00788190,-0.02316324,0.00020940,-0.0001103
 5,0.00018821,-0.00015050,0.00019208,-0.00033141,0.00008858,-0.00002565
 ,0.00015333,-0.00000376,0.00030477,0.00032862,-0.00000820,-0.00021463,
 -0.00000467,-0.00002240,-0.00011301,-0.00007824,-0.00000953,-0.0000098
 7,-0.00024561,-0.00058414,0.00145530,-0.00101538,0.00139350,-0.0036798
 9,0.00456835,-0.02340732,0.06153498,0.00021533,0.00008026,-0.00108868,
 -0.00031535,0.00014992,-0.00047929,0.00038376,-0.00029304,0.00025717,0
 .01126876,-0.00282232,-0.01736921,0.10608880,-0.03731700,-0.23023923,0
 .00811023,-0.00286363,-0.01158629,-0.00000625,0.00003400,0.00001659,-0
 .00006854,-0.00020215,-0.00031691,0.00032859,-0.00005887,0.00054763,0.
 00002284,-0.00033379,0.00121747,-0.00011853,0.00028740,-0.00001394,-0.
 00004477,0.00000676,0.00023314,-0.00020779,0.00010163,0.00021282,-0.00
 021337,0.00006166,0.00138438,-0.00127721,0.00319073,-0.00168988,-0.118
 39306,0.04033771,0.25149386,0.00004040,-0.00006248,0.00048062,0.000235
 05,-0.00009846,0.00011560,0.00090680,-0.00037108,-0.00033701,-0.000725
 02,-0.00071012,0.00097007,-0.28962228,0.03782546,-0.05651926,-0.009011
 65,0.00297786,-0.00121497,0.00073889,-0.00129447,-0.00058820,-0.000023
 29,0.00004423,-0.00013272,-0.00012399,0.00004523,-0.00013573,-0.000133
 35,0.00009060,-0.00032874,0.00001495,-0.00000308,0.00004061,-0.0000199
 6,0.00004732,-0.00004235,-0.00021304,0.00007660,-0.00005354,-0.0001584
 9,0.00042871,-0.00033770,0.00107679,0.00003697,-0.00046076,-0.01596821
 ,0.00261931,-0.00329750,0.31242166,-0.00000246,-0.00012132,-0.00001793
 ,-0.00020554,0.00014688,0.00005329,-0.00080433,-0.00423652,0.00328838,
 0.02527259,-0.00223173,0.00474753,0.03803383,-0.05217329,0.00882590,-0
 .02519781,0.00513183,-0.00662278,-0.00108350,-0.00441882,-0.00167941,-
 0.00024979,0.00020223,-0.00046617,0.00004443,0.00014088,0.00003505,0.0
 0000626,-0.00002508,0.00005562,-0.00005262,0.00011900,-0.00012031,0.00
 006675,-0.00002412,-0.00005637,0.00139182,0.00049462,0.00071178,-0.000
 03433,-0.00038441,-0.00025092,-0.00079056,0.00148679,-0.00075951,0.005
 35957,-0.00092813,0.00116328,-0.04120468,0.05513209,0.00003090,0.00006
 114,-0.00060467,-0.00011469,0.00010614,-0.00030849,-0.00083807,0.00190
 503,-0.00274622,-0.01854812,0.00134127,-0.00467384,-0.05326948,0.00814
 810,-0.05956720,-0.01289698,0.00298752,-0.00396282,-0.00160726,-0.0008
 2626,-0.00148624,-0.00021061,-0.00003675,-0.00051379,0.00013560,-0.000
 03572,0.00026781,0.00003603,-0.00015648,0.00054677,-0.00008363,0.00011
 923,0.00003710,-0.00013481,0.00000493,0.00017709,-0.00100044,-0.000005
 23,-0.00046540,0.00014020,0.00033726,0.00004699,-0.00009624,-0.0008170
 9,0.00085971,0.02683828,-0.00428746,0.00626294,0.06255833,-0.00920479,
 0.06573565,0.00003651,0.00010356,0.00006606,0.00035112,0.00040031,-0.0
 0012444,-0.00243314,0.00152435,-0.00226967,-0.00142159,-0.00123284,-0.
 00244623,-0.00347354,-0.00798795,0.00905926,-0.07037631,-0.05823288,0.
 05026440,0.00606793,0.01735914,-0.01436686,0.00166306,0.00111273,-0.00
 066910,0.00001489,-0.00005318,0.00008330,-0.00000164,-0.00000888,0.000
 11849,-0.00021217,0.00006940,0.00014142,0.00000037,-0.00002503,0.00000
 813,0.00011183,0.00093013,0.00014758,0.00055951,-0.00051971,0.00051736
 ,0.00004883,0.00033656,-0.00025940,0.00101780,0.00079566,-0.00037105,-
 0.00036910,-0.00017792,-0.00009765,0.07645226,0.00010354,-0.00010693,0
 .00015264,-0.00030808,-0.00014622,0.00032849,-0.00002462,-0.00112585,0
 .00057637,-0.00075096,-0.00369720,-0.00243390,-0.00577501,-0.01543636,
 0.01514554,-0.05635132,-0.18083361,0.11575320,-0.00327312,-0.00693177,
 0.00526944,-0.00139699,0.00048973,-0.00001838,-0.00000271,0.00011898,-
 0.00011874,0.00004403,-0.00021298,-0.00028844,0.00007023,0.00006556,-0
 .00004615,0.00016338,0.00002451,-0.00011783,0.00015176,-0.00055707,0.0
 0004510,0.00012115,-0.00111675,0.00100201,-0.00014497,0.00010514,0.000
 13629,0.00077412,0.00137646,0.00014684,-0.00052681,-0.00055381,-0.0003
 3872,0.06223124,0.19834912,-0.00036894,-0.00015047,0.00032294,0.000278
 73,0.00012925,-0.00024864,-0.00127588,-0.00034985,-0.00154298,-0.00181
 109,-0.00281651,-0.00168952,-0.00503982,-0.01410895,0.01164849,0.04989
 885,0.11797215,-0.14707280,0.00427839,0.01053509,-0.00942217,0.0020671
 8,0.00032182,0.00088703,-0.00004064,0.00012070,0.00003714,-0.00003103,
 0.00000348,-0.00001551,-0.00014132,0.00004604,0.00009784,-0.00003966,0
 .00002741,0.00004555,0.00006522,0.00061148,0.00014901,0.00024716,-0.00
 077988,0.00075111,-0.00015002,-0.00019544,0.00016547,0.00028270,0.0008
 6309,0.00140004,-0.00028247,0.00021369,-0.00005509,-0.05286078,-0.1269
 6303,0.15757474,0.00014946,-0.00023504,-0.00019440,0.00006716,-0.00010
 165,0.00014640,-0.00105054,-0.00024638,-0.00079173,-0.00009137,0.00033
 409,-0.00015201,0.00923020,-0.00673750,-0.01043877,-0.16578677,0.06759
 803,0.11127239,-0.01818447,0.00824046,0.01376852,-0.00190924,0.0021607
 4,-0.00349022,-0.00002013,0.00006596,0.00013503,-0.00001394,-0.0000227
 0,0.00004444,0.00000036,0.00016304,0.00004055,0.00003206,0.00000195,-0
 .00001923,0.00001855,0.00041208,-0.00004153,0.00001163,0.00016745,-0.0
 0003596,0.00014618,0.00017223,0.00008538,0.00016877,-0.00315028,-0.001
 73451,0.00153499,0.00071139,-0.00007998,-0.00700233,0.00396123,0.00662
 848,0.18256941,-0.00008908,0.00001686,-0.00006654,-0.00010998,0.000129
 70,-0.00013702,0.00007184,-0.00035728,0.00082867,0.00046045,0.00084060
 ,-0.00048539,0.01694287,-0.00999909,-0.01804908,0.06736431,-0.08685454
 ,-0.05909380,0.00767774,-0.00347117,-0.00670458,-0.00022610,-0.0007399
 7,0.00135527,0.00004709,-0.00002442,-0.00000601,-0.00005358,-0.0001134
 0,-0.00000877,-0.00002496,0.00002401,-0.00002756,0.00000180,0.00002251
 ,0.00003872,0.00010672,-0.00028996,0.00009118,-0.00040949,0.00008731,0
 .00031862,-0.00034397,-0.00040631,0.00052899,-0.00189299,-0.00372570,-
 0.00185902,-0.00000844,0.00159950,0.00059017,-0.01638910,0.00971154,0.
 01496645,-0.07303472,0.09184632,-0.00026929,0.00003207,-0.00010156,0.0
 0006565,-0.00007434,0.00010911,-0.00072690,-0.00016079,-0.00058284,0.0
 0016862,0.00044831,0.00008242,0.01042285,-0.00723285,-0.01353969,0.111
 57725,-0.05916765,-0.14314337,-0.01567785,0.00740630,0.00880142,-0.001
 23005,0.00191009,-0.00137870,0.00004242,0.00005531,0.00017755,-0.00006
 731,0.00007623,0.00023350,-0.00000829,0.00011787,0.00004608,0.00001925
 ,-0.00003865,0.00001391,0.00007658,0.00019238,0.00003791,-0.00018545,-
 0.00008719,0.00016819,0.00009406,-0.00019201,0.00053558,-0.00184413,-0
 .00353975,-0.00051696,-0.00016029,0.00064133,0.00060484,0.01413001,-0.
 00787789,-0.01293622,-0.11527005,0.06798937,0.15918913,-0.00507312,-0.
 00089566,0.00191257,-0.00098356,-0.00050606,0.00059382,0.00037162,-0.0
 0142265,-0.00400779,-0.00042158,-0.00003793,-0.00031311,-0.00269992,0.
 00141658,-0.00188082,-0.00271674,-0.00712915,-0.02261974,-0.04329756,0
 .00240766,0.00974622,-0.00366114,0.01206929,0.02715756,-0.00021411,0.0
 0138668,0.00100851,0.00008798,-0.00001088,0.00020765,0.00011203,0.0001
 5217,-0.00006437,0.00001859,0.00010725,-0.00007599,0.00041955,0.000325
 00,0.00012284,-0.00017302,-0.00019094,0.00007073,-0.00017750,-0.000178
 15,0.00006738,0.00001793,-0.00017203,-0.00020584,-0.00047788,-0.000813
 17,-0.00050319,-0.00097764,0.00035895,-0.00118670,0.00113462,-0.000489
 64,-0.00047013,0.05756172,-0.00139275,-0.00148735,0.00048136,-0.000843
 87,-0.00343007,-0.00084654,0.00238068,-0.01029131,-0.02673096,0.000141
 31,-0.00184653,-0.00044993,0.00081567,-0.00192299,0.00118830,0.0022088
 7,0.00544113,0.01308514,0.00236955,-0.08207117,-0.09011381,-0.00077209
 ,0.00397887,0.00723565,0.00007630,0.00049858,0.00001078,-0.00004251,-0
 .00001065,-0.00010295,0.00093146,-0.00055331,-0.00061460,0.00041204,-0
 .00028838,-0.00019390,0.00032526,0.00176600,0.00046216,-0.00079076,-0.
 00018060,-0.00018215,-0.00041921,-0.00001011,-0.00007264,0.00005824,0.
 00011352,0.00007211,0.00012757,0.00048365,0.00003906,0.00038924,-0.000
 59006,0.00067967,-0.00066666,0.00118409,0.00000342,-0.00626806,0.08907
 244,0.00248337,0.00085784,0.00037996,0.00015657,0.00101300,0.00034270,
 0.00015165,0.00327132,0.00253074,0.00007216,0.00052974,-0.00022341,-0.
 00185217,0.00171698,-0.00044894,0.00008837,-0.00615008,-0.01452702,0.0
 1011933,-0.09130541,-0.27284795,-0.00019025,-0.00527837,-0.01083302,0.
 00005425,-0.00070494,-0.00046840,-0.00013708,0.00024430,0.00021364,-0.
 00014231,-0.00004896,0.00014505,0.00004385,-0.00009294,0.00003625,-0.0
 0012196,-0.00046004,0.00144679,-0.00001695,-0.00012211,0.00006005,-0.0
 0012679,-0.00007187,0.00010941,0.00012856,0.00010384,0.00007347,-0.000
 31007,-0.00068864,-0.00036831,-0.00111370,0.00030859,-0.00085176,-0.00
 006085,0.00013988,0.00204495,-0.00974699,0.09643697,0.29182262,-0.0001
 4735,0.00469900,-0.00344857,-0.00094157,0.00036757,0.00191671,-0.00409
 513,-0.00090520,0.00186963,0.00029636,-0.00121354,0.00008569,0.0000031
 0,-0.00002929,-0.00009647,0.00188834,-0.00150869,0.00105173,-0.0026360
 4,-0.02531504,0.01066926,-0.04762573,-0.01589473,0.00752508,-0.0001587
 2,-0.00003374,-0.00014053,0.00035275,-0.00058636,0.00020903,0.00056016
 ,0.00012352,-0.00024667,0.00001139,-0.00041021,0.00018287,-0.00017296,
 -0.00079101,0.00001223,-0.00048310,-0.00001792,-0.00024748,-0.00000664
 ,0.00002480,0.00000483,-0.00002214,0.00002761,-0.00006670,-0.00000066,
 0.00004254,-0.00003409,-0.00036624,0.00073572,-0.00077005,0.00030739,0
 .00011503,-0.00005567,-0.00033458,0.00024635,0.00045503,0.05183840,-0.
 00236143,-0.01741493,0.01159234,-0.00041606,-0.00268469,-0.00334338,0.
 00045711,-0.00043374,-0.00045695,0.00016783,-0.00000153,0.00037557,0.0
 0003715,-0.00000777,-0.00019639,0.00083351,0.00032592,0.00029852,0.000
 67980,-0.00209856,0.00061378,-0.01798008,-0.25497942,0.10085453,0.0004
 2709,-0.00038406,-0.00033935,-0.00041431,0.00144998,-0.00006167,-0.000
 51747,-0.00111542,0.00076866,0.00016712,0.00008849,0.00008695,-0.00019
 065,-0.00018233,0.00012056,-0.00001931,0.00016212,-0.00003580,-0.00016
 009,0.00001051,-0.00004800,0.00001220,-0.00005644,0.00001639,-0.000007
 11,0.00009957,-0.00000738,-0.00048538,0.00066001,-0.00067814,0.0000899
 6,0.00027309,-0.00028831,-0.00049777,-0.00025038,0.00022864,0.02009103
 ,0.27801347,-0.00266579,-0.02006536,0.01067939,0.00052275,-0.00359898,
 -0.00272691,0.00212340,-0.00126166,-0.00092008,-0.00042922,0.00057192,
 -0.00012211,-0.00004428,-0.00017613,0.00013100,-0.00144904,-0.00021150
 ,0.00033176,0.00028555,0.01125954,-0.00518389,0.00883707,0.10305814,-0
 .09686560,0.00033996,0.00024830,0.00004658,-0.00016361,0.00101507,0.00
 138996,-0.00052048,-0.00101242,0.00074891,0.00003667,-0.00031950,0.000
 16709,-0.00007203,0.00018001,0.00006172,0.00024675,0.00003581,0.000155
 94,-0.00001941,0.00001177,-0.00001128,-0.00000229,-0.00002234,0.000021
 49,0.00002429,-0.00000352,0.00002468,0.00001374,-0.00038628,0.00069759
 ,-0.00013394,-0.00013231,-0.00004121,0.00039867,-0.00003308,-0.0003969
 5,-0.00907681,-0.11044809,0.10236732,0.00395234,0.00048539,0.00514431,
 -0.00008343,-0.00015201,-0.00003615,0.00003550,0.00036603,0.00038475,-
 0.00002825,0.00013519,-0.00022735,-0.00042907,0.00041418,0.00003261,-0
 .00323878,-0.00198990,0.00373292,-0.02207469,0.00360250,-0.02094365,-0
 .16506454,0.00892094,-0.12643001,0.00107641,-0.00079180,0.00009204,0.0
 0115779,0.00139072,0.00128807,0.00004840,-0.00014568,0.00014903,0.0001
 4630,-0.00034286,-0.00009642,-0.00017755,-0.00042000,0.00012412,-0.000
 00667,-0.00016024,0.00001851,0.00005468,0.00002069,0.00002291,0.000003
 33,-0.00009730,-0.00009782,-0.00012262,-0.00031246,-0.00022412,0.00030
 958,-0.00016074,0.00025167,-0.00131198,0.00028421,-0.00063128,0.001484
 33,0.00071336,0.00006598,0.00173297,0.00008684,0.00174809,0.18253593,-
 0.01703496,0.00091416,-0.01981223,0.00009989,0.00112664,-0.00023179,0.
 00029666,0.00004624,0.00032273,0.00006383,0.00013752,-0.00003794,0.000
 16526,-0.00008799,-0.00028680,0.00059640,0.00006713,0.00077469,-0.0027
 3715,-0.00009396,-0.00288041,0.00931377,-0.05101548,0.01307721,0.00003
 348,0.00147791,0.00082060,0.00007506,-0.00363569,-0.00320163,0.0003348
 6,0.00010474,0.00019542,0.00017242,-0.00040440,0.00018679,-0.00017784,
 -0.00001094,0.00007102,0.00002483,0.00001030,-0.00001162,0.00002080,-0
 .00000945,0.00001499,0.00003496,-0.00001073,0.00010111,-0.00003315,0.0
 0006020,0.00007603,-0.00013947,0.00040754,-0.00044805,0.00011633,0.000
 24631,-0.00021325,0.00038850,0.00039461,0.00007225,0.02023259,-0.00147
 390,0.02129061,-0.01184705,0.05174924,-0.01458956,0.00063906,-0.019494
 47,0.00003806,0.00074307,0.00030103,-0.00017356,-0.00037008,-0.0000806
 1,-0.00006823,-0.00021208,0.00002914,0.00044596,-0.00020283,0.00006072
 ,0.00214272,0.00136122,-0.00058943,0.01187227,-0.00133630,0.00902365,-
 0.12700754,0.01337927,-0.17778896,0.00046113,0.00076223,0.00086928,0.0
 0076929,-0.00457801,-0.00173191,0.00026109,-0.00013680,0.00016619,-0.0
 0008482,-0.00053461,0.00053331,-0.00006867,0.00007156,0.00011029,-0.00
 000468,0.00004797,-0.00001105,-0.00002278,-0.00001516,0.00002377,0.000
 04494,0.00008566,0.00017940,0.00001179,0.00013450,0.00018849,0.0000291
 3,-0.00027516,0.00005772,0.00032199,-0.00027723,0.00019598,-0.00021128
 ,-0.00035405,0.00176013,-0.00979904,0.00094751,-0.01055541,0.13563179,
 -0.00987973,0.19675274\\0.00000087,0.00000081,0.00000101,-0.00000189,0
 .00000203,0.00000301,-0.00000153,-0.00000867,-0.00000318,0.00000222,0.
 00000281,0.00000117,0.00000034,-0.00000196,-0.00000024,0.00000054,-0.0
 0000117,0.00000416,0.00000239,0.00000809,-0.00000262,-0.00000273,-0.00
 000170,0.00000034,-0.00000013,0.00000012,-0.00000050,-0.00000032,0.000
 00008,0.00000041,-0.00000065,-0.00000086,-0.00000015,-0.00000103,-0.00
 000087,0.00000008,-0.00000019,0.00000125,0.00000032,-0.00000100,-0.000
 00092,-0.00000080,-0.00000021,-0.00000024,-0.00000117,-0.00000037,0.00
 000022,0.00000017,-0.00000013,-0.00000012,0.00000025,0.00000115,0.0000
 0038,-0.00000058,0.00000139,0.00000152,-0.00000050,-0.00000022,-0.0000
 0138,0.00000026,0.00000124,0.00000090,-0.00000040,0.00000025,-0.000000
 32,-0.00000103\\\@


 OUR LITTLE SYSTEMS HAVE THEIR DAY,    
   THEY HAVE THEIR DAY AND CEASE TO BE.
   THEY ARE BUT BROKEN LIGHTS OF THEE, 
 AND THOU, OH LORD, ART MORE THAN THEY.
          -------------------          
 LET KNOWLEDGE GROW FROM MORE TO MORE, 
   BUT MORE OF REVERENCE IN US DWELL.  
   THAT MIND AND SOUL, ACCORDING WELL, 
 MAY MAKE ONE MUSIC AS BEFORE.....     
          -------------------          
                    LORD TENNYSON      
 Job cpu time:       0 days  2 hours  5 minutes  6.8 seconds.
 Elapsed time:       0 days  0 hours 31 minutes 17.2 seconds.
 File lengths (MBytes):  RWF=    141 Int=      0 D2E=      0 Chk=      8 Scr=      1
 Normal termination of Gaussian 16 at Sun May 28 17:49:47 2023.
### All Done ###
