### Starting Gaussian ###
 Entering Gaussian System, Link 0=g16
 Initial command:
 /cluster/software/gaussian/gaussian-16-A.03/avx2/g16/l1.exe "/local/scratch/linjian/Gau-29379.inp" -scrdir="/local/scratch/linjian/"
 Entering Link 1 = /cluster/software/gaussian/gaussian-16-A.03/avx2/g16/l1.exe PID=     29380.
  
 Copyright (c) 1988,1990,1992,1993,1995,1998,2003,2009,2016,
            Gaussian, Inc.  All Rights Reserved.
  
 This is part of the Gaussian(R) 16 program.  It is based on
 the Gaussian(R) 09 system (copyright 2009, Gaussian, Inc.),
 the Gaussian(R) 03 system (copyright 2003, Gaussian, Inc.),
 the Gaussian(R) 98 system (copyright 1998, Gaussian, Inc.),
 the Gaussian(R) 94 system (copyright 1995, Gaussian, Inc.),
 the Gaussian 92(TM) system (copyright 1992, Gaussian, Inc.),
 the Gaussian 90(TM) system (copyright 1990, Gaussian, Inc.),
 the Gaussian 88(TM) system (copyright 1988, Gaussian, Inc.),
 the Gaussian 86(TM) system (copyright 1986, Carnegie Mellon
 University), and the Gaussian 82(TM) system (copyright 1983,
 Carnegie Mellon University). Gaussian is a federally registered
 trademark of Gaussian, Inc.
  
 This software contains proprietary and confidential information,
 including trade secrets, belonging to Gaussian, Inc.
  
 This software is provided under written license and may be
 used, copied, transmitted, or stored only in accord with that
 written license.
  
 The following legend is applicable only to US Government
 contracts under FAR:
  
                    RESTRICTED RIGHTS LEGEND
  
 Use, reproduction and disclosure by the US Government is
 subject to restrictions as set forth in subparagraphs (a)
 and (c) of the Commercial Computer Software - Restricted
 Rights clause in FAR 52.227-19.
  
 Gaussian, Inc.
 340 Quinnipiac St., Bldg. 40, Wallingford CT 06492
  
  
 ---------------------------------------------------------------
 Warning -- This program may not be used in any manner that
 competes with the business of Gaussian, Inc. or will provide
 assistance to any competitor of Gaussian, Inc.  The licensee
 of this program is prohibited from giving any competitor of
 Gaussian, Inc. access to this program.  By using this program,
 the user acknowledges that Gaussian, Inc. is engaged in the
 business of creating and licensing software in the field of
 computational chemistry and represents and warrants to the
 licensee that it is not a competitor of Gaussian, Inc. and that
 it will not use this program in any manner prohibited above.
 ---------------------------------------------------------------
  

 Cite this work as:
 Gaussian 16, Revision A.03,
 M. J. Frisch, G. W. Trucks, H. B. Schlegel, G. E. Scuseria, 
 M. A. Robb, J. R. Cheeseman, G. Scalmani, V. Barone, 
 G. A. Petersson, H. Nakatsuji, X. Li, M. Caricato, A. V. Marenich, 
 J. Bloino, B. G. Janesko, R. Gomperts, B. Mennucci, H. P. Hratchian, 
 J. V. Ortiz, A. F. Izmaylov, J. L. Sonnenberg, D. Williams-Young, 
 F. Ding, F. Lipparini, F. Egidi, J. Goings, B. Peng, A. Petrone, 
 T. Henderson, D. Ranasinghe, V. G. Zakrzewski, J. Gao, N. Rega, 
 G. Zheng, W. Liang, M. Hada, M. Ehara, K. Toyota, R. Fukuda, 
 J. Hasegawa, M. Ishida, T. Nakajima, Y. Honda, O. Kitao, H. Nakai, 
 T. Vreven, K. Throssell, J. A. Montgomery, Jr., J. E. Peralta, 
 F. Ogliaro, M. J. Bearpark, J. J. Heyd, E. N. Brothers, K. N. Kudin, 
 V. N. Staroverov, T. A. Keith, R. Kobayashi, J. Normand, 
 K. Raghavachari, A. P. Rendell, J. C. Burant, S. S. Iyengar, 
 J. Tomasi, M. Cossi, J. M. Millam, M. Klene, C. Adamo, R. Cammi, 
 J. W. Ochterski, R. L. Martin, K. Morokuma, O. Farkas, 
 J. B. Foresman, and D. J. Fox, Gaussian, Inc., Wallingford CT, 2016.
 
 ******************************************
 Gaussian 16:  ES64L-G16RevA.03 25-Dec-2016
                28-May-2023 
 ******************************************
 %chk=C1CC2C3CCqC3rC2C1.chk
 %NProcShared=20
 Will use up to   20 processors via shared memory.
 -----------------------------
 # opt freq b3lyp/6-31g(2df,p)
 -----------------------------
 1/18=20,19=15,26=3,38=1/1,3;
 2/9=110,12=2,17=6,18=5,40=1/2;
 3/5=1,6=6,7=104,11=2,25=1,30=1,71=1,74=-5/1,2,3;
 4//1;
 5/5=2,38=5/2;
 6/7=2,8=2,9=2,10=2,28=1/1;
 7//1,2,3,16;
 1/18=20,19=15,26=3/3(2);
 2/9=110/2;
 99//99;
 2/9=110/2;
 3/5=1,6=6,7=104,11=2,25=1,30=1,71=1,74=-5/1,2,3;
 4/5=5,16=3,69=1/1;
 5/5=2,38=5/2;
 7//1,2,3,16;
 1/18=20,19=15,26=3/3(-5);
 2/9=110/2;
 6/7=2,8=2,9=2,10=2,19=2,28=1/1;
 99/9=1/99;
 -------------------
 Title Card Required
 -------------------
 Symbolic Z-matrix:
 Charge =  0 Multiplicity = 1
 C                    -1.66618   0.1106    0.83115 
 C                    -1.13343   1.39301   0.20948 
 C                    -0.0206    0.98201  -0.73251 
 C                     1.36335   1.17636  -0.10012 
 C                     1.64707   0.02883   0.93594 
 C                     1.36272  -0.84043  -0.32762 
 C                     2.24169   0.29679  -1.0343 
 C                    -0.04141  -0.54239  -0.87977 
 C                    -1.27624  -1.01109  -0.1242 
 H                    -2.75124   0.17056   0.97172 
 H                    -1.22329  -0.0569    1.81702 
 H                    -0.79026   2.09258   0.97771 
 H                    -1.92294   1.89245  -0.36354 
 H                    -0.09846   1.48164  -1.70386 
 H                     1.68625   2.18043   0.14817 
 H                     0.98783  -0.0741    1.79353 
 H                     2.68332  -0.03904   1.30337 
 H                     1.72165  -1.86485  -0.3154 
 H                     2.10712   0.48168  -2.10426 
 H                     3.31583   0.35556  -0.81445 
 H                    -0.09597  -0.88542  -1.91952 
 H                    -1.16861  -1.97345   0.38351 
 H                    -2.09793  -1.12004  -0.84788 
 

 GradGradGradGradGradGradGradGradGradGradGradGradGradGradGradGradGradGrad
 Berny optimization.
 Initialization pass.
                           ----------------------------
                           !    Initial Parameters    !
                           ! (Angstroms and Degrees)  !
 --------------------------                            --------------------------
 ! Name  Definition              Value          Derivative Info.                !
 --------------------------------------------------------------------------------
 ! R1    R(1,2)                  1.5215         estimate D2E/DX2                !
 ! R2    R(1,9)                  1.5241         estimate D2E/DX2                !
 ! R3    R(1,10)                 1.0958         estimate D2E/DX2                !
 ! R4    R(1,11)                 1.0937         estimate D2E/DX2                !
 ! R5    R(2,3)                  1.5148         estimate D2E/DX2                !
 ! R6    R(2,12)                 1.0942         estimate D2E/DX2                !
 ! R7    R(2,13)                 1.096          estimate D2E/DX2                !
 ! R8    R(3,4)                  1.534          estimate D2E/DX2                !
 ! R9    R(3,8)                  1.5316         estimate D2E/DX2                !
 ! R10   R(3,14)                 1.0951         estimate D2E/DX2                !
 ! R11   R(4,5)                  1.5719         estimate D2E/DX2                !
 ! R12   R(4,7)                  1.5549         estimate D2E/DX2                !
 ! R13   R(4,15)                 1.0835         estimate D2E/DX2                !
 ! R14   R(5,6)                  1.5598         estimate D2E/DX2                !
 ! R15   R(5,16)                 1.0866         estimate D2E/DX2                !
 ! R16   R(5,17)                 1.1016         estimate D2E/DX2                !
 ! R17   R(6,7)                  1.6016         estimate D2E/DX2                !
 ! R18   R(6,8)                  1.5379         estimate D2E/DX2                !
 ! R19   R(6,18)                 1.0855         estimate D2E/DX2                !
 ! R20   R(7,19)                 1.0941         estimate D2E/DX2                !
 ! R21   R(7,20)                 1.098          estimate D2E/DX2                !
 ! R22   R(8,9)                  1.5216         estimate D2E/DX2                !
 ! R23   R(8,21)                 1.0962         estimate D2E/DX2                !
 ! R24   R(9,22)                 1.0934         estimate D2E/DX2                !
 ! R25   R(9,23)                 1.1003         estimate D2E/DX2                !
 ! A1    A(2,1,9)              105.9393         estimate D2E/DX2                !
 ! A2    A(2,1,10)             110.6726         estimate D2E/DX2                !
 ! A3    A(2,1,11)             110.8309         estimate D2E/DX2                !
 ! A4    A(9,1,10)             111.9643         estimate D2E/DX2                !
 ! A5    A(9,1,11)             110.4085         estimate D2E/DX2                !
 ! A6    A(10,1,11)            107.0818         estimate D2E/DX2                !
 ! A7    A(1,2,3)              106.4174         estimate D2E/DX2                !
 ! A8    A(1,2,12)             111.2121         estimate D2E/DX2                !
 ! A9    A(1,2,13)             110.2122         estimate D2E/DX2                !
 ! A10   A(3,2,12)             112.3123         estimate D2E/DX2                !
 ! A11   A(3,2,13)             109.1309         estimate D2E/DX2                !
 ! A12   A(12,2,13)            107.5571         estimate D2E/DX2                !
 ! A13   A(2,3,4)              111.8422         estimate D2E/DX2                !
 ! A14   A(2,3,8)              108.6536         estimate D2E/DX2                !
 ! A15   A(2,3,14)             112.0594         estimate D2E/DX2                !
 ! A16   A(4,3,8)              100.253          estimate D2E/DX2                !
 ! A17   A(4,3,14)             111.8403         estimate D2E/DX2                !
 ! A18   A(8,3,14)             111.5827         estimate D2E/DX2                !
 ! A19   A(3,4,5)              110.0041         estimate D2E/DX2                !
 ! A20   A(3,4,7)              100.9695         estimate D2E/DX2                !
 ! A21   A(3,4,15)             118.7335         estimate D2E/DX2                !
 ! A22   A(5,4,7)               83.1699         estimate D2E/DX2                !
 ! A23   A(5,4,15)             118.1429         estimate D2E/DX2                !
 ! A24   A(7,4,15)             119.5714         estimate D2E/DX2                !
 ! A25   A(4,5,6)               80.793          estimate D2E/DX2                !
 ! A26   A(4,5,16)             118.6768         estimate D2E/DX2                !
 ! A27   A(4,5,17)             115.7621         estimate D2E/DX2                !
 ! A28   A(6,5,16)             118.4218         estimate D2E/DX2                !
 ! A29   A(6,5,17)             114.0388         estimate D2E/DX2                !
 ! A30   A(16,5,17)            107.5564         estimate D2E/DX2                !
 ! A31   A(5,6,7)               82.0498         estimate D2E/DX2                !
 ! A32   A(5,6,8)              110.4425         estimate D2E/DX2                !
 ! A33   A(5,6,18)             117.1618         estimate D2E/DX2                !
 ! A34   A(7,6,8)              101.8317         estimate D2E/DX2                !
 ! A35   A(7,6,18)             119.575          estimate D2E/DX2                !
 ! A36   A(8,6,18)             119.2614         estimate D2E/DX2                !
 ! A37   A(4,7,6)               80.0123         estimate D2E/DX2                !
 ! A38   A(4,7,19)             114.9895         estimate D2E/DX2                !
 ! A39   A(4,7,20)             113.7054         estimate D2E/DX2                !
 ! A40   A(6,7,19)             118.9447         estimate D2E/DX2                !
 ! A41   A(6,7,20)             119.1131         estimate D2E/DX2                !
 ! A42   A(19,7,20)            107.8837         estimate D2E/DX2                !
 ! A43   A(3,8,6)               98.3924         estimate D2E/DX2                !
 ! A44   A(3,8,9)              105.6555         estimate D2E/DX2                !
 ! A45   A(3,8,21)             113.785          estimate D2E/DX2                !
 ! A46   A(6,8,9)              120.1949         estimate D2E/DX2                !
 ! A47   A(6,8,21)             108.9849         estimate D2E/DX2                !
 ! A48   A(9,8,21)             109.5234         estimate D2E/DX2                !
 ! A49   A(1,9,8)              106.9885         estimate D2E/DX2                !
 ! A50   A(1,9,22)             112.4507         estimate D2E/DX2                !
 ! A51   A(1,9,23)             107.1016         estimate D2E/DX2                !
 ! A52   A(8,9,22)             114.9483         estimate D2E/DX2                !
 ! A53   A(8,9,23)             108.055          estimate D2E/DX2                !
 ! A54   A(22,9,23)            106.963          estimate D2E/DX2                !
 ! D1    D(9,1,2,3)            -22.0241         estimate D2E/DX2                !
 ! D2    D(9,1,2,12)          -144.6339         estimate D2E/DX2                !
 ! D3    D(9,1,2,13)            96.1762         estimate D2E/DX2                !
 ! D4    D(10,1,2,3)          -143.5925         estimate D2E/DX2                !
 ! D5    D(10,1,2,12)           93.7977         estimate D2E/DX2                !
 ! D6    D(10,1,2,13)          -25.3922         estimate D2E/DX2                !
 ! D7    D(11,1,2,3)            97.7565         estimate D2E/DX2                !
 ! D8    D(11,1,2,12)          -24.8532         estimate D2E/DX2                !
 ! D9    D(11,1,2,13)         -144.0431         estimate D2E/DX2                !
 ! D10   D(2,1,9,8)             25.9454         estimate D2E/DX2                !
 ! D11   D(2,1,9,22)           153.0631         estimate D2E/DX2                !
 ! D12   D(2,1,9,23)           -89.7165         estimate D2E/DX2                !
 ! D13   D(10,1,9,8)           146.6798         estimate D2E/DX2                !
 ! D14   D(10,1,9,22)          -86.2025         estimate D2E/DX2                !
 ! D15   D(10,1,9,23)           31.0179         estimate D2E/DX2                !
 ! D16   D(11,1,9,8)           -94.1115         estimate D2E/DX2                !
 ! D17   D(11,1,9,22)           33.0062         estimate D2E/DX2                !
 ! D18   D(11,1,9,23)          150.2266         estimate D2E/DX2                !
 ! D19   D(1,2,3,4)            -99.6402         estimate D2E/DX2                !
 ! D20   D(1,2,3,8)             10.0968         estimate D2E/DX2                !
 ! D21   D(1,2,3,14)           133.8559         estimate D2E/DX2                !
 ! D22   D(12,2,3,4)            22.2737         estimate D2E/DX2                !
 ! D23   D(12,2,3,8)           132.0108         estimate D2E/DX2                !
 ! D24   D(12,2,3,14)         -104.2302         estimate D2E/DX2                !
 ! D25   D(13,2,3,4)           141.4491         estimate D2E/DX2                !
 ! D26   D(13,2,3,8)          -108.8139         estimate D2E/DX2                !
 ! D27   D(13,2,3,14)           14.9451         estimate D2E/DX2                !
 ! D28   D(2,3,4,5)             76.3064         estimate D2E/DX2                !
 ! D29   D(2,3,4,7)            162.9611         estimate D2E/DX2                !
 ! D30   D(2,3,4,15)           -64.2305         estimate D2E/DX2                !
 ! D31   D(8,3,4,5)            -38.6974         estimate D2E/DX2                !
 ! D32   D(8,3,4,7)             47.9573         estimate D2E/DX2                !
 ! D33   D(8,3,4,15)          -179.2343         estimate D2E/DX2                !
 ! D34   D(14,3,4,5)          -157.0707         estimate D2E/DX2                !
 ! D35   D(14,3,4,7)           -70.416          estimate D2E/DX2                !
 ! D36   D(14,3,4,15)           62.3924         estimate D2E/DX2                !
 ! D37   D(2,3,8,6)           -118.9252         estimate D2E/DX2                !
 ! D38   D(2,3,8,9)              5.7776         estimate D2E/DX2                !
 ! D39   D(2,3,8,21)           125.963          estimate D2E/DX2                !
 ! D40   D(4,3,8,6)             -1.5307         estimate D2E/DX2                !
 ! D41   D(4,3,8,9)            123.1721         estimate D2E/DX2                !
 ! D42   D(4,3,8,21)          -116.6425         estimate D2E/DX2                !
 ! D43   D(14,3,8,6)           117.0317         estimate D2E/DX2                !
 ! D44   D(14,3,8,9)          -118.2654         estimate D2E/DX2                !
 ! D45   D(14,3,8,21)            1.9199         estimate D2E/DX2                !
 ! D46   D(3,4,5,6)             56.3261         estimate D2E/DX2                !
 ! D47   D(3,4,5,16)           -61.1207         estimate D2E/DX2                !
 ! D48   D(3,4,5,17)           168.6591         estimate D2E/DX2                !
 ! D49   D(7,4,5,6)            -42.9009         estimate D2E/DX2                !
 ! D50   D(7,4,5,16)          -160.3477         estimate D2E/DX2                !
 ! D51   D(7,4,5,17)            69.4321         estimate D2E/DX2                !
 ! D52   D(15,4,5,6)          -162.8749         estimate D2E/DX2                !
 ! D53   D(15,4,5,16)           79.6782         estimate D2E/DX2                !
 ! D54   D(15,4,5,17)          -50.5419         estimate D2E/DX2                !
 ! D55   D(3,4,7,6)            -67.4879         estimate D2E/DX2                !
 ! D56   D(3,4,7,19)            49.9048         estimate D2E/DX2                !
 ! D57   D(3,4,7,20)           174.9816         estimate D2E/DX2                !
 ! D58   D(5,4,7,6)             41.6431         estimate D2E/DX2                !
 ! D59   D(5,4,7,19)           159.0358         estimate D2E/DX2                !
 ! D60   D(5,4,7,20)           -75.8874         estimate D2E/DX2                !
 ! D61   D(15,4,7,6)           160.2128         estimate D2E/DX2                !
 ! D62   D(15,4,7,19)          -82.3945         estimate D2E/DX2                !
 ! D63   D(15,4,7,20)           42.6823         estimate D2E/DX2                !
 ! D64   D(4,5,6,7)             41.4953         estimate D2E/DX2                !
 ! D65   D(4,5,6,8)            -58.2278         estimate D2E/DX2                !
 ! D66   D(4,5,6,18)           160.7352         estimate D2E/DX2                !
 ! D67   D(16,5,6,7)           159.2078         estimate D2E/DX2                !
 ! D68   D(16,5,6,8)            59.4846         estimate D2E/DX2                !
 ! D69   D(16,5,6,18)          -81.5523         estimate D2E/DX2                !
 ! D70   D(17,5,6,7)           -72.6985         estimate D2E/DX2                !
 ! D71   D(17,5,6,8)          -172.4216         estimate D2E/DX2                !
 ! D72   D(17,5,6,18)           46.5415         estimate D2E/DX2                !
 ! D73   D(5,6,7,4)            -42.1687         estimate D2E/DX2                !
 ! D74   D(5,6,7,19)          -155.2968         estimate D2E/DX2                !
 ! D75   D(5,6,7,20)            69.4964         estimate D2E/DX2                !
 ! D76   D(8,6,7,4)             67.1641         estimate D2E/DX2                !
 ! D77   D(8,6,7,19)           -45.9639         estimate D2E/DX2                !
 ! D78   D(8,6,7,20)           178.8292         estimate D2E/DX2                !
 ! D79   D(18,6,7,4)          -158.9595         estimate D2E/DX2                !
 ! D80   D(18,6,7,19)           87.9125         estimate D2E/DX2                !
 ! D81   D(18,6,7,20)          -47.2944         estimate D2E/DX2                !
 ! D82   D(5,6,8,3)             42.2674         estimate D2E/DX2                !
 ! D83   D(5,6,8,9)            -71.401          estimate D2E/DX2                !
 ! D84   D(5,6,8,21)           161.0756         estimate D2E/DX2                !
 ! D85   D(7,6,8,3)            -43.5619         estimate D2E/DX2                !
 ! D86   D(7,6,8,9)           -157.2303         estimate D2E/DX2                !
 ! D87   D(7,6,8,21)            75.2463         estimate D2E/DX2                !
 ! D88   D(18,6,8,3)          -177.6217         estimate D2E/DX2                !
 ! D89   D(18,6,8,9)            68.7099         estimate D2E/DX2                !
 ! D90   D(18,6,8,21)          -58.8135         estimate D2E/DX2                !
 ! D91   D(3,8,9,1)            -19.4899         estimate D2E/DX2                !
 ! D92   D(3,8,9,22)          -145.1189         estimate D2E/DX2                !
 ! D93   D(3,8,9,23)            95.5343         estimate D2E/DX2                !
 ! D94   D(6,8,9,1)             90.2924         estimate D2E/DX2                !
 ! D95   D(6,8,9,22)           -35.3367         estimate D2E/DX2                !
 ! D96   D(6,8,9,23)          -154.6835         estimate D2E/DX2                !
 ! D97   D(21,8,9,1)          -142.4302         estimate D2E/DX2                !
 ! D98   D(21,8,9,22)           91.9407         estimate D2E/DX2                !
 ! D99   D(21,8,9,23)          -27.4061         estimate D2E/DX2                !
 --------------------------------------------------------------------------------
 Trust Radius=3.00D-01 FncErr=1.00D-07 GrdErr=1.00D-06 EigMax=2.50D+02 EigMin=1.00D-04
 Number of steps in this run=    138 maximum allowed number of steps=    138.
 GradGradGradGradGradGradGradGradGradGradGradGradGradGradGradGradGradGrad

                          Input orientation:                          
 ---------------------------------------------------------------------
 Center     Atomic      Atomic             Coordinates (Angstroms)
 Number     Number       Type             X           Y           Z
 ---------------------------------------------------------------------
      1          6           0       -1.666180    0.110600    0.831150
      2          6           0       -1.133430    1.393010    0.209480
      3          6           0       -0.020600    0.982010   -0.732510
      4          6           0        1.363350    1.176360   -0.100120
      5          6           0        1.647070    0.028830    0.935940
      6          6           0        1.362720   -0.840430   -0.327620
      7          6           0        2.241690    0.296790   -1.034300
      8          6           0       -0.041410   -0.542390   -0.879770
      9          6           0       -1.276240   -1.011090   -0.124200
     10          1           0       -2.751240    0.170560    0.971720
     11          1           0       -1.223290   -0.056900    1.817020
     12          1           0       -0.790260    2.092580    0.977710
     13          1           0       -1.922940    1.892450   -0.363540
     14          1           0       -0.098460    1.481640   -1.703860
     15          1           0        1.686250    2.180430    0.148170
     16          1           0        0.987830   -0.074100    1.793530
     17          1           0        2.683320   -0.039040    1.303370
     18          1           0        1.721650   -1.864850   -0.315400
     19          1           0        2.107120    0.481680   -2.104260
     20          1           0        3.315830    0.355560   -0.814450
     21          1           0       -0.095970   -0.885420   -1.919520
     22          1           0       -1.168610   -1.973450    0.383510
     23          1           0       -2.097930   -1.120040   -0.847880
 ---------------------------------------------------------------------
                    Distance matrix (angstroms):
                    1          2          3          4          5
     1  C    0.000000
     2  C    1.521470   0.000000
     3  C    2.431527   1.514812   0.000000
     4  C    3.343824   2.525213   1.533951   0.000000
     5  C    3.315915   3.181181   2.544288   1.571860   0.000000
     6  C    3.379562   3.392270   2.323531   2.029581   1.559824
     7  C    4.334284   3.760335   2.382973   1.554933   2.075385
     8  C    2.448167   2.474822   1.531638   2.352723   2.544417
     9  C    1.524118   2.431344   2.432924   3.428258   3.278883
    10  H    1.095769   2.166265   3.319525   4.369248   4.400738
    11  H    1.093685   2.166679   3.004314   3.447762   3.003767
    12  H    2.171856   1.094231   2.179586   2.576667   3.193961
    13  H    2.160602   1.095955   2.141013   3.373704   4.231631
    14  H    3.280819   2.177128   1.095086   2.191362   3.482252
    15  H    3.998680   2.928205   2.263878   1.083545   2.291615
    16  H    2.829144   3.026776   2.917735   2.300125   1.086578
    17  H    4.377617   4.220775   3.535327   2.278004   1.101556
    18  H    4.085875   4.363557   3.363633   3.069802   2.270999
    19  H    4.795010   4.084737   2.580547   2.247744   3.107979
    20  H    5.252469   4.681949   3.395721   2.235209   2.440364
    21  H    3.320211   3.286367   2.214039   3.113000   3.468096
    22  H    2.188886   3.371139   3.361275   4.070138   3.498908
    23  H    2.126035   2.892005   2.957571   4.220552   4.304293
                    6          7          8          9         10
     6  C    0.000000
     7  C    1.601641   0.000000
     8  C    1.537946   2.437344   0.000000
     9  C    2.652285   3.861951   1.521634   0.000000
    10  H    4.431146   5.382323   3.358495   2.184711   0.000000
    11  H    3.449761   4.501245   2.984161   2.163705   1.760938
    12  H    3.865457   4.057803   3.309694   3.329136   2.745840
    13  H    4.273814   4.510010   3.120111   2.984300   2.331074
    14  H    3.069380   2.707117   2.186110   3.177451   3.989348
    15  H    3.075166   2.292346   3.384556   4.363065   4.940560
    16  H    2.286281   3.115501   2.902613   3.111535   3.836128
    17  H    2.246406   2.402607   3.527551   4.319832   5.448703
    18  H    1.085549   2.336653   2.275037   3.122949   5.079992
    19  H    2.336355   1.094124   2.676617   4.194774   5.758655
    20  H    2.341374   1.097982   3.475866   4.840587   6.327240
    21  H    2.159617   2.765120   1.096233   2.152209   4.065073
    22  H    2.863053   4.335242   2.216842   1.093385   2.729009
    23  H    3.510691   4.568858   2.136345   1.100344   2.324523
                   11         12         13         14         15
    11  H    0.000000
    12  H    2.347812   0.000000
    13  H    3.007377   1.766909   0.000000
    14  H    4.003616   2.835957   2.300858   0.000000
    15  H    4.031889   2.613227   3.656642   2.665242   0.000000
    16  H    2.211312   2.919190   4.122239   3.978956   2.877135
    17  H    3.940274   4.088474   5.265631   4.369691   2.693452
    18  H    4.060612   4.862415   5.234755   4.054580   4.071909
    19  H    5.172827   4.526406   4.611048   2.454552   2.852424
    20  H    5.262924   4.805107   5.478144   3.703577   2.629129
    21  H    3.989866   4.212418   3.670893   2.376865   4.105007
    22  H    2.393973   4.126599   4.009025   4.176120   5.045823
    23  H    2.999492   3.919656   3.056191   3.391065   5.119105
                   16         17         18         19         20
    16  H    0.000000
    17  H    1.765268   0.000000
    18  H    2.862318   2.622748   0.000000
    19  H    4.093222   3.495010   2.975703   0.000000
    20  H    3.522180   2.245204   2.778611   1.772144   0.000000
    21  H    3.952164   4.339105   2.614618   2.599365   3.794943
    22  H    3.200925   4.407431   2.975546   4.790310   5.193226
    23  H    4.194395   5.353204   3.927782   4.671878   5.611355
                   21         22         23
    21  H    0.000000
    22  H    2.763750   0.000000
    23  H    2.282828   1.763027   0.000000
 Stoichiometry    C9H14
 Framework group  C1[X(C9H14)]
 Deg. of freedom    63
 Full point group                 C1      NOp   1
 Largest Abelian subgroup         C1      NOp   1
 Largest concise Abelian subgroup C1      NOp   1
                         Standard orientation:                         
 ---------------------------------------------------------------------
 Center     Atomic      Atomic             Coordinates (Angstroms)
 Number     Number       Type             X           Y           Z
 ---------------------------------------------------------------------
      1          6           0        2.064700   -0.066200    0.567119
      2          6           0        1.396351   -1.238664   -0.135383
      3          6           0        0.135403   -0.693162   -0.773422
      4          6           0       -1.108687   -0.996180    0.071224
      5          6           0       -1.166965   -0.028974    1.308906
      6          6           0       -1.106512    1.031170    0.166325
      7          6           0       -2.127613    0.012674   -0.530290
      8          6           0        0.161661    0.835486   -0.681450
      9          6           0        1.526664    1.189048   -0.109494
     10          1           0        3.155235   -0.138768    0.488523
     11          1           0        1.819120   -0.060070    1.632859
     12          1           0        1.188629   -2.053524    0.564757
     13          1           0        2.052684   -1.634922   -0.918534
     14          1           0        0.017993   -1.032509   -1.807962
     15          1           0       -1.401089   -2.029453    0.215852
     16          1           0       -0.355963   -0.057376    2.031486
     17          1           0       -2.113767   -0.028406    1.871926
     18          1           0       -1.434090    2.037855    0.406521
     19          1           0       -2.200978    0.000140   -1.621879
     20          1           0       -3.142188   -0.088812   -0.122977
     21          1           0        0.027043    1.338811   -1.645954
     22          1           0        1.537743    2.058267    0.553700
     23          1           0        2.199620    1.417577   -0.949531
 ---------------------------------------------------------------------
 Rotational constants (GHZ):           3.1205838           1.5984501           1.4369445
 Standard basis: 6-31G(2df,p) (6D, 7F)
 There are   349 symmetry adapted cartesian basis functions of A   symmetry.
 There are   322 symmetry adapted basis functions of A   symmetry.
   322 basis functions,   494 primitive gaussians,   349 cartesian basis functions
    34 alpha electrons       34 beta electrons
       nuclear repulsion energy       484.1710301279 Hartrees.
 NAtoms=   23 NActive=   23 NUniq=   23 SFac= 1.00D+00 NAtFMM=   60 NAOKFM=F Big=F
 Integral buffers will be    131072 words long.
 Raffenetti 2 integral format.
 Two-electron integral symmetry is turned on.
 One-electron integrals computed using PRISM.
 PrsmSu:  requested number of processors reduced to:  13 ShMem   1 Linda.
 NBasis=   322 RedAO= T EigKep=  3.26D-04  NBF=   322
 NBsUse=   322 1.00D-06 EigRej= -1.00D+00 NBFU=   322
 ExpMin= 1.61D-01 ExpMax= 3.05D+03 ExpMxC= 4.57D+02 IAcc=3 IRadAn=         5 AccDes= 0.00D+00
 Harris functional with IExCor=  402 and IRadAn=       5 diagonalized for initial guess.
 HarFok:  IExCor=  402 AccDes= 0.00D+00 IRadAn=         5 IDoV= 1 UseB2=F ITyADJ=14
 ICtDFT=  3500011 ScaDFX=  1.000000  1.000000  1.000000  1.000000
 FoFCou: FMM=F IPFlag=           0 FMFlag=      100000 FMFlg1=           0
         NFxFlg=           0 DoJE=T BraDBF=F KetDBF=T FulRan=T
         wScrn=  0.000000 ICntrl=       500 IOpCl=  0 I1Cent=   200000004 NGrid=           0
         NMat0=    1 NMatS0=      1 NMatT0=    0 NMatD0=    1 NMtDS0=    0 NMtDT0=    0
 Petite list used in FoFCou.
 Requested convergence on RMS density matrix=1.00D-08 within 128 cycles.
 Requested convergence on MAX density matrix=1.00D-06.
 Requested convergence on             energy=1.00D-06.
 No special actions if energy rises.
 Integral accuracy reduced to 1.0D-05 until final iterations.
 Initial convergence to 1.0D-05 achieved.  Increase integral accuracy.
 SCF Done:  E(RB3LYP) =  -351.358827175     A.U. after   12 cycles
            NFock= 12  Conv=0.62D-08     -V/T= 2.0083

 **********************************************************************

            Population analysis using the SCF density.

 **********************************************************************

 Orbital symmetries:
       Occupied  (A) (A) (A) (A) (A) (A) (A) (A) (A) (A) (A) (A)
                 (A) (A) (A) (A) (A) (A) (A) (A) (A) (A) (A) (A)
                 (A) (A) (A) (A) (A) (A) (A) (A) (A) (A)
       Virtual   (A) (A) (A) (A) (A) (A) (A) (A) (A) (A) (A) (A)
                 (A) (A) (A) (A) (A) (A) (A) (A) (A) (A) (A) (A)
                 (A) (A) (A) (A) (A) (A) (A) (A) (A) (A) (A) (A)
                 (A) (A) (A) (A) (A) (A) (A) (A) (A) (A) (A) (A)
                 (A) (A) (A) (A) (A) (A) (A) (A) (A) (A) (A) (A)
                 (A) (A) (A) (A) (A) (A) (A) (A) (A) (A) (A) (A)
                 (A) (A) (A) (A) (A) (A) (A) (A) (A) (A) (A) (A)
                 (A) (A) (A) (A) (A) (A) (A) (A) (A) (A) (A) (A)
                 (A) (A) (A) (A) (A) (A) (A) (A) (A) (A) (A) (A)
                 (A) (A) (A) (A) (A) (A) (A) (A) (A) (A) (A) (A)
                 (A) (A) (A) (A) (A) (A) (A) (A) (A) (A) (A) (A)
                 (A) (A) (A) (A) (A) (A) (A) (A) (A) (A) (A) (A)
                 (A) (A) (A) (A) (A) (A) (A) (A) (A) (A) (A) (A)
                 (A) (A) (A) (A) (A) (A) (A) (A) (A) (A) (A) (A)
                 (A) (A) (A) (A) (A) (A) (A) (A) (A) (A) (A) (A)
                 (A) (A) (A) (A) (A) (A) (A) (A) (A) (A) (A) (A)
                 (A) (A) (A) (A) (A) (A) (A) (A) (A) (A) (A) (A)
                 (A) (A) (A) (A) (A) (A) (A) (A) (A) (A) (A) (A)
                 (A) (A) (A) (A) (A) (A) (A) (A) (A) (A) (A) (A)
                 (A) (A) (A) (A) (A) (A) (A) (A) (A) (A) (A) (A)
                 (A) (A) (A) (A) (A) (A) (A) (A) (A) (A) (A) (A)
                 (A) (A) (A) (A) (A) (A) (A) (A) (A) (A) (A) (A)
                 (A) (A) (A) (A) (A) (A) (A) (A) (A) (A) (A) (A)
                 (A) (A) (A) (A) (A) (A) (A) (A) (A) (A) (A) (A)
 The electronic state is 1-A.
 Alpha  occ. eigenvalues --  -10.18526 -10.17873 -10.17641 -10.17472 -10.17378
 Alpha  occ. eigenvalues --  -10.17118 -10.16877 -10.16691 -10.16468  -0.88730
 Alpha  occ. eigenvalues --   -0.80575  -0.72006  -0.70054  -0.64507  -0.63326
 Alpha  occ. eigenvalues --   -0.57012  -0.53288  -0.51866  -0.49420  -0.47912
 Alpha  occ. eigenvalues --   -0.46179  -0.42701  -0.40462  -0.37969  -0.36800
 Alpha  occ. eigenvalues --   -0.35867  -0.33381  -0.32754  -0.31079  -0.30898
 Alpha  occ. eigenvalues --   -0.30282  -0.29062  -0.28651  -0.28043
 Alpha virt. eigenvalues --    0.07745   0.09751   0.11494   0.12502   0.13467
 Alpha virt. eigenvalues --    0.15042   0.15089   0.15953   0.16410   0.16915
 Alpha virt. eigenvalues --    0.18351   0.18649   0.19231   0.20857   0.21429
 Alpha virt. eigenvalues --    0.21796   0.22530   0.22856   0.24909   0.25957
 Alpha virt. eigenvalues --    0.27588   0.28960   0.30924   0.31117   0.36955
 Alpha virt. eigenvalues --    0.43247   0.47681   0.47816   0.50079   0.50649
 Alpha virt. eigenvalues --    0.51228   0.53063   0.54150   0.54210   0.55310
 Alpha virt. eigenvalues --    0.56930   0.57643   0.58220   0.59224   0.60056
 Alpha virt. eigenvalues --    0.62163   0.62875   0.63262   0.65956   0.66210
 Alpha virt. eigenvalues --    0.68002   0.68610   0.69019   0.71223   0.74520
 Alpha virt. eigenvalues --    0.75599   0.76412   0.76640   0.77091   0.79183
 Alpha virt. eigenvalues --    0.79802   0.80917   0.81600   0.82703   0.83156
 Alpha virt. eigenvalues --    0.83764   0.86661   0.87170   0.88108   0.91393
 Alpha virt. eigenvalues --    0.95081   0.96943   1.03174   1.04060   1.09224
 Alpha virt. eigenvalues --    1.10024   1.12372   1.18277   1.20589   1.22777
 Alpha virt. eigenvalues --    1.24569   1.27277   1.29578   1.30397   1.32127
 Alpha virt. eigenvalues --    1.32872   1.33880   1.37213   1.37992   1.40260
 Alpha virt. eigenvalues --    1.41548   1.42650   1.45002   1.46672   1.49502
 Alpha virt. eigenvalues --    1.49894   1.52471   1.53403   1.55690   1.56290
 Alpha virt. eigenvalues --    1.58628   1.59218   1.60083   1.60922   1.62938
 Alpha virt. eigenvalues --    1.66560   1.67781   1.69837   1.72235   1.73189
 Alpha virt. eigenvalues --    1.76090   1.79150   1.79586   1.80613   1.82762
 Alpha virt. eigenvalues --    1.84808   1.88273   1.90022   1.92171   1.94229
 Alpha virt. eigenvalues --    1.97336   2.02421   2.07480   2.11516   2.15775
 Alpha virt. eigenvalues --    2.23847   2.25320   2.26817   2.27113   2.30786
 Alpha virt. eigenvalues --    2.33074   2.34900   2.36564   2.37479   2.37719
 Alpha virt. eigenvalues --    2.40289   2.43211   2.45626   2.47465   2.49907
 Alpha virt. eigenvalues --    2.52769   2.54427   2.56757   2.59742   2.61936
 Alpha virt. eigenvalues --    2.64227   2.64987   2.65851   2.68465   2.69855
 Alpha virt. eigenvalues --    2.73624   2.75830   2.79280   2.81793   2.84080
 Alpha virt. eigenvalues --    2.85990   2.88825   2.89355   2.90392   2.91811
 Alpha virt. eigenvalues --    2.93083   2.94656   2.96815   2.98361   3.01808
 Alpha virt. eigenvalues --    3.04313   3.05118   3.06720   3.09831   3.10036
 Alpha virt. eigenvalues --    3.10777   3.14203   3.15483   3.15690   3.16456
 Alpha virt. eigenvalues --    3.21927   3.24928   3.26063   3.27266   3.29332
 Alpha virt. eigenvalues --    3.29609   3.33611   3.34560   3.36064   3.39258
 Alpha virt. eigenvalues --    3.40287   3.41117   3.44583   3.45927   3.48233
 Alpha virt. eigenvalues --    3.52705   3.53841   3.55195   3.59156   3.59933
 Alpha virt. eigenvalues --    3.61648   3.64175   3.66605   3.68685   3.72817
 Alpha virt. eigenvalues --    3.76005   3.76542   3.79179   3.83133   3.83777
 Alpha virt. eigenvalues --    3.86801   3.87027   3.92690   3.96812   3.97381
 Alpha virt. eigenvalues --    3.99940   4.04106   4.07903   4.10546   4.13934
 Alpha virt. eigenvalues --    4.21523   4.26386   4.29806   4.32725   4.34114
 Alpha virt. eigenvalues --    4.35936   4.39332   4.42213   4.43500   4.44041
 Alpha virt. eigenvalues --    4.48269   4.48514   4.52369   4.53940   4.57202
 Alpha virt. eigenvalues --    4.59581   4.60355   4.61974   4.62789   4.64328
 Alpha virt. eigenvalues --    4.65329   4.66710   4.67951   4.69048   4.71573
 Alpha virt. eigenvalues --    4.72878   4.74788   4.76440   4.78644   4.79721
 Alpha virt. eigenvalues --    4.81531   4.82223   4.82599   4.84536   4.85671
 Alpha virt. eigenvalues --    4.87617   4.88083   4.91573   4.93023   4.94391
 Alpha virt. eigenvalues --    4.97397   4.98139   5.01842   5.03893   5.05129
 Alpha virt. eigenvalues --    5.06178   5.11282   5.15656   5.17802   5.18384
 Alpha virt. eigenvalues --    5.22823   5.28790   5.30614   5.34551   5.36497
 Alpha virt. eigenvalues --    5.39638   5.41484   5.47301   5.50417   5.53979
 Alpha virt. eigenvalues --    5.57438   5.63261   5.67523   5.70065   5.88805
 Alpha virt. eigenvalues --    6.35567   6.50586   6.89815   7.84113  11.08231
 Alpha virt. eigenvalues --   11.33389  11.90864  11.97829  12.16696  12.48620
 Alpha virt. eigenvalues --   12.62027  12.85689  13.19494
          Condensed to atoms (all electrons):
               1          2          3          4          5          6
     1  C    4.857070   0.406487  -0.051460   0.000664   0.002482  -0.001072
     2  C    0.406487   4.917457   0.405138  -0.029767  -0.005202  -0.000213
     3  C   -0.051460   0.405138   4.743257   0.419708  -0.022889  -0.043443
     4  C    0.000664  -0.029767   0.419708   4.762273   0.363714  -0.047385
     5  C    0.002482  -0.005202  -0.022889   0.363714   5.004023   0.359688
     6  C   -0.001072  -0.000213  -0.043443  -0.047385   0.359688   4.784210
     7  C   -0.000135   0.003886  -0.024001   0.354290  -0.078555   0.353254
     8  C   -0.045286  -0.036714   0.347512  -0.037177  -0.023467   0.421739
     9  C    0.412805  -0.066294  -0.041407  -0.000376  -0.004199  -0.026430
    10  H    0.365805  -0.030174   0.004373  -0.000002  -0.000041   0.000030
    11  H    0.372015  -0.032206   0.001176   0.000227  -0.002041   0.000519
    12  H   -0.029713   0.368175  -0.029925  -0.012832   0.000818   0.000266
    13  H   -0.031667   0.354016  -0.021100   0.004503   0.000102  -0.000080
    14  H    0.005753  -0.045581   0.370168  -0.045253   0.005449   0.004688
    15  H   -0.000190  -0.001067  -0.051524   0.362810  -0.049014   0.008542
    16  H   -0.000864   0.000458  -0.004188  -0.025152   0.348255  -0.026387
    17  H    0.000074  -0.000066   0.003260  -0.022413   0.380331  -0.023744
    18  H   -0.000300  -0.000097   0.010431   0.007975  -0.049182   0.360748
    19  H   -0.000013   0.000301  -0.004451  -0.030766   0.009686  -0.025358
    20  H    0.000017  -0.000196   0.003433  -0.025863  -0.002640  -0.021473
    21  H    0.005890   0.005812  -0.039500   0.005235   0.005472  -0.048429
    22  H   -0.030505   0.005329   0.005150   0.000011   0.000347  -0.007691
    23  H   -0.035562   0.001859   0.001156  -0.000049   0.000026   0.004070
               7          8          9         10         11         12
     1  C   -0.000135  -0.045286   0.412805   0.365805   0.372015  -0.029713
     2  C    0.003886  -0.036714  -0.066294  -0.030174  -0.032206   0.368175
     3  C   -0.024001   0.347512  -0.041407   0.004373   0.001176  -0.029925
     4  C    0.354290  -0.037177  -0.000376  -0.000002   0.000227  -0.012832
     5  C   -0.078555  -0.023467  -0.004199  -0.000041  -0.002041   0.000818
     6  C    0.353254   0.421739  -0.026430   0.000030   0.000519   0.000266
     7  C    5.019667  -0.021423   0.003218   0.000008  -0.000114   0.000383
     8  C   -0.021423   4.736541   0.403114   0.004079   0.001052   0.004407
     9  C    0.003218   0.403114   4.920651  -0.028016  -0.035446   0.005253
    10  H    0.000008   0.004079  -0.028016   0.653248  -0.039828   0.004103
    11  H   -0.000114   0.001052  -0.035446  -0.039828   0.635564  -0.010311
    12  H    0.000383   0.004407   0.005253   0.004103  -0.010311   0.639831
    13  H   -0.000285   0.002274   0.002350  -0.012176   0.005934  -0.041358
    14  H   -0.004239  -0.045801   0.006262  -0.000249  -0.000191   0.004661
    15  H   -0.039265   0.009957  -0.000109   0.000004   0.000059   0.003189
    16  H    0.010384  -0.003746   0.000402   0.000065   0.005366   0.000534
    17  H   -0.011102   0.003160  -0.000009  -0.000004   0.000049  -0.000110
    18  H   -0.036945  -0.051007  -0.000209   0.000004   0.000042   0.000007
    19  H    0.348291  -0.003730   0.000163  -0.000000  -0.000003   0.000011
    20  H    0.365693   0.002813  -0.000119  -0.000000  -0.000000  -0.000008
    21  H   -0.004524   0.369130  -0.047687  -0.000241  -0.000152  -0.000178
    22  H    0.000099  -0.028446   0.365676   0.003455  -0.008033  -0.000185
    23  H   -0.000189  -0.019201   0.355284  -0.011630   0.006264  -0.000166
              13         14         15         16         17         18
     1  C   -0.031667   0.005753  -0.000190  -0.000864   0.000074  -0.000300
     2  C    0.354016  -0.045581  -0.001067   0.000458  -0.000066  -0.000097
     3  C   -0.021100   0.370168  -0.051524  -0.004188   0.003260   0.010431
     4  C    0.004503  -0.045253   0.362810  -0.025152  -0.022413   0.007975
     5  C    0.000102   0.005449  -0.049014   0.348255   0.380331  -0.049182
     6  C   -0.000080   0.004688   0.008542  -0.026387  -0.023744   0.360748
     7  C   -0.000285  -0.004239  -0.039265   0.010384  -0.011102  -0.036945
     8  C    0.002274  -0.045801   0.009957  -0.003746   0.003160  -0.051007
     9  C    0.002350   0.006262  -0.000109   0.000402  -0.000009  -0.000209
    10  H   -0.012176  -0.000249   0.000004   0.000065  -0.000004   0.000004
    11  H    0.005934  -0.000191   0.000059   0.005366   0.000049   0.000042
    12  H   -0.041358   0.004661   0.003189   0.000534  -0.000110   0.000007
    13  H    0.661780  -0.010565  -0.000158  -0.000027   0.000003   0.000007
    14  H   -0.010565   0.699720  -0.001752  -0.000144  -0.000089  -0.000220
    15  H   -0.000158  -0.001752   0.713004   0.001289  -0.001727  -0.000726
    16  H   -0.000027  -0.000144   0.001289   0.657935  -0.045480   0.001185
    17  H    0.000003  -0.000089  -0.001727  -0.045480   0.610134  -0.001982
    18  H    0.000007  -0.000220  -0.000726   0.001185  -0.001982   0.712333
    19  H   -0.000002   0.004549   0.001031  -0.000744   0.000320   0.000932
    20  H    0.000004   0.000099  -0.001943   0.000084   0.003913  -0.001305
    21  H   -0.000139  -0.011044  -0.000169  -0.000138  -0.000116  -0.001796
    22  H   -0.000151  -0.000185   0.000006   0.000212  -0.000046   0.001813
    23  H    0.001012  -0.000111   0.000006  -0.000020   0.000003  -0.000125
              19         20         21         22         23
     1  C   -0.000013   0.000017   0.005890  -0.030505  -0.035562
     2  C    0.000301  -0.000196   0.005812   0.005329   0.001859
     3  C   -0.004451   0.003433  -0.039500   0.005150   0.001156
     4  C   -0.030766  -0.025863   0.005235   0.000011  -0.000049
     5  C    0.009686  -0.002640   0.005472   0.000347   0.000026
     6  C   -0.025358  -0.021473  -0.048429  -0.007691   0.004070
     7  C    0.348291   0.365693  -0.004524   0.000099  -0.000189
     8  C   -0.003730   0.002813   0.369130  -0.028446  -0.019201
     9  C    0.000163  -0.000119  -0.047687   0.365676   0.355284
    10  H   -0.000000  -0.000000  -0.000241   0.003455  -0.011630
    11  H   -0.000003  -0.000000  -0.000152  -0.008033   0.006264
    12  H    0.000011  -0.000008  -0.000178  -0.000185  -0.000166
    13  H   -0.000002   0.000004  -0.000139  -0.000151   0.001012
    14  H    0.004549   0.000099  -0.011044  -0.000185  -0.000111
    15  H    0.001031  -0.001943  -0.000169   0.000006   0.000006
    16  H   -0.000744   0.000084  -0.000138   0.000212  -0.000020
    17  H    0.000320   0.003913  -0.000116  -0.000046   0.000003
    18  H    0.000932  -0.001305  -0.001796   0.001813  -0.000125
    19  H    0.665137  -0.044340   0.003575   0.000006  -0.000004
    20  H   -0.044340   0.628114   0.000058  -0.000002   0.000002
    21  H    0.003575   0.000058   0.699714   0.003843  -0.010726
    22  H    0.000006  -0.000002   0.003843   0.638438  -0.040511
    23  H   -0.000004   0.000002  -0.010726  -0.040511   0.656721
 Mulliken charges:
               1
     1  C   -0.202296
     2  C   -0.221341
     3  C    0.019125
     4  C   -0.004377
     5  C   -0.243163
     6  C   -0.026051
     7  C   -0.238394
     8  C    0.010218
     9  C   -0.224879
    10  H    0.087188
    11  H    0.100059
    12  H    0.093148
    13  H    0.085722
    14  H    0.064075
    15  H    0.047745
    16  H    0.080719
    17  H    0.105641
    18  H    0.048420
    19  H    0.075406
    20  H    0.093662
    21  H    0.066111
    22  H    0.091370
    23  H    0.091890
 Sum of Mulliken charges =  -0.00000
 Mulliken charges with hydrogens summed into heavy atoms:
               1
     1  C   -0.015048
     2  C   -0.042471
     3  C    0.083200
     4  C    0.043368
     5  C   -0.056802
     6  C    0.022369
     7  C   -0.069326
     8  C    0.076329
     9  C   -0.041619
 Electronic spatial extent (au):  <R**2>=           1035.7390
 Charge=             -0.0000 electrons
 Dipole moment (field-independent basis, Debye):
    X=              0.0774    Y=             -0.0320    Z=             -0.0880  Tot=              0.1215
 Quadrupole moment (field-independent basis, Debye-Ang):
   XX=            -56.2410   YY=            -57.1151   ZZ=            -55.7638
   XY=              0.3027   XZ=             -1.1381   YZ=              0.0788
 Traceless Quadrupole moment (field-independent basis, Debye-Ang):
   XX=              0.1323   YY=             -0.7418   ZZ=              0.6095
   XY=              0.3027   XZ=             -1.1381   YZ=              0.0788
 Octapole moment (field-independent basis, Debye-Ang**2):
  XXX=             -1.0332  YYY=              0.2345  ZZZ=             -1.3509  XYY=              0.2175
  XXY=             -0.8950  XXZ=              0.8734  XZZ=              0.4395  YZZ=              0.0001
  YYZ=              0.4945  XYZ=             -0.0886
 Hexadecapole moment (field-independent basis, Debye-Ang**3):
 XXXX=           -794.3103 YYYY=           -359.4460 ZZZZ=           -260.2450 XXXY=              2.3789
 XXXZ=            -12.8438 YYYX=              0.9746 YYYZ=              0.4308 ZZZX=             -2.0429
 ZZZY=              0.1707 XXYY=           -199.0500 XXZZ=           -176.5587 YYZZ=           -104.0279
 XXYZ=              0.9478 YYXZ=             -0.4930 ZZXY=              0.0833
 N-N= 4.841710301279D+02 E-N=-1.781214362109D+03  KE= 3.484715945119D+02
 PrsmSu:  requested number of processors reduced to:  13 ShMem   1 Linda.
 Calling FoFJK, ICntrl=      2127 FMM=F ISym2X=0 I1Cent= 0 IOpClX= 0 NMat=1 NMatS=1 NMatT=0.
 ***** Axes restored to original set *****
 -------------------------------------------------------------------
 Center     Atomic                   Forces (Hartrees/Bohr)
 Number     Number              X              Y              Z
 -------------------------------------------------------------------
      1        6          -0.007581846   -0.002668454    0.014017401
      2        6          -0.013574201    0.010479443   -0.002785564
      3        6           0.010061184    0.017116518    0.008397777
      4        6           0.035602392    0.003379154   -0.001515180
      5        6          -0.036048607    0.001556066   -0.001046479
      6        6           0.039052951   -0.006349064   -0.000990287
      7        6          -0.011294009    0.002494864   -0.012555417
      8        6           0.009944435   -0.011148294   -0.000625423
      9        6          -0.012927625   -0.008565764   -0.002144154
     10        1           0.001012778   -0.002627213    0.002747402
     11        1          -0.000576621    0.000477786    0.001303003
     12        1          -0.000554342    0.002259152   -0.002076027
     13        1          -0.001573579    0.001364770    0.002576525
     14        1           0.003950129    0.003644888    0.003006215
     15        1          -0.002641283    0.008016369   -0.001353705
     16        1          -0.004684934   -0.000720835    0.004746882
     17        1          -0.005330447    0.003591081   -0.008972566
     18        1          -0.002582949   -0.006329757   -0.003814458
     19        1          -0.001389480   -0.004125774   -0.002972276
     20        1          -0.005414664   -0.008415906    0.004187798
     21        1           0.002491910    0.001519203    0.000920383
     22        1           0.001388091   -0.001346802   -0.000972619
     23        1           0.002670715   -0.003601430   -0.000079231
 -------------------------------------------------------------------
 Cartesian Forces:  Max     0.039052951 RMS     0.009702523

 GradGradGradGradGradGradGradGradGradGradGradGradGradGradGradGradGradGrad
 Berny optimization.
 FormGI is forming the generalized inverse of G from B-inverse, IUseBI=4.
 Internal  Forces:  Max     0.019284575 RMS     0.004593701
 Search for a local minimum.
 Step number   1 out of a maximum of  138
 All quantities printed in internal units (Hartrees-Bohrs-Radians)
 Mixed Optimization -- RFO/linear search
 Second derivative matrix not updated -- first step.
 ITU=  0
     Eigenvalues ---    0.00543   0.00560   0.01654   0.01875   0.02091
     Eigenvalues ---    0.02309   0.02449   0.02778   0.02862   0.03363
     Eigenvalues ---    0.03660   0.03740   0.03822   0.04098   0.04180
     Eigenvalues ---    0.04785   0.04884   0.05059   0.05260   0.05350
     Eigenvalues ---    0.05396   0.05750   0.05985   0.06219   0.06601
     Eigenvalues ---    0.06790   0.06867   0.07318   0.07403   0.07447
     Eigenvalues ---    0.07657   0.07898   0.09188   0.09621   0.11322
     Eigenvalues ---    0.12242   0.12802   0.17735   0.18306   0.20534
     Eigenvalues ---    0.21648   0.23388   0.23594   0.25799   0.27860
     Eigenvalues ---    0.28559   0.29053   0.29780   0.30567   0.33511
     Eigenvalues ---    0.33644   0.33906   0.34102   0.34133   0.34154
     Eigenvalues ---    0.34231   0.34328   0.34340   0.34390   0.34424
     Eigenvalues ---    0.35211   0.35332   0.35569
 RFO step:  Lambda=-2.67464463D-02 EMin= 5.43383978D-03
 Linear search not attempted -- first point.
 Iteration  1 RMS(Cart)=  0.05716534 RMS(Int)=  0.00240320
 Iteration  2 RMS(Cart)=  0.00269489 RMS(Int)=  0.00126943
 Iteration  3 RMS(Cart)=  0.00000447 RMS(Int)=  0.00126942
 Iteration  4 RMS(Cart)=  0.00000000 RMS(Int)=  0.00126942
 Variable       Old X    -DE/DX   Delta X   Delta X   Delta X     New X
                                 (Linear)    (Quad)   (Total)
    R1        2.87516   0.01774   0.00000   0.05363   0.05327   2.92843
    R2        2.88017   0.01276   0.00000   0.03946   0.03903   2.91919
    R3        2.07070  -0.00079   0.00000  -0.00215  -0.00215   2.06855
    R4        2.06677   0.00087   0.00000   0.00233   0.00233   2.06910
    R5        2.86258   0.01928   0.00000   0.06001   0.06029   2.92287
    R6        2.06780  -0.00019   0.00000  -0.00051  -0.00051   2.06729
    R7        2.07106   0.00041   0.00000   0.00111   0.00111   2.07217
    R8        2.89875  -0.00122   0.00000   0.00187   0.00155   2.90030
    R9        2.89438   0.01824   0.00000   0.07490   0.07425   2.96863
   R10        2.06941  -0.00128   0.00000  -0.00348  -0.00348   2.06593
   R11        2.97038  -0.00346   0.00000  -0.01856  -0.01802   2.95236
   R12        2.93840   0.00688   0.00000   0.02486   0.02411   2.96251
   R13        2.04760   0.00633   0.00000   0.01655   0.01655   2.06416
   R14        2.94764  -0.00284   0.00000  -0.00675  -0.00334   2.94431
   R15        2.05334   0.00666   0.00000   0.01758   0.01758   2.07091
   R16        2.08164  -0.00823   0.00000  -0.02274  -0.02274   2.05890
   R17        3.02666  -0.00331   0.00000  -0.03702  -0.03869   2.98797
   R18        2.90630  -0.00294   0.00000  -0.00983  -0.00986   2.89644
   R19        2.05139   0.00508   0.00000   0.01336   0.01336   2.06475
   R20        2.06760   0.00238   0.00000   0.00642   0.00642   2.07402
   R21        2.07489  -0.00491   0.00000  -0.01342  -0.01342   2.06147
   R22        2.87547   0.01331   0.00000   0.03737   0.03737   2.91285
   R23        2.07158  -0.00147   0.00000  -0.00400  -0.00400   2.06758
   R24        2.06620   0.00087   0.00000   0.00234   0.00234   2.06854
   R25        2.07935  -0.00158   0.00000  -0.00436  -0.00436   2.07499
    A1        1.84899  -0.00053   0.00000  -0.00317  -0.00320   1.84579
    A2        1.93160   0.00167   0.00000   0.01736   0.01772   1.94932
    A3        1.93436   0.00007   0.00000  -0.00044  -0.00077   1.93359
    A4        1.95415  -0.00067   0.00000  -0.00803  -0.00787   1.94627
    A5        1.92699   0.00076   0.00000   0.00852   0.00838   1.93537
    A6        1.86893  -0.00125   0.00000  -0.01371  -0.01371   1.85522
    A7        1.85733  -0.00072   0.00000   0.00216   0.00204   1.85937
    A8        1.94102   0.00007   0.00000   0.00125   0.00083   1.94185
    A9        1.92357   0.00089   0.00000   0.00381   0.00397   1.92753
   A10        1.96022  -0.00098   0.00000  -0.01605  -0.01582   1.94440
   A11        1.90469   0.00238   0.00000   0.02625   0.02603   1.93072
   A12        1.87723  -0.00150   0.00000  -0.01621  -0.01608   1.86114
   A13        1.95202   0.00585   0.00000   0.05986   0.06116   2.01318
   A14        1.89636  -0.00153   0.00000  -0.01851  -0.01870   1.87766
   A15        1.95580  -0.00015   0.00000   0.00115   0.00064   1.95645
   A16        1.74975  -0.00244   0.00000  -0.01620  -0.01799   1.73176
   A17        1.95198  -0.00262   0.00000  -0.03630  -0.03634   1.91565
   A18        1.94749   0.00075   0.00000   0.00911   0.01028   1.95777
   A19        1.91993  -0.00928   0.00000  -0.10201  -0.10429   1.81564
   A20        1.76225  -0.00145   0.00000  -0.00297   0.00063   1.76288
   A21        2.07229  -0.00058   0.00000  -0.00804  -0.00905   2.06324
   A22        1.45159   0.00080   0.00000   0.04596   0.04290   1.49449
   A23        2.06198   0.00571   0.00000   0.04218   0.04068   2.10267
   A24        2.08691   0.00454   0.00000   0.03640   0.03413   2.12105
   A25        1.41010   0.00814   0.00000   0.03837   0.03364   1.44374
   A26        2.07130   0.00202   0.00000   0.02365   0.02428   2.09558
   A27        2.02043  -0.00943   0.00000  -0.06650  -0.06621   1.95422
   A28        2.06685   0.00323   0.00000   0.02814   0.02829   2.09514
   A29        1.99035  -0.00939   0.00000  -0.04958  -0.04830   1.94205
   A30        1.87721   0.00450   0.00000   0.02089   0.02070   1.89791
   A31        1.43204   0.00356   0.00000   0.05975   0.05696   1.48900
   A32        1.92758  -0.01039   0.00000  -0.10257  -0.10318   1.82441
   A33        2.04486   0.00723   0.00000   0.06170   0.06063   2.10549
   A34        1.77730  -0.00172   0.00000  -0.02476  -0.02246   1.75483
   A35        2.08698   0.00070   0.00000   0.01439   0.01162   2.09859
   A36        2.08150   0.00039   0.00000  -0.00120  -0.00064   2.08086
   A37        1.39648   0.00530   0.00000   0.03444   0.03137   1.42785
   A38        2.00695   0.00247   0.00000   0.03319   0.03436   2.04131
   A39        1.98453  -0.00364   0.00000  -0.00115   0.00041   1.98494
   A40        2.07598   0.00031   0.00000  -0.00939  -0.00975   2.06623
   A41        2.07892  -0.00837   0.00000  -0.07381  -0.07407   2.00484
   A42        1.88293   0.00388   0.00000   0.02364   0.02081   1.90373
   A43        1.71727   0.00130   0.00000   0.01555   0.01402   1.73130
   A44        1.84404  -0.00001   0.00000   0.00693   0.00718   1.85121
   A45        1.98592   0.00000   0.00000  -0.00194  -0.00094   1.98499
   A46        2.09780   0.00070   0.00000  -0.01657  -0.01637   2.08143
   A47        1.90215  -0.00248   0.00000  -0.01259  -0.01172   1.89043
   A48        1.91154   0.00065   0.00000   0.00959   0.00871   1.92025
   A49        1.86730   0.00226   0.00000   0.00207   0.00173   1.86903
   A50        1.96264   0.00115   0.00000   0.00742   0.00704   1.96967
   A51        1.86928   0.00061   0.00000   0.02366   0.02411   1.89339
   A52        2.00623  -0.00318   0.00000  -0.02122  -0.02077   1.98545
   A53        1.88592  -0.00018   0.00000   0.00137   0.00092   1.88684
   A54        1.86686  -0.00050   0.00000  -0.01018  -0.01044   1.85641
    D1       -0.38439  -0.00184   0.00000  -0.03379  -0.03344  -0.41783
    D2       -2.52434  -0.00021   0.00000  -0.01622  -0.01585  -2.54019
    D3        1.67859   0.00105   0.00000   0.00074   0.00111   1.67970
    D4       -2.50616  -0.00165   0.00000  -0.03196  -0.03198  -2.53814
    D5        1.63708  -0.00002   0.00000  -0.01440  -0.01439   1.62269
    D6       -0.44318   0.00124   0.00000   0.00257   0.00257  -0.44061
    D7        1.70617  -0.00121   0.00000  -0.02570  -0.02572   1.68045
    D8       -0.43377   0.00042   0.00000  -0.00814  -0.00813  -0.44190
    D9       -2.51403   0.00168   0.00000   0.00883   0.00883  -2.50520
   D10        0.45283   0.00122   0.00000   0.01890   0.01825   0.47108
   D11        2.67146  -0.00038   0.00000  -0.00169  -0.00230   2.66916
   D12       -1.56585   0.00003   0.00000   0.00479   0.00429  -1.56156
   D13        2.56005   0.00254   0.00000   0.03347   0.03331   2.59336
   D14       -1.50452   0.00094   0.00000   0.01289   0.01276  -1.49175
   D15        0.54137   0.00135   0.00000   0.01937   0.01935   0.56072
   D16       -1.64256   0.00104   0.00000   0.01667   0.01652  -1.62604
   D17        0.57607  -0.00056   0.00000  -0.00392  -0.00403   0.57204
   D18        2.62195  -0.00015   0.00000   0.00257   0.00256   2.62451
   D19       -1.73905   0.00319   0.00000   0.03466   0.03646  -1.70259
   D20        0.17622   0.00239   0.00000   0.03535   0.03479   0.21101
   D21        2.33623   0.00215   0.00000   0.03453   0.03503   2.37126
   D22        0.38875   0.00221   0.00000   0.02797   0.02940   0.41815
   D23        2.30402   0.00141   0.00000   0.02866   0.02773   2.33175
   D24       -1.81916   0.00116   0.00000   0.02784   0.02797  -1.79119
   D25        2.46875   0.00129   0.00000   0.01508   0.01637   2.48512
   D26       -1.89916   0.00049   0.00000   0.01577   0.01470  -1.88446
   D27        0.26084   0.00025   0.00000   0.01495   0.01494   0.27578
   D28        1.33180  -0.00463   0.00000  -0.09388  -0.09004   1.24176
   D29        2.84421  -0.00589   0.00000  -0.06302  -0.06312   2.78109
   D30       -1.12103  -0.00143   0.00000  -0.02184  -0.02236  -1.14339
   D31       -0.67540  -0.00386   0.00000  -0.08730  -0.08217  -0.75757
   D32        0.83701  -0.00511   0.00000  -0.05643  -0.05525   0.78176
   D33       -3.12823  -0.00065   0.00000  -0.01526  -0.01449   3.14047
   D34       -2.74140  -0.00226   0.00000  -0.07355  -0.07011  -2.81151
   D35       -1.22899  -0.00352   0.00000  -0.04269  -0.04319  -1.27218
   D36        1.08895   0.00094   0.00000  -0.00151  -0.00243   1.08653
   D37       -2.07564  -0.00352   0.00000  -0.01545  -0.01505  -2.09069
   D38        0.10084  -0.00218   0.00000  -0.02426  -0.02412   0.07672
   D39        2.19847  -0.00138   0.00000  -0.00886  -0.00898   2.18949
   D40       -0.02672   0.00131   0.00000   0.03698   0.03783   0.01112
   D41        2.14976   0.00264   0.00000   0.02817   0.02876   2.17852
   D42       -2.03580   0.00345   0.00000   0.04357   0.04390  -1.99189
   D43        2.04259  -0.00275   0.00000  -0.01000  -0.00953   2.03306
   D44       -2.06412  -0.00141   0.00000  -0.01881  -0.01860  -2.08272
   D45        0.03351  -0.00061   0.00000  -0.00341  -0.00346   0.03005
   D46        0.98308   0.01040   0.00000   0.12947   0.12949   1.11257
   D47       -1.06676   0.00217   0.00000   0.07446   0.07424  -0.99252
   D48        2.94366   0.00346   0.00000   0.09034   0.08964   3.03330
   D49       -0.74876   0.01109   0.00000   0.11024   0.11133  -0.63743
   D50       -2.79860   0.00286   0.00000   0.05523   0.05607  -2.74252
   D51        1.21182   0.00415   0.00000   0.07111   0.07148   1.28330
   D52       -2.84270   0.00447   0.00000   0.03611   0.03586  -2.80684
   D53        1.39065  -0.00376   0.00000  -0.01891  -0.01939   1.37126
   D54       -0.88212  -0.00247   0.00000  -0.00302  -0.00399  -0.88611
   D55       -1.17789  -0.00091   0.00000  -0.00012   0.00035  -1.17753
   D56        0.87100   0.00184   0.00000   0.00588   0.00664   0.87765
   D57        3.05400   0.00621   0.00000   0.06667   0.06840   3.12241
   D58        0.72681  -0.01015   0.00000  -0.09651  -0.09859   0.62822
   D59        2.77570  -0.00741   0.00000  -0.09051  -0.09230   2.68340
   D60       -1.32449  -0.00304   0.00000  -0.02972  -0.03054  -1.35502
   D61        2.79624  -0.00226   0.00000  -0.01449  -0.01510   2.78114
   D62       -1.43806   0.00048   0.00000  -0.00849  -0.00881  -1.44686
   D63        0.74495   0.00485   0.00000   0.05230   0.05295   0.79790
   D64        0.72423  -0.00788   0.00000  -0.08915  -0.09277   0.63146
   D65       -1.01627  -0.00810   0.00000  -0.09180  -0.09231  -1.10858
   D66        2.80536  -0.00435   0.00000  -0.03457  -0.03416   2.77119
   D67        2.77870  -0.00096   0.00000  -0.03912  -0.04172   2.73698
   D68        1.03820  -0.00118   0.00000  -0.04178  -0.04126   0.99695
   D69       -1.42336   0.00256   0.00000   0.01546   0.01689  -1.40646
   D70       -1.26883  -0.00072   0.00000  -0.03116  -0.03341  -1.30224
   D71       -3.00932  -0.00095   0.00000  -0.03381  -0.03295  -3.04227
   D72        0.81230   0.00280   0.00000   0.02343   0.02520   0.83750
   D73       -0.73598   0.01089   0.00000   0.10447   0.10546  -0.63052
   D74       -2.71044   0.00526   0.00000   0.04881   0.05036  -2.66008
   D75        1.21294   0.00926   0.00000   0.11904   0.11863   1.33157
   D76        1.17224   0.00099   0.00000   0.01158   0.01123   1.18347
   D77       -0.80222  -0.00464   0.00000  -0.04408  -0.04386  -0.84608
   D78        3.12116  -0.00064   0.00000   0.02615   0.02441  -3.13762
   D79       -2.77437   0.00042   0.00000  -0.00257  -0.00219  -2.77656
   D80        1.53436  -0.00521   0.00000  -0.05823  -0.05729   1.47707
   D81       -0.82544  -0.00122   0.00000   0.01200   0.01098  -0.81446
   D82        0.73771   0.00026   0.00000   0.00663   0.00368   0.74139
   D83       -1.24618  -0.00092   0.00000  -0.00588  -0.00792  -1.25410
   D84        2.81130  -0.00001   0.00000   0.00734   0.00499   2.81629
   D85       -0.76030  -0.00108   0.00000  -0.03043  -0.03149  -0.79179
   D86       -2.74419  -0.00226   0.00000  -0.04294  -0.04310  -2.78728
   D87        1.31330  -0.00135   0.00000  -0.02973  -0.03019   1.28311
   D88       -3.10008  -0.00070   0.00000  -0.02550  -0.02557  -3.12565
   D89        1.19921  -0.00188   0.00000  -0.03801  -0.03717   1.16204
   D90       -1.02649  -0.00097   0.00000  -0.02480  -0.02426  -1.05075
   D91       -0.34016   0.00031   0.00000   0.00213   0.00255  -0.33762
   D92       -2.53280  -0.00073   0.00000   0.00581   0.00658  -2.52622
   D93        1.66739   0.00206   0.00000   0.03128   0.03196   1.69935
   D94        1.57590   0.00229   0.00000   0.01836   0.01695   1.59285
   D95       -0.61674   0.00125   0.00000   0.02204   0.02098  -0.59576
   D96       -2.69974   0.00404   0.00000   0.04751   0.04636  -2.65337
   D97       -2.48588  -0.00005   0.00000  -0.00513  -0.00574  -2.49162
   D98        1.60467  -0.00109   0.00000  -0.00145  -0.00170   1.60297
   D99       -0.47833   0.00170   0.00000   0.02402   0.02368  -0.45465
         Item               Value     Threshold  Converged?
 Maximum Force            0.019285     0.000450     NO 
 RMS     Force            0.004594     0.000300     NO 
 Maximum Displacement     0.349150     0.001800     NO 
 RMS     Displacement     0.057571     0.001200     NO 
 Predicted change in Energy=-1.716834D-02
 GradGradGradGradGradGradGradGradGradGradGradGradGradGradGradGradGradGrad

                          Input orientation:                          
 ---------------------------------------------------------------------
 Center     Atomic      Atomic             Coordinates (Angstroms)
 Number     Number       Type             X           Y           Z
 ---------------------------------------------------------------------
      1          6           0       -1.650848    0.091001    0.867227
      2          6           0       -1.149842    1.414577    0.235891
      3          6           0        0.010235    1.037255   -0.714993
      4          6           0        1.419590    1.205755   -0.131171
      5          6           0        1.533772    0.056134    0.920581
      6          6           0        1.390221   -0.845123   -0.342225
      7          6           0        2.247900    0.264580   -1.072318
      8          6           0       -0.005977   -0.524137   -0.887070
      9          6           0       -1.246748   -1.024802   -0.121712
     10          1           0       -2.732489    0.106655    1.034621
     11          1           0       -1.190560   -0.070611    1.847466
     12          1           0       -0.822666    2.121522    1.003965
     13          1           0       -1.959195    1.905102   -0.317951
     14          1           0       -0.057518    1.558685   -1.673484
     15          1           0        1.760768    2.214602    0.111637
     16          1           0        0.803068   -0.018562    1.733874
     17          1           0        2.535810   -0.011891    1.342897
     18          1           0        1.731383   -1.883004   -0.327231
     19          1           0        2.114816    0.399676   -2.153334
     20          1           0        3.314473    0.243974   -0.844233
     21          1           0       -0.051718   -0.851739   -1.929984
     22          1           0       -1.102428   -1.993827    0.366517
     23          1           0       -2.061775   -1.161032   -0.844798
 ---------------------------------------------------------------------
                    Distance matrix (angstroms):
                    1          2          3          4          5
     1  C    0.000000
     2  C    1.549659   0.000000
     3  C    2.481534   1.546716   0.000000
     4  C    3.415708   2.603905   1.534771   0.000000
     5  C    3.185258   3.084794   2.441079   1.562322   0.000000
     6  C    3.403998   3.448533   2.363612   2.061918   1.558059
     7  C    4.358003   3.818187   2.394128   1.567694   2.127222
     8  C    2.482247   2.515568   1.570929   2.365618   2.444410
     9  C    1.544770   2.467355   2.486778   3.476324   3.160077
    10  H    1.094629   2.203043   3.383740   4.450489   4.268084
    11  H    1.094921   2.191942   3.038992   3.515252   2.880480
    12  H    2.197180   1.093962   2.196401   2.674860   3.134579
    13  H    2.188764   1.096545   2.188483   3.455454   4.141675
    14  H    3.338863   2.204462   1.093245   2.164517   3.393971
    15  H    4.088975   3.021114   2.265795   1.092305   2.316226
    16  H    2.604761   2.848103   2.782136   2.314616   1.095880
    17  H    4.214849   4.104180   3.422593   2.213930   1.089521
    18  H    4.094253   4.415043   3.411835   3.110641   2.314377
    19  H    4.837281   4.170900   2.627659   2.285223   3.147155
    20  H    5.254227   4.739946   3.400586   2.241442   2.514110
    21  H    3.357136   3.321608   2.246851   3.103829   3.385814
    22  H    2.213138   3.411235   3.405163   4.104338   3.385096
    23  H    2.160434   2.938243   3.023663   4.269759   4.186408
                    6          7          8          9         10
     6  C    0.000000
     7  C    1.581167   0.000000
     8  C    1.532728   2.395067   0.000000
     9  C    2.652266   3.844309   1.541412   0.000000
    10  H    4.449531   5.410028   3.394799   2.196527   0.000000
    11  H    3.472038   4.523328   3.014400   2.188904   1.752052
    12  H    3.938284   4.145788   3.352985   3.368434   2.776338
    13  H    4.333926   4.578213   3.168621   3.021660   2.379463
    14  H    3.105880   2.711284   2.226937   3.239856   4.074026
    15  H    3.115318   2.332731   3.408737   4.426436   5.048236
    16  H    2.310441   3.168978   2.789176   2.942356   3.606216
    17  H    2.201428   2.447977   3.419916   4.180766   5.278642
    18  H    1.092618   2.331107   2.275600   3.106125   5.073415
    19  H    2.314018   1.097523   2.637160   4.178125   5.809069
    20  H    2.267353   1.090883   3.408403   4.789213   6.333616
    21  H    2.144811   2.696294   1.094114   2.174372   4.110223
    22  H    2.834631   4.288979   2.221187   1.094625   2.741439
    23  H    3.502664   4.545044   2.152610   1.098035   2.364129
                   11         12         13         14         15
    11  H    0.000000
    12  H    2.377454   0.000000
    13  H    3.030391   1.756701   0.000000
    14  H    4.041716   2.840945   2.360900   0.000000
    15  H    4.116508   2.734784   3.757454   2.631168   0.000000
    16  H    1.997540   2.784913   3.942153   3.852064   2.921620
    17  H    3.760834   3.993205   5.161235   4.276752   2.659692
    18  H    4.068394   4.932695   5.288686   4.105823   4.121145
    19  H    5.210861   4.643500   4.715135   2.508504   2.923935
    20  H    5.257331   4.904788   5.554088   3.713010   2.685342
    21  H    4.021971   4.247670   3.719851   2.424040   4.105577
    22  H    2.428937   4.173812   4.050209   4.227739   5.096442
    23  H    3.032543   3.965914   3.112759   3.478595   5.188593
                   16         17         18         19         20
    16  H    0.000000
    17  H    1.776317   0.000000
    18  H    2.930199   2.633912   0.000000
    19  H    4.123832   3.545455   2.948270   0.000000
    20  H    3.608700   2.335663   2.701388   1.782460   0.000000
    21  H    3.853401   4.255866   2.609938   2.511930   3.702794
    22  H    3.066309   4.256544   2.919598   4.735943   5.097321
    23  H    4.020213   5.219609   3.895788   4.646717   5.556805
                   21         22         23
    21  H    0.000000
    22  H    2.771691   0.000000
    23  H    2.305129   1.755328   0.000000
 Stoichiometry    C9H14
 Framework group  C1[X(C9H14)]
 Deg. of freedom    63
 Full point group                 C1      NOp   1
 Largest Abelian subgroup         C1      NOp   1
 Largest concise Abelian subgroup C1      NOp   1
                         Standard orientation:                         
 ---------------------------------------------------------------------
 Center     Atomic      Atomic             Coordinates (Angstroms)
 Number     Number       Type             X           Y           Z
 ---------------------------------------------------------------------
      1          6           0        2.084064   -0.027222    0.532645
      2          6           0        1.430702   -1.242300   -0.173151
      3          6           0        0.092588   -0.740516   -0.764754
      4          6           0       -1.151266   -1.027850    0.087177
      5          6           0       -1.005201   -0.063776    1.307865
      6          6           0       -1.134925    1.030552    0.206427
      7          6           0       -2.154303    0.035360   -0.479539
      8          6           0        0.096468    0.828307   -0.683530
      9          6           0        1.486443    1.224294   -0.147701
     10          1           0        3.175136   -0.048250    0.447006
     11          1           0        1.859822   -0.033581    1.604338
     12          1           0        1.273230   -2.069303    0.525434
     13          1           0        2.085535   -1.621932   -0.966550
     14          1           0       -0.066807   -1.100445   -1.784670
     15          1           0       -1.446172   -2.069040    0.235781
     16          1           0       -0.108573   -0.105856    1.936546
     17          1           0       -1.884698   -0.083853    1.950624
     18          1           0       -1.445936    2.045774    0.464128
     19          1           0       -2.271061    0.077597   -1.570016
     20          1           0       -3.141328   -0.001705   -0.016469
     21          1           0       -0.088779    1.319383   -1.643538
     22          1           0        1.472814    2.099703    0.509321
     23          1           0        2.119407    1.490410   -1.004567
 ---------------------------------------------------------------------
 Rotational constants (GHZ):           3.0791509           1.6092707           1.4279739
 Standard basis: 6-31G(2df,p) (6D, 7F)
 There are   349 symmetry adapted cartesian basis functions of A   symmetry.
 There are   322 symmetry adapted basis functions of A   symmetry.
   322 basis functions,   494 primitive gaussians,   349 cartesian basis functions
    34 alpha electrons       34 beta electrons
       nuclear repulsion energy       482.5470360886 Hartrees.
 NAtoms=   23 NActive=   23 NUniq=   23 SFac= 1.00D+00 NAtFMM=   60 NAOKFM=F Big=F
 Integral buffers will be    131072 words long.
 Raffenetti 2 integral format.
 Two-electron integral symmetry is turned on.
 One-electron integrals computed using PRISM.
 PrsmSu:  requested number of processors reduced to:  13 ShMem   1 Linda.
 NBasis=   322 RedAO= T EigKep=  3.40D-04  NBF=   322
 NBsUse=   322 1.00D-06 EigRej= -1.00D+00 NBFU=   322
 Initial guess from the checkpoint file:  "C1CC2C3CCqC3rC2C1.chk"
 B after Tr=    -0.000000    0.000000    0.000000
         Rot=    0.999834   -0.001662   -0.017289   -0.005515 Ang=  -2.09 deg.
 ExpMin= 1.61D-01 ExpMax= 3.05D+03 ExpMxC= 4.57D+02 IAcc=2 IRadAn=         4 AccDes= 0.00D+00
 Harris functional with IExCor=  402 and IRadAn=       4 diagonalized for initial guess.
 HarFok:  IExCor=  402 AccDes= 0.00D+00 IRadAn=         4 IDoV= 1 UseB2=F ITyADJ=14
 ICtDFT=  3500011 ScaDFX=  1.000000  1.000000  1.000000  1.000000
 FoFCou: FMM=F IPFlag=           0 FMFlag=      100000 FMFlg1=           0
         NFxFlg=           0 DoJE=T BraDBF=F KetDBF=T FulRan=T
         wScrn=  0.000000 ICntrl=       500 IOpCl=  0 I1Cent=   200000004 NGrid=           0
         NMat0=    1 NMatS0=      1 NMatT0=    0 NMatD0=    1 NMtDS0=    0 NMtDT0=    0
 Petite list used in FoFCou.
 Requested convergence on RMS density matrix=1.00D-08 within 128 cycles.
 Requested convergence on MAX density matrix=1.00D-06.
 Requested convergence on             energy=1.00D-06.
 No special actions if energy rises.
 Integral accuracy reduced to 1.0D-05 until final iterations.
 Initial convergence to 1.0D-05 achieved.  Increase integral accuracy.
 SCF Done:  E(RB3LYP) =  -351.372917294     A.U. after   10 cycles
            NFock= 10  Conv=0.55D-08     -V/T= 2.0089
 PrsmSu:  requested number of processors reduced to:  13 ShMem   1 Linda.
 Calling FoFJK, ICntrl=      2127 FMM=F ISym2X=0 I1Cent= 0 IOpClX= 0 NMat=1 NMatS=1 NMatT=0.
 ***** Axes restored to original set *****
 -------------------------------------------------------------------
 Center     Atomic                   Forces (Hartrees/Bohr)
 Number     Number              X              Y              Z
 -------------------------------------------------------------------
      1        6          -0.001425116   -0.000171210    0.000954362
      2        6          -0.001308464   -0.002317619   -0.001672915
      3        6          -0.001095137    0.004116979    0.001229151
      4        6           0.010618476   -0.005112080    0.001352396
      5        6          -0.002978279    0.000460231   -0.001001909
      6        6           0.013541983    0.005056702    0.000997015
      7        6          -0.007116468    0.001021381    0.001953746
      8        6          -0.003625207   -0.004335979   -0.001298373
      9        6          -0.003531221    0.000816676   -0.001580089
     10        1           0.000150643   -0.000186964    0.000526599
     11        1          -0.000853950    0.000224427   -0.000908657
     12        1          -0.000135599    0.001239255   -0.000106577
     13        1           0.000759752   -0.001168744   -0.000129146
     14        1          -0.001681553    0.001305717    0.000398267
     15        1          -0.001819877    0.000283593   -0.001450384
     16        1           0.001815735    0.000264884   -0.003452632
     17        1           0.002383888    0.000942185    0.000472304
     18        1          -0.003492803   -0.000139715   -0.000723843
     19        1          -0.001109650   -0.001745418    0.001344677
     20        1           0.000258629   -0.002081050    0.003133966
     21        1          -0.001450366    0.002333512   -0.000971399
     22        1           0.001298306    0.000118402    0.000439198
     23        1           0.000796279   -0.000925167    0.000494245
 -------------------------------------------------------------------
 Cartesian Forces:  Max     0.013541983 RMS     0.002901600

 GradGradGradGradGradGradGradGradGradGradGradGradGradGradGradGradGradGrad
 Berny optimization.
 Using GEDIIS/GDIIS optimizer.
 FormGI is forming the generalized inverse of G from B-inverse, IUseBI=4.
 Internal  Forces:  Max     0.006195015 RMS     0.001219744
 Search for a local minimum.
 Step number   2 out of a maximum of  138
 All quantities printed in internal units (Hartrees-Bohrs-Radians)
 Mixed Optimization -- RFO/linear search
 Update second derivatives using D2CorX and points    1    2
 DE= -1.41D-02 DEPred=-1.72D-02 R= 8.21D-01
 TightC=F SS=  1.41D+00  RLast= 5.26D-01 DXNew= 5.0454D-01 1.5792D+00
 Trust test= 8.21D-01 RLast= 5.26D-01 DXMaxT set to 5.05D-01
 ITU=  1  0
 Use linear search instead of GDIIS.
     Eigenvalues ---    0.00555   0.00575   0.01692   0.01917   0.02137
     Eigenvalues ---    0.02444   0.02505   0.02685   0.02991   0.03385
     Eigenvalues ---    0.03786   0.03933   0.03999   0.04128   0.04428
     Eigenvalues ---    0.04814   0.04829   0.04996   0.05147   0.05350
     Eigenvalues ---    0.05411   0.05707   0.05966   0.06221   0.06295
     Eigenvalues ---    0.06714   0.06886   0.07320   0.07454   0.07464
     Eigenvalues ---    0.07700   0.08259   0.09517   0.09585   0.11309
     Eigenvalues ---    0.12601   0.13148   0.17539   0.18557   0.21144
     Eigenvalues ---    0.21828   0.22970   0.23438   0.25996   0.27847
     Eigenvalues ---    0.28027   0.29471   0.29869   0.30662   0.33619
[...]
 700,0.00661021,-0.10969175,0.11171512,-0.00028611,0.00384950,-0.005991
 41,-0.00143602,0.00010888,-0.00088175,-0.00109114,-0.00376053,-0.00011
 198,0.00040683,0.00020142,0.00114078,0.00305289,-0.01238408,0.02408259
 ,0.00048291,-0.00247210,0.00054726,-0.00003465,0.00032692,0.00008984,0
 .00004567,0.00019289,0.00004469,0.00009092,-0.00042946,-0.00044269,-0.
 00071250,0.00099187,-0.00000363,-0.01034979,0.11789823,0.00189983,-0.0
 0170219,-0.00079736,-0.00052244,0.00935354,-0.01478649,-0.01207330,0.1
 1309918,-0.24101458,-0.00182181,0.00836539,-0.01258648,-0.00295067,-0.
 00159328,-0.00029572,-0.00019772,-0.00170708,-0.00005909,0.00101460,-0
 .00055772,0.00077561,0.00081790,-0.00542921,0.00598126,0.00022892,-0.0
 0118496,-0.00003862,0.00022662,0.00072809,-0.00037259,-0.00000614,0.00
 004466,-0.00002345,0.00102756,-0.00022885,-0.00096602,0.00002374,-0.00
 026452,0.00187674,0.01272776,-0.12013594,0.25963730,0.00023588,-0.0001
 0125,0.00006584,0.00145465,-0.00055388,-0.00110315,-0.00495144,-0.0253
 2598,-0.00370878,-0.07581788,-0.07895139,-0.01771641,-0.00102892,0.004
 14019,0.00072782,-0.00189794,0.00340132,0.00044420,0.00691699,0.013837
 37,0.00047740,-0.00423865,-0.00051830,-0.00266810,0.00045104,-0.000708
 68,-0.00021737,-0.00003880,0.00003740,0.00004640,-0.00001949,0.0000112
 5,0.00009807,-0.00010383,0.00054814,0.00079230,0.00005464,0.00027414,0
 .00013980,0.00086280,0.00078040,-0.00009887,0.07614646,-0.00003611,-0.
 00004093,0.00011952,-0.00041599,0.00014982,0.00006170,0.00247549,0.001
 94915,0.00097599,-0.07918339,-0.27317159,-0.05520903,-0.00431728,-0.00
 931446,-0.00753028,0.00163262,-0.00719481,0.00015396,-0.00484301,-0.00
 669008,0.00147859,0.00171131,0.00021888,0.00027121,0.00000129,0.000251
 85,-0.00025777,-0.00004950,0.00006609,-0.00000427,0.00003430,-0.000009
 53,-0.00007675,-0.00041531,0.00008601,0.00029860,-0.00007412,0.0000825
 9,0.00007238,-0.00062413,0.00013253,-0.00051188,0.08473673,0.29407331,
 0.00002633,0.00002168,-0.00005721,0.00017770,0.00031085,-0.00001111,-0
 .00087706,-0.00984865,-0.00228973,-0.01800056,-0.05469205,-0.06589773,
 0.00808440,0.01507170,0.00894347,0.00011872,0.00097353,-0.00231185,-0.
 01001571,-0.01098131,-0.00097426,-0.00208583,-0.00045500,0.00000404,0.
 00013032,-0.00045754,-0.00015969,0.00000505,0.00001163,0.00008074,-0.0
 0005118,0.00003128,0.00011108,-0.00005074,0.00008810,0.00020931,-0.000
 06472,0.00000931,-0.00000531,0.00041451,0.00017307,0.00007852,0.022780
 23,0.06075419,0.05913999,-0.00379388,0.00024904,-0.00123290,0.00022670
 ,0.00015855,0.00045461,0.00087150,-0.00003916,-0.00002495,0.00208207,0
 .00034513,-0.00417545,-0.17669659,-0.01431545,0.13329212,0.00285745,0.
 00084384,-0.00455308,0.00061765,-0.00005806,0.00004196,0.00091321,0.00
 002817,0.00005693,0.00019705,-0.00026040,0.00038361,-0.00050127,0.0000
 4254,-0.00024569,-0.00294112,0.00010193,-0.00011620,0.00005450,-0.0000
 7138,0.00005549,0.00000661,-0.00012442,0.00007848,0.00002149,-0.000034
 78,0.00012218,-0.00009305,-0.00008546,0.00028417,0.19320064,-0.0000063
 8,0.00008815,0.00011972,0.00049655,0.00023174,0.00046446,-0.00104388,0
 .00095769,-0.00158694,-0.01781153,0.00339087,0.01136770,-0.01387766,-0
 .05334608,0.01424780,0.01533859,0.00388161,-0.00775124,0.00008366,-0.0
 0178286,0.00088912,0.00069948,0.00054374,0.00155273,-0.00035572,0.0004
 2388,-0.00023499,-0.00005201,-0.00001786,-0.00010070,0.00004311,0.0008
 2303,-0.00010647,0.00007379,-0.00025256,-0.00005567,-0.00004889,-0.000
 08656,-0.00013650,-0.00016357,-0.00011758,-0.00011956,-0.00028430,-0.0
 0043859,0.00067150,0.01520458,0.04401897,0.00074832,0.00007372,-0.0006
 0082,-0.00046082,0.00040384,-0.00054056,0.00119716,0.00010832,0.000687
 32,0.00758878,-0.00320338,-0.00876560,0.12989724,0.01432594,-0.1861032
 5,0.01207915,0.00616556,-0.01003256,-0.00105906,0.00091466,-0.00857042
 ,0.00141621,-0.00020204,0.00105911,-0.00058388,-0.00013063,-0.00070319
 ,0.00048716,-0.00011754,0.00079165,0.00033985,-0.00011666,0.00165470,-
 0.00015983,0.00013762,0.00000122,-0.00005433,-0.00009803,0.00016586,-0
 .00003761,-0.00000056,0.00016500,-0.00004895,0.00033552,-0.00018187,-0
 .14487312,-0.01739509,0.20287782,-0.00026453,-0.00007471,0.00059414,0.
 00016788,-0.00029164,0.00003596,0.00085109,0.00026472,0.00011408,-0.00
 241390,-0.00010030,-0.00038807,-0.27492902,0.01709917,-0.09034318,-0.0
 0352028,0.00043930,-0.00086273,0.00081421,-0.00038985,0.00254614,0.000
 85963,-0.00046068,-0.00021183,0.00019815,0.00026778,0.00010462,-0.0001
 9803,0.00003999,-0.00025442,-0.00016335,0.00007740,-0.00056488,0.00007
 097,-0.00001770,0.00005135,-0.00003546,0.00006860,-0.00002731,-0.00008
 259,-0.00003931,-0.00016727,0.00042798,0.00036942,-0.00018709,-0.01865
 499,0.00153540,-0.00857353,0.29520667,-0.00005268,-0.00018331,0.000036
 17,-0.00040394,0.00003307,0.00010073,-0.00072773,-0.00437894,0.0049479
 2,0.02626816,-0.00093111,0.01260053,0.01661305,-0.04000388,0.00801768,
 -0.02216460,0.00238625,-0.01053643,0.00035539,-0.00182767,-0.00026834,
 0.00037594,-0.00292733,-0.00492751,0.00034580,0.00007545,-0.00004704,-
 0.00001831,0.00011473,-0.00002320,-0.00000051,0.00004426,-0.00006763,-
 0.00004156,0.00005504,-0.00014359,0.00004299,0.00001210,-0.00006433,0.
 00196975,0.00047673,0.00095309,-0.00023727,0.00068808,-0.00138449,-0.0
 0223261,0.00017466,-0.00099991,-0.01849118,0.04477016,0.00042350,0.000
 04022,-0.00056718,0.00015984,0.00022868,-0.00012781,0.00050046,0.00062
 244,-0.00299581,-0.01216205,-0.00183808,-0.00587751,-0.08657713,0.0079
 3116,-0.08460786,-0.01827254,0.00457490,-0.00809095,-0.00323182,-0.000
 13543,-0.00022745,0.00060966,-0.00063051,-0.00445598,0.00024702,-0.000
 18100,-0.00020055,0.00019731,-0.00003367,0.00033679,0.00003980,-0.0000
 8152,0.00066101,-0.00011838,0.00009620,0.00007481,-0.00004009,-0.00003
 910,0.00011118,-0.00097397,-0.00010869,-0.00034034,0.00021398,0.000099
 60,0.00071633,0.02064023,-0.00167280,0.00927825,0.09834258,-0.00906219
 ,0.09586908,0.00024113,0.00006988,0.00008248,0.00048304,0.00072407,-0.
 00001855,-0.00425560,0.00138192,-0.00243093,-0.00213933,-0.00361800,-0
 .00049599,-0.00108838,-0.00453774,-0.00014496,-0.06885120,0.07091959,0
 .00288831,0.00653312,-0.01414237,-0.00324075,-0.00387759,0.02564903,0.
 00284026,0.00150158,0.00075673,-0.00093547,-0.00003831,-0.00004317,0.0
 0003607,-0.00002180,-0.00003570,0.00009472,-0.00029649,0.00012962,0.00
 027735,-0.00006163,-0.00000286,0.00003831,-0.00009396,0.00119727,0.000
 24133,0.00159329,-0.00118542,-0.00038968,-0.00007805,0.00027922,0.0000
 0750,0.00042189,0.00018068,0.00026204,0.06865476,0.00001634,-0.0000118
 9,-0.00011053,-0.00005214,0.00001870,0.00031388,-0.00092724,0.00014840
 ,-0.00011360,-0.00182010,-0.00636698,-0.00124950,0.00190829,-0.0061763
 9,0.00353617,0.07121757,-0.29374474,-0.00335400,0.00651466,-0.00833731
 ,-0.00339213,-0.00202039,-0.00156839,-0.00062354,0.00029955,0.00018039
 ,0.00004220,0.00005149,0.00006869,-0.00000076,-0.00001955,-0.00001036,
 0.00004012,-0.00001718,0.00009605,0.00001036,0.00012197,-0.00001294,-0
 .00007228,0.00016830,-0.00016537,-0.00009479,0.00112164,-0.00114790,0.
 00006021,0.00000426,-0.00018797,-0.00033443,-0.00031300,0.00038036,-0.
 00019958,-0.07678213,0.31627630,0.00003226,-0.00001042,-0.00009153,0.0
 0014625,0.00050183,0.00004177,-0.00240146,0.00059901,0.00009125,-0.000
 39906,-0.00206294,-0.00289799,0.00808099,-0.01942343,0.00587154,0.0026
 4962,-0.00386142,-0.05230483,-0.00807478,0.00942289,0.00105851,-0.0009
 8403,0.01022194,0.00015211,0.00025683,-0.00026393,-0.00008854,0.000017
 47,-0.00001527,0.00007771,-0.00006026,-0.00006088,0.00011434,-0.000262
 78,0.00009253,0.00007034,-0.00000888,0.00001991,0.00005108,0.00002674,
 0.00034699,0.00019200,-0.00011382,-0.00087819,0.00201511,0.00026367,-0
 .00068420,-0.00044728,-0.00021232,0.00130460,0.00102958,0.00058343,0.0
 0522369,0.04443519,0.00011671,-0.00000788,0.00005691,0.00009498,0.0000
 0405,-0.00012708,0.00132281,0.00005693,0.00150811,-0.00021111,-0.00341
 764,0.01095350,-0.00332574,-0.00040905,0.00348486,0.00017131,0.0005606
 1,0.01230615,-0.05559266,0.00489639,-0.03704205,0.00140185,-0.00046544
 ,0.00146520,0.00010100,0.00001172,-0.00013281,0.00001248,0.00000472,-0
 .00004344,0.00000598,0.00001114,-0.00009363,0.00004322,-0.00004771,-0.
 00006290,-0.00000112,0.00001158,-0.00004037,-0.00006346,0.00042011,-0.
 00023048,-0.00000969,0.00011136,-0.00004693,0.00093643,-0.00022346,0.0
 0199511,0.00055585,-0.00007038,0.00040552,-0.00002547,-0.00011333,-0.0
 0004168,0.05702039,0.00002691,0.00009104,0.00001116,-0.00015022,-0.000
 26711,0.00008284,-0.00182214,0.00089877,-0.00049868,-0.00587411,0.0049
 3126,-0.01667050,-0.00067652,-0.00159401,0.00039706,0.00662239,0.00086
 982,0.01921443,0.00467914,-0.05472955,0.03248891,0.00213094,0.00072344
 ,0.00055603,0.00010044,-0.00029032,-0.00021460,-0.00000944,-0.00002295
 ,-0.00002180,0.00001008,-0.00003106,-0.00002712,-0.00001140,0.00003966
 ,0.00002055,0.00002196,-0.00000256,0.00001381,0.00016602,-0.00009305,0
 .00048442,0.00019362,-0.00018149,-0.00072784,0.00008537,0.00234433,0.0
 0044842,0.00000113,-0.00021424,-0.00011072,-0.00027466,-0.00043399,0.0
 0072779,-0.00488694,0.04818673,-0.00021326,0.00001740,-0.00000352,0.00
 010309,-0.00028604,0.00023755,-0.00154848,0.00025952,0.00028082,-0.003
 06431,0.00553037,-0.01070892,0.00555812,0.00034923,-0.00525752,-0.0016
 2186,-0.00234237,-0.00702803,-0.03535838,0.03244908,-0.29566370,-0.001
 04545,-0.00007321,0.00037689,0.00014530,0.00014258,0.00025488,0.000066
 31,-0.00002436,0.00015095,-0.00008546,-0.00002728,0.00019262,-0.000106
 54,0.00007859,0.00005296,0.00011042,-0.00001486,-0.00000510,0.00087542
 ,-0.00040624,0.00071151,0.00028584,-0.00030269,-0.00043519,-0.00039964
 ,0.00050354,-0.00142881,-0.00014872,-0.00009793,0.00055741,0.00023985,
 0.00028873,-0.00016687,0.03543945,-0.03689228,0.32298240,-0.00028916,0
 .00000078,-0.00004178,-0.00018320,-0.00017718,-0.00088990,-0.00145075,
 0.00037111,0.00267588,-0.01070978,-0.00166544,-0.00382130,0.00020978,0
 .00023075,-0.00214102,-0.01174409,0.00319380,-0.00347356,-0.29528679,0
 .01374634,-0.06098140,-0.00162165,-0.00114010,0.00266658,-0.00023044,0
 .00044095,-0.00085968,-0.00005325,-0.00001824,0.00019054,0.00002671,-0
 .00001495,0.00012993,0.00002860,0.00007190,0.00003881,-0.00028230,0.00
 001995,0.00019061,0.00020867,0.00002408,-0.00004430,0.00058169,0.00033
 421,0.00007430,0.00067527,-0.00005981,0.00031273,0.00081603,-0.0001247
 2,0.00091723,0.00061458,-0.00034058,-0.00005501,-0.00250390,0.00006129
 ,-0.00004775,0.32125284,0.00002735,-0.00047798,-0.00007715,0.00125414,
 0.00046967,0.00105587,0.00277231,-0.00280450,-0.00416905,0.02370142,-0
 .00007067,0.00589232,-0.00042692,-0.00171798,-0.00026266,-0.02598005,0
 .00315200,-0.00580030,0.01416819,-0.04071378,0.00490415,-0.00319318,-0
 .00366863,0.00375008,-0.00139159,0.00077357,-0.00104578,0.00001039,0.0
 0021744,0.00002736,0.00000033,0.00010319,0.00001526,-0.00011546,0.0000
 6495,0.00005629,0.00046986,-0.00005314,-0.00025319,-0.00023339,-0.0000
 2913,-0.00018102,-0.00100020,0.00040095,0.00088426,0.00002756,-0.00016
 050,-0.00007357,-0.00004756,0.00051540,0.00016063,0.00111798,0.0006281
 8,-0.00092775,0.00383506,-0.00029513,0.00072960,-0.01479091,0.04383729
 ,-0.00024760,-0.00007240,0.00011854,0.00084979,-0.00010491,0.00086620,
 0.00170790,-0.00017960,-0.00263942,0.01437764,0.00213370,0.00290778,0.
 00295886,-0.00037980,0.00065472,0.00784836,-0.00272228,0.00072027,-0.0
 6426164,0.00498013,-0.06689080,0.00094133,-0.00017730,-0.00160353,0.00
 051117,0.00004340,0.00060924,-0.00003144,0.00003252,-0.00002531,0.0000
 1155,0.00001799,-0.00003640,-0.00009855,0.00000717,0.00007016,0.000312
 17,-0.00002842,-0.00018363,0.00011792,-0.00034484,0.00028245,-0.000606
 74,0.00007867,0.00081099,-0.00036438,-0.00005803,0.00034550,0.00031877
 ,0.00017444,-0.00087360,-0.00033839,-0.00010010,0.00055031,-0.02930568
 ,0.00140353,-0.00576156,0.06499445,-0.00496376,0.06974130,-0.00276121,
 -0.00123035,0.00196977,-0.00071501,0.00000578,0.00037140,-0.00052466,-
 0.00052907,0.00172510,-0.00001083,0.00006252,-0.00058723,-0.00625149,0
 .00141464,-0.00176420,-0.00480060,-0.00956838,-0.02806201,0.00200522,0
 .00137083,-0.00177846,-0.04596146,-0.00445072,-0.01780578,-0.00158448,
 0.00561189,0.02363974,-0.00033471,0.00072147,0.00068986,-0.00006051,0.
 00026476,0.00040784,-0.00007007,0.00021652,0.00003598,-0.00007350,0.00
 018230,0.00000240,0.00061922,-0.00026696,-0.00001493,-0.00015776,-0.00
 016601,-0.00003446,0.00002974,0.00016098,0.00000263,-0.00016222,-0.001
 62634,-0.00142634,0.00085268,0.00046483,0.00054664,-0.00009374,-0.0003
 8331,0.00081780,0.00021711,0.00018019,0.00018489,0.05952973,-0.0009334
 2,-0.00222871,0.00069883,-0.00061194,-0.00244807,-0.00120022,-0.003598
 60,-0.00644919,-0.02747373,0.00092091,-0.00402197,-0.00089348,0.002402
 77,-0.00068608,0.00089065,0.00117121,0.00377407,0.01145632,-0.00073215
 ,0.00034876,-0.00116061,-0.00448636,-0.06263034,-0.06429718,-0.0012905
 3,0.00406299,0.01259592,0.00001402,0.00045069,0.00010324,-0.00003070,0
 .00019091,-0.00000414,0.00085336,-0.00033285,-0.00057708,0.00032449,-0
 .00014104,-0.00017503,0.00032319,0.00188972,0.00059049,-0.00121868,-0.
 00001757,-0.00041010,-0.00000498,-0.00013634,-0.00007668,0.00011862,0.
 00070166,0.00042817,-0.00076754,0.00005814,-0.00020229,-0.00034345,0.0
 0001089,0.00017905,-0.00002677,-0.00014573,0.00022654,0.00757849,0.067
 41056,0.00178433,0.00122923,-0.00016764,0.00012711,0.00054183,-0.00004
 145,0.00011709,0.00212344,0.00020959,0.00011723,0.00067595,0.00015163,
 -0.00237910,0.00163525,0.00036180,-0.00192242,-0.00403906,-0.01193530,
 0.00088988,0.00040572,0.00060047,-0.01774627,-0.06568355,-0.28754524,-
 0.00123830,-0.00434483,-0.01379047,0.00020359,-0.00051769,-0.00053344,
 -0.00001659,0.00001324,-0.00003389,0.00000197,-0.00015480,0.00004289,0
 .00009055,-0.00012847,0.00003853,0.00003757,-0.00043114,0.00127909,-0.
 00006790,0.00002749,0.00010767,0.00012965,0.00003576,0.00017572,-0.000
 18538,-0.00068084,-0.00048566,-0.00027439,0.00051358,0.00016362,-0.000
 35560,-0.00065899,0.00063763,-0.00004480,0.00007177,0.00039054,0.01953
 747,0.06907217,0.30927124,-0.00174143,0.00670467,-0.00471544,-0.001090
 69,-0.00001744,0.00182976,-0.00271712,-0.00160189,0.00266284,0.0003070
 0,-0.00070983,0.00006478,-0.00011102,0.00003123,-0.00013448,0.00180705
 ,-0.00006513,-0.00050528,0.00053641,-0.00002717,0.00014719,0.00531473,
 -0.02247668,0.01211058,-0.05812810,0.04730679,-0.02757507,-0.00031483,
 0.00036245,0.00029325,0.00090178,-0.00071938,0.00014354,0.00032603,0.0
 0024158,-0.00027969,0.00000972,-0.00024051,-0.00000316,-0.00011960,-0.
 00084014,-0.00021183,-0.00030074,0.00010240,-0.00025117,0.00005452,-0.
 00004315,-0.00018270,0.00007408,0.00006978,-0.00010853,-0.00011334,0.0
 0042651,0.00005350,0.00004692,0.00003878,-0.00010358,0.00003107,0.0001
 3858,-0.00006599,-0.00082378,-0.00033690,0.00098496,0.06139305,0.00380
 869,-0.01670355,0.01093886,0.00008465,-0.00212532,-0.00224187,-0.00017
 396,-0.00084276,0.00010524,0.00039781,-0.00025947,0.00026399,-0.000391
 65,-0.00002555,-0.00006901,0.00095370,0.00082716,-0.00002666,-0.000065
 90,0.00007474,-0.00008509,0.00186993,-0.00686724,0.00371883,0.04603376
 ,-0.22998776,0.10717688,0.00040966,-0.00098863,-0.00061075,-0.00059227
 ,0.00151040,0.00011792,-0.00021868,-0.00096559,0.00045602,0.00009232,-
 0.00015552,0.00015520,-0.00023534,-0.00044038,0.00002654,-0.00017710,0
 .00012389,-0.00006716,0.00004158,-0.00021672,-0.00018719,0.00000225,0.
 00004137,-0.00009939,-0.00071813,0.00020255,-0.00009172,0.00006247,0.0
 0006023,-0.00007124,-0.00007715,0.00007821,-0.00000090,-0.00048131,-0.
 00059141,0.00027564,-0.04957810,0.25168456,0.00370192,-0.01954231,0.01
 010613,0.00136924,-0.00289136,-0.00230755,0.00151061,-0.00082094,-0.00
 187425,-0.00024956,0.00032878,0.00000018,0.00040720,-0.00004844,0.0003
 9294,-0.00150792,-0.00039783,0.00117161,-0.00028854,-0.00007825,-0.000
 13620,-0.00294767,0.01269510,-0.00741446,-0.02749045,0.10960560,-0.108
 36169,0.00058444,-0.00030897,-0.00031769,-0.00025025,0.00057074,0.0017
 0175,-0.00036856,-0.00081941,0.00047815,-0.00003473,-0.00033189,0.0001
 9209,0.00000166,0.00044323,0.00019963,0.00023725,-0.00000869,0.0000468
 2,0.00007118,-0.00000429,-0.00003461,0.00006037,0.00013279,0.00008548,
 0.00061426,-0.00033472,0.00010237,-0.00004958,-0.00001540,0.00002865,0
 .00001696,-0.00005514,0.00005455,0.00103719,0.00048701,-0.00077887,0.0
 2834884,-0.11676298,0.11733026,0.00700459,0.00314656,0.00839524,-0.000
 20731,-0.00011418,0.00018875,-0.00061959,-0.00000632,0.00040042,-0.000
 08981,0.00014646,0.00011979,0.00046250,0.00030702,0.00071191,-0.001450
 36,-0.00341350,0.00315481,-0.00147285,0.00043739,-0.00060065,-0.020756
 95,-0.00309086,-0.01565161,-0.18799924,-0.03656277,-0.12441918,0.00169
 550,-0.00050649,0.00022535,0.00069291,0.00191041,0.00197010,0.00001632
 ,-0.00009058,-0.00004527,0.00014105,-0.00010998,-0.00009551,-0.0000972
 2,-0.00034104,0.00000935,-0.00006723,-0.00011340,-0.00004058,0.0000141
 2,0.00005502,-0.00003801,-0.00004006,-0.00002973,-0.00004832,0.0000450
 8,0.00009024,-0.00004333,-0.00000302,-0.00004931,0.00010182,-0.0003070
 5,-0.00052411,0.00018560,0.00113233,0.00067495,0.00020935,-0.00534172,
 -0.00104722,-0.00477385,0.20724801,-0.01680009,-0.00402868,-0.01715134
 ,0.00015496,0.00005913,-0.00009245,0.00021382,-0.00040904,0.00050487,0
 .00007351,0.00018037,0.00004081,0.00012118,0.00003675,-0.00009232,0.00
 005744,-0.00043506,0.00108000,-0.00032903,0.00021844,-0.00014802,-0.00
 833440,-0.00128018,-0.00692243,-0.03659057,-0.05835955,-0.02987025,-0.
 00013904,0.00159310,0.00067931,0.00081845,-0.00302339,-0.00237091,0.00
 022604,-0.00018348,0.00023637,0.00010431,-0.00045544,0.00012466,-0.000
 18148,-0.00018053,0.00006561,-0.00000514,-0.00001619,-0.00003720,0.000
 09413,-0.00013504,0.00002210,-0.00005785,-0.00000284,0.00001065,-0.000
 29825,0.00010648,0.00002127,-0.00000087,-0.00000072,0.00001080,-0.0000
 5930,-0.00010367,0.00003428,0.00046722,0.00093090,0.00001829,0.0212335
 5,0.00556678,0.01815735,0.03923142,0.05992183,-0.01346669,-0.00391084,
 -0.01622720,-0.00011479,0.00003895,-0.00035642,0.00033191,-0.00015428,
 -0.00032313,-0.00006121,-0.00012843,-0.00003799,0.00023901,-0.00003583
 ,-0.00034923,0.00154274,0.00181388,-0.00104909,0.00072367,-0.00016856,
 0.00032313,0.01623711,0.00322342,0.00925903,-0.12518975,-0.02968127,-0
 .14999641,0.00025953,0.00067094,0.00100357,0.00115640,-0.00405695,-0.0
 0162496,0.00004761,-0.00025392,0.00021309,-0.00007804,-0.00031551,0.00
 028823,-0.00003766,0.00011536,0.00010163,0.00004096,0.00005214,0.00005
 989,0.00011116,0.00005416,0.00020684,-0.00004127,0.00003545,0.00013077
 ,0.00006321,-0.00004897,-0.00001980,-0.00004256,-0.00001102,-0.0000050
 4,0.00019248,0.00026176,-0.00010830,0.00050469,-0.00025785,0.00188154,
 -0.01250233,-0.00292117,-0.01066532,0.13008383,0.03567853,0.16729516\\
 -0.00000227,0.00002522,-0.00000049,-0.00000119,-0.00000449,0.00001582,
 0.00000634,-0.00002494,0.00000216,-0.00003182,0.00001344,-0.00000117,0
 .00002905,0.00000742,-0.00003140,0.00003275,-0.00003029,0.00001929,-0.
 00001496,-0.00000726,0.00001809,-0.00008835,0.00002967,0.00001114,0.00
 005242,0.00000360,-0.00003705,-0.00000155,0.00000259,0.00000450,-0.000
 00299,-0.00000030,0.00000560,0.00000095,-0.00000109,-0.00000181,-0.000
 00715,0.00000276,0.00000481,0.00000731,-0.00000242,0.00000147,0.000006
 82,0.00000657,0.00000321,-0.00000801,0.00000003,0.00000339,-0.00001124
 ,-0.00000082,-0.00000450,-0.00000114,-0.00000595,-0.00000885,0.0000177
 8,0.00000149,-0.00000399,0.00000824,0.00000398,-0.00000984,0.00001985,
 -0.00000737,0.00000227,-0.00000338,-0.00000083,0.00000198,-0.00000745,
 -0.00001100,0.00000539\\\@


 IT MATTERS NOT HOW DEEP YOU PLOW,
 BUT HOW LONG YOU STAY IN THE FURROW.
 Job cpu time:       0 days  3 hours 17 minutes 52.3 seconds.
 Elapsed time:       0 days  0 hours 49 minutes 34.2 seconds.
 File lengths (MBytes):  RWF=    175 Int=      0 D2E=      0 Chk=     10 Scr=      1
 Normal termination of Gaussian 16 at Sun May 28 11:41:24 2023.
### All Done ###
