### Starting Gaussian ###
 Entering Gaussian System, Link 0=g16
 Initial command:
 /cluster/software/gaussian/gaussian-16-A.03/avx2/g16/l1.exe "/local/scratch/linjian/Gau-26327.inp" -scrdir="/local/scratch/linjian/"
 Entering Link 1 = /cluster/software/gaussian/gaussian-16-A.03/avx2/g16/l1.exe PID=     26328.
  
 Copyright (c) 1988,1990,1992,1993,1995,1998,2003,2009,2016,
            Gaussian, Inc.  All Rights Reserved.
  
 This is part of the Gaussian(R) 16 program.  It is based on
 the Gaussian(R) 09 system (copyright 2009, Gaussian, Inc.),
 the Gaussian(R) 03 system (copyright 2003, Gaussian, Inc.),
 the Gaussian(R) 98 system (copyright 1998, Gaussian, Inc.),
 the Gaussian(R) 94 system (copyright 1995, Gaussian, Inc.),
 the Gaussian 92(TM) system (copyright 1992, Gaussian, Inc.),
 the Gaussian 90(TM) system (copyright 1990, Gaussian, Inc.),
 the Gaussian 88(TM) system (copyright 1988, Gaussian, Inc.),
 the Gaussian 86(TM) system (copyright 1986, Carnegie Mellon
 University), and the Gaussian 82(TM) system (copyright 1983,
 Carnegie Mellon University). Gaussian is a federally registered
 trademark of Gaussian, Inc.
  
 This software contains proprietary and confidential information,
 including trade secrets, belonging to Gaussian, Inc.
  
 This software is provided under written license and may be
 used, copied, transmitted, or stored only in accord with that
 written license.
  
 The following legend is applicable only to US Government
 contracts under FAR:
  
                    RESTRICTED RIGHTS LEGEND
  
 Use, reproduction and disclosure by the US Government is
 subject to restrictions as set forth in subparagraphs (a)
 and (c) of the Commercial Computer Software - Restricted
 Rights clause in FAR 52.227-19.
  
 Gaussian, Inc.
 340 Quinnipiac St., Bldg. 40, Wallingford CT 06492
  
  
 ---------------------------------------------------------------
 Warning -- This program may not be used in any manner that
 competes with the business of Gaussian, Inc. or will provide
 assistance to any competitor of Gaussian, Inc.  The licensee
 of this program is prohibited from giving any competitor of
 Gaussian, Inc. access to this program.  By using this program,
 the user acknowledges that Gaussian, Inc. is engaged in the
 business of creating and licensing software in the field of
 computational chemistry and represents and warrants to the
 licensee that it is not a competitor of Gaussian, Inc. and that
 it will not use this program in any manner prohibited above.
 ---------------------------------------------------------------
  

 Cite this work as:
 Gaussian 16, Revision A.03,
 M. J. Frisch, G. W. Trucks, H. B. Schlegel, G. E. Scuseria, 
 M. A. Robb, J. R. Cheeseman, G. Scalmani, V. Barone, 
 G. A. Petersson, H. Nakatsuji, X. Li, M. Caricato, A. V. Marenich, 
 J. Bloino, B. G. Janesko, R. Gomperts, B. Mennucci, H. P. Hratchian, 
 J. V. Ortiz, A. F. Izmaylov, J. L. Sonnenberg, D. Williams-Young, 
 F. Ding, F. Lipparini, F. Egidi, J. Goings, B. Peng, A. Petrone, 
 T. Henderson, D. Ranasinghe, V. G. Zakrzewski, J. Gao, N. Rega, 
 G. Zheng, W. Liang, M. Hada, M. Ehara, K. Toyota, R. Fukuda, 
 J. Hasegawa, M. Ishida, T. Nakajima, Y. Honda, O. Kitao, H. Nakai, 
 T. Vreven, K. Throssell, J. A. Montgomery, Jr., J. E. Peralta, 
 F. Ogliaro, M. J. Bearpark, J. J. Heyd, E. N. Brothers, K. N. Kudin, 
 V. N. Staroverov, T. A. Keith, R. Kobayashi, J. Normand, 
 K. Raghavachari, A. P. Rendell, J. C. Burant, S. S. Iyengar, 
 J. Tomasi, M. Cossi, J. M. Millam, M. Klene, C. Adamo, R. Cammi, 
 J. W. Ochterski, R. L. Martin, K. Morokuma, O. Farkas, 
 J. B. Foresman, and D. J. Fox, Gaussian, Inc., Wallingford CT, 2016.
 
 ******************************************
 Gaussian 16:  ES64L-G16RevA.03 25-Dec-2016
                29-May-2023 
 ******************************************
 %chk=C1CC2C1C1C3CC1C23.chk
 %NProcShared=20
 Will use up to   20 processors via shared memory.
 -----------------------------
 # opt freq b3lyp/6-31g(2df,p)
 -----------------------------
 1/18=20,19=15,26=3,38=1/1,3;
 2/9=110,12=2,17=6,18=5,40=1/2;
 3/5=1,6=6,7=104,11=2,25=1,30=1,71=1,74=-5/1,2,3;
 4//1;
 5/5=2,38=5/2;
 6/7=2,8=2,9=2,10=2,28=1/1;
 7//1,2,3,16;
 1/18=20,19=15,26=3/3(2);
 2/9=110/2;
 99//99;
 2/9=110/2;
 3/5=1,6=6,7=104,11=2,25=1,30=1,71=1,74=-5/1,2,3;
 4/5=5,16=3,69=1/1;
 5/5=2,38=5/2;
 7//1,2,3,16;
 1/18=20,19=15,26=3/3(-5);
 2/9=110/2;
 6/7=2,8=2,9=2,10=2,19=2,28=1/1;
 99/9=1/99;
 -------------------
 Title Card Required
 -------------------
 Symbolic Z-matrix:
 Charge =  0 Multiplicity = 1
 C                     0.121     0.90709  -0.54222 
 C                     0.96069  -0.22409   0.09434 
 C                    -0.30008  -1.02596   0.24559 
 C                    -1.18726   0.17193  -0.18536 
 C                    -2.20742  -0.62577  -1.18688 
 C                    -1.7343   -1.92585  -1.94875 
 C                    -2.57201  -2.9206   -1.054 
 C                    -2.35422  -1.76056  -0.14358 
 C                    -0.65846  -2.0236   -0.83041 
 H                     0.34296   1.12479  -1.58451 
 H                     0.27561   1.82666   0.04544 
 H                     1.36679  -0.01952   1.09514 
 H                     1.76437  -0.65248  -0.50829 
 H                    -0.4263   -1.4738    1.23447 
 H                    -1.70483   0.64854   0.65727 
 H                    -3.11549  -0.13448  -1.55318 
 H                    -1.6334   -2.15763  -2.99951 
 H                    -2.0497   -3.79162  -0.61479 
 H                    -3.59689  -3.19835  -1.24441 
 H                    -2.64396  -1.62447   0.87549 
 H                     0.02396  -1.61978  -1.62107 
 

 GradGradGradGradGradGradGradGradGradGradGradGradGradGradGradGradGradGrad
 Berny optimization.
 Initialization pass.
                           ----------------------------
                           !    Initial Parameters    !
                           ! (Angstroms and Degrees)  !
 --------------------------                            --------------------------
 ! Name  Definition              Value          Derivative Info.                !
 --------------------------------------------------------------------------------
 ! R1    R(1,2)                  1.5459         estimate D2E/DX2                !
 ! R2    R(1,4)                  1.5425         estimate D2E/DX2                !
 ! R3    R(1,10)                 1.0877         estimate D2E/DX2                !
 ! R4    R(1,11)                 1.1022         estimate D2E/DX2                !
 ! R5    R(2,3)                  1.5018         estimate D2E/DX2                !
 ! R6    R(2,12)                 1.0993         estimate D2E/DX2                !
 ! R7    R(2,13)                 1.0921         estimate D2E/DX2                !
 ! R8    R(3,4)                  1.5517         estimate D2E/DX2                !
 ! R9    R(3,9)                  1.5105         estimate D2E/DX2                !
 ! R10   R(3,14)                 1.0929         estimate D2E/DX2                !
 ! R11   R(4,5)                  1.6371         estimate D2E/DX2                !
 ! R12   R(4,15)                 1.0978         estimate D2E/DX2                !
 ! R13   R(5,6)                  1.5794         estimate D2E/DX2                !
 ! R14   R(5,8)                  1.5485         estimate D2E/DX2                !
 ! R15   R(5,16)                 1.0955         estimate D2E/DX2                !
 ! R16   R(6,7)                  1.5786         estimate D2E/DX2                !
 ! R17   R(6,9)                  1.5549         estimate D2E/DX2                !
 ! R18   R(6,17)                 1.0807         estimate D2E/DX2                !
 ! R19   R(7,8)                  1.4906         estimate D2E/DX2                !
 ! R20   R(7,18)                 1.1065         estimate D2E/DX2                !
 ! R21   R(7,19)                 1.0788         estimate D2E/DX2                !
 ! R22   R(8,20)                 1.0682         estimate D2E/DX2                !
 ! R23   R(9,21)                 1.1198         estimate D2E/DX2                !
 ! A1    A(2,1,4)               90.9557         estimate D2E/DX2                !
 ! A2    A(2,1,10)             115.4803         estimate D2E/DX2                !
 ! A3    A(2,1,11)             108.3452         estimate D2E/DX2                !
 ! A4    A(4,1,10)             119.3516         estimate D2E/DX2                !
 ! A5    A(4,1,11)             113.1568         estimate D2E/DX2                !
 ! A6    A(10,1,11)            108.3795         estimate D2E/DX2                !
 ! A7    A(1,2,3)               88.6347         estimate D2E/DX2                !
 ! A8    A(1,2,12)             116.0642         estimate D2E/DX2                !
 ! A9    A(1,2,13)             117.3579         estimate D2E/DX2                !
 ! A10   A(3,2,12)             108.5307         estimate D2E/DX2                !
 ! A11   A(3,2,13)             117.6418         estimate D2E/DX2                !
 ! A12   A(12,2,13)            107.6698         estimate D2E/DX2                !
 ! A13   A(2,3,4)               92.2822         estimate D2E/DX2                !
 ! A14   A(2,3,9)              118.6919         estimate D2E/DX2                !
 ! A15   A(2,3,14)             114.0092         estimate D2E/DX2                !
 ! A16   A(4,3,9)              100.1594         estimate D2E/DX2                !
 ! A17   A(4,3,14)             120.1069         estimate D2E/DX2                !
 ! A18   A(9,3,14)             110.2746         estimate D2E/DX2                !
 ! A19   A(1,4,3)               86.9768         estimate D2E/DX2                !
 ! A20   A(1,4,5)              128.2587         estimate D2E/DX2                !
 ! A21   A(1,4,15)             111.7488         estimate D2E/DX2                !
 ! A22   A(3,4,5)               98.6286         estimate D2E/DX2                !
 ! A23   A(3,4,15)             113.0516         estimate D2E/DX2                !
 ! A24   A(5,4,15)             112.789          estimate D2E/DX2                !
 ! A25   A(4,5,6)              120.6322         estimate D2E/DX2                !
 ! A26   A(4,5,8)               90.2282         estimate D2E/DX2                !
 ! A27   A(4,5,16)             120.17           estimate D2E/DX2                !
 ! A28   A(6,5,8)               75.5324         estimate D2E/DX2                !
 ! A29   A(6,5,16)             117.1397         estimate D2E/DX2                !
 ! A30   A(8,5,16)             118.3822         estimate D2E/DX2                !
 ! A31   A(5,6,7)               94.9525         estimate D2E/DX2                !
 ! A32   A(5,6,9)               84.9553         estimate D2E/DX2                !
 ! A33   A(5,6,17)             132.3379         estimate D2E/DX2                !
 ! A34   A(7,6,9)               85.4051         estimate D2E/DX2                !
 ! A35   A(7,6,17)             117.7418         estimate D2E/DX2                !
 ! A36   A(9,6,17)             128.4045         estimate D2E/DX2                !
 ! A37   A(6,7,8)               77.188          estimate D2E/DX2                !
 ! A38   A(6,7,18)             118.0689         estimate D2E/DX2                !
 ! A39   A(6,7,19)             124.4969         estimate D2E/DX2                !
 ! A40   A(8,7,18)             107.5295         estimate D2E/DX2                !
 ! A41   A(8,7,19)             116.5495         estimate D2E/DX2                !
 ! A42   A(18,7,19)            108.4111         estimate D2E/DX2                !
 ! A43   A(5,8,7)               99.9424         estimate D2E/DX2                !
 ! A44   A(5,8,20)             125.1095         estimate D2E/DX2                !
 ! A45   A(7,8,20)             129.9566         estimate D2E/DX2                !
 ! A46   A(3,9,6)              129.4204         estimate D2E/DX2                !
 ! A47   A(3,9,21)              96.9041         estimate D2E/DX2                !
 ! A48   A(6,9,21)              83.7509         estimate D2E/DX2                !
 ! D1    D(4,1,2,3)              8.1876         estimate D2E/DX2                !
 ! D2    D(4,1,2,12)          -101.8255         estimate D2E/DX2                !
 ! D3    D(4,1,2,13)           128.8638         estimate D2E/DX2                !
 ! D4    D(10,1,2,3)          -115.2484         estimate D2E/DX2                !
 ! D5    D(10,1,2,12)          134.7384         estimate D2E/DX2                !
 ! D6    D(10,1,2,13)            5.4277         estimate D2E/DX2                !
 ! D7    D(11,1,2,3)           123.0155         estimate D2E/DX2                !
 ! D8    D(11,1,2,12)           13.0023         estimate D2E/DX2                !
 ! D9    D(11,1,2,13)         -116.3084         estimate D2E/DX2                !
 ! D10   D(2,1,4,3)             -7.9315         estimate D2E/DX2                !
 ! D11   D(2,1,4,5)           -106.5401         estimate D2E/DX2                !
 ! D12   D(2,1,4,15)           105.7146         estimate D2E/DX2                !
 ! D13   D(10,1,4,3)           112.2678         estimate D2E/DX2                !
 ! D14   D(10,1,4,5)            13.6592         estimate D2E/DX2                !
 ! D15   D(10,1,4,15)         -134.0861         estimate D2E/DX2                !
 ! D16   D(11,1,4,3)          -118.3885         estimate D2E/DX2                !
 ! D17   D(11,1,4,5)           143.0029         estimate D2E/DX2                !
 ! D18   D(11,1,4,15)           -4.7423         estimate D2E/DX2                !
 ! D19   D(1,2,3,4)             -8.1442         estimate D2E/DX2                !
 ! D20   D(1,2,3,9)             94.7439         estimate D2E/DX2                !
 ! D21   D(1,2,3,14)          -132.7073         estimate D2E/DX2                !
 ! D22   D(12,2,3,4)           108.9559         estimate D2E/DX2                !
 ! D23   D(12,2,3,9)          -148.1559         estimate D2E/DX2                !
 ! D24   D(12,2,3,14)          -15.6071         estimate D2E/DX2                !
 ! D25   D(13,2,3,4)          -128.5699         estimate D2E/DX2                !
 ! D26   D(13,2,3,9)           -25.6818         estimate D2E/DX2                !
 ! D27   D(13,2,3,14)          106.867          estimate D2E/DX2                !
 ! D28   D(2,3,4,1)              8.1714         estimate D2E/DX2                !
 ! D29   D(2,3,4,5)            136.4263         estimate D2E/DX2                !
 ! D30   D(2,3,4,15)          -104.2105         estimate D2E/DX2                !
 ! D31   D(9,3,4,1)           -111.5165         estimate D2E/DX2                !
 ! D32   D(9,3,4,5)             16.7383         estimate D2E/DX2                !
 ! D33   D(9,3,4,15)           136.1015         estimate D2E/DX2                !
 ! D34   D(14,3,4,1)           127.7633         estimate D2E/DX2                !
 ! D35   D(14,3,4,5)          -103.9818         estimate D2E/DX2                !
 ! D36   D(14,3,4,15)           15.3813         estimate D2E/DX2                !
 ! D37   D(2,3,9,6)           -104.5279         estimate D2E/DX2                !
 ! D38   D(2,3,9,21)           -16.9582         estimate D2E/DX2                !
 ! D39   D(4,3,9,6)             -6.2374         estimate D2E/DX2                !
 ! D40   D(4,3,9,21)            81.3324         estimate D2E/DX2                !
 ! D41   D(14,3,9,6)           121.3132         estimate D2E/DX2                !
 ! D42   D(14,3,9,21)         -151.1171         estimate D2E/DX2                !
 ! D43   D(1,4,5,6)             64.6895         estimate D2E/DX2                !
 ! D44   D(1,4,5,8)            137.9516         estimate D2E/DX2                !
 ! D45   D(1,4,5,16)           -98.5336         estimate D2E/DX2                !
 ! D46   D(3,4,5,6)            -28.2758         estimate D2E/DX2                !
 ! D47   D(3,4,5,8)             44.9863         estimate D2E/DX2                !
 ! D48   D(3,4,5,16)           168.5011         estimate D2E/DX2                !
 ! D49   D(15,4,5,6)          -147.8355         estimate D2E/DX2                !
 ! D50   D(15,4,5,8)           -74.5734         estimate D2E/DX2                !
 ! D51   D(15,4,5,16)           48.9414         estimate D2E/DX2                !
 ! D52   D(4,5,6,7)            106.7466         estimate D2E/DX2                !
 ! D53   D(4,5,6,9)             21.8165         estimate D2E/DX2                !
 ! D54   D(4,5,6,17)          -117.9336         estimate D2E/DX2                !
 ! D55   D(8,5,6,7)             25.2579         estimate D2E/DX2                !
 ! D56   D(8,5,6,9)            -59.6721         estimate D2E/DX2                !
 ! D57   D(8,5,6,17)           160.5777         estimate D2E/DX2                !
 ! D58   D(16,5,6,7)           -89.5387         estimate D2E/DX2                !
 ! D59   D(16,5,6,9)          -174.4688         estimate D2E/DX2                !
 ! D60   D(16,5,6,17)           45.7811         estimate D2E/DX2                !
 ! D61   D(4,5,8,7)           -148.8772         estimate D2E/DX2                !
 ! D62   D(4,5,8,20)            54.1599         estimate D2E/DX2                !
 ! D63   D(6,5,8,7)            -27.1963         estimate D2E/DX2                !
 ! D64   D(6,5,8,20)           175.8408         estimate D2E/DX2                !
 ! D65   D(16,5,8,7)            86.1359         estimate D2E/DX2                !
 ! D66   D(16,5,8,20)          -70.827          estimate D2E/DX2                !
 ! D67   D(5,6,7,8)            -26.1136         estimate D2E/DX2                !
 ! D68   D(5,6,7,18)          -129.3395         estimate D2E/DX2                !
 ! D69   D(5,6,7,19)            87.4586         estimate D2E/DX2                !
 ! D70   D(9,6,7,8)             58.4056         estimate D2E/DX2                !
 ! D71   D(9,6,7,18)           -44.8203         estimate D2E/DX2                !
 ! D72   D(9,6,7,19)           171.9778         estimate D2E/DX2                !
 ! D73   D(17,6,7,8)          -170.1508         estimate D2E/DX2                !
 ! D74   D(17,6,7,18)           86.6233         estimate D2E/DX2                !
 ! D75   D(17,6,7,19)          -56.5786         estimate D2E/DX2                !
 ! D76   D(5,6,9,3)             -8.829          estimate D2E/DX2                !
 ! D77   D(5,6,9,21)          -102.6434         estimate D2E/DX2                !
 ! D78   D(7,6,9,3)           -104.225          estimate D2E/DX2                !
 ! D79   D(7,6,9,21)           161.9606         estimate D2E/DX2                !
 ! D80   D(17,6,9,3)           133.6202         estimate D2E/DX2                !
 ! D81   D(17,6,9,21)           39.8058         estimate D2E/DX2                !
 ! D82   D(6,7,8,5)             27.0062         estimate D2E/DX2                !
 ! D83   D(6,7,8,20)          -177.6789         estimate D2E/DX2                !
 ! D84   D(18,7,8,5)           142.7415         estimate D2E/DX2                !
 ! D85   D(18,7,8,20)          -61.9436         estimate D2E/DX2                !
 ! D86   D(19,7,8,5)           -95.3825         estimate D2E/DX2                !
 ! D87   D(19,7,8,20)           59.9324         estimate D2E/DX2                !
 --------------------------------------------------------------------------------
 Trust Radius=3.00D-01 FncErr=1.00D-07 GrdErr=1.00D-06 EigMax=2.50D+02 EigMin=1.00D-04
 Number of steps in this run=    126 maximum allowed number of steps=    126.
 GradGradGradGradGradGradGradGradGradGradGradGradGradGradGradGradGradGrad

                          Input orientation:                          
 ---------------------------------------------------------------------
 Center     Atomic      Atomic             Coordinates (Angstroms)
 Number     Number       Type             X           Y           Z
 ---------------------------------------------------------------------
      1          6           0        0.121000    0.907090   -0.542220
      2          6           0        0.960690   -0.224090    0.094340
      3          6           0       -0.300080   -1.025960    0.245590
      4          6           0       -1.187260    0.171930   -0.185360
      5          6           0       -2.207420   -0.625770   -1.186880
      6          6           0       -1.734300   -1.925850   -1.948750
      7          6           0       -2.572010   -2.920600   -1.054000
      8          6           0       -2.354220   -1.760560   -0.143580
      9          6           0       -0.658460   -2.023600   -0.830410
     10          1           0        0.342960    1.124790   -1.584510
     11          1           0        0.275610    1.826660    0.045440
     12          1           0        1.366790   -0.019520    1.095140
     13          1           0        1.764370   -0.652480   -0.508290
     14          1           0       -0.426300   -1.473800    1.234470
     15          1           0       -1.704830    0.648540    0.657270
     16          1           0       -3.115490   -0.134480   -1.553180
     17          1           0       -1.633400   -2.157630   -2.999510
     18          1           0       -2.049700   -3.791620   -0.614790
     19          1           0       -3.596890   -3.198350   -1.244410
     20          1           0       -2.643960   -1.624470    0.875490
     21          1           0        0.023960   -1.619780   -1.621070
 ---------------------------------------------------------------------
                    Distance matrix (angstroms):
                    1          2          3          4          5
     1  C    0.000000
     2  C    1.545916   0.000000
     3  C    2.129468   1.501803   0.000000
     4  C    1.542515   2.201988   1.551692   0.000000
     5  C    2.861256   3.440900   2.418691   1.637099   0.000000
     6  C    3.666881   3.785918   2.771627   2.794544   1.579397
     7  C    4.708018   4.590187   3.231139   3.497972   2.327408
     8  C    3.660872   3.661417   2.215983   2.257888   1.548475
     9  C    3.046236   2.591340   1.510463   2.348632   2.116666
    10  H    1.087671   2.240447   2.896289   2.281915   3.118815
    11  H    1.102206   2.162707   2.917005   2.220673   3.701144
    12  H    2.256446   1.099257   2.124409   2.863478   4.283705
    13  H    2.265850   1.092054   2.229299   3.081567   4.029431
    14  H    3.020729   2.187559   1.092875   2.302912   3.123216
    15  H    2.199836   2.860659   2.224130   1.097753   2.297249
    16  H    3.547080   4.397453   3.457867   2.383881   1.095506
    17  H    4.302174   4.476582   3.686339   3.680398   2.441664
    18  H    5.176396   4.721502   3.383829   4.078963   3.220989
    19  H    5.583047   5.604463   4.219992   4.276294   2.924398
    20  H    4.007955   3.945220   2.499752   2.544490   2.332668
    21  H    2.749256   2.401675   1.985458   2.595870   2.481055
                    6          7          8          9         10
     6  C    0.000000
     7  C    1.578564   0.000000
     8  C    1.915792   1.490634   0.000000
     9  C    1.554886   2.125153   1.848385   0.000000
    10  H    3.708650   5.014347   4.204320   3.388786   0.000000
    11  H    4.700836   5.643951   4.451953   4.057598   1.775921
    12  H    4.745115   5.343146   4.290870   3.438854   3.088397
    13  H    3.992128   4.924059   4.280612   2.802470   2.517408
    14  H    3.471038   3.454620   2.387075   2.149397   3.910381
    15  H    3.663290   4.052062   2.620464   3.232401   3.073408
    16  H    2.296338   2.882189   2.282683   3.182478   3.680709
    17  H    1.080740   2.290878   2.972134   2.381904   4.084422
    18  H    2.315173   1.106521   2.107125   2.260074   5.553041
    19  H    2.363174   1.078786   2.196200   3.191521   5.858978
    20  H    2.982389   2.325524   1.068164   2.647944   4.746759
    21  H    1.814533   2.958507   2.803308   1.119782   2.763288
                   11         12         13         14         15
    11  H    0.000000
    12  H    2.387661   0.000000
    13  H    2.944343   1.769095   0.000000
    14  H    3.577640   2.312902   2.917330   0.000000
    15  H    2.384207   3.173781   3.884138   2.544037   0.000000
    16  H    4.230983   5.207461   5.017285   4.098355   2.736635
    17  H    5.365688   5.508068   4.473980   4.455480   4.609960
    18  H    6.116211   5.368892   4.940918   3.380456   4.631640
    19  H    6.473847   6.341654   5.980505   4.378534   4.689866
    20  H    4.595995   4.325532   4.721545   2.251574   2.469040
    21  H    3.836474   3.426634   2.281003   2.894504   3.650318
                   16         17         18         19         20
    16  H    0.000000
    17  H    2.895099   0.000000
    18  H    3.923157   2.920637   0.000000
    19  H    3.116791   2.831743   1.772622   0.000000
    20  H    2.888053   4.039940   2.696408   2.806982   0.000000
    21  H    3.473740   2.221761   3.166947   3.967910   3.653852
                   21
    21  H    0.000000
 Stoichiometry    C9H12
 Framework group  C1[X(C9H12)]
 Deg. of freedom    57
 Full point group                 C1      NOp   1
 Largest Abelian subgroup         C1      NOp   1
 Largest concise Abelian subgroup C1      NOp   1
                         Standard orientation:                         
 ---------------------------------------------------------------------
 Center     Atomic      Atomic             Coordinates (Angstroms)
 Number     Number       Type             X           Y           Z
 ---------------------------------------------------------------------
      1          6           0       -2.140395    0.660495    0.386900
      2          6           0       -2.130845   -0.850784    0.061628
      3          6           0       -0.759473   -0.679048   -0.525960
      4          6           0       -0.835259    0.866378   -0.409082
      5          6           0        0.671376    1.143193    0.168426
      6          6           0        1.417773    0.047963    1.027413
      7          6           0        2.429125   -0.355662   -0.115443
      8          6           0        1.259001    0.164911   -0.878204
      9          6           0        0.442766   -0.953564    0.346256
     10          1           0       -2.164746    0.911250    1.444991
     11          1           0       -3.020043    1.114187   -0.098116
     12          1           0       -2.813912   -1.177659   -0.735202
     13          1           0       -2.240568   -1.544766    0.897650
     14          1           0       -0.632826   -1.149269   -1.504341
     15          1           0       -1.019472    1.361691   -1.371263
     16          1           0        1.067269    2.163933    0.207056
     17          1           0        1.781206    0.044240    2.045206
     18          1           0        2.535996   -1.429325   -0.360832
     19          1           0        3.375632    0.130372   -0.293417
     20          1           0        1.098950    0.224450   -1.932629
     21          1           0       -0.091900   -0.912396    1.329286
 ---------------------------------------------------------------------
 Rotational constants (GHZ):           4.1289027           1.4561319           1.3582599
 Standard basis: 6-31G(2df,p) (6D, 7F)
 There are   339 symmetry adapted cartesian basis functions of A   symmetry.
 There are   312 symmetry adapted basis functions of A   symmetry.
   312 basis functions,   480 primitive gaussians,   339 cartesian basis functions
    33 alpha electrons       33 beta electrons
       nuclear repulsion energy       459.6874546559 Hartrees.
 NAtoms=   21 NActive=   21 NUniq=   21 SFac= 1.00D+00 NAtFMM=   60 NAOKFM=F Big=F
 Integral buffers will be    131072 words long.
 Raffenetti 2 integral format.
 Two-electron integral symmetry is turned on.
 One-electron integrals computed using PRISM.
 PrsmSu:  requested number of processors reduced to:  13 ShMem   1 Linda.
 NBasis=   312 RedAO= T EigKep=  3.34D-04  NBF=   312
 NBsUse=   312 1.00D-06 EigRej= -1.00D+00 NBFU=   312
 ExpMin= 1.61D-01 ExpMax= 3.05D+03 ExpMxC= 4.57D+02 IAcc=3 IRadAn=         5 AccDes= 0.00D+00
 Harris functional with IExCor=  402 and IRadAn=       5 diagonalized for initial guess.
 HarFok:  IExCor=  402 AccDes= 0.00D+00 IRadAn=         5 IDoV= 1 UseB2=F ITyADJ=14
 ICtDFT=  3500011 ScaDFX=  1.000000  1.000000  1.000000  1.000000
 FoFCou: FMM=F IPFlag=           0 FMFlag=      100000 FMFlg1=           0
         NFxFlg=           0 DoJE=T BraDBF=F KetDBF=T FulRan=T
         wScrn=  0.000000 ICntrl=       500 IOpCl=  0 I1Cent=   200000004 NGrid=           0
         NMat0=    1 NMatS0=      1 NMatT0=    0 NMatD0=    1 NMtDS0=    0 NMtDT0=    0
 Petite list used in FoFCou.
 Requested convergence on RMS density matrix=1.00D-08 within 128 cycles.
 Requested convergence on MAX density matrix=1.00D-06.
 Requested convergence on             energy=1.00D-06.
 No special actions if energy rises.
 Integral accuracy reduced to 1.0D-05 until final iterations.
 Initial convergence to 1.0D-05 achieved.  Increase integral accuracy.
 SCF Done:  E(RB3LYP) =  -349.795159704     A.U. after   17 cycles
            NFock= 17  Conv=0.45D-08     -V/T= 2.0072

 **********************************************************************

            Population analysis using the SCF density.

 **********************************************************************

 Orbital symmetries:
       Occupied  (A) (A) (A) (A) (A) (A) (A) (A) (A) (A) (A) (A)
                 (A) (A) (A) (A) (A) (A) (A) (A) (A) (A) (A) (A)
                 (A) (A) (A) (A) (A) (A) (A) (A) (A)
       Virtual   (A) (A) (A) (A) (A) (A) (A) (A) (A) (A) (A) (A)
                 (A) (A) (A) (A) (A) (A) (A) (A) (A) (A) (A) (A)
                 (A) (A) (A) (A) (A) (A) (A) (A) (A) (A) (A) (A)
                 (A) (A) (A) (A) (A) (A) (A) (A) (A) (A) (A) (A)
                 (A) (A) (A) (A) (A) (A) (A) (A) (A) (A) (A) (A)
                 (A) (A) (A) (A) (A) (A) (A) (A) (A) (A) (A) (A)
                 (A) (A) (A) (A) (A) (A) (A) (A) (A) (A) (A) (A)
                 (A) (A) (A) (A) (A) (A) (A) (A) (A) (A) (A) (A)
                 (A) (A) (A) (A) (A) (A) (A) (A) (A) (A) (A) (A)
                 (A) (A) (A) (A) (A) (A) (A) (A) (A) (A) (A) (A)
                 (A) (A) (A) (A) (A) (A) (A) (A) (A) (A) (A) (A)
                 (A) (A) (A) (A) (A) (A) (A) (A) (A) (A) (A) (A)
                 (A) (A) (A) (A) (A) (A) (A) (A) (A) (A) (A) (A)
                 (A) (A) (A) (A) (A) (A) (A) (A) (A) (A) (A) (A)
                 (A) (A) (A) (A) (A) (A) (A) (A) (A) (A) (A) (A)
                 (A) (A) (A) (A) (A) (A) (A) (A) (A) (A) (A) (A)
                 (A) (A) (A) (A) (A) (A) (A) (A) (A) (A) (A) (A)
                 (A) (A) (A) (A) (A) (A) (A) (A) (A) (A) (A) (A)
                 (A) (A) (A) (A) (A) (A) (A) (A) (A) (A) (A) (A)
                 (A) (A) (A) (A) (A) (A) (A) (A) (A) (A) (A) (A)
                 (A) (A) (A) (A) (A) (A) (A) (A) (A) (A) (A) (A)
                 (A) (A) (A) (A) (A) (A) (A) (A) (A) (A) (A) (A)
                 (A) (A) (A) (A) (A) (A) (A) (A) (A) (A) (A) (A)
                 (A) (A) (A)
 The electronic state is 1-A.
 Alpha  occ. eigenvalues --  -10.24515 -10.20941 -10.20676 -10.19310 -10.18277
 Alpha  occ. eigenvalues --  -10.17756 -10.16655 -10.16229 -10.14944  -0.92155
 Alpha  occ. eigenvalues --   -0.83559  -0.70517  -0.69213  -0.66806  -0.62197
 Alpha  occ. eigenvalues --   -0.58684  -0.53104  -0.51530  -0.51007  -0.48063
 Alpha  occ. eigenvalues --   -0.44614  -0.42785  -0.41944  -0.38227  -0.36813
 Alpha  occ. eigenvalues --   -0.35297  -0.33188  -0.32380  -0.30224  -0.28720
 Alpha  occ. eigenvalues --   -0.28275  -0.24939  -0.14025
 Alpha virt. eigenvalues --   -0.07215   0.07180   0.08084   0.11321   0.12368
 Alpha virt. eigenvalues --    0.13067   0.13875   0.14677   0.16391   0.16862
 Alpha virt. eigenvalues --    0.17077   0.17694   0.19018   0.19132   0.19528
 Alpha virt. eigenvalues --    0.21346   0.22257   0.22891   0.24888   0.26038
 Alpha virt. eigenvalues --    0.27665   0.30248   0.34413   0.37742   0.42549
 Alpha virt. eigenvalues --    0.44782   0.45544   0.47605   0.48904   0.50429
 Alpha virt. eigenvalues --    0.51671   0.52454   0.53548   0.54245   0.55308
 Alpha virt. eigenvalues --    0.56011   0.57749   0.58868   0.61438   0.61834
 Alpha virt. eigenvalues --    0.63690   0.64231   0.65290   0.65504   0.68347
 Alpha virt. eigenvalues --    0.69214   0.71256   0.72587   0.73375   0.74716
 Alpha virt. eigenvalues --    0.75243   0.76263   0.76423   0.79003   0.79438
 Alpha virt. eigenvalues --    0.80102   0.81530   0.82703   0.84351   0.85483
 Alpha virt. eigenvalues --    0.86643   0.88613   0.90042   0.93988   0.97464
 Alpha virt. eigenvalues --    1.03631   1.09031   1.09888   1.10811   1.14851
 Alpha virt. eigenvalues --    1.16462   1.17292   1.19845   1.22204   1.25573
 Alpha virt. eigenvalues --    1.27298   1.28719   1.30152   1.33245   1.33590
 Alpha virt. eigenvalues --    1.36508   1.38920   1.40625   1.42372   1.45636
 Alpha virt. eigenvalues --    1.47615   1.47709   1.49424   1.50000   1.51442
 Alpha virt. eigenvalues --    1.53413   1.54289   1.56598   1.57461   1.58630
 Alpha virt. eigenvalues --    1.59333   1.63978   1.65445   1.67536   1.69317
 Alpha virt. eigenvalues --    1.71697   1.72942   1.75543   1.76882   1.82723
 Alpha virt. eigenvalues --    1.83295   1.84554   1.88578   1.92224   1.93651
 Alpha virt. eigenvalues --    1.95321   1.96816   1.99461   2.01834   2.04654
 Alpha virt. eigenvalues --    2.10430   2.14828   2.21130   2.22263   2.23790
 Alpha virt. eigenvalues --    2.30923   2.32361   2.33570   2.33681   2.35848
 Alpha virt. eigenvalues --    2.38344   2.41893   2.44398   2.45021   2.48288
 Alpha virt. eigenvalues --    2.52109   2.54477   2.55026   2.56528   2.58399
 Alpha virt. eigenvalues --    2.61899   2.65018   2.67275   2.69742   2.70820
 Alpha virt. eigenvalues --    2.75105   2.76522   2.76984   2.81827   2.84218
 Alpha virt. eigenvalues --    2.88755   2.89761   2.90681   2.90881   2.93337
 Alpha virt. eigenvalues --    2.95896   2.95978   2.97428   2.99306   3.00936
 Alpha virt. eigenvalues --    3.03336   3.04234   3.07113   3.08018   3.08601
 Alpha virt. eigenvalues --    3.10497   3.13322   3.13996   3.16764   3.19481
 Alpha virt. eigenvalues --    3.19832   3.22077   3.24288   3.26876   3.32352
 Alpha virt. eigenvalues --    3.32803   3.35240   3.37231   3.39988   3.41955
 Alpha virt. eigenvalues --    3.43059   3.43819   3.46701   3.47435   3.51881
 Alpha virt. eigenvalues --    3.52612   3.56285   3.59867   3.61108   3.61242
 Alpha virt. eigenvalues --    3.63419   3.66923   3.67345   3.71279   3.74309
 Alpha virt. eigenvalues --    3.77471   3.78554   3.84754   3.87417   3.88161
 Alpha virt. eigenvalues --    3.96452   3.97039   3.98528   4.01561   4.05594
 Alpha virt. eigenvalues --    4.07517   4.12206   4.13594   4.16107   4.26121
 Alpha virt. eigenvalues --    4.27272   4.30481   4.31798   4.35581   4.37811
 Alpha virt. eigenvalues --    4.38686   4.43690   4.44710   4.45950   4.48315
 Alpha virt. eigenvalues --    4.51013   4.51959   4.53227   4.56052   4.57234
 Alpha virt. eigenvalues --    4.59903   4.62139   4.63360   4.64527   4.66472
 Alpha virt. eigenvalues --    4.66954   4.69354   4.71647   4.72905   4.74353
 Alpha virt. eigenvalues --    4.76513   4.77895   4.78983   4.80767   4.83032
 Alpha virt. eigenvalues --    4.83512   4.85737   4.89022   4.90738   4.91668
 Alpha virt. eigenvalues --    4.93107   4.95897   4.98790   4.99954   5.00896
 Alpha virt. eigenvalues --    5.04101   5.06653   5.06678   5.12413   5.14081
 Alpha virt. eigenvalues --    5.20653   5.21338   5.27129   5.31342   5.32839
 Alpha virt. eigenvalues --    5.36490   5.45047   5.48678   5.50089   5.56576
 Alpha virt. eigenvalues --    5.58932   5.60285   5.65312   5.66937   5.78130
 Alpha virt. eigenvalues --    5.85396   6.04160   6.32213   6.83989   7.45251
 Alpha virt. eigenvalues --   10.87769  11.25009  11.76635  11.87594  11.96445
 Alpha virt. eigenvalues --   12.26817  12.42020  12.68437  13.22246
          Condensed to atoms (all electrons):
               1          2          3          4          5          6
     1  C    4.994590   0.361426  -0.074912   0.350108  -0.015858   0.000628
     2  C    0.361426   5.084858   0.351512  -0.070338   0.003626   0.002664
     3  C   -0.074912   0.351512   4.727516   0.295922  -0.046406  -0.023230
     4  C    0.350108  -0.070338   0.295922   4.943975   0.388943  -0.029245
     5  C   -0.015858   0.003626  -0.046406   0.388943   5.039188   0.268637
     6  C    0.000628   0.002664  -0.023230  -0.029245   0.268637   5.043538
     7  C   -0.000462  -0.000493  -0.001437   0.006744  -0.039673   0.363992
     8  C    0.000140   0.010004  -0.040735   0.020847   0.401938  -0.064142
     9  C    0.002925  -0.031330   0.481764  -0.124989  -0.150611   0.300300
    10  H    0.360663  -0.026092   0.001019  -0.019640  -0.007041   0.000203
    11  H    0.347333  -0.025576   0.004975  -0.010564   0.002369  -0.000022
    12  H   -0.017964   0.341976  -0.010481   0.000060  -0.000387  -0.000110
    13  H   -0.032431   0.356062  -0.029936   0.011316   0.000647  -0.000916
    14  H    0.014141  -0.074054   0.394077  -0.045366   0.005335   0.003434
    15  H   -0.035667   0.006237  -0.027035   0.326597  -0.043022   0.004136
    16  H    0.001485  -0.000316   0.006480  -0.042338   0.332201  -0.046700
    17  H    0.000018   0.000027   0.001488   0.000253  -0.031482   0.366870
    18  H    0.000015  -0.000049  -0.000519   0.000472   0.007094  -0.016731
    19  H   -0.000002   0.000023  -0.000009  -0.000130   0.000409  -0.033342
    20  H    0.000217   0.000143  -0.002808  -0.006228  -0.052384   0.012672
    21  H   -0.000302  -0.028591  -0.047170   0.026359   0.023025  -0.076685
               7          8          9         10         11         12
     1  C   -0.000462   0.000140   0.002925   0.360663   0.347333  -0.017964
     2  C   -0.000493   0.010004  -0.031330  -0.026092  -0.025576   0.341976
     3  C   -0.001437  -0.040735   0.481764   0.001019   0.004975  -0.010481
     4  C    0.006744   0.020847  -0.124989  -0.019640  -0.010564   0.000060
     5  C   -0.039673   0.401938  -0.150611  -0.007041   0.002369  -0.000387
     6  C    0.363992  -0.064142   0.300300   0.000203  -0.000022  -0.000110
     7  C    5.020767   0.346534  -0.073463   0.000013   0.000005   0.000003
     8  C    0.346534   4.948034   0.115151   0.000271  -0.000151  -0.000408
     9  C   -0.073463   0.115151   5.494994   0.000260   0.000108   0.004910
    10  H    0.000013   0.000271   0.000260   0.630100  -0.039335   0.003885
    11  H    0.000005  -0.000151   0.000108  -0.039335   0.637147  -0.009907
    12  H    0.000003  -0.000408   0.004910   0.003885  -0.009907   0.652732
    13  H    0.000007   0.000636  -0.011763  -0.006478   0.004280  -0.044996
    14  H    0.001154  -0.029721  -0.046839  -0.000584  -0.000747  -0.007407
    15  H   -0.000339  -0.009127   0.015664   0.003830  -0.009457   0.000606
    16  H   -0.000122  -0.024054   0.017916   0.000112  -0.000029   0.000006
    17  H   -0.054970   0.009851  -0.029961  -0.000007  -0.000002  -0.000001
    18  H    0.371425  -0.013549  -0.019265   0.000000  -0.000000   0.000003
    19  H    0.312325  -0.032476   0.012984   0.000001  -0.000000  -0.000000
    20  H   -0.045535   0.339018  -0.008210  -0.000002   0.000014   0.000019
    21  H    0.004249  -0.005484   0.295756   0.001239  -0.000059   0.000169
              13         14         15         16         17         18
     1  C   -0.032431   0.014141  -0.035667   0.001485   0.000018   0.000015
     2  C    0.356062  -0.074054   0.006237  -0.000316   0.000027  -0.000049
     3  C   -0.029936   0.394077  -0.027035   0.006480   0.001488  -0.000519
     4  C    0.011316  -0.045366   0.326597  -0.042338   0.000253   0.000472
     5  C    0.000647   0.005335  -0.043022   0.332201  -0.031482   0.007094
     6  C   -0.000916   0.003434   0.004136  -0.046700   0.366870  -0.016731
     7  C    0.000007   0.001154  -0.000339  -0.000122  -0.054970   0.371425
     8  C    0.000636  -0.029721  -0.009127  -0.024054   0.009851  -0.013549
     9  C   -0.011763  -0.046839   0.015664   0.017916  -0.029961  -0.019265
    10  H   -0.006478  -0.000584   0.003830   0.000112  -0.000007   0.000000
    11  H    0.004280  -0.000747  -0.009457  -0.000029  -0.000002  -0.000000
    12  H   -0.044996  -0.007407   0.000606   0.000006  -0.000001   0.000003
    13  H    0.647420   0.003428  -0.000878  -0.000001   0.000001   0.000008
    14  H    0.003428   0.723938  -0.006418  -0.000235  -0.000075   0.000290
    15  H   -0.000878  -0.006418   0.697796   0.001026  -0.000044  -0.000001
    16  H   -0.000001  -0.000235   0.001026   0.684574  -0.000726  -0.000562
    17  H    0.000001  -0.000075  -0.000044  -0.000726   0.654181   0.001310
    18  H    0.000008   0.000290  -0.000001  -0.000562   0.001310   0.597131
    19  H    0.000001  -0.000143  -0.000036   0.001234   0.002352  -0.053142
    20  H   -0.000027   0.001491   0.006384   0.000689  -0.000938   0.000116
    21  H    0.014073   0.006014  -0.001077  -0.002300  -0.003095   0.003016
              19         20         21
     1  C   -0.000002   0.000217  -0.000302
     2  C    0.000023   0.000143  -0.028591
     3  C   -0.000009  -0.002808  -0.047170
     4  C   -0.000130  -0.006228   0.026359
     5  C    0.000409  -0.052384   0.023025
     6  C   -0.033342   0.012672  -0.076685
     7  C    0.312325  -0.045535   0.004249
     8  C   -0.032476   0.339018  -0.005484
     9  C    0.012984  -0.008210   0.295756
    10  H    0.000001  -0.000002   0.001239
    11  H   -0.000000   0.000014  -0.000059
    12  H   -0.000000   0.000019   0.000169
    13  H    0.000001  -0.000027   0.014073
    14  H   -0.000143   0.001491   0.006014
    15  H   -0.000036   0.006384  -0.001077
    16  H    0.001234   0.000689  -0.002300
    17  H    0.002352  -0.000938  -0.003095
    18  H   -0.053142   0.000116   0.003016
    19  H    0.734339  -0.002076  -0.000478
    20  H   -0.002076   0.650489  -0.000466
    21  H   -0.000478  -0.000466   0.647352
 Mulliken charges:
               1
     1  C   -0.256092
     2  C   -0.261718
     3  C    0.039926
     4  C   -0.022757
     5  C   -0.086548
     6  C   -0.075952
     7  C   -0.210725
     8  C    0.027423
     9  C   -0.246302
    10  H    0.097583
    11  H    0.099617
    12  H    0.087293
    13  H    0.089548
    14  H    0.058288
    15  H    0.070825
    16  H    0.071660
    17  H    0.084950
    18  H    0.122936
    19  H    0.058167
    20  H    0.107423
    21  H    0.144455
 Sum of Mulliken charges =  -0.00000
 Mulliken charges with hydrogens summed into heavy atoms:
               1
     1  C   -0.058892
     2  C   -0.084878
     3  C    0.098214
     4  C    0.048068
     5  C   -0.014888
     6  C    0.008998
     7  C   -0.029622
     8  C    0.134846
     9  C   -0.101847
 Electronic spatial extent (au):  <R**2>=           1027.1024
 Charge=             -0.0000 electrons
 Dipole moment (field-independent basis, Debye):
    X=              0.1149    Y=              1.5167    Z=             -0.6425  Tot=              1.6512
 Quadrupole moment (field-independent basis, Debye-Ang):
   XX=            -55.2089   YY=            -59.5059   ZZ=            -51.8993
   XY=              1.1108   XZ=             -0.1229   YZ=              0.5667
 Traceless Quadrupole moment (field-independent basis, Debye-Ang):
   XX=              0.3291   YY=             -3.9679   ZZ=              3.6388
   XY=              1.1108   XZ=             -0.1229   YZ=              0.5667
 Octapole moment (field-independent basis, Debye-Ang**2):
  XXX=             -1.3502  YYY=              7.7567  ZZZ=             -0.2414  XYY=             -1.2813
  XXY=              1.0208  XXZ=             -2.1429  XZZ=              1.2109  YZZ=              0.6072
  YYZ=             -2.8009  XYZ=              0.9304
 Hexadecapole moment (field-independent basis, Debye-Ang**3):
 XXXX=           -942.6945 YYYY=           -299.5096 ZZZZ=           -200.1323 XXXY=             -2.5816
 XXXZ=              6.1086 YYYX=              6.8994 YYYZ=              6.1143 ZZZX=              0.7134
 ZZZY=              0.0595 XXYY=           -202.3463 XXZZ=           -182.3207 YYZZ=            -84.6363
 XXYZ=              0.8858 YYXZ=             -1.0351 ZZXY=              0.6477
 N-N= 4.596874546559D+02 E-N=-1.729069587514D+03  KE= 3.472901488813D+02
 PrsmSu:  requested number of processors reduced to:  13 ShMem   1 Linda.
 Calling FoFJK, ICntrl=      2127 FMM=F ISym2X=0 I1Cent= 0 IOpClX= 0 NMat=1 NMatS=1 NMatT=0.
 ***** Axes restored to original set *****
 -------------------------------------------------------------------
 Center     Atomic                   Forces (Hartrees/Bohr)
 Number     Number              X              Y              Z
 -------------------------------------------------------------------
      1        6           0.016069197    0.021970461    0.009933866
      2        6           0.014207058    0.003804891    0.001852278
      3        6          -0.013741598    0.015700241   -0.004994825
      4        6          -0.005574638   -0.003472206   -0.016826942
      5        6          -0.026260612   -0.000455634    0.040144954
      6        6          -0.030716838    0.023162757    0.037164131
      7        6          -0.016947518   -0.009818462    0.001113873
      8        6          -0.020143740   -0.016320652   -0.028897902
      9        6           0.069335633   -0.009244199   -0.000047936
     10        1          -0.003281632   -0.000206081   -0.004001864
     11        1          -0.006258486    0.001184885   -0.008837666
     12        1           0.002187638    0.009139543   -0.005897663
     13        1          -0.000097806   -0.003938206   -0.001659502
     14        1           0.000214579    0.000218134   -0.000722055
     15        1          -0.010930742    0.003052555   -0.010487874
     16        1          -0.001739578    0.003966245    0.006343692
     17        1           0.016521756    0.011513770   -0.005452215
     18        1          -0.004585819    0.002455935   -0.020633242
     19        1          -0.017630061    0.001246798   -0.011891815
     20        1           0.003014231   -0.000748248    0.018076905
     21        1           0.036358976   -0.053212527    0.005721802
 -------------------------------------------------------------------
 Cartesian Forces:  Max     0.069335633 RMS     0.017925493

 GradGradGradGradGradGradGradGradGradGradGradGradGradGradGradGradGradGrad
 Berny optimization.
 FormGI is forming the generalized inverse of G from B-inverse, IUseBI=4.
 Internal  Forces:  Max     0.072264041 RMS     0.013999577
 Search for a local minimum.
 Step number   1 out of a maximum of  126
 All quantities printed in internal units (Hartrees-Bohrs-Radians)
 Mixed Optimization -- RFO/linear search
 Second derivative matrix not updated -- first step.
 ITU=  0
     Eigenvalues ---    0.00410   0.00480   0.00766   0.00944   0.01676
     Eigenvalues ---    0.02062   0.02350   0.02474   0.02766   0.03139
     Eigenvalues ---    0.03163   0.03429   0.03846   0.04373   0.04557
     Eigenvalues ---    0.04850   0.04930   0.05278   0.05530   0.05713
     Eigenvalues ---    0.06378   0.06520   0.07033   0.07282   0.08037
     Eigenvalues ---    0.08260   0.08281   0.09200   0.09341   0.10677
     Eigenvalues ---    0.12369   0.13226   0.15647   0.17444   0.18317
     Eigenvalues ---    0.20569   0.21876   0.23056   0.25918   0.26093
     Eigenvalues ---    0.26312   0.27321   0.29424   0.30560   0.30829
     Eigenvalues ---    0.31586   0.32971   0.33439   0.33764   0.33932
     Eigenvalues ---    0.34184   0.34482   0.34576   0.35083   0.35905
     Eigenvalues ---    0.36141   0.37463
 RFO step:  Lambda=-1.27126421D-01 EMin= 4.09904435D-03
 Linear search not attempted -- first point.
 Maximum step size (   0.300) exceeded in Quadratic search.
    -- Step size scaled by   0.656
 Iteration  1 RMS(Cart)=  0.08746253 RMS(Int)=  0.00319513
 Iteration  2 RMS(Cart)=  0.00466697 RMS(Int)=  0.00103670
 Iteration  3 RMS(Cart)=  0.00000702 RMS(Int)=  0.00103668
 Iteration  4 RMS(Cart)=  0.00000001 RMS(Int)=  0.00103668
 Variable       Old X    -DE/DX   Delta X   Delta X   Delta X     New X
                                 (Linear)    (Quad)   (Total)
    R1        2.92136   0.00243   0.00000   0.01008   0.01007   2.93142
    R2        2.91493   0.01718   0.00000   0.02498   0.02474   2.93968
    R3        2.05540   0.00312   0.00000   0.00429   0.00429   2.05969
    R4        2.08287  -0.00460   0.00000  -0.00654  -0.00654   2.07633
    R5        2.83800   0.01996   0.00000   0.03148   0.03177   2.86977
    R6        2.07730  -0.00286   0.00000  -0.00404  -0.00404   2.07326
    R7        2.06368   0.00239   0.00000   0.00331   0.00331   2.06700
    R8        2.93227   0.01741   0.00000   0.02167   0.02216   2.95443
    R9        2.85436   0.03084   0.00000   0.04753   0.04916   2.90352
   R10        2.06523  -0.00077   0.00000  -0.00107  -0.00107   2.06417
   R11        3.09367  -0.02228   0.00000  -0.04579  -0.04736   3.04631
   R12        2.07445  -0.00157   0.00000  -0.00221  -0.00221   2.07224
   R13        2.98463  -0.00320   0.00000  -0.00760  -0.00787   2.97675
   R14        2.92619   0.01615   0.00000   0.02205   0.02029   2.94649
   R15        2.07021   0.00110   0.00000   0.00154   0.00154   2.07174
   R16        2.98305  -0.00273   0.00000  -0.00009   0.00141   2.98447
   R17        2.93831   0.07226   0.00000   0.12065   0.12142   3.05973
   R18        2.04230   0.00437   0.00000   0.00590   0.00590   2.04821
   R19        2.81689  -0.00135   0.00000  -0.00075  -0.00161   2.81528
   R20        2.09102  -0.01229   0.00000  -0.01765  -0.01765   2.07337
   R21        2.03861   0.01853   0.00000   0.02488   0.02488   2.06349
   R22        2.01854   0.01633   0.00000   0.02136   0.02136   2.03990
   R23        2.11608  -0.00107   0.00000  -0.00159  -0.00159   2.11449
    A1        1.58748   0.00383   0.00000   0.00260   0.00241   1.58989
    A2        2.01551   0.00295   0.00000   0.00804   0.00797   2.02349
    A3        1.89098   0.00007   0.00000   0.01100   0.01120   1.90218
    A4        2.08308  -0.00461   0.00000  -0.01151  -0.01137   2.07171
    A5        1.97496  -0.00075   0.00000  -0.00190  -0.00202   1.97294
    A6        1.89158  -0.00046   0.00000  -0.00433  -0.00452   1.88706
    A7        1.54697   0.00109   0.00000   0.00046   0.00075   1.54772
    A8        2.02570  -0.00951   0.00000  -0.02395  -0.02401   2.00169
    A9        2.04828   0.00582   0.00000   0.01238   0.01236   2.06064
   A10        1.89422   0.00626   0.00000   0.02213   0.02225   1.91646
   A11        2.05324  -0.00465   0.00000  -0.01248  -0.01265   2.04059
   A12        1.87919   0.00065   0.00000   0.00119   0.00125   1.88045
   A13        1.61063  -0.00255   0.00000  -0.00396  -0.00446   1.60617
   A14        2.07156  -0.00741   0.00000  -0.01678  -0.01655   2.05501
   A15        1.98984   0.00625   0.00000   0.01470   0.01461   2.00445
   A16        1.74811   0.01755   0.00000   0.04143   0.04220   1.79032
   A17        2.09626  -0.00955   0.00000  -0.02859  -0.02829   2.06797
   A18        1.92466  -0.00397   0.00000  -0.00699  -0.00722   1.91743
   A19        1.51803  -0.00288   0.00000  -0.00111  -0.00079   1.51724
   A20        2.23854  -0.00173   0.00000  -0.00286  -0.00349   2.23505
   A21        1.95038   0.00583   0.00000   0.01240   0.01204   1.96243
   A22        1.72139   0.01039   0.00000   0.02213   0.02157   1.74296
   A23        1.97312   0.00369   0.00000   0.01749   0.01780   1.99092
   A24        1.96854  -0.00980   0.00000  -0.02851  -0.02820   1.94034
   A25        2.10543   0.00290   0.00000  -0.01618  -0.01888   2.08655
   A26        1.57478   0.03779   0.00000   0.10383   0.10423   1.67901
   A27        2.09736  -0.01716   0.00000  -0.03067  -0.02982   2.06755
   A28        1.31829  -0.00952   0.00000  -0.01554  -0.01413   1.30416
   A29        2.04447   0.00981   0.00000   0.02922   0.02885   2.07332
   A30        2.06616  -0.01250   0.00000  -0.03607  -0.03583   2.03033
   A31        1.65723   0.00598   0.00000  -0.00178  -0.00476   1.65247
   A32        1.48275   0.02381   0.00000   0.05995   0.05982   1.54257
   A33        2.30973  -0.00567   0.00000  -0.01342  -0.01425   2.29549
   A34        1.49060   0.03770   0.00000   0.11521   0.11599   1.60659
   A35        2.05498  -0.01707   0.00000  -0.04175  -0.04149   2.01349
   A36        2.24108  -0.02346   0.00000  -0.06063  -0.06004   2.18104
   A37        1.34719  -0.00527   0.00000  -0.01204  -0.01135   1.33583
   A38        2.06069  -0.00725   0.00000  -0.02551  -0.02541   2.03528
   A39        2.17288   0.00089   0.00000  -0.00059  -0.00094   2.17194
   A40        1.87674   0.00928   0.00000   0.02926   0.02838   1.90513
   A41        2.03417   0.00192   0.00000   0.00902   0.00916   2.04333
   A42        1.89213   0.00192   0.00000   0.00702   0.00653   1.89866
   A43        1.74432  -0.00207   0.00000  -0.01398  -0.01555   1.72878
   A44        2.18357   0.00101   0.00000   0.00400   0.00465   2.18822
   A45        2.26817  -0.00094   0.00000   0.00239   0.00322   2.27139
   A46        2.25881  -0.05747   0.00000  -0.12305  -0.12115   2.13766
   A47        1.69130   0.00209   0.00000   0.02524   0.03141   1.72271
   A48        1.46173   0.01948   0.00000   0.06242   0.06776   1.52949
    D1        0.14290   0.00193   0.00000   0.00706   0.00724   0.15014
    D2       -1.77719  -0.00420   0.00000  -0.01438  -0.01431  -1.79150
    D3        2.24910  -0.00119   0.00000  -0.00368  -0.00357   2.24552
    D4       -2.01146   0.00405   0.00000   0.01618   0.01633  -1.99514
    D5        2.35163  -0.00209   0.00000  -0.00526  -0.00522   2.34641
    D6        0.09473   0.00093   0.00000   0.00544   0.00552   0.10025
    D7        2.14702   0.00258   0.00000   0.00790   0.00796   2.15499
    D8        0.22693  -0.00356   0.00000  -0.01355  -0.01358   0.21335
    D9       -2.02996  -0.00054   0.00000  -0.00285  -0.00285  -2.03281
   D10       -0.13843  -0.00205   0.00000  -0.00737  -0.00754  -0.14598
   D11       -1.85948  -0.01292   0.00000  -0.03453  -0.03413  -1.89361
   D12        1.84507   0.00144   0.00000   0.01256   0.01296   1.85802
   D13        1.95944   0.00242   0.00000   0.00000  -0.00038   1.95907
   D14        0.23840  -0.00845   0.00000  -0.02716  -0.02697   0.21143
   D15       -2.34024   0.00591   0.00000   0.01993   0.02012  -2.32012
   D16       -2.06627  -0.00377   0.00000  -0.02036  -0.02064  -2.08690
   D17        2.49587  -0.01464   0.00000  -0.04752  -0.04722   2.44865
   D18       -0.08277  -0.00028   0.00000  -0.00043  -0.00014  -0.08291
   D19       -0.14214  -0.00189   0.00000  -0.00717  -0.00731  -0.14945
   D20        1.65359   0.01563   0.00000   0.03551   0.03576   1.68936
   D21       -2.31618   0.00832   0.00000   0.02276   0.02275  -2.29343
   D22        1.90164  -0.01072   0.00000  -0.02929  -0.02942   1.87222
   D23       -2.58581   0.00681   0.00000   0.01339   0.01365  -2.57216
   D24       -0.27240  -0.00050   0.00000   0.00064   0.00063  -0.27176
   D25       -2.24397  -0.00801   0.00000  -0.01835  -0.01853  -2.26250
   D26       -0.44823   0.00951   0.00000   0.02433   0.02454  -0.42369
   D27        1.86518   0.00220   0.00000   0.01158   0.01152   1.87670
   D28        0.14262   0.00120   0.00000   0.00647   0.00658   0.14920
   D29        2.38109  -0.00045   0.00000   0.00456   0.00422   2.38530
   D30       -1.81882  -0.00435   0.00000  -0.00867  -0.00852  -1.82734
   D31       -1.94633   0.00680   0.00000   0.01847   0.01820  -1.92813
   D32        0.29214   0.00515   0.00000   0.01656   0.01583   0.30797
   D33        2.37542   0.00125   0.00000   0.00333   0.00309   2.37851
   D34        2.22989   0.00345   0.00000   0.01088   0.01090   2.24079
   D35       -1.81483   0.00181   0.00000   0.00897   0.00853  -1.80629
   D36        0.26845  -0.00210   0.00000  -0.00426  -0.00421   0.26425
   D37       -1.82436  -0.00287   0.00000   0.00548   0.00559  -1.81877
   D38       -0.29598   0.01915   0.00000   0.09648   0.09595  -0.20002
   D39       -0.10886   0.00237   0.00000   0.02047   0.01986  -0.08901
   D40        1.41952   0.02440   0.00000   0.11147   0.11022   1.52974
   D41        2.11731  -0.00034   0.00000   0.00813   0.00819   2.12550
   D42       -2.63749   0.02169   0.00000   0.09914   0.09855  -2.53894
   D43        1.12904  -0.00320   0.00000  -0.01633  -0.01528   1.11376
   D44        2.40771   0.00842   0.00000   0.03230   0.03130   2.43901
   D45       -1.71974   0.01292   0.00000   0.04899   0.04845  -1.67129
   D46       -0.49351  -0.00745   0.00000  -0.03200  -0.03072  -0.52422
   D47        0.78516   0.00417   0.00000   0.01663   0.01587   0.80103
   D48        2.94090   0.00867   0.00000   0.03331   0.03302   2.97392
   D49       -2.58022  -0.01360   0.00000  -0.05312  -0.05152  -2.63173
   D50       -1.30155  -0.00198   0.00000  -0.00449  -0.00493  -1.30648
   D51        0.85419   0.00252   0.00000   0.01219   0.01221   0.86640
   D52        1.86308   0.04950   0.00000   0.16437   0.16475   2.02783
   D53        0.38077   0.00980   0.00000   0.04233   0.04264   0.42341
   D54       -2.05833   0.02268   0.00000   0.07653   0.07681  -1.98152
   D55        0.44083   0.01072   0.00000   0.04261   0.04236   0.48319
   D56       -1.04147  -0.02898   0.00000  -0.07942  -0.07975  -1.12122
   D57        2.80261  -0.01610   0.00000  -0.04522  -0.04557   2.75704
   D58       -1.56275   0.02949   0.00000   0.09149   0.09126  -1.47149
   D59       -3.04505  -0.01021   0.00000  -0.03054  -0.03085  -3.07590
   D60        0.79903   0.00267   0.00000   0.00366   0.00333   0.80236
   D61       -2.59840  -0.00414   0.00000   0.00037   0.00147  -2.59693
   D62        0.94527   0.00060   0.00000   0.01705   0.01782   0.96308
   D63       -0.47466  -0.01100   0.00000  -0.04535  -0.04556  -0.52023
   D64        3.06900  -0.00626   0.00000  -0.02867  -0.02922   3.03978
   D65        1.50336  -0.00379   0.00000  -0.01779  -0.01724   1.48611
   D66       -1.23616   0.00095   0.00000  -0.00111  -0.00090  -1.23706
   D67       -0.45577  -0.01346   0.00000  -0.04747  -0.04755  -0.50331
   D68       -2.25740  -0.02221   0.00000  -0.07760  -0.07709  -2.33449
   D69        1.52644  -0.01452   0.00000  -0.04437  -0.04382   1.48262
   D70        1.01937   0.01356   0.00000   0.02401   0.02270   1.04207
   D71       -0.78226   0.00482   0.00000  -0.00612  -0.00684  -0.78911
   D72        3.00158   0.01251   0.00000   0.02711   0.02643   3.02801
   D73       -2.96969   0.00345   0.00000   0.00991   0.00905  -2.96064
   D74        1.51186  -0.00530   0.00000  -0.02022  -0.02050   1.49136
   D75       -0.98748   0.00239   0.00000   0.01301   0.01278  -0.97471
   D76       -0.15409  -0.00255   0.00000  -0.03191  -0.03154  -0.18564
   D77       -1.79147  -0.02433   0.00000  -0.12235  -0.11880  -1.91027
   D78       -1.81907  -0.00283   0.00000  -0.01369  -0.01811  -1.83718
   D79        2.82675  -0.02461   0.00000  -0.10413  -0.10537   2.72138
   D80        2.33211  -0.00392   0.00000  -0.03541  -0.03699   2.29512
   D81        0.69474  -0.02570   0.00000  -0.12585  -0.12425   0.57049
   D82        0.47135   0.01019   0.00000   0.04305   0.04279   0.51414
   D83       -3.10108   0.00575   0.00000   0.02539   0.02540  -3.07569
   D84        2.49131   0.00035   0.00000   0.01034   0.01002   2.50132
   D85       -1.08112  -0.00409   0.00000  -0.00731  -0.00738  -1.08850
   D86       -1.66474   0.01146   0.00000   0.04867   0.04856  -1.61618
   D87        1.04602   0.00702   0.00000   0.03101   0.03116   1.07718
         Item               Value     Threshold  Converged?
 Maximum Force            0.072264     0.000450     NO 
 RMS     Force            0.014000     0.000300     NO 
 Maximum Displacement     0.320265     0.001800     NO 
 RMS     Displacement     0.087008     0.001200     NO 
 Predicted change in Energy=-7.236565D-02
 GradGradGradGradGradGradGradGradGradGradGradGradGradGradGradGradGradGrad

                          Input orientation:                          
 ---------------------------------------------------------------------
 Center     Atomic      Atomic             Coordinates (Angstroms)
 Number     Number       Type             X           Y           Z
 ---------------------------------------------------------------------
      1          6           0        0.112314    0.925757   -0.579127
      2          6           0        1.004103   -0.162415    0.074286
      3          6           0       -0.240157   -1.008240    0.280657
      4          6           0       -1.177097    0.163417   -0.159390
      5          6           0       -2.205330   -0.644406   -1.102168
      6          6           0       -1.707505   -1.920461   -1.880118
      7          6           0       -2.667946   -2.917546   -1.120118
      8          6           0       -2.430695   -1.836553   -0.122811
      9          6           0       -0.548618   -2.093204   -0.762639
     10          1           0        0.288069    1.113379   -1.638314
     11          1           0        0.248079    1.871946   -0.037340
     12          1           0        1.429382    0.116571    1.046386
     13          1           0        1.806110   -0.599934   -0.527193
     14          1           0       -0.355226   -1.417528    1.286831
     15          1           0       -1.701260    0.652686    0.670287
     16          1           0       -3.105822   -0.128474   -1.455502
     17          1           0       -1.582531   -2.112850   -2.939424
     18          1           0       -2.219177   -3.849583   -0.754439
     19          1           0       -3.704100   -3.113674   -1.403460
     20          1           0       -2.760249   -1.750155    0.901482
     21          1           0        0.188716   -1.788282   -1.547107
 ---------------------------------------------------------------------
                    Distance matrix (angstroms):
                    1          2          3          4          5
     1  C    0.000000
     2  C    1.551242   0.000000
     3  C    2.145649   1.518616   0.000000
     4  C    1.555610   2.217748   1.563419   0.000000
     5  C    2.847886   3.452075   2.430326   1.612040   0.000000
     6  C    3.620121   3.776670   2.766623   2.754049   1.575231
     7  C    4.774253   4.743553   3.391427   3.554992   2.319807
     8  C    3.782258   3.826150   2.376414   2.360663   1.559213
     9  C    3.095906   2.615212   1.536477   2.418933   2.226879
    10  H    1.089940   2.252411   2.909079   2.288308   3.097466
    11  H    1.098744   2.173167   2.938532   2.228249   3.672206
    12  H    2.243154   1.097121   2.153811   2.872251   4.290280
    13  H    2.280213   1.093808   2.237532   3.101211   4.052681
    14  H    3.031728   2.212091   1.092310   2.294867   3.118961
    15  H    2.219156   2.887663   2.246177   1.096583   2.253471
    16  H    3.497976   4.385532   3.464141   2.342026   1.096320
    17  H    4.204359   4.424627   3.659379   3.615848   2.433046
    18  H    5.316997   4.967044   3.614024   4.188578   3.224014
    19  H    5.617966   5.749856   4.389533   4.321201   2.904199
    20  H    4.195750   4.168395   2.699393   2.700662   2.354831
    21  H    2.882504   2.436640   2.033008   2.756870   2.690331
                    6          7          8          9         10
     6  C    0.000000
     7  C    1.579312   0.000000
     8  C    1.902149   1.489783   0.000000
     9  C    1.619141   2.301930   2.004361   0.000000
    10  H    3.639364   5.025426   4.288418   3.427686   0.000000
    11  H    4.647848   5.710941   4.575598   4.108917   1.772044
    12  H    4.749104   5.539649   4.481285   3.473927   3.082829
    13  H    3.989948   5.073467   4.432073   2.798221   2.544500
    14  H    3.480109   3.659526   2.543668   2.166625   3.921197
    15  H    3.622939   4.109329   2.712451   3.304810   3.082094
    16  H    2.312317   2.843087   2.269229   3.298411   3.618579
    17  H    1.083864   2.266173   2.954493   2.409928   3.949757
    18  H    2.291391   1.097181   2.120373   2.423984   5.630143
    19  H    2.374311   1.091954   2.211936   3.377732   5.818981
    20  H    2.979022   2.336277   1.079466   2.788959   4.893120
    21  H    1.929772   3.101303   2.981990   1.118942   2.904794
                   11         12         13         14         15
    11  H    0.000000
    12  H    2.377242   0.000000
    13  H    2.962702   1.769592   0.000000
    14  H    3.596949   2.365608   2.937774   0.000000
    15  H    2.405671   3.198405   3.912117   2.545137   0.000000
    16  H    4.154698   5.185323   5.021066   4.092411   2.664955
    17  H    5.258500   5.470706   4.426134   4.455444   4.548879
    18  H    6.271959   5.682019   5.178301   3.681846   4.750632
    19  H    6.507104   6.541320   6.119571   4.618391   4.743127
    20  H    4.801149   4.588973   4.920951   2.458306   2.636010
    21  H    3.959821   3.448757   2.251301   2.909387   3.800943
                   16         17         18         19         20
    16  H    0.000000
    17  H    2.908640   0.000000
    18  H    3.888995   2.862817   0.000000
    19  H    3.045006   2.803906   1.779828   0.000000
    20  H    2.881778   4.033749   2.728083   2.839507   0.000000
    21  H    3.690168   2.276227   3.267298   4.114768   3.833202
                   21
    21  H    0.000000
 Stoichiometry    C9H12
 Framework group  C1[X(C9H12)]
 Deg. of freedom    57
 Full point group                 C1      NOp   1
 Largest Abelian subgroup         C1      NOp   1
 Largest concise Abelian subgroup C1      NOp   1
                         Standard orientation:                         
 ---------------------------------------------------------------------
 Center     Atomic      Atomic             Coordinates (Angstroms)
 Number     Number       Type             X           Y           Z
 ---------------------------------------------------------------------
      1          6           0       -2.135246    0.670067    0.463020
      2          6           0       -2.200801   -0.803958   -0.015837
      3          6           0       -0.813808   -0.635458   -0.610858
      4          6           0       -0.825183    0.904688   -0.342342
      5          6           0        0.670601    1.096776    0.227224
      6          6           0        1.363563   -0.084995    1.004768
      7          6           0        2.513789   -0.282377   -0.059303
      8          6           0        1.378991    0.243444   -0.868748
      9          6           0        0.385174   -1.111732    0.223628
     10          1           0       -2.120126    0.820431    1.542433
     11          1           0       -2.995519    1.217486    0.053751
     12          1           0       -2.927675   -0.994170   -0.815305
     13          1           0       -2.323981   -1.585440    0.739497
     14          1           0       -0.710852   -0.983950   -1.640953
     15          1           0       -0.988708    1.513895   -1.239348
     16          1           0        1.048536    2.115979    0.369724
     17          1           0        1.667418   -0.183054    2.040538
     18          1           0        2.727557   -1.313791   -0.366381
     19          1           0        3.443770    0.289630   -0.076780
     20          1           0        1.298324    0.402024   -1.933450
     21          1           0       -0.141225   -1.277764    1.196957
 ---------------------------------------------------------------------
 Rotational constants (GHZ):           4.0605886           1.4048864           1.3048674
 Standard basis: 6-31G(2df,p) (6D, 7F)
 There are   339 symmetry adapted cartesian basis functions of A   symmetry.
 There are   312 symmetry adapted basis functions of A   symmetry.
   312 basis functions,   480 primitive gaussians,   339 cartesian basis functions
    33 alpha electrons       33 beta electrons
       nuclear repulsion energy       452.9326738551 Hartrees.
 NAtoms=   21 NActive=   21 NUniq=   21 SFac= 1.00D+00 NAtFMM=   60 NAOKFM=F Big=F
 Integral buffers will be    131072 words long.
 Raffenetti 2 integral format.
 Two-electron integral symmetry is turned on.
 One-electron integrals computed using PRISM.
 PrsmSu:  requested number of processors reduced to:  13 ShMem   1 Linda.
 NBasis=   312 RedAO= T EigKep=  3.55D-04  NBF=   312
 NBsUse=   312 1.00D-06 EigRej= -1.00D+00 NBFU=   312
 Initial guess from the checkpoint file:  "C1CC2C1C1C3CC1C23.chk"
 B after Tr=    -0.000000    0.000000   -0.000000
         Rot=    0.998710   -0.049941    0.007286    0.005651 Ang=  -5.82 deg.
 ExpMin= 1.61D-01 ExpMax= 3.05D+03 ExpMxC= 4.57D+02 IAcc=2 IRadAn=         4 AccDes= 0.00D+00
 Harris functional with IExCor=  402 and IRadAn=       4 diagonalized for initial guess.
 HarFok:  IExCor=  402 AccDes= 0.00D+00 IRadAn=         4 IDoV= 1 UseB2=F ITyADJ=14
 ICtDFT=  3500011 ScaDFX=  1.000000  1.000000  1.000000  1.000000
 FoFCou: FMM=F IPFlag=           0 FMFlag=      100000 FMFlg1=           0
         NFxFlg=           0 DoJE=T BraDBF=F KetDBF=T FulRan=T
         wScrn=  0.000000 ICntrl=       500 IOpCl=  0 I1Cent=   200000004 NGrid=           0
         NMat0=    1 NMatS0=      1 NMatT0=    0 NMatD0=    1 NMtDS0=    0 NMtDT0=    0
 Petite list used in FoFCou.
 Requested convergence on RMS density matrix=1.00D-08 within 128 cycles.
 Requested convergence on MAX density matrix=1.00D-06.
 Requested convergence on             energy=1.00D-06.
 No special actions if energy rises.
 Integral accuracy reduced to 1.0D-05 until final iterations.
 Initial convergence to 1.0D-05 achieved.  Increase integral accuracy.
 SCF Done:  E(RB3LYP) =  -349.862809749     A.U. after   14 cycles
            NFock= 14  Conv=0.60D-08     -V/T= 2.0085
 PrsmSu:  requested number of processors reduced to:  13 ShMem   1 Linda.
 Calling FoFJK, ICntrl=      2127 FMM=F ISym2X=0 I1Cent= 0 IOpClX= 0 NMat=1 NMatS=1 NMatT=0.
 ***** Axes restored to original set *****
 -------------------------------------------------------------------
 Center     Atomic                   Forces (Hartrees/Bohr)
 Number     Number              X              Y              Z
 -------------------------------------------------------------------
      1        6           0.010049839    0.015545623    0.006315367
      2        6           0.004887019    0.001799238    0.001053097
      3        6          -0.013633522    0.000329557   -0.009808203
      4        6          -0.002892907   -0.017116932   -0.015347597
      5        6          -0.011148974   -0.012660941    0.040804642
      6        6          -0.004676981    0.007649291    0.031349490
      7        6          -0.001255071    0.001097234    0.001659228
      8        6          -0.024589301   -0.000055287   -0.007784235
      9        6           0.016701618    0.036486255   -0.023918274
     10        1          -0.002950101   -0.001495366   -0.002464563
     11        1          -0.005813841    0.001430835   -0.006613186
     12        1           0.001633533    0.006332931   -0.004612137
     13        1          -0.000824058   -0.001570031   -0.001501714
     14        1           0.000741483    0.000233595   -0.000001353
     15        1          -0.006418581    0.001273788   -0.007071879
     16        1          -0.000058443   -0.001428519    0.001933691
     17        1           0.013690717    0.013424665   -0.005610455
     18        1          -0.002444717    0.000529144   -0.014202791
     19        1          -0.005896382    0.006749629   -0.007644883
     20        1           0.005652270   -0.001432044    0.012276058
     21        1           0.029246401   -0.057122667    0.011189697
 -------------------------------------------------------------------
 Cartesian Forces:  Max     0.057122667 RMS     0.014105668

 GradGradGradGradGradGradGradGradGradGradGradGradGradGradGradGradGradGrad
 Berny optimization.
 Using GEDIIS/GDIIS optimizer.
 FormGI is forming the generalized inverse of G from B-inverse, IUseBI=4.
 Internal  Forces:  Max     0.030240690 RMS     0.008608737
 Search for a local minimum.
 Step number   2 out of a maximum of  126
 All quantities printed in internal units (Hartrees-Bohrs-Radians)
 Mixed Optimization -- RFO/linear search
 Update second derivatives using D2CorX and points    1    2
 DE= -6.77D-02 DEPred=-7.24D-02 R= 9.35D-01
 TightC=F SS=  1.41D+00  RLast= 5.10D-01 DXNew= 5.0454D-01 1.5295D+00
 Trust test= 9.35D-01 RLast= 5.10D-01 DXMaxT set to 5.05D-01
 ITU=  1  0
 Use linear search instead of GDIIS.
     Eigenvalues ---    0.00411   0.00534   0.00792   0.01005   0.01716
     Eigenvalues ---    0.02106   0.02448   0.02628   0.03002   0.03138
     Eigenvalues ---    0.03269   0.03480   0.03939   0.04418   0.04604
     Eigenvalues ---    0.04927   0.04989   0.05273   0.05551   0.05714
     Eigenvalues ---    0.06300   0.06464   0.07023   0.07257   0.07852
     Eigenvalues ---    0.08214   0.08478   0.08750   0.09588   0.10215
     Eigenvalues ---    0.12093   0.12830   0.15973   0.18036   0.18626
     Eigenvalues ---    0.19233   0.21627   0.22792   0.25911   0.26164
     Eigenvalues ---    0.27029   0.29387   0.30226   0.30677   0.31512
     Eigenvalues ---    0.32913   0.33431   0.33760   0.33922   0.34142
     Eigenvalues ---    0.34481   0.34570   0.35077   0.35622   0.35880
     Eigenvalues ---    0.37344   0.40046
 RFO step:  Lambda=-7.85697162D-02 EMin= 4.10702218D-03
 Quartic linear search produced a step of  1.62596.
 Iteration  1 RMS(Cart)=  0.14573994 RMS(Int)=  0.04558583
 Iteration  2 RMS(Cart)=  0.04244903 RMS(Int)=  0.00799509
 Iteration  3 RMS(Cart)=  0.00459691 RMS(Int)=  0.00599024
 Iteration  4 RMS(Cart)=  0.00009138 RMS(Int)=  0.00598980
 Iteration  5 RMS(Cart)=  0.00000041 RMS(Int)=  0.00598980
 Variable       Old X    -DE/DX   Delta X   Delta X   Delta X     New X
                                 (Linear)    (Quad)   (Total)
    R1        2.93142   0.00169   0.01637   0.00772   0.02438   2.95581
    R2        2.93968   0.00791   0.04023  -0.01101   0.02937   2.96905
    R3        2.05969   0.00166   0.00697  -0.00021   0.00676   2.06645
    R4        2.07633  -0.00275  -0.01064  -0.00120  -0.01184   2.06449
    R5        2.86977   0.01120   0.05166   0.00337   0.05495   2.92472
    R6        2.07326  -0.00184  -0.00657  -0.00142  -0.00799   2.06527
    R7        2.06700   0.00085   0.00539  -0.00225   0.00314   2.07014
    R8        2.95443   0.00112   0.03603  -0.05374  -0.01542   2.93901
    R9        2.90352   0.00864   0.07993  -0.05262   0.02958   2.93310
   R10        2.06417  -0.00017  -0.00173   0.00125  -0.00049   2.06368
   R11        3.04631  -0.02900  -0.07700  -0.11262  -0.19030   2.85601
   R12        2.07224  -0.00171  -0.00359  -0.00430  -0.00790   2.06434
   R13        2.97675  -0.00690  -0.01280  -0.02935  -0.04280   2.93396
   R14        2.94649   0.00436   0.03300  -0.03200  -0.00642   2.94006
   R15        2.07174  -0.00125   0.00250  -0.00923  -0.00672   2.06502
   R16        2.98447  -0.00484   0.00230  -0.01561  -0.00897   2.97550
   R17        3.05973   0.01706   0.19743  -0.14064   0.05562   3.11536
   R18        2.04821   0.00468   0.00960   0.01099   0.02059   2.06880
   R19        2.81528  -0.00130  -0.00261   0.00266   0.00072   2.81600
   R20        2.07337  -0.00618  -0.02870   0.00268  -0.02602   2.04735
   R21        2.06349   0.00637   0.04046  -0.01788   0.02258   2.08607
   R22        2.03990   0.00981   0.03473   0.00412   0.03885   2.07875
   R23        2.11449  -0.00414  -0.00258  -0.01892  -0.02150   2.09299
    A1        1.58989   0.00010   0.00392  -0.01693  -0.01240   1.57749
    A2        2.02349   0.00224   0.01297   0.00700   0.01838   2.04187
    A3        1.90218   0.00225   0.01821   0.02745   0.04618   1.94836
    A4        2.07171  -0.00279  -0.01849  -0.01034  -0.02886   2.04284
    A5        1.97294  -0.00036  -0.00329  -0.00322  -0.00680   1.96614
    A6        1.88706  -0.00077  -0.00734  -0.00150  -0.01031   1.87675
    A7        1.54772  -0.00052   0.00122  -0.00520  -0.00414   1.54358
    A8        2.00169  -0.00563  -0.03904  -0.00718  -0.04520   1.95649
    A9        2.06064   0.00326   0.02009  -0.00718   0.01216   2.07279
   A10        1.91646   0.00517   0.03617   0.02312   0.05986   1.97632
   A11        2.04059  -0.00259  -0.02057  -0.00404  -0.02440   2.01619
   A12        1.88045   0.00027   0.00204   0.00175   0.00344   1.88389
   A13        1.60617  -0.00084  -0.00725  -0.00018  -0.00758   1.59859
   A14        2.05501  -0.00622  -0.02692  -0.01548  -0.04083   2.01418
   A15        2.00445   0.00456   0.02376   0.02321   0.04575   2.05020
   A16        1.79032   0.01034   0.06862   0.00022   0.06801   1.85833
   A17        2.06797  -0.00752  -0.04600  -0.03104  -0.07481   1.99316
   A18        1.91743  -0.00061  -0.01175   0.01373   0.00336   1.92079
   A19        1.51724   0.00077  -0.00129   0.01946   0.01729   1.53453
   A20        2.23505  -0.00100  -0.00567   0.00076  -0.00735   2.22770
   A21        1.96243   0.00342   0.01958   0.00559   0.02274   1.98517
   A22        1.74296   0.00340   0.03507  -0.00952   0.02490   1.76786
   A23        1.99092   0.00305   0.02894   0.00767   0.03815   2.02908
   A24        1.94034  -0.00618  -0.04586  -0.01478  -0.05976   1.88058
   A25        2.08655  -0.00203  -0.03069  -0.02924  -0.07929   2.00726
   A26        1.67901   0.01706   0.16947   0.00105   0.18224   1.86125
   A27        2.06755  -0.00525  -0.04848   0.02383  -0.02601   2.04154
   A28        1.30416   0.00378  -0.02298   0.07940   0.06386   1.36802
   A29        2.07332   0.00293   0.04690  -0.01901   0.02726   2.10058
   A30        2.03033  -0.00883  -0.05826  -0.02139  -0.08296   1.94737
   A31        1.65247  -0.00493  -0.00774  -0.07338  -0.09315   1.55932
   A32        1.54257   0.01419   0.09726   0.00975   0.10761   1.65017
   A33        2.29549  -0.00242  -0.02316   0.01033  -0.01657   2.27892
   A34        1.60659   0.01803   0.18860  -0.01909   0.17341   1.78000
   A35        2.01349  -0.00434  -0.06746   0.04636  -0.02155   1.99194
   A36        2.18104  -0.01249  -0.09763   0.00130  -0.09322   2.08782
   A37        1.33583   0.00493  -0.01846   0.06961   0.05462   1.39046
   A38        2.03528  -0.00498  -0.04132  -0.00916  -0.05232   1.98296
   A39        2.17194  -0.00329  -0.00152  -0.04029  -0.04601   2.12593
   A40        1.90513   0.00428   0.04615   0.01916   0.06434   1.96947
   A41        2.04333  -0.00283   0.01489  -0.03602  -0.01944   2.02389
   A42        1.89866   0.00331   0.01062   0.01403   0.02070   1.91936
   A43        1.72878  -0.01123  -0.02528  -0.08483  -0.11645   1.61233
   A44        2.18822   0.00463   0.00756   0.03817   0.05028   2.23850
   A45        2.27139   0.00593   0.00524   0.05687   0.06483   2.33622
   A46        2.13766  -0.03024  -0.19698  -0.01073  -0.20073   1.93693
   A47        1.72271   0.00941   0.05107   0.11750   0.20911   1.93181
   A48        1.52949   0.01939   0.11018   0.13109   0.27354   1.80303
    D1        0.15014   0.00144   0.01177   0.00757   0.01925   0.16939
    D2       -1.79150  -0.00318  -0.02327  -0.01450  -0.03772  -1.82922
    D3        2.24552  -0.00098  -0.00581  -0.00231  -0.00845   2.23707
    D4       -1.99514   0.00386   0.02655   0.02724   0.05423  -1.94091
    D5        2.34641  -0.00076  -0.00849   0.00517  -0.00274   2.34367
    D6        0.10025   0.00145   0.00897   0.01737   0.02652   0.12677
    D7        2.15499   0.00150   0.01295   0.00250   0.01531   2.17029
    D8        0.21335  -0.00312  -0.02209  -0.01957  -0.04167   0.17168
    D9       -2.03281  -0.00091  -0.00463  -0.00738  -0.01240  -2.04522
   D10       -0.14598  -0.00191  -0.01227  -0.01003  -0.02263  -0.16861
   D11       -1.89361  -0.00676  -0.05550  -0.01327  -0.06702  -1.96063
   D12        1.85802   0.00220   0.02106   0.00744   0.03081   1.88884
[...]
 65,0.00002018,-0.00017455,0.00033913,-0.00025300,0.00082713,-0.0044556
 2,0.05165400,-0.04571497,0.02337435,-0.29999426,0.00004706,-0.00096110
 ,-0.00166293,0.00094294,0.00103684,-0.00059604,-0.00160964,0.00007421,
 -0.01088870,-0.00087882,-0.00211020,0.00058611,0.00031314,0.00035371,0
 .00010356,-0.00010816,0.00007608,0.00028678,-0.00028546,-0.00002162,0.
 00019758,-0.00047748,-0.00015278,-0.00058244,0.04884982,-0.02709454,0.
 32314038,-0.05622580,-0.04881838,-0.02156025,0.00414745,0.02165188,0.0
 1202632,-0.00151364,0.00058987,0.00012747,-0.00525763,-0.02017054,-0.0
 1421522,-0.00108713,-0.00253657,0.00384188,-0.00035142,0.00050985,0.00
 050012,0.00009647,-0.00047136,0.00025137,-0.00099581,-0.00078240,-0.00
 071768,-0.00005310,-0.00000664,-0.00013615,-0.00065531,-0.00497210,-0.
 00213727,0.05978522,-0.04930052,-0.26017739,-0.09564844,-0.00307555,-0
 .01466166,-0.00774819,0.00077879,-0.00100527,0.00177638,-0.00137133,-0
 .00802075,-0.00521615,0.00039405,-0.00079111,0.00207537,-0.00006897,0.
 00033224,0.00021340,0.00006349,-0.00011836,0.00011998,-0.00039284,-0.0
 0008315,-0.00045772,-0.00010749,0.00027497,0.00017238,0.00077686,0.003
 77833,0.00148656,0.05212074,0.27980893,-0.02171207,-0.09549934,-0.0895
 0881,0.00055084,0.00658569,0.00129585,-0.00028390,0.00069644,-0.001811
 83,0.00398486,0.01346743,0.00643903,0.00019336,0.00081870,-0.00197407,
 0.00000319,0.00008301,-0.00028883,0.00002545,0.00024779,0.00008004,0.0
 0030358,0.00028623,0.00051520,0.00000191,-0.00010277,-0.00009011,-0.00
 660599,-0.02919985,-0.01186511,0.02382512,0.10174134,0.09357520,-0.011
 13642,-0.00511893,-0.00963781,-0.18833481,-0.06865139,-0.11474030,-0.0
 1054627,-0.00609172,-0.01106337,-0.00173770,0.00139083,0.00140158,0.00
 020537,-0.00003112,0.00029199,0.00019072,0.00003150,0.00044796,-0.0002
 5336,0.00008812,-0.00000369,-0.00006472,-0.00076328,-0.00048563,-0.002
 13370,0.00116695,0.00210844,-0.00203385,0.00082703,0.00046317,0.001867
 72,0.00001195,-0.00003155,0.20269929,0.01744761,0.00827264,0.01642611,
 -0.06823381,-0.07807908,-0.05565963,-0.01027483,-0.00760455,-0.0137145
 3,0.00072857,-0.00154318,0.00035759,0.00001462,-0.00010238,-0.00013045
 ,0.00032898,-0.00017063,0.00061689,-0.00041796,0.00017644,0.00007791,-
 0.00051283,-0.00098273,-0.00038900,-0.00306901,0.00007667,0.00221319,0
 .00352471,-0.00202290,0.00082520,-0.00138674,0.00204449,0.00013591,0.0
 7279156,0.08334393,-0.00431985,-0.00384048,-0.00633011,-0.11474871,-0.
 05596805,-0.13965991,0.01242618,0.00779814,0.01134596,0.00046177,0.000
 13237,-0.00105228,-0.00000388,-0.00000835,0.00002863,0.00013961,-0.000
 02866,-0.00032960,0.00030457,0.00003039,0.00013450,0.00032009,0.000628
 25,0.00048260,0.00202577,-0.00012917,-0.00179893,-0.00150531,0.0013107
 1,0.00022606,0.00080937,-0.00022889,0.00151817,0.12372418,0.05948670,0
 .14722939,-0.00504449,0.00722273,0.01283888,-0.08638354,0.05192717,0.0
 7945099,-0.00750760,0.00865566,0.01301043,-0.00382063,-0.00069148,0.00
 063939,-0.00045435,0.00082265,0.00058914,-0.00044956,0.00006613,0.0001
 0940,0.00009915,-0.00031165,-0.00011569,0.00017564,0.00026682,-0.00027
 995,0.00237689,0.00016954,0.00077823,0.00182122,-0.00032083,-0.0001682
 0,-0.00202325,0.00070813,0.00012326,0.01050876,-0.01196074,-0.01887681
 ,0.09393637,0.00380570,-0.01120484,-0.01789093,0.05121933,-0.11302710,
 -0.10086646,-0.00490478,0.01068299,0.01587244,-0.00041579,-0.00067319,
 0.00057706,-0.00005143,0.00029323,-0.00053443,0.00007597,0.00010900,-0
 .00072024,0.00006487,0.00001183,0.00004068,0.00040055,0.00022517,0.000
 31484,0.00083971,0.00160104,-0.00033369,-0.00135504,0.00194816,0.00017
 248,0.00359475,-0.00198399,0.00063207,0.00472813,-0.00510029,-0.008738
 79,-0.05601284,0.11772909,-0.00375504,0.00641713,0.00967697,0.07984761
 ,-0.10121428,-0.20497745,0.00306947,-0.00685426,-0.01156339,0.00016526
 ,0.00080709,-0.00052951,-0.00014590,-0.00054629,-0.00003559,0.00017246
 ,0.00036540,0.00044488,-0.00002607,-0.00012231,0.00029734,-0.00021727,
 -0.00021634,0.00007008,-0.00199903,-0.00132946,0.00051582,0.00093966,-
 0.00060125,0.00115668,-0.00130393,0.00164035,0.00017450,0.00787960,-0.
 00932547,-0.01414595,-0.08745009,0.11008322,0.21894844,-0.00123450,-0.
 00052403,0.00019545,0.00494526,-0.00074947,0.02311457,-0.05748141,0.00
 736701,-0.04663812,-0.00225853,-0.00329987,-0.01917136,-0.00180889,0.0
 0273641,-0.00179711,-0.00087396,-0.00086204,-0.00045398,-0.00022448,0.
 00000313,-0.00040590,0.00127056,0.00052619,-0.00016113,-0.00199571,0.0
 0257659,-0.00923307,0.00066161,-0.00008080,-0.00014331,0.00068281,-0.0
 0021146,-0.00000876,0.00177301,0.00113717,-0.00111308,-0.00189240,-0.0
 0219877,0.00239788,0.05780118,-0.00037138,-0.00285735,0.00127066,0.001
 53695,-0.00255415,0.01025771,0.00836640,-0.05176957,0.03983819,0.00155
 216,0.00014557,0.01894112,0.00093781,-0.00359348,0.00035210,-0.0017557
 2,-0.00432665,-0.00137395,-0.00077587,0.00059344,-0.00103979,0.0004899
 5,0.00092771,0.00053817,-0.00502478,0.00720898,-0.02816052,-0.00010180
 ,-0.00077609,0.00045559,-0.00004658,-0.00062043,0.00051043,-0.00022824
 ,0.00129715,-0.00017968,0.00010521,-0.00106624,0.00055115,-0.00411968,
 0.05459213,0.00047071,0.00100349,-0.00037007,-0.00335895,-0.00017059,-
 0.01009912,-0.04728813,0.03892642,-0.29626200,0.00134667,-0.00038698,0
 .00028385,0.00054896,-0.00047858,-0.00008335,-0.00028102,-0.00223507,0
 .00092599,-0.00078601,0.00015206,-0.00050706,-0.00023301,0.00000980,0.
 00001019,-0.00232865,0.00390497,-0.01263354,-0.00016932,0.00030375,-0.
 00002945,-0.00016016,0.00034395,-0.00020658,0.00006245,-0.00028345,0.0
 0152725,0.00064769,0.00147718,-0.00072024,0.05280349,-0.04209880,0.317
 15302,-0.00695912,0.00794698,0.01148035,-0.00338729,-0.00020354,0.0003
 3575,-0.00519939,0.00615275,0.01369661,-0.09871301,0.06012776,0.088565
 30,0.01261114,-0.01165917,-0.01707210,-0.00281600,-0.00219312,-0.00206
 994,0.00070992,-0.00073590,-0.00041144,0.00076235,0.00080661,0.0005270
 0,-0.00278850,0.00048292,-0.00102014,-0.00194144,0.00001897,0.00037782
 ,0.00158253,-0.00029190,-0.00017804,-0.00084677,0.00023772,0.00021352,
 -0.00092451,0.00014535,0.00008048,0.00168683,-0.00065132,-0.00053839,0
 .10545233,-0.00654345,0.00963948,0.01485500,-0.00033512,-0.00092051,0.
 00033667,0.00252922,-0.00753578,-0.01590727,0.05871874,-0.11428650,-0.
 09706720,0.00795428,-0.00723232,-0.00983898,-0.00162780,-0.00100143,-0
 .00039411,0.00020874,-0.00066455,-0.00032436,0.00064146,0.00102570,-0.
 00030889,0.00259974,-0.00192213,-0.00022031,-0.00230352,-0.00081008,0.
 00174600,0.00127874,0.00142570,-0.00067817,-0.00001469,0.00052627,-0.0
 0028481,0.00010330,0.00048285,-0.00029901,-0.00084317,0.00166630,0.000
 31074,-0.06080576,0.12087397,0.00313704,-0.00827186,-0.01034062,0.0001
 1878,0.00066957,-0.00016084,-0.00332091,0.00677907,0.01094271,0.088059
 92,-0.09725795,-0.19258172,0.01028999,-0.00887271,-0.01286209,-0.00318
 829,-0.00044761,-0.00046120,0.00045211,-0.00104849,-0.00018322,0.00002
 072,-0.00034356,0.00041912,-0.00247439,0.00146185,-0.00077121,0.002082
 56,0.00077449,-0.00092649,-0.00076859,-0.00001159,0.00158841,0.0001151
 1,-0.00035731,0.00017671,-0.00006946,-0.00031668,0.00029839,0.00095505
 ,-0.00116789,0.00074866,-0.09529439,0.10838711,0.20326524,0.00026093,0
 .00002246,-0.00028748,0.00026645,0.00039502,0.00018115,-0.00028758,-0.
 00064170,-0.00221835,-0.00932944,0.00975719,-0.00320642,-0.22148900,0.
 09000714,-0.08799535,-0.00878648,0.00377169,-0.00803089,0.00056690,-0.
 00074132,0.00155366,0.00619414,-0.00403913,0.00285472,-0.00240394,0.00
 153919,0.00001380,-0.00020817,-0.00025660,0.00050812,-0.00017942,-0.00
 012363,0.00011379,-0.00001120,-0.00015744,0.00004062,-0.00009594,-0.00
 001574,0.00011539,-0.00078503,0.00041040,0.00002088,0.00052616,-0.0004
 5264,-0.00026009,0.23461192,0.00082809,0.00033840,-0.00019797,0.000314
 14,0.00055238,0.00023164,-0.00246940,-0.00206411,-0.00312935,-0.014816
 94,0.01027887,-0.00646804,0.08826580,-0.09632211,0.04318214,0.00542418
 ,-0.00592452,0.00869325,0.00225654,0.00184959,0.00234524,0.01762795,-0
 .00555850,0.00129175,0.00303778,-0.00825448,-0.00015453,0.00021004,-0.
 00014959,0.00048268,-0.00011873,-0.00003531,0.00007820,0.00007334,0.00
 001668,-0.00002383,-0.00024164,-0.00008654,0.00016483,-0.00074483,0.00
 068473,0.00002756,0.00101176,0.00040302,0.00053245,-0.10109969,0.10323
 582,-0.00021867,-0.00015174,-0.00002617,-0.00022217,0.00004626,0.00016
 888,-0.00198752,-0.00115585,-0.00121156,-0.00916368,0.00942193,-0.0046
 7298,-0.08813193,0.04406838,-0.08945858,0.01330198,-0.00811702,0.00988
 264,0.00224088,0.00059437,-0.00072973,-0.01189648,0.00282661,-0.004516
 98,0.00005972,-0.00129745,-0.00175371,-0.00004314,-0.00016556,0.000224
 57,-0.00013957,-0.00007014,0.00003303,-0.00011214,-0.00003865,0.000075
 59,-0.00021131,-0.00009770,0.00008198,-0.00060729,0.00046379,0.0000469
 5,0.00058086,-0.00000417,0.00015282,0.09725174,-0.04692055,0.08949699,
 -0.00009653,-0.00004780,0.00035341,-0.00008063,-0.00032187,0.00011117,
 0.00072356,0.00094635,0.00009747,-0.00004342,0.00007258,-0.00049030,-0
 .00396591,-0.00665447,0.00483518,-0.12008760,-0.02815190,0.11131900,-0
 .00277178,0.00353651,0.01195588,-0.00434913,-0.00100936,0.00368779,0.0
 0951837,0.00071847,-0.00789216,0.00002322,0.00013918,-0.00019053,0.000
 09163,0.00005245,-0.00019573,0.00002464,0.00010402,-0.00002344,-0.0002
 9893,-0.00032863,-0.00005474,-0.00018367,-0.00036051,-0.00014924,0.000
 15480,0.00002949,0.00011694,-0.00008697,-0.00015413,0.00003053,0.11896
 255,-0.00039465,0.00000464,-0.00019221,-0.00006376,-0.00007298,0.00018
 601,0.00042141,0.00001510,-0.00038376,0.00118288,0.00095425,0.00021283
 ,0.00466318,0.00909306,-0.01235431,-0.02821227,-0.06260743,0.04293239,
 -0.00172296,0.00098334,0.01352452,-0.00110460,-0.00249874,0.00148367,-
 0.00534584,-0.00267637,0.00228693,-0.00030668,-0.00050239,0.00009915,0
 .00007390,0.00000200,0.00013246,0.00006659,0.00002811,-0.00007411,-0.0
 0002132,0.00003175,-0.00006022,-0.00007523,0.00012004,0.00004370,-0.00
 038679,-0.00032479,-0.00021715,0.00000377,0.00036007,0.00041563,0.0318
 8381,0.05376437,-0.00010379,0.00013831,-0.00049044,0.00031406,-0.00038
 886,-0.00042842,0.00072716,0.00094734,0.00012381,0.00056584,0.00050645
 ,-0.00004687,-0.00047496,0.00497366,-0.00399381,0.11116578,0.04277510,
 -0.23422307,-0.00303572,-0.00094141,0.00358400,0.00343098,0.00123026,-
 0.00783266,0.01236270,-0.00060925,-0.00571057,0.00009889,-0.00046105,0
 .00041574,-0.00008995,-0.00003309,0.00030169,-0.00017435,0.00004819,0.
 00034257,-0.00074085,0.00011840,0.00020273,-0.00027857,-0.00032664,-0.
 00010768,-0.00012964,-0.00021148,-0.00000077,0.00014586,-0.00034591,0.
 00023239,-0.12587844,-0.04889960,0.24694978,0.00012488,0.00002792,0.00
 007799,0.00003702,-0.00003724,0.00001208,0.00031620,0.00015421,0.00027
 626,0.00105555,-0.00136969,-0.00115067,-0.00223957,-0.00295398,-0.0012
 8481,0.00724723,-0.01807649,-0.00510281,-0.07038431,0.07010980,0.00204
 813,-0.00231152,0.00048158,0.00041056,0.00177989,-0.00284647,0.0021201
 9,-0.00002228,0.00006508,0.00001534,0.00002142,0.00001378,0.00000652,0
 .00000569,0.00000623,-0.00002436,0.00001445,-0.00001835,0.00000093,-0.
 00000441,0.00002666,-0.00000910,-0.00041158,-0.00032277,-0.00037288,0.
 00019233,-0.00054495,-0.00003626,0.00025319,0.00025086,0.00023918,0.07
 016309,0.00003562,0.00002628,-0.00025343,0.00006130,-0.00007543,-0.000
 01050,-0.00019254,0.00004925,-0.00008614,0.00125255,-0.00080624,0.0001
 0929,-0.00419693,-0.00421769,-0.00319089,0.00628536,-0.01267629,-0.004
 82087,0.06839833,-0.28572762,-0.01645576,-0.00056575,-0.00649177,0.002
 27723,0.00118789,0.00081497,0.00161370,0.00001083,0.00007245,0.0000586
 6,-0.00010933,-0.00004596,0.00003346,-0.00004770,-0.00000304,-0.000036
 77,-0.00001956,0.00001728,0.00003893,-0.00007671,0.00002146,-0.0000554
 0,-0.00040032,-0.00016863,-0.00037214,0.00015522,0.00016861,0.00012908
 ,-0.00025172,-0.00002923,0.00020913,-0.07121557,0.31324278,-0.00027833
 ,-0.00041726,-0.00047480,-0.00000957,-0.00003236,0.00003382,0.00026765
 ,0.00016376,0.00009831,-0.00073682,-0.00133182,0.00183654,-0.00146728,
 -0.00248186,-0.00310930,-0.00354558,0.00834144,-0.00052851,0.00162374,
 -0.01548502,-0.04859480,0.00463873,-0.02516718,0.00285688,0.00296477,-
 0.00086270,-0.00122583,0.00001491,-0.00002655,-0.00000220,-0.00019558,
 -0.00009370,0.00010256,-0.00001398,0.00001823,0.00000192,-0.00003088,0
 .00001307,0.00000842,0.00000464,-0.00000281,0.00000921,0.00020909,0.00
 010738,0.00005710,0.00012486,-0.00031756,0.00005761,-0.00016403,0.0003
 8773,0.00005902,0.00024367,0.02246518,0.04716315,-0.00004704,0.0000520
 5,-0.00005993,0.00019165,0.00010766,-0.00005365,-0.00007447,0.00120611
 ,-0.00119080,0.00001213,-0.00025375,0.00000275,0.00006617,0.00103200,0
 .00203013,-0.01303239,0.00520509,-0.01237403,-0.23646564,0.04717182,-0
 .10601673,0.00149175,-0.00165523,0.00261135,-0.00286563,-0.00424527,-0
 .00179652,-0.00000217,0.00000539,0.00003544,0.00000084,-0.00005017,-0.
 00002284,-0.00001300,-0.00003485,0.00000636,0.00005951,0.00002449,0.00
 007726,-0.00012350,-0.00059825,-0.00027161,0.00003345,-0.00008802,-0.0
 0001696,0.00047952,-0.00108451,-0.00023071,-0.00020362,-0.00008340,0.0
 0018176,-0.00604827,0.00084451,-0.00349426,0.25608876,-0.00004940,0.00
 003776,-0.00000725,-0.00007477,-0.00001342,-0.00013052,-0.00143312,0.0
 0052773,-0.00125503,0.00012944,0.00046361,0.00019757,-0.00303734,0.003
 03152,-0.00046783,-0.01137745,0.00329617,-0.01132895,0.04884801,-0.063
 61179,0.02580932,-0.00832500,-0.00030113,-0.00136714,-0.00298349,-0.00
 344821,-0.00244651,-0.00001287,0.00000372,-0.00000092,0.00001885,-0.00
 000824,-0.00001619,-0.00003732,-0.00003259,0.00004617,0.00004431,-0.00
 000815,0.00003682,-0.00017367,-0.00042973,-0.00028462,0.00002499,-0.00
 000639,0.00000377,0.00065327,0.00001977,0.00029275,0.00027878,0.000260
 17,0.00028782,0.02514083,-0.00476335,0.01432997,-0.04749266,0.06460599
 ,-0.00004624,0.00000669,0.00000503,-0.00019638,-0.00044708,-0.00050134
 ,-0.00166087,0.00013594,0.00163424,0.00012148,0.00005191,-0.00001316,0
 .00105952,0.00186898,-0.00172575,0.00825496,-0.00307264,0.00378796,-0.
 10567732,0.02476475,-0.10491298,-0.02363232,0.00482538,-0.00706793,-0.
 00155736,-0.00309857,-0.00324520,0.00001168,-0.00002872,0.00003866,0.0
 0001022,-0.00002929,0.00001201,-0.00014953,-0.00017164,0.00012391,-0.0
 0002104,0.00002658,-0.00000317,0.00013600,0.00019060,0.00002898,-0.000
 00302,-0.00002231,-0.00000167,0.00013620,-0.00076381,0.00034571,0.0001
 9033,-0.00027297,0.00022845,0.00242632,-0.00062754,0.00131133,0.120653
 93,-0.02364266,0.11006867,-0.00009215,0.00007347,0.00003216,-0.0002957
 8,-0.00032976,-0.00045685,0.00076184,0.00098843,0.00112167,-0.00016132
 ,-0.00006029,-0.00002211,0.00003741,0.00075025,-0.00354583,-0.00405565
 ,-0.00098348,0.00328262,0.00331601,0.00339936,-0.00509739,-0.11953014,
 -0.02765896,0.11102158,-0.00012554,-0.00578323,0.01756202,0.00002875,0
 .00000914,0.00000150,0.00002986,-0.00001013,-0.00002499,-0.00011129,-0
 .00021968,0.00005920,0.00012886,0.00008000,-0.00006890,-0.00020651,-0.
 00030409,-0.00054636,0.00003036,-0.00020580,0.00003803,0.00018606,-0.0
 0037327,-0.00008573,0.00211557,-0.00054852,0.00189157,0.00003972,-0.00
 002981,0.00027568,0.00027364,0.00041313,0.00000819,0.11740938,-0.00014
 939,-0.00046872,-0.00045454,0.00005261,-0.00004305,0.00004823,0.000001
 37,-0.00010606,0.00013941,0.00067353,0.00127309,0.00121987,-0.01152051
 ,0.00483170,0.01362811,-0.00094229,-0.00237314,0.00104866,0.00861372,0
 .00411511,-0.00603198,-0.02774165,-0.06233406,0.04179175,0.00108319,-0
 .00125383,-0.00376674,0.00010501,0.00007265,-0.00006215,-0.00024296,-0
 .00008847,0.00003082,0.00000067,0.00002716,-0.00002078,-0.00002330,0.0
 0002524,0.00000129,-0.00012141,0.00013725,0.00002688,-0.00005179,-0.00
 029149,-0.00046444,0.00036183,0.00032196,0.00004336,-0.00055074,0.0030
 9147,0.00072149,0.00047897,0.00017263,0.00006075,-0.00021719,0.0001821
 1,0.00017730,0.03041195,0.05260064,0.00011525,0.00002344,-0.00002306,-
 0.00008559,0.00000761,-0.00024661,0.00041745,0.00046602,0.00067566,-0.
 00003370,0.00020272,0.00021804,0.00129100,-0.00328389,-0.00327385,0.00
 339896,0.00115906,-0.00786959,0.00978608,0.00829748,-0.00530030,0.1107
 2287,0.04153941,-0.23577094,-0.00263815,-0.00167752,0.00301462,-0.0000
 2485,-0.00009208,0.00005163,0.00003154,0.00001717,0.00003929,-0.000034
 91,-0.00004338,0.00006437,-0.00006299,0.00001093,-0.00000098,0.0002086
 2,0.00019489,0.00006170,0.00023845,0.00028884,0.00025371,-0.00004819,0
 .00013268,-0.00013148,0.00189599,0.00072015,0.00019749,0.00012487,-0.0
 0033643,0.00008324,-0.00019039,0.00023948,-0.00016084,-0.12546621,-0.0
 4786969,0.24806759,0.00048619,0.00044254,0.00021371,0.00049506,0.00075
 960,-0.00034068,0.00750856,-0.01252497,0.00218123,-0.00077737,-0.00256
 828,-0.00241261,-0.00665487,0.00241563,-0.00292055,-0.00375624,0.00123
 183,0.00283555,0.00066229,0.00227706,0.00231016,-0.00521317,0.02069286
 ,-0.00654631,-0.10227785,0.10409746,-0.00859418,-0.00010895,-0.0001103
 4,0.00015949,0.00003656,0.00008374,-0.00006801,-0.00005209,-0.00005330
 ,0.00008419,-0.00022566,0.00032251,0.00027497,0.00025175,0.00091270,0.
 00021909,0.00043774,-0.00052097,0.00037971,0.00037877,0.00259847,-0.00
 037910,0.00030066,-0.00028038,-0.00021753,0.00017129,-0.00112566,-0.00
 043142,0.00017831,-0.00055451,-0.00006476,0.00022094,-0.00022162,0.000
 35391,0.10793810,0.00031603,0.00026089,0.00028321,0.00008886,0.0000822
 9,-0.00031838,0.01230181,-0.01280328,0.00416756,-0.00023304,-0.0018473
 3,-0.00229341,0.00073619,-0.00221032,0.00045719,0.00154206,-0.00468176
 ,-0.00209026,-0.00071561,0.00170035,0.00051670,-0.00295711,0.00238488,
 -0.00070251,0.10591790,-0.25769704,0.01209560,-0.00010958,-0.00011174,
 0.00016183,-0.00017625,-0.00002657,0.00001635,-0.00019230,-0.00016817,
 0.00012962,-0.00048828,-0.00000727,0.00046268,-0.00026537,0.00059891,-
 0.00053701,0.00042382,-0.00087869,0.00054108,0.00045072,0.00016526,-0.
 00028331,0.00006949,0.00000354,0.00026114,0.00062960,0.00041955,0.0003
 3129,0.00015417,0.00019446,0.00012910,0.00038130,0.00010780,0.00000309
 ,-0.11787439,0.27451424,0.00002076,-0.00010458,0.00024033,-0.00002595,
 0.00000515,-0.00000577,0.00887685,-0.01102278,0.00160545,-0.00119460,-
 0.00286014,-0.00093148,-0.00349215,0.00110461,-0.00355214,-0.01292556,
 0.02004487,0.00364131,0.00167017,0.00232718,-0.00067358,0.00268242,-0.
 00758418,-0.00114039,-0.00836990,0.01134745,-0.04732576,-0.00015588,-0
 .00019471,0.00011985,0.00000093,-0.00004970,0.00007036,-0.00004722,-0.
 00009240,0.00003914,-0.00016015,0.00015995,0.00010005,0.00019595,0.000
 78572,0.00022329,0.00041186,-0.00047066,0.00038697,-0.00101401,0.00115
 912,0.00170203,0.00044489,0.00002912,0.00019663,-0.00002115,-0.0006887
 7,0.00025632,0.00011944,-0.00029605,0.00004707,0.00002017,-0.00026760,
 0.00005031,0.01296311,-0.01333159,0.04495000\\-0.00018569,-0.00008064,
 -0.00017546,0.00009799,-0.00005396,0.00001496,-0.00026256,-0.00012531,
 0.00010397,0.00026038,0.00029966,0.00026383,-0.00003685,-0.00019006,-0
 .00029461,-0.00005275,0.00014322,0.00000718,-0.00012975,0.00009177,-0.
 00007668,0.00022696,-0.00011654,0.00036313,0.00013242,-0.00002057,-0.0
 0019901,-0.00000114,0.00002663,0.00004141,0.00004317,-0.00000063,0.000
 04642,-0.00001582,0.00002707,-0.00000923,-0.00000013,-0.00000339,0.000
 01558,0.00003992,0.00006374,-0.00000121,-0.00006999,-0.00003271,-0.000
 04802,0.00002933,0.00007360,-0.00000320,-0.00002336,-0.00003398,-0.000
 02848,0.00001903,-0.00001987,0.00000747,0.00004692,-0.00004820,-0.0000
 1122,-0.00007657,0.00002371,-0.00003953,-0.00004150,-0.00002357,0.0000
 2271\\\@


 MORNING PEOPLE ARE USUALLY ADMIRED AS EARLY BIRDS.
 RECALL BEN FRANKLIN'S APHORISM THAT THE EARLY BIRD GETS THE WORM.
 I IDENTIFY WITH THE WORM. --  CRAIG JAGGER, MINNEAPOLIS, KS.
 Job cpu time:       0 days  2 hours 19 minutes  4.0 seconds.
 Elapsed time:       0 days  0 hours 34 minutes 46.8 seconds.
 File lengths (MBytes):  RWF=    152 Int=      0 D2E=      0 Chk=      9 Scr=      1
 Normal termination of Gaussian 16 at Mon May 29 02:12:43 2023.
### All Done ###
