### Starting Gaussian ###
 Entering Gaussian System, Link 0=g16
 Initial command:
 /cluster/software/gaussian/gaussian-16-A.03/avx2/g16/l1.exe "/local/scratch/cz9n3/Gau-26649.inp" -scrdir="/local/scratch/cz9n3/"
 Entering Link 1 = /cluster/software/gaussian/gaussian-16-A.03/avx2/g16/l1.exe PID=     26650.
  
 Copyright (c) 1988,1990,1992,1993,1995,1998,2003,2009,2016,
            Gaussian, Inc.  All Rights Reserved.
  
 This is part of the Gaussian(R) 16 program.  It is based on
 the Gaussian(R) 09 system (copyright 2009, Gaussian, Inc.),
 the Gaussian(R) 03 system (copyright 2003, Gaussian, Inc.),
 the Gaussian(R) 98 system (copyright 1998, Gaussian, Inc.),
 the Gaussian(R) 94 system (copyright 1995, Gaussian, Inc.),
 the Gaussian 92(TM) system (copyright 1992, Gaussian, Inc.),
 the Gaussian 90(TM) system (copyright 1990, Gaussian, Inc.),
 the Gaussian 88(TM) system (copyright 1988, Gaussian, Inc.),
 the Gaussian 86(TM) system (copyright 1986, Carnegie Mellon
 University), and the Gaussian 82(TM) system (copyright 1983,
 Carnegie Mellon University). Gaussian is a federally registered
 trademark of Gaussian, Inc.
  
 This software contains proprietary and confidential information,
 including trade secrets, belonging to Gaussian, Inc.
  
 This software is provided under written license and may be
 used, copied, transmitted, or stored only in accord with that
 written license.
  
 The following legend is applicable only to US Government
 contracts under FAR:
  
                    RESTRICTED RIGHTS LEGEND
  
 Use, reproduction and disclosure by the US Government is
 subject to restrictions as set forth in subparagraphs (a)
 and (c) of the Commercial Computer Software - Restricted
 Rights clause in FAR 52.227-19.
  
 Gaussian, Inc.
 340 Quinnipiac St., Bldg. 40, Wallingford CT 06492
  
  
 ---------------------------------------------------------------
 Warning -- This program may not be used in any manner that
 competes with the business of Gaussian, Inc. or will provide
 assistance to any competitor of Gaussian, Inc.  The licensee
 of this program is prohibited from giving any competitor of
 Gaussian, Inc. access to this program.  By using this program,
 the user acknowledges that Gaussian, Inc. is engaged in the
 business of creating and licensing software in the field of
 computational chemistry and represents and warrants to the
 licensee that it is not a competitor of Gaussian, Inc. and that
 it will not use this program in any manner prohibited above.
 ---------------------------------------------------------------
  

 Cite this work as:
 Gaussian 16, Revision A.03,
 M. J. Frisch, G. W. Trucks, H. B. Schlegel, G. E. Scuseria, 
 M. A. Robb, J. R. Cheeseman, G. Scalmani, V. Barone, 
 G. A. Petersson, H. Nakatsuji, X. Li, M. Caricato, A. V. Marenich, 
 J. Bloino, B. G. Janesko, R. Gomperts, B. Mennucci, H. P. Hratchian, 
 J. V. Ortiz, A. F. Izmaylov, J. L. Sonnenberg, D. Williams-Young, 
 F. Ding, F. Lipparini, F. Egidi, J. Goings, B. Peng, A. Petrone, 
 T. Henderson, D. Ranasinghe, V. G. Zakrzewski, J. Gao, N. Rega, 
 G. Zheng, W. Liang, M. Hada, M. Ehara, K. Toyota, R. Fukuda, 
 J. Hasegawa, M. Ishida, T. Nakajima, Y. Honda, O. Kitao, H. Nakai, 
 T. Vreven, K. Throssell, J. A. Montgomery, Jr., J. E. Peralta, 
 F. Ogliaro, M. J. Bearpark, J. J. Heyd, E. N. Brothers, K. N. Kudin, 
 V. N. Staroverov, T. A. Keith, R. Kobayashi, J. Normand, 
 K. Raghavachari, A. P. Rendell, J. C. Burant, S. S. Iyengar, 
 J. Tomasi, M. Cossi, J. M. Millam, M. Klene, C. Adamo, R. Cammi, 
 J. W. Ochterski, R. L. Martin, K. Morokuma, O. Farkas, 
 J. B. Foresman, and D. J. Fox, Gaussian, Inc., Wallingford CT, 2016.
 
 ******************************************
 Gaussian 16:  ES64L-G16RevA.03 25-Dec-2016
                24-May-2023 
 ******************************************
 %chk=C1dCCdNCqNc2ccccc2rdCCdC1.chk
 %NProcShared=20
 Will use up to   20 processors via shared memory.
 -----------------------------
 # opt freq b3lyp/6-31g(2df,p)
 -----------------------------
 1/18=20,19=15,26=3,38=1/1,3;
 2/9=110,12=2,17=6,18=5,40=1/2;
 3/5=1,6=6,7=104,11=2,25=1,30=1,71=1,74=-5/1,2,3;
 4//1;
 5/5=2,38=5/2;
 6/7=2,8=2,9=2,10=2,28=1/1;
 7//1,2,3,16;
 1/18=20,19=15,26=3/3(2);
 2/9=110/2;
 99//99;
 2/9=110/2;
 3/5=1,6=6,7=104,11=2,25=1,30=1,71=1,74=-5/1,2,3;
 4/5=5,16=3,69=1/1;
 5/5=2,38=5/2;
 7//1,2,3,16;
 1/18=20,19=15,26=3/3(-5);
 2/9=110/2;
 6/7=2,8=2,9=2,10=2,19=2,28=1/1;
 99/9=1/99;
 -------------------
 Title Card Required
 -------------------
 Symbolic Z-matrix:
 Charge =  0 Multiplicity = 1
 C                    -1.59059   0.27908   0.4695 
 C                    -1.22839  -1.01072   0.52226 
 C                    -0.20796  -1.50137  -0.44087 
 N                     1.03896  -1.16892  -0.52213 
 C                     1.53072  -0.34692   0.4786 
 N                     2.26991  -0.87406   1.52444 
 C                     2.78569  -2.17784   1.54467 
 C                     2.60122  -2.98815   2.66893 
 C                     3.10682  -4.29069   2.69226 
 C                     3.77454  -4.80176   1.57941 
 C                     3.96901  -4.00151   0.45739 
 C                     3.48645  -2.69491   0.4482 
 C                     1.24205   0.97454   0.44776 
 C                     0.28684   1.55925  -0.48102 
 C                    -1.01882   1.23753  -0.4646 
 H                    -2.31856   0.66862   1.1759 
 H                    -1.62375  -1.72038   1.23637 
 H                    -0.59883  -2.20887  -1.19145 
 H                     2.65895  -0.22894   2.19698 
 H                     2.01633  -2.62639   3.51035 
 H                     2.96913  -4.91081   3.57345 
 H                     4.13588  -5.82596   1.58152 
 H                     4.48812  -4.38683  -0.41501 
 H                     3.63762  -2.07409  -0.43214 
 H                     1.6255    1.65053   1.20587 
 H                     0.68035   2.25588  -1.21504 
 H                    -1.69939   1.67239  -1.19185 
 

 GradGradGradGradGradGradGradGradGradGradGradGradGradGradGradGradGradGrad
 Berny optimization.
 Initialization pass.
                           ----------------------------
                           !    Initial Parameters    !
                           ! (Angstroms and Degrees)  !
 --------------------------                            --------------------------
 ! Name  Definition              Value          Derivative Info.                !
 --------------------------------------------------------------------------------
 ! R1    R(1,2)                  1.3407         estimate D2E/DX2                !
 ! R2    R(1,15)                 1.4554         estimate D2E/DX2                !
 ! R3    R(1,16)                 1.0866         estimate D2E/DX2                !
 ! R4    R(2,3)                  1.4865         estimate D2E/DX2                !
 ! R5    R(2,17)                 1.0816         estimate D2E/DX2                !
 ! R6    R(3,4)                  1.293          estimate D2E/DX2                !
 ! R7    R(3,18)                 1.103          estimate D2E/DX2                !
 ! R8    R(4,5)                  1.3853         estimate D2E/DX2                !
 ! R9    R(5,6)                  1.3849         estimate D2E/DX2                !
 ! R10   R(5,13)                 1.353          estimate D2E/DX2                !
 ! R11   R(6,7)                  1.4022         estimate D2E/DX2                !
 ! R12   R(6,19)                 1.0099         estimate D2E/DX2                !
 ! R13   R(7,8)                  1.3981         estimate D2E/DX2                !
 ! R14   R(7,12)                 1.4002         estimate D2E/DX2                !
 ! R15   R(8,9)                  1.3974         estimate D2E/DX2                !
 ! R16   R(8,20)                 1.0867         estimate D2E/DX2                !
 ! R17   R(9,10)                 1.3948         estimate D2E/DX2                !
 ! R18   R(9,21)                 1.0863         estimate D2E/DX2                !
 ! R19   R(10,11)                1.3918         estimate D2E/DX2                !
 ! R20   R(10,22)                1.0861         estimate D2E/DX2                !
 ! R21   R(11,12)                1.3929         estimate D2E/DX2                !
 ! R22   R(11,23)                1.0858         estimate D2E/DX2                !
 ! R23   R(12,24)                1.0878         estimate D2E/DX2                !
 ! R24   R(13,14)                1.455          estimate D2E/DX2                !
 ! R25   R(13,25)                1.0857         estimate D2E/DX2                !
 ! R26   R(14,15)                1.3448         estimate D2E/DX2                !
 ! R27   R(14,26)                1.0858         estimate D2E/DX2                !
 ! R28   R(15,27)                1.0868         estimate D2E/DX2                !
 ! A1    A(2,1,15)             123.5503         estimate D2E/DX2                !
 ! A2    A(2,1,16)             120.0189         estimate D2E/DX2                !
 ! A3    A(15,1,16)            116.3832         estimate D2E/DX2                !
 ! A4    A(1,2,3)              118.5216         estimate D2E/DX2                !
 ! A5    A(1,2,17)             123.9469         estimate D2E/DX2                !
 ! A6    A(3,2,17)             117.5251         estimate D2E/DX2                !
 ! A7    A(2,3,4)              128.1589         estimate D2E/DX2                !
 ! A8    A(2,3,18)             114.1637         estimate D2E/DX2                !
 ! A9    A(4,3,18)             117.6369         estimate D2E/DX2                !
 ! A10   A(3,4,5)              116.7114         estimate D2E/DX2                !
 ! A11   A(4,5,6)              120.6067         estimate D2E/DX2                !
 ! A12   A(4,5,13)             119.167          estimate D2E/DX2                !
 ! A13   A(6,5,13)             120.1886         estimate D2E/DX2                !
 ! A14   A(5,6,7)              124.1327         estimate D2E/DX2                !
 ! A15   A(5,6,19)             117.7343         estimate D2E/DX2                !
 ! A16   A(7,6,19)             116.2731         estimate D2E/DX2                !
 ! A17   A(6,7,8)              120.13           estimate D2E/DX2                !
 ! A18   A(6,7,12)             121.0728         estimate D2E/DX2                !
 ! A19   A(8,7,12)             118.7968         estimate D2E/DX2                !
 ! A20   A(7,8,9)              120.3928         estimate D2E/DX2                !
 ! A21   A(7,8,20)             120.047          estimate D2E/DX2                !
 ! A22   A(9,8,20)             119.4784         estimate D2E/DX2                !
 ! A23   A(8,9,10)             120.0938         estimate D2E/DX2                !
 ! A24   A(8,9,21)             119.986          estimate D2E/DX2                !
 ! A25   A(10,9,21)            119.9159         estimate D2E/DX2                !
 ! A26   A(9,10,11)            119.9609         estimate D2E/DX2                !
 ! A27   A(9,10,22)            120.2157         estimate D2E/DX2                !
 ! A28   A(11,10,22)           119.821          estimate D2E/DX2                !
 ! A29   A(10,11,12)           119.7529         estimate D2E/DX2                !
 ! A30   A(10,11,23)           120.6946         estimate D2E/DX2                !
 ! A31   A(12,11,23)           119.5513         estimate D2E/DX2                !
 ! A32   A(7,12,11)            120.9713         estimate D2E/DX2                !
 ! A33   A(7,12,24)            119.5067         estimate D2E/DX2                !
 ! A34   A(11,12,24)           119.5088         estimate D2E/DX2                !
 ! A35   A(5,13,14)            123.1706         estimate D2E/DX2                !
 ! A36   A(5,13,25)            121.1219         estimate D2E/DX2                !
 ! A37   A(14,13,25)           115.3023         estimate D2E/DX2                !
 ! A38   A(13,14,15)           122.24           estimate D2E/DX2                !
 ! A39   A(13,14,26)           116.8364         estimate D2E/DX2                !
 ! A40   A(15,14,26)           120.9046         estimate D2E/DX2                !
 ! A41   A(1,15,14)            123.1489         estimate D2E/DX2                !
 ! A42   A(1,15,27)            116.5497         estimate D2E/DX2                !
 ! A43   A(14,15,27)           120.2704         estimate D2E/DX2                !
 ! D1    D(15,1,2,3)            -1.2847         estimate D2E/DX2                !
 ! D2    D(15,1,2,17)          177.7733         estimate D2E/DX2                !
 ! D3    D(16,1,2,3)          -178.6821         estimate D2E/DX2                !
 ! D4    D(16,1,2,17)            0.3758         estimate D2E/DX2                !
 ! D5    D(2,1,15,14)          -61.4134         estimate D2E/DX2                !
 ! D6    D(2,1,15,27)          116.5644         estimate D2E/DX2                !
 ! D7    D(16,1,15,14)         116.0712         estimate D2E/DX2                !
 ! D8    D(16,1,15,27)         -65.951          estimate D2E/DX2                !
 ! D9    D(1,2,3,4)             65.6992         estimate D2E/DX2                !
 ! D10   D(1,2,3,18)          -111.9055         estimate D2E/DX2                !
 ! D11   D(17,2,3,4)          -113.4195         estimate D2E/DX2                !
 ! D12   D(17,2,3,18)           68.9758         estimate D2E/DX2                !
 ! D13   D(2,3,4,5)              6.4407         estimate D2E/DX2                !
 ! D14   D(18,3,4,5)          -176.0263         estimate D2E/DX2                !
 ! D15   D(3,4,5,6)            100.5314         estimate D2E/DX2                !
 ! D16   D(3,4,5,13)           -77.2412         estimate D2E/DX2                !
 ! D17   D(4,5,6,7)             12.1703         estimate D2E/DX2                !
 ! D18   D(4,5,6,19)           176.0326         estimate D2E/DX2                !
 ! D19   D(13,5,6,7)          -170.0798         estimate D2E/DX2                !
 ! D20   D(13,5,6,19)           -6.2176         estimate D2E/DX2                !
 ! D21   D(4,5,13,14)            8.7562         estimate D2E/DX2                !
 ! D22   D(4,5,13,25)         -178.8966         estimate D2E/DX2                !
 ! D23   D(6,5,13,14)         -169.026          estimate D2E/DX2                !
 ! D24   D(6,5,13,25)            3.3213         estimate D2E/DX2                !
 ! D25   D(5,6,7,8)           -131.6508         estimate D2E/DX2                !
 ! D26   D(5,6,7,12)            48.1222         estimate D2E/DX2                !
 ! D27   D(19,6,7,8)            64.273          estimate D2E/DX2                !
 ! D28   D(19,6,7,12)         -115.954          estimate D2E/DX2                !
 ! D29   D(6,7,8,9)            179.6639         estimate D2E/DX2                !
 ! D30   D(6,7,8,20)             2.9678         estimate D2E/DX2                !
 ! D31   D(12,7,8,9)            -0.1143         estimate D2E/DX2                !
 ! D32   D(12,7,8,20)         -176.8103         estimate D2E/DX2                !
 ! D33   D(6,7,12,11)         -178.3848         estimate D2E/DX2                !
 ! D34   D(6,7,12,24)            0.2899         estimate D2E/DX2                !
 ! D35   D(8,7,12,11)            1.3912         estimate D2E/DX2                !
 ! D36   D(8,7,12,24)         -179.9341         estimate D2E/DX2                !
 ! D37   D(7,8,9,10)            -1.4326         estimate D2E/DX2                !
 ! D38   D(7,8,9,21)           179.3294         estimate D2E/DX2                !
 ! D39   D(20,8,9,10)          175.2822         estimate D2E/DX2                !
 ! D40   D(20,8,9,21)           -3.9559         estimate D2E/DX2                !
 ! D41   D(8,9,10,11)            1.7193         estimate D2E/DX2                !
 ! D42   D(8,9,10,22)         -177.7239         estimate D2E/DX2                !
 ! D43   D(21,9,10,11)        -179.0421         estimate D2E/DX2                !
 ! D44   D(21,9,10,22)           1.5146         estimate D2E/DX2                !
 ! D45   D(9,10,11,12)          -0.4552         estimate D2E/DX2                !
 ! D46   D(9,10,11,23)         179.9338         estimate D2E/DX2                !
 ! D47   D(22,10,11,12)        178.9903         estimate D2E/DX2                !
 ! D48   D(22,10,11,23)         -0.6207         estimate D2E/DX2                !
 ! D49   D(10,11,12,7)          -1.1134         estimate D2E/DX2                !
 ! D50   D(10,11,12,24)       -179.7881         estimate D2E/DX2                !
 ! D51   D(23,11,12,7)         178.5021         estimate D2E/DX2                !
 ! D52   D(23,11,12,24)         -0.1726         estimate D2E/DX2                !
 ! D53   D(5,13,14,15)          63.2499         estimate D2E/DX2                !
 ! D54   D(5,13,14,26)        -115.1761         estimate D2E/DX2                !
 ! D55   D(25,13,14,15)       -109.5059         estimate D2E/DX2                !
 ! D56   D(25,13,14,26)         72.0681         estimate D2E/DX2                !
 ! D57   D(13,14,15,1)          -0.3346         estimate D2E/DX2                !
 ! D58   D(13,14,15,27)       -178.24           estimate D2E/DX2                !
 ! D59   D(26,14,15,1)         178.0285         estimate D2E/DX2                !
 ! D60   D(26,14,15,27)          0.1231         estimate D2E/DX2                !
 --------------------------------------------------------------------------------
 Trust Radius=3.00D-01 FncErr=1.00D-07 GrdErr=1.00D-06 EigMax=2.50D+02 EigMin=1.00D-04
 Number of steps in this run=    141 maximum allowed number of steps=    162.
 GradGradGradGradGradGradGradGradGradGradGradGradGradGradGradGradGradGrad

                          Input orientation:                          
 ---------------------------------------------------------------------
 Center     Atomic      Atomic             Coordinates (Angstroms)
 Number     Number       Type             X           Y           Z
 ---------------------------------------------------------------------
      1          6           0       -1.590590    0.279080    0.469500
      2          6           0       -1.228390   -1.010720    0.522260
      3          6           0       -0.207960   -1.501370   -0.440870
      4          7           0        1.038960   -1.168920   -0.522130
      5          6           0        1.530720   -0.346920    0.478600
      6          7           0        2.269910   -0.874060    1.524440
      7          6           0        2.785690   -2.177840    1.544670
      8          6           0        2.601220   -2.988150    2.668930
      9          6           0        3.106820   -4.290690    2.692260
     10          6           0        3.774540   -4.801760    1.579410
     11          6           0        3.969010   -4.001510    0.457390
     12          6           0        3.486450   -2.694910    0.448200
     13          6           0        1.242050    0.974540    0.447760
     14          6           0        0.286840    1.559250   -0.481020
     15          6           0       -1.018820    1.237530   -0.464600
     16          1           0       -2.318560    0.668620    1.175900
     17          1           0       -1.623750   -1.720380    1.236370
     18          1           0       -0.598830   -2.208870   -1.191450
     19          1           0        2.658950   -0.228940    2.196980
     20          1           0        2.016330   -2.626390    3.510350
     21          1           0        2.969130   -4.910810    3.573450
     22          1           0        4.135880   -5.825960    1.581520
     23          1           0        4.488120   -4.386830   -0.415010
     24          1           0        3.637620   -2.074090   -0.432140
     25          1           0        1.625500    1.650530    1.205870
     26          1           0        0.680350    2.255880   -1.215040
     27          1           0       -1.699390    1.672390   -1.191850
 ---------------------------------------------------------------------
                    Distance matrix (angstroms):
                    1          2          3          4          5
     1  C    0.000000
     2  C    1.340730   0.000000
     3  C    2.431140   1.486484   0.000000
     4  N    3.161419   2.501330   1.293034   0.000000
     5  C    3.183478   2.838173   2.280611   1.385270   0.000000
     6  N    4.164864   3.641585   3.224252   2.406373   1.384940
     7  C    5.132667   4.303525   3.655396   2.888018   2.462463
     8  C    5.751831   4.815011   4.446669   3.991631   3.594386
     9  C    6.920197   5.853302   5.346455   4.934957   4.789332
    10  C    7.472045   6.365443   5.552874   5.009730   5.108044
    11  C    7.016605   5.996832   4.950217   4.191446   4.393374
    12  C    5.883996   5.007165   3.982920   3.043089   3.055955
    13  C    2.916845   3.170155   3.003718   2.361430   1.352974
    14  C    2.463142   3.147577   3.100618   2.830245   2.470140
    15  C    1.455366   2.464232   2.856507   3.166823   3.146468
    16  H    1.086592   2.106157   3.431827   4.187219   4.041597
    17  H    2.141735   1.081610   2.205802   3.238280   3.522966
    18  H    3.151545   2.183738   1.103044   2.052277   3.284952
    19  H    4.615286   4.304333   4.098354   3.301740   2.059042
    20  H    5.540613   4.697582   4.671753   4.397768   3.824043
    21  H    7.573672   6.491505   6.150849   5.873761   5.698790
    22  H    8.443966   7.285874   6.454540   5.975306   6.166293
    23  H    7.713870   6.704855   5.511780   4.718382   5.085826
    24  H    5.803839   5.071458   3.888003   2.753264   2.872558
    25  H    3.573003   3.961598   4.000975   3.358469   2.127842
    26  H    3.450012   4.163193   3.937685   3.512546   3.219645
    27  H    2.170998   3.218555   3.586236   4.002515   4.159522
                    6          7          8          9         10
     6  N    0.000000
     7  C    1.402241   0.000000
     8  C    2.426726   1.398067   0.000000
     9  C    3.706424   2.425742   1.397421   0.000000
    10  C    4.206395   2.804280   2.419280   1.394804   0.000000
    11  C    3.715707   2.430678   2.790817   2.412808   1.391814
    12  C    2.440032   1.400240   2.408581   2.779647   2.408620
    13  C    2.373406   3.677436   4.741714   6.019784   6.407790
    14  C    3.724974   4.930873   5.996448   7.227987   7.541344
    15  C    4.385298   5.493288   6.385928   7.586032   7.976672
    16  H    4.853390   5.855911   6.309147   7.505255   8.198399
    17  H    3.994976   4.443814   4.637870   5.577132   6.225280
    18  H    4.169826   4.352274   5.074459   5.757519   5.790260
    19  H    1.009872   2.059073   2.799877   4.116273   4.747275
    20  H    2.660602   2.158011   1.086717   2.151356   3.398833
    21  H    4.580688   3.408625   2.156417   1.086280   2.153317
    22  H    5.292109   3.890135   3.404527   2.156331   1.086074
    23  H    4.584918   3.408555   3.876517   3.401817   2.158489
    24  H    2.671873   2.155070   3.395035   3.867420   3.391941
    25  H    2.624939   4.014629   4.960839   6.300933   6.811017
    26  H    4.452862   5.630837   6.802559   8.000771   8.197149
    27  H    5.442240   6.513736   7.424386   8.587449   8.919552
                   11         12         13         14         15
    11  C    0.000000
    12  C    1.392893   0.000000
    13  C    5.674282   4.301418   0.000000
    14  C    6.735061   5.403594   1.454972   0.000000
    15  C    7.292191   6.049359   2.452162   1.344813   0.000000
    16  H    7.865107   6.748409   3.647152   3.213521   2.168922
    17  H    6.090101   5.261660   4.012145   4.166024   3.465324
    18  H    5.176620   4.428792   4.026158   3.935461   3.547164
    19  H    4.355998   3.134325   2.552595   3.999527   4.770800
    20  H    3.876142   3.397456   4.790163   6.036700   6.319987
    21  H    3.396530   3.865879   6.884046   8.092903   8.367298
    22  H    2.149449   3.392587   7.477063   8.579657   8.980558
    23  H    1.085831   2.147340   6.326581   7.280864   7.871612
    24  H    2.148495   1.087781   3.975817   4.942800   5.714045
    25  H    6.164237   4.787489   1.085692   2.155444   3.154912
    26  H    7.264106   5.928818   2.173072   1.085785   2.118343
    27  H    8.188033   6.975386   3.439097   2.112626   1.086817
                   16         17         18         19         20
    16  H    0.000000
    17  H    2.488722   0.000000
    18  H    4.103872   2.680185   0.000000
    19  H    5.159828   4.635589   5.100462   0.000000
    20  H    5.924358   4.386573   5.396324   2.808143   0.000000
    21  H    8.052202   6.060968   6.537208   4.889866   2.475961
    22  H    9.165364   7.081543   6.571924   5.821232   4.295361
    23  H    8.626672   6.869641   5.587793   5.239886   4.961587
    24  H    6.751617   5.530918   4.306069   3.357774   4.298470
    25  H    4.064561   4.682050   5.058632   2.362779   4.873953
    26  H    4.150837   5.208544   4.644443   4.661659   6.924645
    27  H    2.645216   4.172872   4.034280   5.839037   7.375417
                   21         22         23         24         25
    21  H    0.000000
    22  H    2.483262   0.000000
    23  H    4.299965   2.486222   0.000000
    24  H    4.953646   4.287146   2.464226   0.000000
    25  H    7.103658   7.895633   6.875432   4.539218   0.000000
    26  H    8.917937   9.223750   7.698361   5.301605   2.668438
    27  H    9.372390   9.897839   8.694993   6.564827   4.099321
                   26         27
    26  H    0.000000
    27  H    2.450339   0.000000
 Stoichiometry    C13H12N2
 Framework group  C1[X(C13H12N2)]
 Deg. of freedom    75
 Full point group                 C1      NOp   1
 Largest Abelian subgroup         C1      NOp   1
 Largest concise Abelian subgroup C1      NOp   1
                         Standard orientation:                         
 ---------------------------------------------------------------------
 Center     Atomic      Atomic             Coordinates (Angstroms)
 Number     Number       Type             X           Y           Z
 ---------------------------------------------------------------------
      1          6           0       -3.258496    1.278762   -0.302400
      2          6           0       -2.086112    1.754542    0.141114
      3          6           0       -1.350602    0.979175    1.174296
      4          7           0       -0.817112   -0.193485    1.063872
      5          6           0       -0.816194   -0.760651   -0.199968
      6          7           0        0.324451   -0.731893   -0.984927
      7          6           0        1.595756   -0.375409   -0.512713
      8          6           0        2.372801    0.548303   -1.218084
      9          6           0        3.637585    0.912782   -0.748763
     10          6           0        4.121301    0.378177    0.445262
     11          6           0        3.358482   -0.546827    1.152101
     12          6           0        2.109398   -0.927365    0.667197
     13          6           0       -1.958360   -1.304957   -0.679267
     14          6           0       -3.245568   -1.167530   -0.015073
     15          6           0       -3.842234    0.025864    0.153218
     16          1           0       -3.806233    1.814699   -1.072749
     17          1           0       -1.629806    2.667030   -0.218095
     18          1           0       -1.299967    1.473675    2.158984
     19          1           0        0.295790   -1.211242   -1.873322
     20          1           0        1.973762    1.028211   -2.107697
     21          1           0        4.240250    1.622880   -1.307833
     22          1           0        5.088212    0.688048    0.830775
     23          1           0        3.723905   -0.971371    2.082293
     24          1           0        1.515060   -1.647994    1.224625
     25          1           0       -1.988991   -1.773560   -1.658144
     26          1           0       -3.699223   -2.076742    0.367627
     27          1           0       -4.790674    0.094821    0.679410
 ---------------------------------------------------------------------
 Rotational constants (GHZ):           1.6259008           0.3428108           0.3315578
 Standard basis: 6-31G(2df,p) (6D, 7F)
 There are   525 symmetry adapted cartesian basis functions of A   symmetry.
 There are   480 symmetry adapted basis functions of A   symmetry.
   480 basis functions,   744 primitive gaussians,   525 cartesian basis functions
    52 alpha electrons       52 beta electrons
       nuclear repulsion energy       898.0321337496 Hartrees.
 NAtoms=   27 NActive=   27 NUniq=   27 SFac= 1.00D+00 NAtFMM=   60 NAOKFM=F Big=F
 Integral buffers will be    131072 words long.
 Raffenetti 2 integral format.
 Two-electron integral symmetry is turned on.
 One-electron integrals computed using PRISM.
 PrsmSu:  requested number of processors reduced to:  12 ShMem   1 Linda.
 NBasis=   480 RedAO= T EigKep=  1.25D-04  NBF=   480
 NBsUse=   480 1.00D-06 EigRej= -1.00D+00 NBFU=   480
 ExpMin= 1.61D-01 ExpMax= 4.17D+03 ExpMxC= 6.27D+02 IAcc=3 IRadAn=         5 AccDes= 0.00D+00
 Harris functional with IExCor=  402 and IRadAn=       5 diagonalized for initial guess.
 HarFok:  IExCor=  402 AccDes= 0.00D+00 IRadAn=         5 IDoV= 1 UseB2=F ITyADJ=14
 ICtDFT=  3500011 ScaDFX=  1.000000  1.000000  1.000000  1.000000
 FoFCou: FMM=F IPFlag=           0 FMFlag=      100000 FMFlg1=           0
         NFxFlg=           0 DoJE=T BraDBF=F KetDBF=T FulRan=T
         wScrn=  0.000000 ICntrl=       500 IOpCl=  0 I1Cent=   200000004 NGrid=           0
         NMat0=    1 NMatS0=      1 NMatT0=    0 NMatD0=    1 NMtDS0=    0 NMtDT0=    0
 Petite list used in FoFCou.
 Requested convergence on RMS density matrix=1.00D-08 within 128 cycles.
 Requested convergence on MAX density matrix=1.00D-06.
 Requested convergence on             energy=1.00D-06.
 No special actions if energy rises.
 Integral accuracy reduced to 1.0D-05 until final iterations.
 Initial convergence to 1.0D-05 achieved.  Increase integral accuracy.
 SCF Done:  E(RB3LYP) =  -612.050928455     A.U. after   14 cycles
            NFock= 14  Conv=0.82D-08     -V/T= 2.0080

 **********************************************************************

            Population analysis using the SCF density.

 **********************************************************************

 Orbital symmetries:
       Occupied  (A) (A) (A) (A) (A) (A) (A) (A) (A) (A) (A) (A)
                 (A) (A) (A) (A) (A) (A) (A) (A) (A) (A) (A) (A)
                 (A) (A) (A) (A) (A) (A) (A) (A) (A) (A) (A) (A)
                 (A) (A) (A) (A) (A) (A) (A) (A) (A) (A) (A) (A)
                 (A) (A) (A) (A)
       Virtual   (A) (A) (A) (A) (A) (A) (A) (A) (A) (A) (A) (A)
                 (A) (A) (A) (A) (A) (A) (A) (A) (A) (A) (A) (A)
                 (A) (A) (A) (A) (A) (A) (A) (A) (A) (A) (A) (A)
                 (A) (A) (A) (A) (A) (A) (A) (A) (A) (A) (A) (A)
                 (A) (A) (A) (A) (A) (A) (A) (A) (A) (A) (A) (A)
                 (A) (A) (A) (A) (A) (A) (A) (A) (A) (A) (A) (A)
                 (A) (A) (A) (A) (A) (A) (A) (A) (A) (A) (A) (A)
                 (A) (A) (A) (A) (A) (A) (A) (A) (A) (A) (A) (A)
                 (A) (A) (A) (A) (A) (A) (A) (A) (A) (A) (A) (A)
                 (A) (A) (A) (A) (A) (A) (A) (A) (A) (A) (A) (A)
                 (A) (A) (A) (A) (A) (A) (A) (A) (A) (A) (A) (A)
                 (A) (A) (A) (A) (A) (A) (A) (A) (A) (A) (A) (A)
                 (A) (A) (A) (A) (A) (A) (A) (A) (A) (A) (A) (A)
                 (A) (A) (A) (A) (A) (A) (A) (A) (A) (A) (A) (A)
                 (A) (A) (A) (A) (A) (A) (A) (A) (A) (A) (A) (A)
                 (A) (A) (A) (A) (A) (A) (A) (A) (A) (A) (A) (A)
                 (A) (A) (A) (A) (A) (A) (A) (A) (A) (A) (A) (A)
                 (A) (A) (A) (A) (A) (A) (A) (A) (A) (A) (A) (A)
                 (A) (A) (A) (A) (A) (A) (A) (A) (A) (A) (A) (A)
                 (A) (A) (A) (A) (A) (A) (A) (A) (A) (A) (A) (A)
                 (A) (A) (A) (A) (A) (A) (A) (A) (A) (A) (A) (A)
                 (A) (A) (A) (A) (A) (A) (A) (A) (A) (A) (A) (A)
                 (A) (A) (A) (A) (A) (A) (A) (A) (A) (A) (A) (A)
                 (A) (A) (A) (A) (A) (A) (A) (A) (A) (A) (A) (A)
                 (A) (A) (A) (A) (A) (A) (A) (A) (A) (A) (A) (A)
                 (A) (A) (A) (A) (A) (A) (A) (A) (A) (A) (A) (A)
                 (A) (A) (A) (A) (A) (A) (A) (A) (A) (A) (A) (A)
                 (A) (A) (A) (A) (A) (A) (A) (A) (A) (A) (A) (A)
                 (A) (A) (A) (A) (A) (A) (A) (A) (A) (A) (A) (A)
                 (A) (A) (A) (A) (A) (A) (A) (A) (A) (A) (A) (A)
                 (A) (A) (A) (A) (A) (A) (A) (A) (A) (A) (A) (A)
                 (A) (A) (A) (A) (A) (A) (A) (A) (A) (A) (A) (A)
                 (A) (A) (A) (A) (A) (A) (A) (A) (A) (A) (A) (A)
                 (A) (A) (A) (A) (A) (A) (A) (A) (A) (A) (A) (A)
                 (A) (A) (A) (A) (A) (A) (A) (A) (A) (A) (A) (A)
                 (A) (A) (A) (A) (A) (A) (A) (A)
 The electronic state is 1-A.
 Alpha  occ. eigenvalues --  -14.34591 -14.33268 -10.24131 -10.23805 -10.21740
 Alpha  occ. eigenvalues --  -10.19499 -10.19190 -10.18408 -10.18176 -10.18173
 Alpha  occ. eigenvalues --  -10.17980 -10.17869 -10.17792 -10.17611 -10.14690
 Alpha  occ. eigenvalues --   -0.96615  -0.91025  -0.83932  -0.81091  -0.77601
 Alpha  occ. eigenvalues --   -0.73963  -0.73382  -0.68878  -0.66911  -0.60546
 Alpha  occ. eigenvalues --   -0.60442  -0.58340  -0.56256  -0.52328  -0.52078
 Alpha  occ. eigenvalues --   -0.48997  -0.47642  -0.46857  -0.45012  -0.44835
 Alpha  occ. eigenvalues --   -0.44572  -0.42906  -0.42310  -0.41206  -0.38591
 Alpha  occ. eigenvalues --   -0.36722  -0.35702  -0.34945  -0.34352  -0.32803
 Alpha  occ. eigenvalues --   -0.30908  -0.27464  -0.27176  -0.24679  -0.24233
 Alpha  occ. eigenvalues --   -0.23172  -0.17762
 Alpha virt. eigenvalues --   -0.03112  -0.00301   0.00208   0.00556   0.03418
 Alpha virt. eigenvalues --    0.07333   0.09768   0.10192   0.12599   0.14523
 Alpha virt. eigenvalues --    0.14821   0.15056   0.15900   0.16459   0.17000
 Alpha virt. eigenvalues --    0.17746   0.18419   0.18909   0.19326   0.20899
 Alpha virt. eigenvalues --    0.25680   0.26682   0.29392   0.30190   0.30716
 Alpha virt. eigenvalues --    0.32402   0.33574   0.35603   0.36044   0.37484
 Alpha virt. eigenvalues --    0.38877   0.40705   0.41879   0.42868   0.44158
 Alpha virt. eigenvalues --    0.45786   0.46658   0.48183   0.48763   0.49344
 Alpha virt. eigenvalues --    0.50134   0.50496   0.50819   0.51035   0.51111
 Alpha virt. eigenvalues --    0.51262   0.52306   0.52947   0.53472   0.54546
 Alpha virt. eigenvalues --    0.55028   0.55878   0.56128   0.56504   0.57812
 Alpha virt. eigenvalues --    0.58562   0.59380   0.60168   0.60772   0.61264
 Alpha virt. eigenvalues --    0.63256   0.64368   0.65432   0.65597   0.66974
 Alpha virt. eigenvalues --    0.67956   0.70344   0.71703   0.72471   0.73235
 Alpha virt. eigenvalues --    0.73462   0.74050   0.74701   0.75531   0.75956
 Alpha virt. eigenvalues --    0.76913   0.77466   0.78065   0.78770   0.78901
 Alpha virt. eigenvalues --    0.80096   0.81907   0.82727   0.83202   0.84149
 Alpha virt. eigenvalues --    0.85612   0.86452   0.86983   0.87629   0.88271
 Alpha virt. eigenvalues --    0.88733   0.89835   0.90677   0.92504   0.93109
 Alpha virt. eigenvalues --    0.93847   0.95513   0.96711   0.97229   0.98622
 Alpha virt. eigenvalues --    0.99934   1.00358   1.02002   1.02780   1.05352
 Alpha virt. eigenvalues --    1.07337   1.07824   1.09473   1.10969   1.13912
 Alpha virt. eigenvalues --    1.14649   1.15645   1.18367   1.19242   1.20963
 Alpha virt. eigenvalues --    1.22330   1.23153   1.23954   1.25556   1.28047
 Alpha virt. eigenvalues --    1.29264   1.30560   1.32584   1.34179   1.35531
 Alpha virt. eigenvalues --    1.37614   1.40128   1.41524   1.42285   1.43084
 Alpha virt. eigenvalues --    1.44035   1.46715   1.47447   1.48733   1.49223
 Alpha virt. eigenvalues --    1.49621   1.51324   1.51831   1.53301   1.54772
 Alpha virt. eigenvalues --    1.55382   1.57824   1.58286   1.61104   1.62226
 Alpha virt. eigenvalues --    1.63547   1.64117   1.66585   1.66943   1.69070
 Alpha virt. eigenvalues --    1.70721   1.71525   1.71892   1.73917   1.77667
 Alpha virt. eigenvalues --    1.78223   1.79632   1.80672   1.81626   1.82920
 Alpha virt. eigenvalues --    1.85242   1.86912   1.87338   1.88454   1.90390
 Alpha virt. eigenvalues --    1.91438   1.93490   1.95740   1.96648   1.98409
 Alpha virt. eigenvalues --    2.02167   2.06327   2.07089   2.09573   2.09912
 Alpha virt. eigenvalues --    2.12935   2.14697   2.15499   2.17844   2.19048
 Alpha virt. eigenvalues --    2.19531   2.20874   2.22066   2.23444   2.24791
 Alpha virt. eigenvalues --    2.26674   2.27985   2.30649   2.32610   2.35661
 Alpha virt. eigenvalues --    2.38697   2.40636   2.41325   2.42393   2.48307
 Alpha virt. eigenvalues --    2.49680   2.52170   2.57316   2.57952   2.59609
 Alpha virt. eigenvalues --    2.62565   2.66308   2.68439   2.72327   2.75331
 Alpha virt. eigenvalues --    2.78012   2.78755   2.78957   2.81301   2.81799
 Alpha virt. eigenvalues --    2.82874   2.84641   2.85463   2.85943   2.87428
 Alpha virt. eigenvalues --    2.89471   2.90382   2.91973   2.92710   2.92979
 Alpha virt. eigenvalues --    2.96610   2.96974   2.97512   2.99195   3.01071
 Alpha virt. eigenvalues --    3.02947   3.03849   3.03952   3.05441   3.06181
 Alpha virt. eigenvalues --    3.07361   3.08431   3.09011   3.09322   3.10744
 Alpha virt. eigenvalues --    3.11814   3.12428   3.12962   3.13686   3.14800
 Alpha virt. eigenvalues --    3.15366   3.16847   3.17826   3.19211   3.19521
 Alpha virt. eigenvalues --    3.20832   3.21744   3.22053   3.23236   3.24851
 Alpha virt. eigenvalues --    3.25804   3.27107   3.28559   3.28814   3.30489
 Alpha virt. eigenvalues --    3.31322   3.32092   3.33032   3.33736   3.34629
 Alpha virt. eigenvalues --    3.34701   3.36258   3.37584   3.38856   3.40773
 Alpha virt. eigenvalues --    3.40869   3.43072   3.44589   3.45735   3.46443
 Alpha virt. eigenvalues --    3.48280   3.49568   3.50661   3.52168   3.52738
 Alpha virt. eigenvalues --    3.55179   3.55647   3.57228   3.61324   3.65731
 Alpha virt. eigenvalues --    3.67809   3.69397   3.69656   3.73746   3.74098
 Alpha virt. eigenvalues --    3.75465   3.75517   3.77995   3.78697   3.80913
 Alpha virt. eigenvalues --    3.82441   3.82581   3.84177   3.86079   3.88744
 Alpha virt. eigenvalues --    3.90041   3.92238   3.94891   3.97203   3.99615
 Alpha virt. eigenvalues --    4.01806   4.03245   4.04843   4.06566   4.08622
 Alpha virt. eigenvalues --    4.09708   4.12484   4.13605   4.14322   4.15154
 Alpha virt. eigenvalues --    4.18573   4.20390   4.23932   4.24952   4.27817
 Alpha virt. eigenvalues --    4.30183   4.32228   4.33403   4.33447   4.35466
 Alpha virt. eigenvalues --    4.36637   4.38317   4.39711   4.41533   4.43138
 Alpha virt. eigenvalues --    4.43523   4.45208   4.46038   4.46656   4.48299
 Alpha virt. eigenvalues --    4.48984   4.50556   4.50962   4.51085   4.52910
 Alpha virt. eigenvalues --    4.53906   4.54328   4.54934   4.55447   4.56548
 Alpha virt. eigenvalues --    4.59735   4.60603   4.61214   4.62632   4.64115
 Alpha virt. eigenvalues --    4.65627   4.66484   4.67685   4.68289   4.69141
 Alpha virt. eigenvalues --    4.69366   4.72095   4.72848   4.74184   4.75175
 Alpha virt. eigenvalues --    4.76869   4.78203   4.80509   4.82383   4.85023
 Alpha virt. eigenvalues --    4.85262   4.86912   4.88394   4.89602   4.90374
 Alpha virt. eigenvalues --    4.97285   4.98207   4.98953   5.01629   5.02078
 Alpha virt. eigenvalues --    5.03988   5.06295   5.07539   5.09733   5.11352
 Alpha virt. eigenvalues --    5.14924   5.17361   5.19403   5.19984   5.21332
 Alpha virt. eigenvalues --    5.24220   5.28186   5.29115   5.30938   5.32426
 Alpha virt. eigenvalues --    5.35793   5.37030   5.38261   5.39735   5.41353
 Alpha virt. eigenvalues --    5.43744   5.48064   5.50242   5.53404   5.60517
 Alpha virt. eigenvalues --    5.64073   5.64710   5.71506   5.73702   5.74162
 Alpha virt. eigenvalues --    5.77184   5.78552   5.79872   5.84952   5.88905
 Alpha virt. eigenvalues --    5.96699   6.01588   6.11582   6.17858   6.95063
 Alpha virt. eigenvalues --    8.20863   9.67619   9.91504  10.50769  10.55942
 Alpha virt. eigenvalues --   10.69333  10.83261  11.13291  11.32956  11.42321
 Alpha virt. eigenvalues --   11.62611  11.68979  11.73027  11.89478  12.24136
 Alpha virt. eigenvalues --   12.58909  18.97032  20.37660
          Condensed to atoms (all electrons):
               1          2          3          4          5          6
     1  C    4.734614   0.674210  -0.003925  -0.010698  -0.005831  -0.000262
     2  C    0.674210   4.888973   0.369761  -0.042340   0.012768   0.000372
     3  C   -0.003925   0.369761   4.811901   0.660207  -0.113043  -0.001086
     4  N   -0.010698  -0.042340   0.660207   6.326516   0.398242  -0.036010
     5  C   -0.005831   0.012768  -0.113043   0.398242   4.469422   0.427835
     6  N   -0.000262   0.000372  -0.001086  -0.036010   0.427835   6.474228
     7  C    0.000035   0.000539   0.003280  -0.004186  -0.051642   0.350520
     8  C    0.000004   0.000019   0.000016   0.000181   0.001839  -0.027055
     9  C   -0.000000  -0.000001   0.000001  -0.000036   0.000081   0.002622
    10  C    0.000000   0.000001   0.000003   0.000010   0.000001   0.000492
    11  C   -0.000000  -0.000004  -0.000105  -0.000528   0.000031   0.003564
    12  C   -0.000002   0.000041   0.001228   0.000718  -0.005489  -0.036034
    13  C   -0.027845   0.008684  -0.011896  -0.032123   0.552599  -0.035462
    14  C   -0.003546  -0.016440   0.008092  -0.024397   0.005903   0.002029
    15  C    0.421297  -0.014061  -0.015986  -0.000581  -0.010721   0.000179
    16  H    0.370345  -0.049448   0.005727  -0.000136  -0.000108  -0.000000
    17  H   -0.033565   0.363937  -0.048125   0.002150   0.000118  -0.000213
    18  H   -0.001866  -0.062842   0.360478  -0.032189   0.002513  -0.000147
    19  H    0.000013  -0.000093   0.000058   0.003515  -0.037153   0.355491
    20  H    0.000001   0.000035  -0.000001  -0.000044   0.000313  -0.002631
    21  H   -0.000000  -0.000000  -0.000000   0.000000  -0.000001  -0.000081
    22  H    0.000000   0.000000   0.000000   0.000000   0.000000   0.000003
    23  H   -0.000000  -0.000000  -0.000000  -0.000008  -0.000007  -0.000083
    24  H    0.000001   0.000019   0.000042   0.003163   0.003988  -0.008145
    25  H    0.001548  -0.000372   0.000456   0.005028  -0.032220  -0.013613
    26  H    0.004659   0.000734  -0.000437   0.001032  -0.002393  -0.000041
    27  H   -0.055881   0.001578   0.000228  -0.000193   0.000699   0.000001
               7          8          9         10         11         12
     1  C    0.000035   0.000004  -0.000000   0.000000  -0.000000  -0.000002
     2  C    0.000539   0.000019  -0.000001   0.000001  -0.000004   0.000041
     3  C    0.003280   0.000016   0.000001   0.000003  -0.000105   0.001228
     4  N   -0.004186   0.000181  -0.000036   0.000010  -0.000528   0.000718
     5  C   -0.051642   0.001839   0.000081   0.000001   0.000031  -0.005489
     6  N    0.350520  -0.027055   0.002622   0.000492   0.003564  -0.036034
     7  C    4.462947   0.525325  -0.004564  -0.036616   0.001974   0.537245
     8  C    0.525325   4.923733   0.530753  -0.007821  -0.041807  -0.031579
     9  C   -0.004564   0.530753   4.731141   0.583537   0.001441  -0.041705
    10  C   -0.036616  -0.007821   0.583537   4.721381   0.576986  -0.003228
    11  C    0.001974  -0.041807   0.001441   0.576986   4.733109   0.536021
    12  C    0.537245  -0.031579  -0.041705  -0.003228   0.536021   4.861442
    13  C    0.005537  -0.000391   0.000003   0.000000  -0.000026   0.000739
    14  C    0.000042   0.000003  -0.000000  -0.000000  -0.000000  -0.000004
    15  C   -0.000014  -0.000000   0.000000  -0.000000  -0.000000  -0.000001
    16  H    0.000001  -0.000000  -0.000000  -0.000000   0.000000   0.000000
    17  H   -0.000041   0.000060  -0.000001  -0.000000   0.000000  -0.000006
    18  H   -0.000017   0.000014  -0.000000  -0.000001   0.000007   0.000004
    19  H   -0.040506  -0.000927  -0.000193  -0.000000  -0.000095   0.002978
    20  H   -0.041556   0.351355  -0.037932   0.003345   0.001391   0.004051
    21  H    0.002636  -0.034645   0.360049  -0.041356   0.002484   0.001581
    22  H    0.001855   0.002661  -0.040029   0.359905  -0.040049   0.002751
    23  H    0.002513   0.001738   0.002437  -0.042249   0.360978  -0.034542
    24  H   -0.030708   0.004185   0.001347   0.003335  -0.041226   0.356160
    25  H   -0.000245   0.000002  -0.000000  -0.000000   0.000000  -0.000023
    26  H    0.000002  -0.000000  -0.000000   0.000000   0.000000   0.000000
    27  H    0.000000  -0.000000  -0.000000  -0.000000   0.000000   0.000000
              13         14         15         16         17         18
     1  C   -0.027845  -0.003546   0.421297   0.370345  -0.033565  -0.001866
     2  C    0.008684  -0.016440  -0.014061  -0.049448   0.363937  -0.062842
     3  C   -0.011896   0.008092  -0.015986   0.005727  -0.048125   0.360478
     4  N   -0.032123  -0.024397  -0.000581  -0.000136   0.002150  -0.032189
     5  C    0.552599   0.005903  -0.010721  -0.000108   0.000118   0.002513
     6  N   -0.035462   0.002029   0.000179  -0.000000  -0.000213  -0.000147
     7  C    0.005537   0.000042  -0.000014   0.000001  -0.000041  -0.000017
     8  C   -0.000391   0.000003  -0.000000  -0.000000   0.000060   0.000014
     9  C    0.000003  -0.000000   0.000000  -0.000000  -0.000001  -0.000000
    10  C    0.000000  -0.000000  -0.000000  -0.000000  -0.000000  -0.000001
    11  C   -0.000026  -0.000000  -0.000000   0.000000   0.000000   0.000007
    12  C    0.000739  -0.000004  -0.000001   0.000000  -0.000006   0.000004
    13  C    5.112398   0.382393  -0.013576   0.000820  -0.000029   0.000561
    14  C    0.382393   4.806947   0.657670   0.001615   0.000326  -0.000686
    15  C   -0.013576   0.657670   4.816922  -0.052365   0.005185   0.002156
    16  H    0.000820   0.001615  -0.052365   0.628992  -0.007762  -0.000270
    17  H   -0.000029   0.000326   0.005185  -0.007762   0.603604   0.003694
    18  H    0.000561  -0.000686   0.002156  -0.000270   0.003694   0.612666
    19  H   -0.000524  -0.000112  -0.000004  -0.000001   0.000003   0.000011
    20  H   -0.000028  -0.000000   0.000000  -0.000000  -0.000001  -0.000000
    21  H   -0.000000   0.000000   0.000000   0.000000   0.000000   0.000000
    22  H    0.000000  -0.000000  -0.000000   0.000000  -0.000000  -0.000000
    23  H    0.000000   0.000000   0.000000  -0.000000  -0.000000   0.000000
    24  H   -0.000069   0.000023  -0.000001   0.000000  -0.000001  -0.000031
    25  H    0.350248  -0.046263  -0.000449   0.000095   0.000031   0.000021
    26  H   -0.046080   0.364070  -0.049963  -0.000204   0.000012   0.000016
    27  H    0.006287  -0.038500   0.360657   0.001129  -0.000203   0.000085
              19         20         21         22         23         24
     1  C    0.000013   0.000001  -0.000000   0.000000  -0.000000   0.000001
     2  C   -0.000093   0.000035  -0.000000   0.000000  -0.000000   0.000019
     3  C    0.000058  -0.000001  -0.000000   0.000000  -0.000000   0.000042
     4  N    0.003515  -0.000044   0.000000   0.000000  -0.000008   0.003163
     5  C   -0.037153   0.000313  -0.000001   0.000000  -0.000007   0.003988
     6  N    0.355491  -0.002631  -0.000081   0.000003  -0.000083  -0.008145
     7  C   -0.040506  -0.041556   0.002636   0.001855   0.002513  -0.030708
     8  C   -0.000927   0.351355  -0.034645   0.002661   0.001738   0.004185
     9  C   -0.000193  -0.037932   0.360049  -0.040029   0.002437   0.001347
    10  C   -0.000000   0.003345  -0.041356   0.359905  -0.042249   0.003335
    11  C   -0.000095   0.001391   0.002484  -0.040049   0.360978  -0.041226
    12  C    0.002978   0.004051   0.001581   0.002751  -0.034542   0.356160
    13  C   -0.000524  -0.000028  -0.000000   0.000000   0.000000  -0.000069
    14  C   -0.000112  -0.000000   0.000000  -0.000000   0.000000   0.000023
    15  C   -0.000004   0.000000   0.000000  -0.000000   0.000000  -0.000001
    16  H   -0.000001  -0.000000   0.000000   0.000000  -0.000000   0.000000
    17  H    0.000003  -0.000001   0.000000  -0.000000  -0.000000  -0.000001
    18  H    0.000011  -0.000000   0.000000  -0.000000   0.000000  -0.000031
    19  H    0.456561   0.001418   0.000002  -0.000000   0.000004  -0.000100
    20  H    0.001418   0.637538  -0.006664  -0.000217   0.000029  -0.000207
    21  H    0.000002  -0.006664   0.627830  -0.005633  -0.000241   0.000026
    22  H   -0.000000  -0.000217  -0.005633   0.632633  -0.005584  -0.000213
    23  H    0.000004   0.000029  -0.000241  -0.005584   0.624463  -0.006382
    24  H   -0.000100  -0.000207   0.000026  -0.000213  -0.006382   0.603720
    25  H    0.005944   0.000000  -0.000000  -0.000000   0.000000  -0.000018
    26  H    0.000003  -0.000000   0.000000   0.000000  -0.000000   0.000000
    27  H   -0.000000  -0.000000   0.000000  -0.000000  -0.000000   0.000000
              25         26         27
     1  C    0.001548   0.004659  -0.055881
     2  C   -0.000372   0.000734   0.001578
     3  C    0.000456  -0.000437   0.000228
     4  N    0.005028   0.001032  -0.000193
     5  C   -0.032220  -0.002393   0.000699
     6  N   -0.013613  -0.000041   0.000001
     7  C   -0.000245   0.000002   0.000000
     8  C    0.000002  -0.000000  -0.000000
     9  C   -0.000000  -0.000000  -0.000000
    10  C   -0.000000   0.000000  -0.000000
    11  C    0.000000   0.000000   0.000000
    12  C   -0.000023   0.000000   0.000000
    13  C    0.350248  -0.046080   0.006287
    14  C   -0.046263   0.364070  -0.038500
    15  C   -0.000449  -0.049963   0.360657
    16  H    0.000095  -0.000204   0.001129
    17  H    0.000031   0.000012  -0.000203
    18  H    0.000021   0.000016   0.000085
    19  H    0.005944   0.000003  -0.000000
    20  H    0.000000  -0.000000  -0.000000
    21  H   -0.000000   0.000000   0.000000
    22  H   -0.000000   0.000000  -0.000000
    23  H    0.000000  -0.000000  -0.000000
    24  H   -0.000018   0.000000   0.000000
    25  H    0.663722   0.002416  -0.000263
    26  H    0.002416   0.641811  -0.007210
    27  H   -0.000263  -0.007210   0.642148
 Mulliken charges:
               1
     1  C   -0.063307
     2  C   -0.136067
     3  C   -0.026870
     4  N   -0.217292
     5  C    0.382255
     6  N   -0.456473
     7  C    0.315645
     8  C   -0.197664
     9  C   -0.088949
    10  C   -0.117723
    11  C   -0.094145
    12  C   -0.152345
    13  C   -0.252221
    14  C   -0.099167
    15  C   -0.106343
    16  H    0.101572
    17  H    0.110828
    18  H    0.115825
    19  H    0.253707
    20  H    0.089808
    21  H    0.094014
    22  H    0.091918
    23  H    0.096934
    24  H    0.111095
    25  H    0.063955
    26  H    0.091573
    27  H    0.089439
 Sum of Mulliken charges =  -0.00000
 Mulliken charges with hydrogens summed into heavy atoms:
               1
     1  C    0.038265
     2  C   -0.025239
     3  C    0.088955
     4  N   -0.217292
     5  C    0.382255
     6  N   -0.202765
     7  C    0.315645
     8  C   -0.107857
     9  C    0.005065
    10  C   -0.025805
    11  C    0.002788
    12  C   -0.041250
    13  C   -0.188266
    14  C   -0.007594
    15  C   -0.016904
 Electronic spatial extent (au):  <R**2>=           3454.1116
 Charge=             -0.0000 electrons
 Dipole moment (field-independent basis, Debye):
    X=              0.0685    Y=              1.1636    Z=             -1.1217  Tot=              1.6177
 Quadrupole moment (field-independent basis, Debye-Ang):
   XX=            -82.2330   YY=            -82.8803   ZZ=            -82.3977
   XY=             -0.8907   XZ=              0.5009   YZ=              0.6033
 Traceless Quadrupole moment (field-independent basis, Debye-Ang):
   XX=              0.2707   YY=             -0.3767   ZZ=              0.1060
   XY=             -0.8907   XZ=              0.5009   YZ=              0.6033
 Octapole moment (field-independent basis, Debye-Ang**2):
  XXX=              4.3056  YYY=              4.0093  ZZZ=             -7.7296  XYY=             -3.9748
  XXY=             14.2806  XXZ=             11.0392  XZZ=              6.0259  YZZ=             -1.4867
  YYZ=             -3.8089  XYZ=             -5.0955
 Hexadecapole moment (field-independent basis, Debye-Ang**3):
 XXXX=          -3584.3648 YYYY=           -590.9051 ZZZZ=           -430.7042 XXXY=             45.2041
 XXXZ=             24.4086 YYYX=              1.7324 YYYZ=             -5.3710 ZZZX=              3.2226
 ZZZY=             12.3538 XXYY=           -712.1756 XXZZ=           -681.2905 YYZZ=           -157.4559
 XXYZ=            -37.6994 YYXZ=              0.6300 ZZXY=             -8.1396
 N-N= 8.980321337496D+02 E-N=-3.216388272331D+03  KE= 6.072036270134D+02
 PrsmSu:  requested number of processors reduced to:  13 ShMem   1 Linda.
 Calling FoFJK, ICntrl=      2127 FMM=F ISym2X=0 I1Cent= 0 IOpClX= 0 NMat=1 NMatS=1 NMatT=0.
 ***** Axes restored to original set *****
 -------------------------------------------------------------------
 Center     Atomic                   Forces (Hartrees/Bohr)
 Number     Number              X              Y              Z
 -------------------------------------------------------------------
      1        6          -0.002521919   -0.010410086    0.012343066
      2        6           0.011506864    0.011731295   -0.002735076
      3        6           0.013688492   -0.004185067   -0.007734126
      4        7          -0.023608373   -0.035104537    0.001712663
      5        6          -0.003524618    0.043890833    0.017951412
      6        7           0.000729966   -0.009326144   -0.005606112
      7        6           0.006250073   -0.011464470   -0.001704892
      8        6           0.000343083   -0.005396489    0.002541735
      9        6           0.000575327    0.003234291   -0.002473571
     10        6           0.001363700   -0.003130739    0.001830921
     11        6          -0.003772286    0.003193089    0.001433273
     12        6           0.001760654   -0.000895893   -0.006198953
     13        6           0.004413404   -0.000379681    0.005469791
     14        6          -0.009330422   -0.004672060   -0.004661104
     15        6           0.009768458    0.008942817   -0.012701636
     16        1          -0.006415285   -0.002449360   -0.000821833
     17        1          -0.005301992   -0.001389156    0.000532901
     18        1           0.006628948    0.003216311    0.000555497
     19        1          -0.005560793    0.001670016   -0.002930427
     20        1           0.002010112    0.002259727   -0.000734028
     21        1          -0.001075774    0.000756407   -0.000814798
     22        1           0.000381337    0.000790091    0.001035066
     23        1          -0.000027002   -0.000004984    0.000940611
     24        1          -0.000967380   -0.000491841    0.003188709
     25        1           0.008613426   -0.001277755    0.000224234
     26        1          -0.004551375    0.006424770   -0.001095514
     27        1          -0.001376626    0.004468616    0.000452192
 -------------------------------------------------------------------
 Cartesian Forces:  Max     0.043890833 RMS     0.008728406

 GradGradGradGradGradGradGradGradGradGradGradGradGradGradGradGradGradGrad
 Berny optimization.
 FormGI is forming the generalized inverse of G from B-inverse, IUseBI=4.
 Internal  Forces:  Max     0.023659296 RMS     0.005371663
 Search for a local minimum.
 Step number   1 out of a maximum of  141
 All quantities printed in internal units (Hartrees-Bohrs-Radians)
 Mixed Optimization -- RFO/linear search
 Second derivative matrix not updated -- first step.
 ITU=  0
     Eigenvalues ---    0.01522   0.01662   0.01748   0.01808   0.01861
     Eigenvalues ---    0.01891   0.01925   0.01966   0.02068   0.02107
     Eigenvalues ---    0.02123   0.02136   0.02141   0.02143   0.02176
     Eigenvalues ---    0.02180   0.02190   0.02203   0.02269   0.02334
     Eigenvalues ---    0.02627   0.02855   0.03005   0.08024   0.15701
     Eigenvalues ---    0.15801   0.15975   0.15975   0.15992   0.15993
     Eigenvalues ---    0.15996   0.15996   0.15998   0.15999   0.15999
     Eigenvalues ---    0.16000   0.16882   0.20795   0.21456   0.21997
     Eigenvalues ---    0.22000   0.22009   0.22098   0.23308   0.23475
     Eigenvalues ---    0.24989   0.25000   0.32449   0.33348   0.35070
     Eigenvalues ---    0.35183   0.35195   0.35209   0.35246   0.35270
     Eigenvalues ---    0.35299   0.35304   0.35315   0.35801   0.35908
     Eigenvalues ---    0.36650   0.41901   0.42202   0.45251   0.45820
     Eigenvalues ---    0.45843   0.45994   0.46218   0.46485   0.46825
     Eigenvalues ---    0.48210   0.51670   0.53662   0.56105   0.66795
 RFO step:  Lambda=-1.96529882D-02 EMin= 1.52190541D-02
 Linear search not attempted -- first point.
 Iteration  1 RMS(Cart)=  0.13893767 RMS(Int)=  0.00544768
 Iteration  2 RMS(Cart)=  0.00948347 RMS(Int)=  0.00084674
 Iteration  3 RMS(Cart)=  0.00002770 RMS(Int)=  0.00084649
 Iteration  4 RMS(Cart)=  0.00000001 RMS(Int)=  0.00084649
 Variable       Old X    -DE/DX   Delta X   Delta X   Delta X     New X
                                 (Linear)    (Quad)   (Total)
    R1        2.53361  -0.00024   0.00000  -0.00237  -0.00213   2.53148
    R2        2.75024   0.01392   0.00000   0.03684   0.03674   2.78698
    R3        2.05336   0.00289   0.00000   0.00776   0.00776   2.06112
    R4        2.80905   0.00321   0.00000   0.00363   0.00400   2.81305
    R5        2.04395   0.00320   0.00000   0.00848   0.00848   2.05242
    R6        2.44348  -0.02366   0.00000  -0.03422  -0.03385   2.40963
    R7        2.08445  -0.00479   0.00000  -0.01356  -0.01356   2.07089
    R8        2.61778   0.01895   0.00000   0.04056   0.04060   2.65838
    R9        2.61716   0.00106   0.00000   0.00212   0.00212   2.61928
   R10        2.55675   0.00138   0.00000   0.00450   0.00429   2.56104
   R11        2.64985   0.01287   0.00000   0.02726   0.02726   2.67711
   R12        1.90838  -0.00303   0.00000  -0.00631  -0.00631   1.90207
   R13        2.64196  -0.00006   0.00000  -0.00028  -0.00026   2.64170
   R14        2.64607  -0.00004   0.00000   0.00012   0.00013   2.64620
   R15        2.64074  -0.00423   0.00000  -0.00916  -0.00915   2.63159
   R16        2.05360  -0.00090   0.00000  -0.00242  -0.00242   2.05118
   R17        2.63580  -0.00217   0.00000  -0.00467  -0.00468   2.63112
   R18        2.05277  -0.00096   0.00000  -0.00257  -0.00257   2.05020
   R19        2.63015   0.00154   0.00000   0.00329   0.00327   2.63341
   R20        2.05238  -0.00062   0.00000  -0.00166  -0.00166   2.05073
   R21        2.63219  -0.00117   0.00000  -0.00206  -0.00207   2.63011
   R22        2.05192  -0.00077   0.00000  -0.00206  -0.00206   2.04986
   R23        2.05561  -0.00300   0.00000  -0.00809  -0.00809   2.04752
   R24        2.74950   0.01496   0.00000   0.03788   0.03757   2.78707
   R25        2.05166   0.00240   0.00000   0.00644   0.00644   2.05811
   R26        2.54133  -0.00431   0.00000  -0.00634  -0.00671   2.53462
   R27        2.05184   0.00321   0.00000   0.00862   0.00862   2.06046
   R28        2.05379   0.00235   0.00000   0.00632   0.00632   2.06011
    A1        2.15636   0.00081   0.00000   0.02361   0.02203   2.17839
    A2        2.09473  -0.00299   0.00000  -0.02521  -0.02501   2.06971
    A3        2.03127   0.00221   0.00000   0.00361   0.00378   2.03505
    A4        2.06859   0.01188   0.00000   0.05826   0.05717   2.12576
    A5        2.16328  -0.00830   0.00000  -0.04175  -0.04187   2.12141
    A6        2.05120  -0.00357   0.00000  -0.01573  -0.01586   2.03534
    A7        2.23679  -0.00324   0.00000  -0.00233  -0.00402   2.23278
    A8        1.99253   0.00751   0.00000   0.03353   0.03425   2.02679
    A9        2.05315  -0.00435   0.00000  -0.03200  -0.03127   2.02188
   A10        2.03700   0.00680   0.00000   0.05406   0.05129   2.08828
   A11        2.10498  -0.02349   0.00000  -0.09792  -0.09819   2.00679
   A12        2.07986   0.01135   0.00000   0.06636   0.06346   2.14331
   A13        2.09769   0.01220   0.00000   0.03466   0.03423   2.13192
   A14        2.16653   0.00810   0.00000   0.03303   0.03304   2.19956
   A15        2.05485  -0.00928   0.00000  -0.04760  -0.04759   2.00726
   A16        2.02935   0.00128   0.00000   0.01223   0.01224   2.04159
   A17        2.09666  -0.00426   0.00000  -0.01582  -0.01590   2.08077
   A18        2.11312   0.00386   0.00000   0.01431   0.01423   2.12735
   A19        2.07340   0.00040   0.00000   0.00158   0.00159   2.07499
   A20        2.10125   0.00091   0.00000   0.00306   0.00299   2.10424
   A21        2.09522  -0.00254   0.00000  -0.01255  -0.01272   2.08249
   A22        2.08529   0.00169   0.00000   0.01102   0.01086   2.09615
   A23        2.09603   0.00087   0.00000   0.00251   0.00254   2.09857
   A24        2.09415  -0.00117   0.00000  -0.00536  -0.00538   2.08877
   A25        2.09293   0.00031   0.00000   0.00290   0.00288   2.09581
   A26        2.09371  -0.00177   0.00000  -0.00750  -0.00751   2.08620
   A27        2.09816   0.00014   0.00000  -0.00038  -0.00038   2.09778
   A28        2.09127   0.00163   0.00000   0.00791   0.00791   2.09918
   A29        2.09008   0.00218   0.00000   0.01014   0.01008   2.10017
   A30        2.10652  -0.00154   0.00000  -0.00751  -0.00755   2.09897
   A31        2.08656  -0.00064   0.00000  -0.00252  -0.00256   2.08400
   A32        2.11135  -0.00258   0.00000  -0.00962  -0.00961   2.10174
   A33        2.08579  -0.00028   0.00000  -0.00385  -0.00388   2.08191
   A34        2.08582   0.00286   0.00000   0.01364   0.01362   2.09944
   A35        2.14973  -0.00198   0.00000   0.01832   0.01577   2.16550
   A36        2.11398  -0.00519   0.00000  -0.03913  -0.03843   2.07555
   A37        2.01241   0.00714   0.00000   0.02582   0.02674   2.03915
   A38        2.13349   0.00307   0.00000   0.03574   0.03428   2.16777
   A39        2.03918   0.00406   0.00000   0.01317   0.01381   2.05299
   A40        2.11018  -0.00716   0.00000  -0.04842  -0.04779   2.06240
   A41        2.14935  -0.00165   0.00000   0.01873   0.01749   2.16684
   A42        2.03418   0.00199   0.00000  -0.00247  -0.00189   2.03228
   A43        2.09911  -0.00039   0.00000  -0.01583  -0.01527   2.08384
    D1       -0.02242  -0.00112   0.00000  -0.00671  -0.00596  -0.02838
    D2        3.10273  -0.00000   0.00000   0.05162   0.05115  -3.12931
    D3       -3.11859  -0.00186   0.00000  -0.06158  -0.06010   3.10450
    D4        0.00656  -0.00074   0.00000  -0.00325  -0.00299   0.00357
    D5       -1.07187   0.00423   0.00000   0.05325   0.05435  -1.01752
    D6        2.03443   0.00254   0.00000   0.06671   0.06709   2.10152
    D7        2.02582   0.00482   0.00000   0.10556   0.10681   2.13263
    D8       -1.15106   0.00314   0.00000   0.11902   0.11955  -1.03152
    D9        1.14667  -0.00422   0.00000  -0.03641  -0.03683   1.10984
   D10       -1.95312  -0.00168   0.00000  -0.01201  -0.01204  -1.96516
   D11       -1.97954  -0.00521   0.00000  -0.09067  -0.09097  -2.07051
   D12        1.20385  -0.00266   0.00000  -0.06627  -0.06619   1.13767
   D13        0.11241  -0.00304   0.00000  -0.04270  -0.04307   0.06934
   D14       -3.07224  -0.00542   0.00000  -0.06646  -0.06644  -3.13868
   D15        1.75460   0.00853   0.00000   0.16192   0.16087   1.91547
   D16       -1.34811   0.00674   0.00000   0.06928   0.07113  -1.27698
   D17        0.21241  -0.00068   0.00000  -0.03215  -0.02992   0.18249
   D18        3.07235  -0.00029   0.00000  -0.04103  -0.03878   3.03357
   D19       -2.96845   0.00110   0.00000   0.06210   0.05985  -2.90860
   D20       -0.10852   0.00149   0.00000   0.05322   0.05099  -0.05753
   D21        0.15282  -0.00083   0.00000   0.02356   0.02554   0.17836
   D22       -3.12233  -0.00058   0.00000   0.07251   0.07331  -3.04902
   D23       -2.95006  -0.00180   0.00000  -0.06566  -0.06763  -3.01769
   D24        0.05797  -0.00154   0.00000  -0.01671  -0.01986   0.03811
   D25       -2.29774  -0.00332   0.00000  -0.08298  -0.08297  -2.38071
   D26        0.83989  -0.00260   0.00000  -0.06514  -0.06518   0.77471
   D27        1.12177  -0.00213   0.00000  -0.06536  -0.06532   1.05645
   D28       -2.02378  -0.00141   0.00000  -0.04752  -0.04754  -2.07132
   D29        3.13573   0.00092   0.00000   0.02258   0.02238  -3.12508
   D30        0.05180  -0.00043   0.00000  -0.00888  -0.00882   0.04298
   D31       -0.00199   0.00021   0.00000   0.00512   0.00510   0.00311
   D32       -3.08592  -0.00114   0.00000  -0.02635  -0.02610  -3.11202
   D33       -3.11340  -0.00082   0.00000  -0.01979  -0.01986  -3.13326
   D34        0.00506  -0.00044   0.00000  -0.01142  -0.01154  -0.00648
   D35        0.02428  -0.00012   0.00000  -0.00222  -0.00217   0.02211
   D36       -3.14044   0.00025   0.00000   0.00615   0.00615  -3.13429
   D37       -0.02500   0.00003   0.00000   0.00140   0.00140  -0.02361
   D38        3.12989  -0.00012   0.00000  -0.00276  -0.00276   3.12713
   D39        3.05925   0.00124   0.00000   0.03191   0.03207   3.09132
   D40       -0.06904   0.00108   0.00000   0.02776   0.02792  -0.04113
   D41        0.03001  -0.00048   0.00000  -0.01134  -0.01124   0.01876
   D42       -3.10187  -0.00057   0.00000  -0.01421  -0.01417  -3.11604
   D43       -3.12487  -0.00034   0.00000  -0.00725  -0.00714  -3.13201
   D44        0.02644  -0.00043   0.00000  -0.01012  -0.01007   0.01637
   D45       -0.00794   0.00062   0.00000   0.01439   0.01439   0.00644
   D46        3.14044  -0.00009   0.00000  -0.00298  -0.00301   3.13743
   D47        3.12397   0.00071   0.00000   0.01721   0.01727   3.14124
   D48       -0.01083  -0.00001   0.00000  -0.00016  -0.00013  -0.01096
   D49       -0.01943  -0.00030   0.00000  -0.00756  -0.00762  -0.02705
   D50       -3.13789  -0.00063   0.00000  -0.01569  -0.01579   3.12950
   D51        3.11545   0.00041   0.00000   0.00959   0.00961   3.12506
   D52       -0.00301   0.00008   0.00000   0.00146   0.00144  -0.00157
   D53        1.10392  -0.00811   0.00000  -0.08632  -0.08723   1.01669
   D54       -2.01020  -0.00698   0.00000  -0.10579  -0.10616  -2.11636
   D55       -1.91124  -0.00753   0.00000  -0.12808  -0.12952  -2.04076
   D56        1.25783  -0.00639   0.00000  -0.14754  -0.14844   1.10939
   D57       -0.00584  -0.00192   0.00000  -0.00717  -0.00694  -0.01278
   D58       -3.11088  -0.00022   0.00000  -0.02140  -0.02032  -3.13119
   D59        3.10718  -0.00291   0.00000   0.01410   0.01304   3.12022
   D60        0.00215  -0.00121   0.00000  -0.00014  -0.00034   0.00181
         Item               Value     Threshold  Converged?
 Maximum Force            0.023659     0.000450     NO 
 RMS     Force            0.005372     0.000300     NO 
 Maximum Displacement     0.491454     0.001800     NO 
 RMS     Displacement     0.138926     0.001200     NO 
 Predicted change in Energy=-1.227603D-02
 GradGradGradGradGradGradGradGradGradGradGradGradGradGradGradGradGradGrad

                          Input orientation:                          
 ---------------------------------------------------------------------
 Center     Atomic      Atomic             Coordinates (Angstroms)
 Number     Number       Type             X           Y           Z
 ---------------------------------------------------------------------
      1          6           0       -1.674188    0.302025    0.347574
      2          6           0       -1.324342   -0.990206    0.395392
      3          6           0       -0.222194   -1.535971   -0.443263
      4          7           0        1.015877   -1.233305   -0.404391
      5          6           0        1.482739   -0.336805    0.574016
      6          7           0        2.269292   -0.906908    1.562695
      7          6           0        2.797378   -2.221429    1.552679
      8          6           0        2.740677   -2.988528    2.719961
      9          6           0        3.268904   -4.276751    2.747089
     10          6           0        3.835776   -4.826448    1.600327
     11          6           0        3.891140   -4.070109    0.431204
     12          6           0        3.390913   -2.771489    0.409872
     13          6           0        1.237407    0.995191    0.526226
     14          6           0        0.290802    1.627936   -0.411197
     15          6           0       -1.013149    1.322948   -0.486573
     16          1           0       -2.512528    0.638676    0.958702
     17          1           0       -1.856474   -1.700184    1.021786
     18          1           0       -0.517094   -2.241525   -1.228215
     19          1           0        2.683371   -0.253435    2.206605
     20          1           0        2.257540   -2.579601    3.601740
     21          1           0        3.229196   -4.854397    3.664585
     22          1           0        4.225785   -5.839022    1.615840
     23          1           0        4.333673   -4.485206   -0.467975
     24          1           0        3.444438   -2.180072   -0.496404
     25          1           0        1.701608    1.643188    1.268358
     26          1           0        0.682063    2.386329   -1.089881
     27          1           0       -1.640811    1.833796   -1.217003
 ---------------------------------------------------------------------
                    Distance matrix (angstroms):
                    1          2          3          4          5
     1  C    0.000000
     2  C    1.339604   0.000000
     3  C    2.472234   1.488601   0.000000
     4  N    3.187340   2.485030   1.275122   0.000000
     5  C    3.228865   2.887654   2.319408   1.406753   0.000000
     6  N    4.299893   3.779384   3.259922   2.355210   1.386063
     7  C    5.273993   4.454638   3.683945   2.824936   2.497572
     8  C    5.995581   5.091295   4.571051   3.977100   3.635811
     9  C    7.152413   6.117987   5.466076   4.926512   4.841055
    10  C    7.630879   6.541822   5.609868   4.988126   5.171749
    11  C    7.077812   6.057090   4.909793   4.124660   4.445037
    12  C    5.924999   5.040517   3.912657   2.944458   3.097702
    13  C    2.998296   3.243682   3.078494   2.425143   1.355243
    14  C    2.488967   3.180242   3.205386   2.951691   2.500313
    15  C    1.474808   2.495072   2.966632   3.264679   3.179479
    16  H    1.090700   2.093409   3.455464   4.220424   4.130582
    17  H    2.120526   1.086096   2.200956   3.240734   3.634508
    18  H    3.208056   2.203077   1.095866   2.011267   3.297777
    19  H    4.769995   4.459270   4.136303   3.249305   2.028254
    20  H    5.861044   5.063271   4.858013   4.404921   3.846760
    21  H    7.850759   6.808399   6.308602   5.879427   5.745465
    22  H    8.609915   7.470236   6.522321   5.966362   6.235711
    23  H    7.725095   6.706233   5.427202   4.646147   5.140312
    24  H    5.750951   4.995232   3.723155   2.608208   2.896842
    25  H    3.747341   4.105266   4.091175   3.397430   2.109594
    26  H    3.458688   4.199129   4.076792   3.699064   3.290150
    27  H    2.189826   3.267255   3.737175   4.138288   4.204262
                    6          7          8          9         10
     6  N    0.000000
     7  C    1.416665   0.000000
     8  C    2.427882   1.397928   0.000000
     9  C    3.709158   2.423489   1.392580   0.000000
    10  C    4.221147   2.804757   2.414699   1.392326   0.000000
    11  C    3.730483   2.423147   2.780610   2.406907   1.393543
    12  C    2.462458   1.400307   2.409653   2.782676   2.416183
    13  C    2.399383   3.719376   4.789813   6.070633   6.465036
    14  C    3.773077   4.995733   6.092436   7.328655   7.633619
    15  C    4.466115   5.589390   6.554532   7.755590   8.104461
    16  H    5.061566   6.060373   6.622296   7.796455   8.401204
    17  H    4.236015   4.712949   5.067290   5.990398   6.519965
    18  H    4.163452   4.326604   5.172928   5.854824   5.799134
    19  H    1.006532   2.076924   2.783442   4.101468   4.754793
    20  H    2.637374   2.149038   1.085439   2.152581   3.397765
    21  H    4.574060   3.402813   2.147657   1.084920   2.151716
    22  H    5.306264   3.889899   3.398521   2.153146   1.085198
    23  H    4.603207   3.401167   3.865310   3.393202   2.154581
    24  H    2.691060   2.149218   3.390263   3.866151   3.398931
    25  H    2.629048   4.027011   4.963830   6.299900   6.820635
    26  H    4.516732   5.717439   6.902309   8.112380   8.319090
    27  H    5.525132   6.619177   7.612616   8.783968   9.071339
                   11         12         13         14         15
    11  C    0.000000
    12  C    1.391796   0.000000
    13  C    5.719143   4.340392   0.000000
    14  C    6.792628   5.444243   1.474852   0.000000
    15  C    7.347070   6.079786   2.489616   1.341263   0.000000
    16  H    7.966046   6.839668   3.791590   3.273212   2.192073
    17  H    6.245031   5.390474   4.133126   4.211961   3.482194
    18  H    5.052714   4.270446   4.078317   4.036452   3.674449
    19  H    4.379241   3.173241   2.544318   4.014577   4.837608
    20  H    3.865561   3.392548   4.824790   6.138003   6.530053
    21  H    3.392349   3.867534   6.930671   8.201634   8.566750
    22  H    2.155088   3.400166   7.538178   8.680348   9.119232
    23  H    1.084741   2.143884   6.372602   7.329294   7.894525
    24  H    2.152264   1.083501   3.999882   4.945059   5.669333
    25  H    6.175488   4.804178   1.089102   2.193516   3.248422
    26  H    7.368681   6.015830   2.203513   1.090348   2.090097
    27  H    8.256825   7.012390   3.467887   2.103052   1.090161
                   16         17         18         19         20
    16  H    0.000000
    17  H    2.429949   0.000000
    18  H    4.130366   2.673854   0.000000
    19  H    5.417610   4.909896   5.098379   0.000000
    20  H    6.332180   4.935043   5.580444   2.745684   0.000000
    21  H    8.394227   6.541979   6.693376   4.857209   2.474422
    22  H    9.370020   7.380837   6.597388   5.824674   4.294370
    23  H    8.669490   6.949365   5.398334   5.271125   4.950176
    24  H    6.748935   5.534878   4.029028   3.405496   4.285223
    25  H    4.343256   4.888649   5.123136   2.332669   4.856509
    26  H    4.178085   5.253846   4.782693   4.673372   7.010983
    27  H    2.630949   4.188997   4.227423   5.897132   7.608908
                   21         22         23         24         25
    21  H    0.000000
    22  H    2.481941   0.000000
    23  H    4.293509   2.487316   0.000000
    24  H    4.950977   4.296510   2.470869   0.000000
    25  H    7.091829   7.904157   6.892013   4.557320   0.000000
    26  H    9.028895   9.356030   7.806345   5.369818   2.674513
    27  H    9.606185  10.065489   8.728418   6.518447   4.169546
                   26         27
    26  H    0.000000
    27  H    2.391066   0.000000
 Stoichiometry    C13H12N2
 Framework group  C1[X(C13H12N2)]
 Deg. of freedom    75
 Full point group                 C1      NOp   1
 Largest Abelian subgroup         C1      NOp   1
 Largest concise Abelian subgroup C1      NOp   1
                         Standard orientation:                         
 ---------------------------------------------------------------------
 Center     Atomic      Atomic             Coordinates (Angstroms)
 Number     Number       Type             X           Y           Z
 ---------------------------------------------------------------------
      1          6           0       -3.371975    1.134304   -0.611542
      2          6           0       -2.210794    1.747104   -0.345699
      3          6           0       -1.349398    1.334224    0.795993
      4          7           0       -0.761434    0.216212    0.970012
      5          6           0       -0.828878   -0.768926   -0.031939
      6          7           0        0.359644   -0.999953   -0.706634
      7          6           0        1.634775   -0.501316   -0.342846
      8          6           0        2.473749    0.015429   -1.334461
      9          6           0        3.740582    0.494845   -1.011083
     10          6           0        4.175440    0.490351    0.311585
     11          6           0        3.342784   -0.018078    1.306646
     12          6           0        2.088087   -0.525356    0.981838
     13          6           0       -1.951497   -1.485581   -0.282571
     14          6           0       -3.272996   -1.180791    0.297025
     15          6           0       -3.911748   -0.011328    0.144256
     16          1           0       -3.978602    1.502322   -1.439910
     17          1           0       -1.868862    2.595475   -0.931321
     18          1           0       -1.254027    2.056646    1.614487
     19          1           0        0.338353   -1.769852   -1.354638
     20          1           0        2.118921    0.062985   -2.359162
     21          1           0        4.385055    0.880350   -1.794084
     22          1           0        5.153431    0.885958    0.565916
     23          1           0        3.671127   -0.030910    2.340421
     24          1           0        1.445770   -0.930752    1.754533
     25          1           0       -1.909234   -2.292324   -1.012998
     26          1           0       -3.754457   -1.956125    0.893607
     27          1           0       -4.883739    0.133136    0.616288
 ---------------------------------------------------------------------
 Rotational constants (GHZ):           1.6285122           0.3317985           0.3218664
 Standard basis: 6-31G(2df,p) (6D, 7F)
 There are   525 symmetry adapted cartesian basis functions of A   symmetry.
 There are   480 symmetry adapted basis functions of A   symmetry.
   480 basis functions,   744 primitive gaussians,   525 cartesian basis functions
    52 alpha electrons       52 beta electrons
       nuclear repulsion energy       891.3731738978 Hartrees.
 NAtoms=   27 NActive=   27 NUniq=   27 SFac= 1.00D+00 NAtFMM=   60 NAOKFM=F Big=F
 Integral buffers will be    131072 words long.
 Raffenetti 2 integral format.
 Two-electron integral symmetry is turned on.
 One-electron integrals computed using PRISM.
 PrsmSu:  requested number of processors reduced to:  12 ShMem   1 Linda.
 NBasis=   480 RedAO= T EigKep=  1.24D-04  NBF=   480
 NBsUse=   480 1.00D-06 EigRej= -1.00D+00 NBFU=   480
 Initial guess from the checkpoint file:  "C1dCCdNCqNc2ccccc2rdCCdC1.chk"
 B after Tr=    -0.000000    0.000000    0.000000
         Rot=    0.985857    0.167560    0.001970   -0.002252 Ang=  19.30 deg.
 ExpMin= 1.61D-01 ExpMax= 4.17D+03 ExpMxC= 6.27D+02 IAcc=2 IRadAn=         4 AccDes= 0.00D+00
 Harris functional with IExCor=  402 and IRadAn=       4 diagonalized for initial guess.
 HarFok:  IExCor=  402 AccDes= 0.00D+00 IRadAn=         4 IDoV= 1 UseB2=F ITyADJ=14
 ICtDFT=  3500011 ScaDFX=  1.000000  1.000000  1.000000  1.000000
 FoFCou: FMM=F IPFlag=           0 FMFlag=      100000 FMFlg1=           0
         NFxFlg=           0 DoJE=T BraDBF=F KetDBF=T FulRan=T
         wScrn=  0.000000 ICntrl=       500 IOpCl=  0 I1Cent=   200000004 NGrid=           0
         NMat0=    1 NMatS0=      1 NMatT0=    0 NMatD0=    1 NMtDS0=    0 NMtDT0=    0
 Petite list used in FoFCou.
 Requested convergence on RMS density matrix=1.00D-08 within 128 cycles.
 Requested convergence on MAX density matrix=1.00D-06.
 Requested convergence on             energy=1.00D-06.
 No special actions if energy rises.
 Integral accuracy reduced to 1.0D-05 until final iterations.
 Initial convergence to 1.0D-05 achieved.  Increase integral accuracy.
 SCF Done:  E(RB3LYP) =  -612.063725753     A.U. after   13 cycles
[...]
 6,-0.00007803,-0.00003131,-0.00001107,-0.00001038,0.00000134,-0.000007
 12,-0.00001226,-0.00000409,-0.00000630,-0.00000414,-0.00001538,0.00000
 141,0.00002563,-0.00018964,-0.00049685,-0.03841874,0.13896118,-0.00001
 281,-0.00002491,0.00001631,-0.00001257,-0.00001499,0.00002731,0.000087
 39,-0.00001401,0.00003461,0.00005993,0.00012460,0.00024987,-0.00031401
 ,0.00055464,0.00004934,0.00151027,-0.00185632,0.00156123,0.00606927,-0
 .01875363,-0.01844285,0.02885312,-0.12304063,-0.24199264,-0.00101001,0
 .00271205,0.00418149,-0.00109552,0.00041654,0.00195785,-0.00061439,0.0
 0104525,0.00000385,-0.00325278,0.00314323,-0.00359044,0.00001155,-0.00
 008753,-0.00000111,-0.00006356,0.00006366,-0.00001793,0.00003811,0.000
 00893,0.00003465,0.00000228,0.00000461,-0.00000395,-0.00001253,0.00000
 408,-0.00000803,0.00002069,0.00003480,-0.00001056,-0.00067439,0.002019
 83,-0.00064659,-0.03088910,0.13451432,0.25666478,0.00001082,0.00002940
 ,-0.00001717,0.00000307,-0.00001453,0.00001424,0.00004529,-0.00000184,
 0.00000863,-0.00003983,0.00002715,-0.00005701,0.00012813,-0.00000690,0
 .00028768,-0.00022690,0.00047495,-0.00092880,0.00478875,0.00509702,0.0
 0000462,-0.00311468,0.00345854,-0.01425404,-0.07186600,0.03791561,-0.0
 8609782,0.00379999,-0.00173373,0.00472645,0.00522359,0.00290562,0.0001
 5592,-0.00015335,0.00027058,0.00036790,-0.00012216,0.00011709,-0.00005
 616,0.00008347,-0.00002083,0.00004609,-0.00005311,-0.00001127,-0.00001
 837,-0.00000938,0.00000066,-0.00000241,-0.00000943,-0.00000046,0.00000
 240,-0.00000415,-0.00000219,-0.00000893,-0.00004580,-0.00002791,-0.000
 06855,-0.00261438,-0.00201545,0.00079445,0.06720910,-0.00001308,-0.000
 02857,0.00001728,0.00000330,0.00000792,-0.00000305,-0.00003788,-0.0000
 0589,-0.00001446,0.00001539,0.00000364,0.00002096,-0.00027955,-0.00015
 340,-0.00035302,0.00087988,-0.00026700,0.00167032,0.00507228,-0.002171
 37,-0.00180831,0.00845132,-0.00520562,0.02610521,0.03780249,-0.0789767
 6,0.07341356,-0.00696796,0.00898715,-0.01622194,0.00321328,-0.00036692
 ,-0.00345280,0.00032369,-0.00092066,-0.00053641,0.00016576,-0.00017637
 ,0.00016828,-0.00008337,0.00001880,-0.00008527,0.00005772,0.00000707,0
 .00002578,0.00000955,0.00000016,0.00000066,0.00000367,0.00000220,-0.00
 000617,0.00000957,0.00000820,0.00000508,0.00003159,0.00004213,0.000015
 33,-0.00210593,-0.00003843,0.00015368,-0.04404875,0.07895637,0.0000227
 0,0.00005077,-0.00002600,0.00000480,-0.00001900,0.00000772,0.00004453,
 0.00000293,0.00002025,-0.00006032,0.00004127,-0.00004276,0.00024197,-0
 .00028161,0.00028554,-0.00037039,0.00032132,-0.00032293,-0.00055036,-0
 .00102047,0.00209758,0.00062487,-0.00138884,0.00055492,-0.08639669,0.0
 7379556,-0.27683654,-0.00988182,0.01120747,-0.01797212,0.00084234,-0.0
 0471042,-0.00244731,0.00039614,-0.00061103,0.00042530,-0.00007825,0.00
 022359,-0.00008262,0.00009234,-0.00006909,0.00010151,-0.00008828,-0.00
 001557,-0.00003048,-0.00001243,0.00000020,-0.00000251,-0.00000591,-0.0
 0000263,0.00000527,-0.00000096,-0.00000969,-0.00000470,0.00000876,-0.0
 0000455,-0.00002053,0.00056487,0.00060561,0.00077351,0.09430957,-0.079
 12839,0.29375350,0.00002624,0.00008008,-0.00002081,0.00003275,-0.00004
 202,0.00000359,0.00003085,-0.00005322,0.00002728,-0.00002912,0.0000813
 0,0.00006813,-0.00009834,-0.00016806,0.00005341,-0.00063248,-0.0002826
 6,0.00024695,-0.00005600,-0.00035715,-0.00019300,0.00541104,0.00248694
 ,0.00006082,-0.00122593,0.00206202,-0.00139134,-0.10241313,0.12889669,
 -0.01225952,-0.00412402,0.00852726,0.00125821,0.00508157,0.00199696,-0
 .00297479,0.00000876,0.00015199,-0.00004388,0.00010701,-0.00005524,0.0
 0004948,-0.00008977,-0.00002153,-0.00000671,-0.00000873,-0.00000095,-0
 .00000890,-0.00000848,0.00000206,-0.00001870,-0.00000122,-0.00000716,0
 .00000715,-0.00000417,-0.00006152,-0.00005212,0.00037358,0.00040537,-0
 .00014870,-0.00245118,-0.00167326,0.00073214,0.10230113,0.00000448,0.0
 0001850,0.00001321,0.00003849,0.00000378,-0.00000767,-0.00011288,-0.00
 004868,-0.00004826,0.00019659,-0.00012591,0.00011050,-0.00022291,0.000
 17986,-0.00008822,-0.00023746,-0.00019326,0.00036428,-0.00039486,0.000
 43371,-0.00022071,0.00201412,0.00157205,-0.00382694,0.00749024,-0.0122
 3744,0.00422816,0.12886868,-0.26504078,0.01341956,0.00303914,-0.006115
 07,-0.00206610,0.00258342,0.00243114,0.00158340,0.00006782,-0.00008913
 ,0.00002689,-0.00002463,0.00002603,-0.00004480,0.00001388,0.00000218,0
 .00001306,0.00000730,-0.00000344,-0.00000529,0.00000969,-0.00000327,-0
 .00002200,0.00000525,-0.00000451,0.00002453,-0.00000402,0.00002899,-0.
 00009708,0.00065877,-0.00056491,0.00014565,-0.00180544,-0.00007024,0.0
 0019466,-0.14078158,0.28013256,-0.00001181,-0.00003101,0.00000145,-0.0
 0003270,-0.00001258,0.00001539,0.00010116,0.00002697,0.00004782,-0.000
 18032,0.00018780,-0.00000729,-0.00004163,-0.00006724,-0.00012683,0.000
 19429,0.00000494,0.00034932,-0.00005523,-0.00024936,-0.00163411,-0.000
 60713,-0.00264984,-0.00391925,0.01365675,-0.02350427,0.00562322,-0.012
 48770,0.01338319,-0.05793732,-0.01351289,0.02587550,0.00258584,-0.0023
 7472,0.00033543,-0.00461182,0.00001471,-0.00000989,0.00002827,-0.00002
 026,0.00000579,-0.00000815,0.00002072,0.00000565,0.00000849,-0.0000016
 7,0.00000404,0.00000250,-0.00001346,0.00000590,0.00000971,-0.00000204,
 0.00001503,-0.00002514,-0.00004734,0.00014657,-0.00004008,0.00065199,-
 0.00138005,0.00017331,0.00043358,0.00079894,0.00090958,0.01403459,-0.0
 1402262,0.05744007,0.00001572,0.00003339,-0.00001775,-0.00000573,-0.00
 003575,0.00000088,0.00004896,0.00005499,0.00006440,-0.00004838,0.00005
 638,-0.00011806,0.00020014,-0.00014343,0.00023534,0.00016873,0.0005941
 1,0.00085260,0.00449749,0.00515707,-0.00198047,-0.00018590,0.00048087,
 -0.00051873,0.00421504,0.00341380,-0.00264431,0.00397007,-0.00658974,-
 0.00944480,-0.04673847,0.03009807,0.02977413,-0.00004356,0.00809578,0.
 01340327,-0.00006963,0.00011071,-0.00006091,0.00005878,-0.00003166,0.0
 0003982,-0.00004450,-0.00000967,-0.00002289,-0.00000554,-0.00000192,0.
 00000053,-0.00001179,0.00000235,0.00000772,-0.00001963,-0.00000529,-0.
 00003127,-0.00034905,0.00016968,0.00002236,-0.00083629,-0.00056902,0.0
 0025524,0.00035890,-0.00028152,-0.00058649,-0.00241029,-0.00171003,0.0
 0086807,0.04004358,-0.00003519,-0.00008721,0.00003431,-0.00001322,0.00
 004629,0.00001512,-0.00000649,-0.00004137,-0.00007355,0.00003358,0.000
 09677,0.00014938,-0.00039378,0.00033740,-0.00054500,0.00014404,-0.0005
 6869,-0.00101535,0.00528711,-0.00203107,0.00123460,0.00050225,-0.00055
 359,0.00078712,0.00313414,0.00156121,0.00176879,-0.00165712,0.00850814
 ,0.00949324,0.03045024,-0.13447431,-0.12540262,0.00333084,-0.01160723,
 -0.02392672,0.00013506,-0.00029235,0.00015917,-0.00015471,0.00008284,-
 0.00009976,0.00012038,0.00002766,0.00004737,0.00001021,0.00000462,0.00
 000329,-0.00000046,0.00000351,-0.00000502,0.00002382,0.00002122,0.0000
 1028,0.00016454,-0.00035227,-0.00002149,-0.00056286,-0.00018545,-0.000
 03035,0.00001664,0.00049344,0.00057911,-0.00186052,-0.00017223,-0.0000
 5529,-0.03663656,0.13918554,-0.00001525,-0.00003606,0.00002396,0.00000
 808,0.00002714,-0.00000552,-0.00006350,-0.00003063,-0.00005172,0.00009
 545,-0.00008548,0.00006212,-0.00017179,0.00023460,-0.00019668,0.000226
 82,-0.00025589,0.00026337,-0.00159451,0.00097397,0.00169313,-0.0004506
 7,0.00089908,0.00028509,-0.00336494,0.00287360,-0.00350194,0.00586046,
 -0.01774471,-0.01801958,0.02962158,-0.12572103,-0.24633969,-0.00130258
 ,0.00289104,0.00431130,0.00005867,-0.00016327,0.00005896,-0.00007159,0
 .00005646,-0.00008041,0.00006591,0.00001234,0.00002793,0.00001047,-0.0
 0000039,-0.00000082,0.00001120,-0.00000171,-0.00000985,0.00000559,0.00
 000485,0.00002069,0.00001086,0.00007553,0.00004325,0.00024977,-0.00007
 407,-0.00001666,0.00025443,-0.00100710,-0.00110186,0.00052216,0.000527
 71,0.00093703,-0.03073222,0.13634846,0.26086930,0.00021591,0.00048904,
 -0.00007914,0.00036318,-0.00026141,-0.00003176,-0.00155953,0.00012808,
 -0.00008810,-0.00274934,0.00200773,-0.00097405,0.00117815,0.00027975,0
 .00197584,-0.00309691,-0.00106112,-0.00044635,0.00569535,-0.00116599,0
 .00519510,0.00356971,0.00244667,0.00040815,0.00010209,0.00033643,0.000
 37135,0.00448624,0.00490323,-0.00028854,-0.00219592,0.00348545,-0.0122
 9116,-0.07034324,0.03648198,-0.09042868,-0.00027700,0.00052151,-0.0006
 1271,0.00047144,-0.00015732,0.00010880,-0.00040228,-0.00011428,-0.0000
 7627,0.00000675,-0.00004857,-0.00006198,0.00007152,-0.00002973,-0.0000
 9631,0.00004417,-0.00007839,0.00011639,-0.00009541,-0.00017575,0.00004
 579,0.00048576,0.00012980,0.00035472,-0.00092872,-0.00055837,0.0001451
 1,0.00018976,0.00029714,-0.00059862,-0.00279011,-0.00206782,0.00076535
 ,0.06770766,-0.00008703,-0.00001633,-0.00002285,-0.00020848,0.00018270
 ,-0.00020525,0.00065271,0.00020707,0.00066103,0.00226866,-0.00220776,0
 .00104035,-0.00059971,-0.00116425,-0.00180555,-0.00104620,-0.00019670,
 0.00150487,-0.00653502,0.01082551,-0.01753094,0.00287502,-0.00128235,-
 0.00313959,0.00047837,-0.00057514,-0.00075669,0.00495236,-0.00248123,-
 0.00152134,0.00804310,-0.00500063,0.02490353,0.03761470,-0.08122217,0.
 08117695,0.00018977,0.00010112,0.00030250,0.00009367,-0.00012674,0.000
 05824,-0.00009349,-0.00001699,0.00004174,-0.00002475,0.00004599,0.0000
 3121,-0.00006936,0.00002641,-0.00000899,-0.00017685,-0.00001019,-0.000
 06129,-0.00021505,-0.00003239,0.00015515,-0.00030561,0.00037165,-0.001
 16463,-0.00063813,-0.00012405,0.00021966,0.00065570,-0.00014694,0.0011
 7621,-0.00225217,0.00001283,0.00021171,-0.04565129,0.08269574,0.000044
 95,0.00001415,-0.00004693,-0.00014645,-0.00053816,0.00023469,0.0005256
 2,0.00026771,0.00062778,-0.00296342,0.00300452,-0.00111412,0.00037549,
 -0.00119749,-0.00097799,0.00037897,0.00098877,0.00118611,-0.00966574,0
 .01028182,-0.01838825,0.00062849,-0.00400334,-0.00214549,0.00058251,-0
 .00089462,0.00016755,-0.00056169,-0.00087194,0.00201846,0.00106055,-0.
 00144257,0.00314239,-0.08684577,0.07831894,-0.28973407,0.00008055,0.00
 006632,0.00004946,0.00005119,-0.00005317,0.00001494,-0.00005690,-0.000
 04755,0.00005493,-0.00001296,0.00000989,-0.00002657,-0.00014636,0.0000
 6974,0.00003574,-0.00009483,0.00013762,-0.00026769,-0.00001680,0.00008
 472,-0.00010093,-0.00049448,0.00042916,-0.00097163,0.00010981,0.000211
 96,-0.00002562,0.00004795,-0.00021784,0.00018510,0.00063999,0.00055191
 ,0.00071251,0.09643941,-0.08522232,0.30534540,0.00018799,-0.00035059,-
 0.00023845,0.00003809,0.00003374,-0.00062102,0.00000664,0.00121195,0.0
 0172963,0.00564236,0.00031775,-0.00463127,-0.00002637,0.00873482,-0.00
 017211,-0.00083732,-0.00043149,0.00298328,-0.00080556,0.00059731,0.000
 57094,0.00017009,-0.00020428,0.00005037,0.00006503,0.00009705,-0.00002
 905,0.00003637,-0.00010961,-0.00001737,-0.00000857,0.00003650,0.000160
 66,0.00004060,0.00002824,-0.00023316,-0.13676829,-0.08652786,-0.116668
 96,-0.01662766,-0.00670481,-0.01476348,0.00272761,0.00280661,-0.001298
 64,0.00011333,0.00004278,-0.00000604,-0.00007863,-0.00001252,-0.000122
 99,-0.00005137,-0.00054157,0.00049896,0.00083069,-0.00074237,0.0004479
 7,-0.00004095,-0.00002562,0.00003197,0.00000450,-0.00001015,0.00001670
 ,0.00000547,-0.00000721,0.00000809,-0.00000522,0.00000799,-0.00001241,
 -0.00009283,0.00008198,0.00003456,0.14628156,-0.00049703,-0.00117560,0
 .00021265,-0.00051299,0.00048194,0.00020628,0.00209593,-0.00044475,-0.
 00041616,0.00062064,-0.00483807,0.00121214,-0.01987277,-0.01361081,-0.
 02353420,-0.00053211,0.00147276,-0.00116801,0.00045116,-0.00028698,0.0
 0022797,-0.00009372,0.00005003,-0.00012898,0.00004604,-0.00006028,0.00
 000772,-0.00002231,0.00003344,0.00001157,-0.00000594,-0.00003833,0.000
 10101,-0.00004234,0.00021030,-0.00003884,-0.07617697,-0.11582995,-0.07
 907162,0.01224366,0.01057180,0.01218142,0.00209417,-0.00172668,0.00154
 499,0.00011248,0.00022771,0.00002615,-0.00015098,0.00014117,0.00020401
 ,-0.00048263,0.00048404,-0.00052509,0.00004854,-0.00137180,0.00124074,
 -0.00000650,-0.00001426,0.00005277,-0.00000108,0.00000322,-0.00000476,
 0.00000311,0.00000490,0.00000742,-0.00001071,0.00001751,0.00000378,-0.
 00012346,0.00009151,0.00001580,0.08030165,0.12516009,0.00043712,0.0004
 3291,-0.00036182,-0.00039787,-0.00029814,0.00088460,-0.00019503,-0.001
 13850,-0.00178971,-0.00509702,0.00022551,0.00689718,-0.00204510,-0.006
 72628,-0.00226149,0.00138231,0.00434348,-0.00225906,0.00177787,-0.0009
 6691,-0.00007430,-0.00021492,0.00019894,-0.00019554,-0.00006819,-0.000
 16072,0.00010331,-0.00005305,0.00016497,0.00004076,0.00000423,-0.00003
 265,-0.00011227,-0.00004132,0.00008298,0.00012720,-0.11688495,-0.07567
 099,-0.14841859,-0.00744495,-0.01081007,-0.00666167,-0.00175485,0.0019
 2434,-0.00237612,-0.00023002,-0.00027662,0.00019528,0.00007619,-0.0001
 3061,0.00009154,0.00006812,0.00050241,-0.00061150,-0.00047335,0.000011
 52,0.00033664,0.00007252,0.00004481,-0.00000569,-0.00000730,0.00000598
 ,-0.00002183,-0.00000792,0.00000944,-0.00000022,-0.00001297,0.00001235
 ,0.00001907,0.00002887,-0.00003456,0.00001645,0.13141417,0.08855937,0.
 15482416,-0.00186737,-0.00050975,-0.00556942,-0.00029175,-0.00076097,0
 .00075930,-0.00096341,0.00006434,-0.00001428,0.00084331,0.00039539,0.0
 0018108,-0.00074890,-0.00070800,-0.00365932,-0.00117233,0.00152479,0.0
 0036803,-0.00028617,-0.00053789,-0.00009949,-0.00007710,0.00016014,-0.
 00001024,0.00005147,-0.00002335,-0.00002642,-0.00002648,0.00004639,0.0
 0002524,0.00003875,0.00002970,-0.00000948,-0.00001450,0.00006713,0.000
 00658,0.00640280,0.02190039,-0.00547050,-0.08573376,-0.09155104,0.0164
 5643,-0.01587492,-0.02956077,0.00545934,-0.00034072,-0.00037401,0.0002
 8260,0.00030147,-0.00031891,0.00037751,0.00021612,-0.00008285,-0.00003
 592,0.00020329,0.00010552,0.00000080,-0.00000543,-0.00001480,0.0000036
 4,-0.00000997,0.00001281,-0.00000700,-0.00000944,0.00000104,0.00000265
 ,-0.00000715,0.00001554,0.00000532,-0.00004458,0.00000218,0.00000686,0
 .00015633,-0.00046775,0.00053168,0.09928642,-0.00188220,0.00265704,0.0
 0242135,0.00001030,0.00091290,-0.00037400,0.00083470,-0.00004533,-0.00
 011471,-0.00090818,-0.00054048,-0.00002309,0.00010003,0.00324674,0.004
 13282,0.00156898,-0.00228397,0.00011398,0.00003245,0.00108003,0.000073
 92,0.00016751,-0.00025240,0.00004550,-0.00006343,0.00005921,0.00001027
 ,0.00006392,-0.00010952,-0.00001821,-0.00005920,0.00001855,0.00003349,
 0.00008571,-0.00019156,-0.00005536,-0.00423735,-0.02020037,0.00485962,
 -0.09775826,-0.26674136,0.05433868,0.00100622,-0.00454615,0.00391665,-
 0.00035210,-0.00064402,0.00005727,-0.00012619,0.00006343,-0.00014348,-
 0.00012100,0.00002512,-0.00006583,-0.00027526,-0.00016908,-0.00006847,
 -0.00000660,0.00002035,-0.00000865,0.00001373,-0.00002420,0.00002120,0
 .00001256,-0.00001316,0.00000054,0.00001005,-0.00002923,-0.00001750,0.
 00000585,0.00002364,0.00001429,0.00104228,0.00081302,-0.00048913,0.099
 94008,0.28614939,-0.00530718,0.00316748,0.00922472,0.00003709,0.001720
 77,-0.00178634,0.00009527,0.00008605,-0.00012386,-0.00024295,-0.000217
 20,0.00104792,-0.00092206,0.00480118,-0.00191151,0.00029929,-0.0003283
 7,0.00124973,-0.00005993,0.00031286,-0.00027237,0.00002552,-0.00001927
 ,0.00002130,-0.00002416,0.00002246,-0.00005326,0.00001582,-0.00004159,
 -0.00004776,-0.00000315,-0.00006927,0.00006055,0.00002354,0.00000488,0
 .00005980,0.00607455,0.00959675,0.00326916,0.01014956,0.05873451,-0.06
 086282,0.00118504,-0.00708766,0.00854793,-0.00086661,-0.00139027,0.000
 46757,-0.00026300,0.00003059,-0.00064898,-0.00013652,0.00005141,0.0001
 1977,-0.00008518,-0.00000456,-0.00007220,-0.00000052,0.00000580,-0.000
 01161,-0.00000028,-0.00000002,0.00000642,0.00000785,0.00000053,-0.0000
 0352,0.00000348,-0.00001326,-0.00000558,0.00006330,-0.00000250,0.00000
 228,0.00055992,-0.00012715,0.00058465,-0.01215922,-0.06633109,0.046809
 25,0.00994717,-0.01478828,0.00842527,-0.00159662,-0.00277767,0.0006115
 7,-0.00080042,-0.00013900,0.00030739,0.00052122,0.00049341,-0.00009172
 ,-0.00001626,-0.00141043,-0.00013093,-0.00047490,0.00088321,-0.0002127
 3,0.00015363,-0.00043471,-0.00001373,-0.00007177,0.00011629,-0.0000532
 0,0.00002724,-0.00004964,-0.00000609,-0.00002559,0.00005354,0.00002042
 ,0.00002289,-0.00000266,-0.00001034,-0.00002799,0.00007908,0.00003007,
 -0.00184387,-0.00349364,-0.00220962,-0.01547018,0.02512161,-0.01644221
 ,-0.11213586,0.09275419,-0.05828134,0.00084240,0.00067754,-0.00014105,
 -0.00015043,-0.00077983,-0.00102394,0.00024090,-0.00004386,-0.00005470
 ,0.00004843,-0.00006501,0.00010359,0.00000201,-0.00000667,0.00000771,-
 0.00000654,0.00000753,-0.00000793,-0.00000587,0.00000496,0.00000091,-0
 .00000615,0.00001236,0.00000732,-0.00001179,-0.00000507,-0.00000150,-0
 .00096388,0.00098192,-0.00086429,-0.00002599,0.00089542,0.00153055,0.1
 2182821,0.01152866,-0.02209610,0.01102916,-0.00422922,-0.00004930,0.00
 185506,-0.00062095,0.00050888,0.00080063,0.00068508,0.00012579,0.00041
 159,-0.00057886,-0.00064952,-0.00076470,0.00003769,0.00032811,-0.00017
 326,0.00008508,0.00002800,-0.00007624,-0.00001261,0.00000788,-0.000009
 04,-0.00001170,-0.00000910,0.00000227,0.00000106,0.00000037,-0.0000013
 1,-0.00000063,0.00000411,0.00001146,0.00001506,-0.00001394,-0.00001076
 ,-0.00226892,0.00350347,0.00254909,-0.00547965,0.00350649,-0.00241479,
 0.09891456,-0.20623942,0.10500912,-0.00079470,0.00060000,-0.00050675,-
 0.00017482,-0.00115195,-0.00112128,0.00006065,-0.00005381,0.00002709,-
 0.00003171,0.00001340,-0.00000173,0.00000299,0.00000467,-0.00000300,0.
 00000155,-0.00000082,0.00000269,0.00000284,-0.00000472,0.00000224,0.00
 000023,-0.00000399,-0.00000242,-0.00001917,0.00001967,0.00002168,0.000
 32744,-0.00036595,0.00021617,0.00064465,0.00072142,-0.00290306,-0.0980
 8460,0.22126637,-0.00583429,-0.00088547,0.00041683,-0.00043771,0.00315
 560,-0.00112955,0.00018400,0.00030238,-0.00034198,-0.00002935,-0.00009
 137,0.00139024,-0.00015425,0.00021671,-0.00118028,0.00028690,0.0002854
 2,-0.00017726,0.00033922,0.00001693,-0.00020647,-0.00004075,0.00000421
 ,-0.00000857,-0.00004065,-0.00000259,0.00001187,-0.00001252,0.00001574
 ,-0.00004493,-0.00000595,-0.00007929,0.00001176,-0.00002251,0.00004175
 ,0.00004212,-0.00380162,0.00341474,0.00800012,-0.00635318,0.00664324,-
 0.00247108,-0.05455794,0.10398470,-0.09176369,-0.00049562,-0.00013952,
 0.00038899,-0.00011948,0.00009967,0.00053303,-0.00025688,0.00004035,0.
 00021107,-0.00013330,0.00005038,-0.00005358,0.00001715,0.00001028,-0.0
 0000843,0.00000107,0.00000393,-0.00000327,0.00000665,0.00000595,-0.000
 00337,0.00000303,-0.00000609,0.00000260,0.00005548,-0.00000665,0.00000
 549,0.00030772,-0.00080099,0.00102895,0.00259424,-0.00233005,-0.005671
 25,0.06850053,-0.11394994,0.09102065\\-0.00001074,0.00000075,0.0000018
 8,0.00000251,-0.00000038,0.00000189,-0.00000178,0.00000737,-0.00000776
 ,-0.00000414,-0.00000572,-0.00001994,0.00001772,-0.00000704,0.00003492
 ,-0.00000944,0.00000777,-0.00001917,-0.00000121,-0.00000441,0.00000686
 ,-0.00000106,0.00000246,0.00000530,0.00000198,-0.00000209,-0.00000214,
 -0.00000158,0.00000017,0.00000160,-0.00000137,0.00000232,0.00000218,0.
 00000043,0.00000057,-0.00000559,-0.00001338,0.00001164,0.00000041,0.00
 001392,-0.00000821,0.00000709,-0.00000121,-0.00000915,-0.00000760,0.00
 000417,0.00000188,0.00000036,0.00000046,-0.00000044,0.00000373,0.00000
 020,0.00000088,-0.00000050,0.00000236,0.00000017,0.00000250,-0.0000012
 1,0.00000094,-0.00000188,-0.00000101,-0.00000050,0.00000092,0.00000001
 ,0.00000005,-0.00000095,0.00000104,-0.00000198,0.00000046,0.00000010,0
 .00000034,0.00000151,0.00000293,0.00000121,-0.00000739,-0.00000106,0.0
 0000072,0.00000256,0.00000138,0.00000065,-0.00000124\\\@


 THE BEST WAY TO CONVINCE A FOOL THAT HE IS WRONG 
 IS TO LET HIM HAVE HIS OWN WAY.

                                         JOSH BILLINGS
 Job cpu time:       0 days  8 hours  4 minutes 47.3 seconds.
 Elapsed time:       0 days  2 hours  1 minutes 50.3 seconds.
 File lengths (MBytes):  RWF=    448 Int=      0 D2E=      0 Chk=     19 Scr=      1
 Normal termination of Gaussian 16 at Thu May 25 02:12:13 2023.
### All Done ###
