### Starting Gaussian ###
 Entering Gaussian System, Link 0=g16
 Initial command:
 /cluster/software/gaussian/gaussian-16-A.03/avx2/g16/l1.exe "/local/scratch/yxie/Gau-27038.inp" -scrdir="/local/scratch/yxie/"
 Entering Link 1 = /cluster/software/gaussian/gaussian-16-A.03/avx2/g16/l1.exe PID=     27039.
  
 Copyright (c) 1988,1990,1992,1993,1995,1998,2003,2009,2016,
            Gaussian, Inc.  All Rights Reserved.
  
 This is part of the Gaussian(R) 16 program.  It is based on
 the Gaussian(R) 09 system (copyright 2009, Gaussian, Inc.),
 the Gaussian(R) 03 system (copyright 2003, Gaussian, Inc.),
 the Gaussian(R) 98 system (copyright 1998, Gaussian, Inc.),
 the Gaussian(R) 94 system (copyright 1995, Gaussian, Inc.),
 the Gaussian 92(TM) system (copyright 1992, Gaussian, Inc.),
 the Gaussian 90(TM) system (copyright 1990, Gaussian, Inc.),
 the Gaussian 88(TM) system (copyright 1988, Gaussian, Inc.),
 the Gaussian 86(TM) system (copyright 1986, Carnegie Mellon
 University), and the Gaussian 82(TM) system (copyright 1983,
 Carnegie Mellon University). Gaussian is a federally registered
 trademark of Gaussian, Inc.
  
 This software contains proprietary and confidential information,
 including trade secrets, belonging to Gaussian, Inc.
  
 This software is provided under written license and may be
 used, copied, transmitted, or stored only in accord with that
 written license.
  
 The following legend is applicable only to US Government
 contracts under FAR:
  
                    RESTRICTED RIGHTS LEGEND
  
 Use, reproduction and disclosure by the US Government is
 subject to restrictions as set forth in subparagraphs (a)
 and (c) of the Commercial Computer Software - Restricted
 Rights clause in FAR 52.227-19.
  
 Gaussian, Inc.
 340 Quinnipiac St., Bldg. 40, Wallingford CT 06492
  
  
 ---------------------------------------------------------------
 Warning -- This program may not be used in any manner that
 competes with the business of Gaussian, Inc. or will provide
 assistance to any competitor of Gaussian, Inc.  The licensee
 of this program is prohibited from giving any competitor of
 Gaussian, Inc. access to this program.  By using this program,
 the user acknowledges that Gaussian, Inc. is engaged in the
 business of creating and licensing software in the field of
 computational chemistry and represents and warrants to the
 licensee that it is not a competitor of Gaussian, Inc. and that
 it will not use this program in any manner prohibited above.
 ---------------------------------------------------------------
  

 Cite this work as:
 Gaussian 16, Revision A.03,
 M. J. Frisch, G. W. Trucks, H. B. Schlegel, G. E. Scuseria, 
 M. A. Robb, J. R. Cheeseman, G. Scalmani, V. Barone, 
 G. A. Petersson, H. Nakatsuji, X. Li, M. Caricato, A. V. Marenich, 
 J. Bloino, B. G. Janesko, R. Gomperts, B. Mennucci, H. P. Hratchian, 
 J. V. Ortiz, A. F. Izmaylov, J. L. Sonnenberg, D. Williams-Young, 
 F. Ding, F. Lipparini, F. Egidi, J. Goings, B. Peng, A. Petrone, 
 T. Henderson, D. Ranasinghe, V. G. Zakrzewski, J. Gao, N. Rega, 
 G. Zheng, W. Liang, M. Hada, M. Ehara, K. Toyota, R. Fukuda, 
 J. Hasegawa, M. Ishida, T. Nakajima, Y. Honda, O. Kitao, H. Nakai, 
 T. Vreven, K. Throssell, J. A. Montgomery, Jr., J. E. Peralta, 
 F. Ogliaro, M. J. Bearpark, J. J. Heyd, E. N. Brothers, K. N. Kudin, 
 V. N. Staroverov, T. A. Keith, R. Kobayashi, J. Normand, 
 K. Raghavachari, A. P. Rendell, J. C. Burant, S. S. Iyengar, 
 J. Tomasi, M. Cossi, J. M. Millam, M. Klene, C. Adamo, R. Cammi, 
 J. W. Ochterski, R. L. Martin, K. Morokuma, O. Farkas, 
 J. B. Foresman, and D. J. Fox, Gaussian, Inc., Wallingford CT, 2016.
 
 ******************************************
 Gaussian 16:  ES64L-G16RevA.03 25-Dec-2016
                27-May-2023 
 ******************************************
 %chk=C1dNCN2COCCCCCCqC2rNN1.chk
 %NProcShared=20
 Will use up to   20 processors via shared memory.
 -----------------------------
 # opt freq b3lyp/6-31g(2df,p)
 -----------------------------
 1/18=20,19=15,26=3,38=1/1,3;
 2/9=110,12=2,17=6,18=5,40=1/2;
 3/5=1,6=6,7=104,11=2,25=1,30=1,71=1,74=-5/1,2,3;
 4//1;
 5/5=2,38=5/2;
 6/7=2,8=2,9=2,10=2,28=1/1;
 7//1,2,3,16;
 1/18=20,19=15,26=3/3(2);
 2/9=110/2;
 99//99;
 2/9=110/2;
 3/5=1,6=6,7=104,11=2,25=1,30=1,71=1,74=-5/1,2,3;
 4/5=5,16=3,69=1/1;
 5/5=2,38=5/2;
 7//1,2,3,16;
 1/18=20,19=15,26=3/3(-5);
 2/9=110/2;
 6/7=2,8=2,9=2,10=2,19=2,28=1/1;
 99/9=1/99;
 -------------------
 Title Card Required
 -------------------
 Symbolic Z-matrix:
 Charge =  0 Multiplicity = 1
 C                    -2.79654  -0.89871  -0.51564 
 N                    -3.18235   0.07556   0.20882 
 C                    -2.56787   1.30745  -0.29809 
 N                    -1.26949   1.51315   0.33749 
 C                    -0.42508   2.5415   -0.25062 
 O                     0.89135   2.54005   0.30797 
 C                     1.76557   1.81375  -0.53974 
 C                     2.90029   1.19399   0.25494 
 C                     3.2367   -0.17492  -0.32176 
 C                     2.46598  -1.22736   0.46853 
 C                     1.10353  -1.48605  -0.16225 
 C                    -0.1966   -1.1997    0.676 
 C                    -0.6682    0.38912   1.11589 
 N                    -1.05461  -2.20666  -0.04742 
 N                    -2.43763  -2.09145   0.05453 
 H                    -2.38061  -0.80103  -1.54439 
 H                    -3.28069   2.11646  -0.08911 
 H                    -2.45136   1.29767  -1.39014 
 H                    -0.79791   3.56698  -0.09912 
 H                    -0.37279   2.42731  -1.34252 
 H                     2.16494   2.50281  -1.28587 
 H                     1.19896   1.04188  -1.06759 
 H                     2.65414   1.11522   1.32192 
 H                     3.7811    1.83783   0.19561 
 H                     4.313    -0.36422  -0.26035 
 H                     2.99528  -0.23148  -1.39453 
 H                     2.35586  -0.97404   1.52638 
 H                     3.06806  -2.14983   0.45467 
 H                     1.16709  -2.57396  -0.3663 
 H                     1.00737  -1.07193  -1.17353 
 H                    -0.02044  -1.642     1.66761 
 H                     0.13444   0.81828   1.7379 
 H                    -1.42406   0.22848   1.90748 
 H                    -0.72703  -3.16188   0.12678 
 H                    -2.80281  -2.20304   0.99837 
 

 GradGradGradGradGradGradGradGradGradGradGradGradGradGradGradGradGradGrad
 Berny optimization.
 Initialization pass.
                           ----------------------------
                           !    Initial Parameters    !
                           ! (Angstroms and Degrees)  !
 --------------------------                            --------------------------
 ! Name  Definition              Value          Derivative Info.                !
 --------------------------------------------------------------------------------
 ! R1    R(1,2)                  1.2739         estimate D2E/DX2                !
 ! R2    R(1,15)                 1.3699         estimate D2E/DX2                !
 ! R3    R(1,16)                 1.1139         estimate D2E/DX2                !
 ! R4    R(2,3)                  1.467          estimate D2E/DX2                !
 ! R5    R(3,4)                  1.4602         estimate D2E/DX2                !
 ! R6    R(3,17)                 1.0983         estimate D2E/DX2                !
 ! R7    R(3,18)                 1.0983         estimate D2E/DX2                !
 ! R8    R(4,5)                  1.4548         estimate D2E/DX2                !
 ! R9    R(4,13)                 1.4936         estimate D2E/DX2                !
 ! R10   R(5,6)                  1.43           estimate D2E/DX2                !
 ! R11   R(5,19)                 1.1016         estimate D2E/DX2                !
 ! R12   R(5,20)                 1.0991         estimate D2E/DX2                !
 ! R13   R(6,7)                  1.4179         estimate D2E/DX2                !
 ! R14   R(7,8)                  1.5176         estimate D2E/DX2                !
 ! R15   R(7,21)                 1.0913         estimate D2E/DX2                !
 ! R16   R(7,22)                 1.0934         estimate D2E/DX2                !
 ! R17   R(8,9)                  1.523          estimate D2E/DX2                !
 ! R18   R(8,23)                 1.0978         estimate D2E/DX2                !
 ! R19   R(8,24)                 1.0926         estimate D2E/DX2                !
 ! R20   R(9,10)                 1.5252         estimate D2E/DX2                !
 ! R21   R(9,25)                 1.0945         estimate D2E/DX2                !
 ! R22   R(9,26)                 1.1011         estimate D2E/DX2                !
 ! R23   R(10,11)                1.5235         estimate D2E/DX2                !
 ! R24   R(10,27)                1.0933         estimate D2E/DX2                !
 ! R25   R(10,28)                1.1017         estimate D2E/DX2                !
 ! R26   R(11,12)                1.5732         estimate D2E/DX2                !
 ! R27   R(11,29)                1.1087         estimate D2E/DX2                !
 ! R28   R(11,30)                1.097          estimate D2E/DX2                !
 ! R29   R(12,13)                1.7147         estimate D2E/DX2                !
 ! R30   R(12,14)                1.5078         estimate D2E/DX2                !
 ! R31   R(12,31)                1.1            estimate D2E/DX2                !
 ! R32   R(13,32)                1.1024         estimate D2E/DX2                !
 ! R33   R(13,33)                1.1062         estimate D2E/DX2                !
 ! R34   R(14,15)                1.3916         estimate D2E/DX2                !
 ! R35   R(14,34)                1.0247         estimate D2E/DX2                !
 ! R36   R(15,35)                1.0182         estimate D2E/DX2                !
 ! A1    A(2,1,15)             120.5665         estimate D2E/DX2                !
 ! A2    A(2,1,16)             124.8345         estimate D2E/DX2                !
 ! A3    A(15,1,16)            111.2792         estimate D2E/DX2                !
 ! A4    A(1,2,3)              108.5934         estimate D2E/DX2                !
 ! A5    A(2,3,4)              109.8981         estimate D2E/DX2                !
 ! A6    A(2,3,17)             106.3166         estimate D2E/DX2                !
 ! A7    A(2,3,18)             112.3668         estimate D2E/DX2                !
 ! A8    A(4,3,17)             112.9867         estimate D2E/DX2                !
 ! A9    A(4,3,18)             109.8606         estimate D2E/DX2                !
 ! A10   A(17,3,18)            105.3433         estimate D2E/DX2                !
 ! A11   A(3,4,5)              116.0873         estimate D2E/DX2                !
 ! A12   A(3,4,13)             118.607          estimate D2E/DX2                !
 ! A13   A(5,4,13)             120.5954         estimate D2E/DX2                !
 ! A14   A(4,5,6)              112.0675         estimate D2E/DX2                !
 ! A15   A(4,5,19)             113.9526         estimate D2E/DX2                !
 ! A16   A(4,5,20)             110.8416         estimate D2E/DX2                !
 ! A17   A(6,5,19)             104.9975         estimate D2E/DX2                !
 ! A18   A(6,5,20)             110.13           estimate D2E/DX2                !
 ! A19   A(19,5,20)            104.4443         estimate D2E/DX2                !
 ! A20   A(5,6,7)              109.5463         estimate D2E/DX2                !
 ! A21   A(6,7,8)              110.9237         estimate D2E/DX2                !
 ! A22   A(6,7,21)             108.1171         estimate D2E/DX2                !
 ! A23   A(6,7,22)             109.3135         estimate D2E/DX2                !
 ! A24   A(8,7,21)             110.0127         estimate D2E/DX2                !
 ! A25   A(8,7,22)             110.6081         estimate D2E/DX2                !
 ! A26   A(21,7,22)            107.7769         estimate D2E/DX2                !
 ! A27   A(7,8,9)              109.507          estimate D2E/DX2                !
 ! A28   A(7,8,23)             111.7509         estimate D2E/DX2                !
 ! A29   A(7,8,24)             109.4915         estimate D2E/DX2                !
 ! A30   A(9,8,23)             110.6735         estimate D2E/DX2                !
 ! A31   A(9,8,24)             109.3293         estimate D2E/DX2                !
 ! A32   A(23,8,24)            106.0095         estimate D2E/DX2                !
 ! A33   A(8,9,10)             108.2032         estimate D2E/DX2                !
 ! A34   A(8,9,25)             110.5729         estimate D2E/DX2                !
 ! A35   A(8,9,26)             111.5099         estimate D2E/DX2                !
 ! A36   A(10,9,25)            110.3951         estimate D2E/DX2                !
 ! A37   A(10,9,26)            111.0144         estimate D2E/DX2                !
 ! A38   A(25,9,26)            105.1524         estimate D2E/DX2                !
 ! A39   A(9,10,11)            110.7653         estimate D2E/DX2                !
 ! A40   A(9,10,27)            113.1018         estimate D2E/DX2                !
 ! A41   A(9,10,28)            107.1642         estimate D2E/DX2                !
 ! A42   A(11,10,27)           110.4793         estimate D2E/DX2                !
 ! A43   A(11,10,28)           109.9596         estimate D2E/DX2                !
 ! A44   A(27,10,28)           105.1432         estimate D2E/DX2                !
 ! A45   A(10,11,12)           119.179          estimate D2E/DX2                !
 ! A46   A(10,11,29)           101.0431         estimate D2E/DX2                !
 ! A47   A(10,11,30)           113.3263         estimate D2E/DX2                !
 ! A48   A(12,11,29)           108.9076         estimate D2E/DX2                !
 ! A49   A(12,11,30)           110.4895         estimate D2E/DX2                !
 ! A50   A(29,11,30)           101.8753         estimate D2E/DX2                !
 ! A51   A(11,12,13)           122.1835         estimate D2E/DX2                !
 ! A52   A(11,12,14)            95.3403         estimate D2E/DX2                !
 ! A53   A(11,12,31)           105.9498         estimate D2E/DX2                !
 ! A54   A(13,12,14)           125.8294         estimate D2E/DX2                !
 ! A55   A(13,12,31)           100.682          estimate D2E/DX2                !
 ! A56   A(14,12,31)           104.7803         estimate D2E/DX2                !
 ! A57   A(4,13,12)            132.4018         estimate D2E/DX2                !
 ! A58   A(4,13,32)            107.1088         estimate D2E/DX2                !
 ! A59   A(4,13,33)            101.9545         estimate D2E/DX2                !
 ! A60   A(12,13,32)           107.7709         estimate D2E/DX2                !
 ! A61   A(12,13,33)           103.7061         estimate D2E/DX2                !
 ! A62   A(32,13,33)            98.6421         estimate D2E/DX2                !
 ! A63   A(12,14,15)           118.3668         estimate D2E/DX2                !
 ! A64   A(12,14,34)           111.0422         estimate D2E/DX2                !
 ! A65   A(15,14,34)           112.4844         estimate D2E/DX2                !
 ! A66   A(1,15,14)            107.5772         estimate D2E/DX2                !
 ! A67   A(1,15,35)            112.7865         estimate D2E/DX2                !
 ! A68   A(14,15,35)           114.5389         estimate D2E/DX2                !
 ! D1    D(15,1,2,3)           137.6449         estimate D2E/DX2                !
 ! D2    D(16,1,2,3)           -19.9498         estimate D2E/DX2                !
 ! D3    D(2,1,15,14)         -107.9082         estimate D2E/DX2                !
 ! D4    D(2,1,15,35)           19.3642         estimate D2E/DX2                !
 ! D5    D(16,1,15,14)          52.4739         estimate D2E/DX2                !
 ! D6    D(16,1,15,35)         179.7463         estimate D2E/DX2                !
 ! D7    D(1,2,3,4)            -88.5506         estimate D2E/DX2                !
 ! D8    D(1,2,3,17)           148.8543         estimate D2E/DX2                !
 ! D9    D(1,2,3,18)            34.1084         estimate D2E/DX2                !
 ! D10   D(2,3,4,5)            168.2244         estimate D2E/DX2                !
 ! D11   D(2,3,4,13)            12.3664         estimate D2E/DX2                !
 ! D12   D(17,3,4,5)           -73.2145         estimate D2E/DX2                !
 ! D13   D(17,3,4,13)          130.9275         estimate D2E/DX2                !
 ! D14   D(18,3,4,5)            44.0971         estimate D2E/DX2                !
 ! D15   D(18,3,4,13)         -111.7609         estimate D2E/DX2                !
 ! D16   D(3,4,5,6)           -171.522          estimate D2E/DX2                !
 ! D17   D(3,4,5,19)            69.4237         estimate D2E/DX2                !
 ! D18   D(3,4,5,20)           -48.0391         estimate D2E/DX2                !
 ! D19   D(13,4,5,6)           -16.1765         estimate D2E/DX2                !
 ! D20   D(13,4,5,19)         -135.2307         estimate D2E/DX2                !
 ! D21   D(13,4,5,20)          107.3065         estimate D2E/DX2                !
 ! D22   D(3,4,13,12)           60.3706         estimate D2E/DX2                !
 ! D23   D(3,4,13,32)         -164.1052         estimate D2E/DX2                !
 ! D24   D(3,4,13,33)          -61.0508         estimate D2E/DX2                !
 ! D25   D(5,4,13,12)          -94.3683         estimate D2E/DX2                !
 ! D26   D(5,4,13,32)           41.1558         estimate D2E/DX2                !
 ! D27   D(5,4,13,33)          144.2102         estimate D2E/DX2                !
 ! D28   D(4,5,6,7)             97.3539         estimate D2E/DX2                !
 ! D29   D(19,5,6,7)          -138.4431         estimate D2E/DX2                !
 ! D30   D(20,5,6,7)           -26.5279         estimate D2E/DX2                !
 ! D31   D(5,6,7,8)           -151.5271         estimate D2E/DX2                !
 ! D32   D(5,6,7,21)            87.7694         estimate D2E/DX2                !
 ! D33   D(5,6,7,22)           -29.2993         estimate D2E/DX2                !
 ! D34   D(6,7,8,9)            143.0616         estimate D2E/DX2                !
 ! D35   D(6,7,8,23)            20.0649         estimate D2E/DX2                !
 ! D36   D(6,7,8,24)           -97.0778         estimate D2E/DX2                !
 ! D37   D(21,7,8,9)           -97.3633         estimate D2E/DX2                !
 ! D38   D(21,7,8,23)          139.64           estimate D2E/DX2                !
 ! D39   D(21,7,8,24)           22.4973         estimate D2E/DX2                !
 ! D40   D(22,7,8,9)            21.5906         estimate D2E/DX2                !
 ! D41   D(22,7,8,23)         -101.4061         estimate D2E/DX2                !
 ! D42   D(22,7,8,24)          141.4512         estimate D2E/DX2                !
 ! D43   D(7,8,9,10)           -94.5463         estimate D2E/DX2                !
 ! D44   D(7,8,9,25)           144.4383         estimate D2E/DX2                !
 ! D45   D(7,8,9,26)            27.8217         estimate D2E/DX2                !
 ! D46   D(23,8,9,10)           29.0867         estimate D2E/DX2                !
 ! D47   D(23,8,9,25)          -91.9287         estimate D2E/DX2                !
 ! D48   D(23,8,9,26)          151.4547         estimate D2E/DX2                !
 ! D49   D(24,8,9,10)          145.4939         estimate D2E/DX2                !
 ! D50   D(24,8,9,25)           24.4785         estimate D2E/DX2                !
 ! D51   D(24,8,9,26)          -92.1381         estimate D2E/DX2                !
 ! D52   D(8,9,10,11)           90.0712         estimate D2E/DX2                !
 ! D53   D(8,9,10,27)          -34.5774         estimate D2E/DX2                !
 ! D54   D(8,9,10,28)         -149.9815         estimate D2E/DX2                !
 ! D55   D(25,9,10,11)        -148.8032         estimate D2E/DX2                !
 ! D56   D(25,9,10,27)          86.5483         estimate D2E/DX2                !
 ! D57   D(25,9,10,28)         -28.8558         estimate D2E/DX2                !
 ! D58   D(26,9,10,11)         -32.5993         estimate D2E/DX2                !
 ! D59   D(26,9,10,27)        -157.2478         estimate D2E/DX2                !
 ! D60   D(26,9,10,28)          87.3481         estimate D2E/DX2                !
 ! D61   D(9,10,11,12)        -118.9566         estimate D2E/DX2                !
 ! D62   D(9,10,11,29)         121.892          estimate D2E/DX2                !
 ! D63   D(9,10,11,30)          13.6831         estimate D2E/DX2                !
 ! D64   D(27,10,11,12)          7.1682         estimate D2E/DX2                !
 ! D65   D(27,10,11,29)       -111.9833         estimate D2E/DX2                !
 ! D66   D(27,10,11,30)        139.8078         estimate D2E/DX2                !
 ! D67   D(28,10,11,12)        122.7825         estimate D2E/DX2                !
 ! D68   D(28,10,11,29)          3.6311         estimate D2E/DX2                !
 ! D69   D(28,10,11,30)       -104.5779         estimate D2E/DX2                !
 ! D70   D(10,11,12,13)         67.9618         estimate D2E/DX2                !
 ! D71   D(10,11,12,14)       -153.1444         estimate D2E/DX2                !
 ! D72   D(10,11,12,31)        -46.0948         estimate D2E/DX2                !
 ! D73   D(29,11,12,13)       -177.0036         estimate D2E/DX2                !
 ! D74   D(29,11,12,14)        -38.1098         estimate D2E/DX2                !
 ! D75   D(29,11,12,31)         68.9398         estimate D2E/DX2                !
 ! D76   D(30,11,12,13)        -65.8909         estimate D2E/DX2                !
 ! D77   D(30,11,12,14)         73.0029         estimate D2E/DX2                !
 ! D78   D(30,11,12,31)       -179.9475         estimate D2E/DX2                !
 ! D79   D(11,12,13,4)          74.4844         estimate D2E/DX2                !
 ! D80   D(11,12,13,32)        -60.8348         estimate D2E/DX2                !
 ! D81   D(11,12,13,33)       -164.7558         estimate D2E/DX2                !
 ! D82   D(14,12,13,4)         -51.6737         estimate D2E/DX2                !
 ! D83   D(14,12,13,32)        173.0071         estimate D2E/DX2                !
 ! D84   D(14,12,13,33)         69.0861         estimate D2E/DX2                !
 ! D85   D(31,12,13,4)        -168.8285         estimate D2E/DX2                !
 ! D86   D(31,12,13,32)         55.8523         estimate D2E/DX2                !
 ! D87   D(31,12,13,33)        -48.0686         estimate D2E/DX2                !
 ! D88   D(11,12,14,15)       -161.5842         estimate D2E/DX2                !
 ! D89   D(11,12,14,34)         66.0862         estimate D2E/DX2                !
 ! D90   D(13,12,14,15)        -24.9231         estimate D2E/DX2                !
 ! D91   D(13,12,14,34)       -157.2527         estimate D2E/DX2                !
 ! D92   D(31,12,14,15)         90.3505         estimate D2E/DX2                !
 ! D93   D(31,12,14,34)        -41.9792         estimate D2E/DX2                !
 ! D94   D(12,14,15,1)          63.3564         estimate D2E/DX2                !
 ! D95   D(12,14,15,35)        -62.8879         estimate D2E/DX2                !
 ! D96   D(34,14,15,1)        -164.9533         estimate D2E/DX2                !
 ! D97   D(34,14,15,35)         68.8024         estimate D2E/DX2                !
 --------------------------------------------------------------------------------
 Trust Radius=3.00D-01 FncErr=1.00D-07 GrdErr=1.00D-06 EigMax=2.50D+02 EigMin=1.00D-04
 Number of steps in this run=    210 maximum allowed number of steps=    210.
 GradGradGradGradGradGradGradGradGradGradGradGradGradGradGradGradGradGrad

                          Input orientation:                          
 ---------------------------------------------------------------------
 Center     Atomic      Atomic             Coordinates (Angstroms)
 Number     Number       Type             X           Y           Z
 ---------------------------------------------------------------------
      1          6           0       -2.796540   -0.898710   -0.515640
      2          7           0       -3.182350    0.075560    0.208820
      3          6           0       -2.567870    1.307450   -0.298090
      4          7           0       -1.269490    1.513150    0.337490
      5          6           0       -0.425080    2.541500   -0.250620
      6          8           0        0.891350    2.540050    0.307970
      7          6           0        1.765570    1.813750   -0.539740
      8          6           0        2.900290    1.193990    0.254940
      9          6           0        3.236700   -0.174920   -0.321760
     10          6           0        2.465980   -1.227360    0.468530
     11          6           0        1.103530   -1.486050   -0.162250
     12          6           0       -0.196600   -1.199700    0.676000
     13          6           0       -0.668200    0.389120    1.115890
     14          7           0       -1.054610   -2.206660   -0.047420
     15          7           0       -2.437630   -2.091450    0.054530
     16          1           0       -2.380610   -0.801030   -1.544390
     17          1           0       -3.280690    2.116460   -0.089110
     18          1           0       -2.451360    1.297670   -1.390140
     19          1           0       -0.797910    3.566980   -0.099120
     20          1           0       -0.372790    2.427310   -1.342520
     21          1           0        2.164940    2.502810   -1.285870
     22          1           0        1.198960    1.041880   -1.067590
     23          1           0        2.654140    1.115220    1.321920
     24          1           0        3.781100    1.837830    0.195610
     25          1           0        4.313000   -0.364220   -0.260350
     26          1           0        2.995280   -0.231480   -1.394530
     27          1           0        2.355860   -0.974040    1.526380
     28          1           0        3.068060   -2.149830    0.454670
     29          1           0        1.167090   -2.573960   -0.366300
     30          1           0        1.007370   -1.071930   -1.173530
     31          1           0       -0.020440   -1.642000    1.667610
     32          1           0        0.134440    0.818280    1.737900
     33          1           0       -1.424060    0.228480    1.907480
     34          1           0       -0.727030   -3.161880    0.126780
     35          1           0       -2.802810   -2.203040    0.998370
 ---------------------------------------------------------------------
                    Distance matrix (angstroms):
                    1          2          3          4          5
     1  C    0.000000
     2  N    1.273928   0.000000
     3  C    2.228623   1.467003   0.000000
     4  N    2.979393   2.396300   1.460159   0.000000
     5  C    4.186777   3.727530   2.473193   1.454787   0.000000
     6  O    5.109201   4.762203   3.721937   2.392619   1.430039
     7  C    5.307624   5.297505   4.369604   3.173560   2.326404
     8  C    6.117766   6.184781   5.497226   4.182791   3.623460
     9  C    6.079593   6.445809   5.990911   4.856948   4.559894
    10  C    5.363834   5.802472   5.687936   4.634793   4.804135
    11  C    3.959848   4.576580   4.615330   3.856963   4.308784
    12  C    2.875811   3.280129   3.585746   2.936875   3.861011
    13  C    2.974933   2.691105   2.539964   1.493620   2.561093
    14  N    2.228067   3.130729   3.834287   3.745840   4.794019
    15  N    1.369868   2.296594   3.419623   3.799705   5.060405
    16  H    1.113942   2.117768   2.456424   3.183000   4.082946
    17  H    3.083436   2.064874   1.098309   2.142638   2.891583
    18  H    2.389139   2.141161   1.098291   2.104270   2.636556
    19  H    4.910234   4.239150   2.877121   2.152030   1.101619
    20  H    4.197702   3.978820   2.676434   2.112390   1.099099
    21  H    6.064641   6.059633   4.980370   3.925562   2.789524
    22  H    4.475998   4.664641   3.853786   2.879165   2.356651
    23  H    6.094461   6.031957   5.470902   4.064766   3.740154
    24  H    7.159600   7.182994   6.390185   5.063004   4.287916
    25  H    7.134172   7.522885   7.081121   5.919977   5.558121
    26  H    5.896001   6.389688   5.875298   4.922590   4.549375
    27  H    5.542810   5.788730   5.725120   4.554419   4.821865
    28  H    6.074565   6.639309   6.654558   5.678512   5.891353
    29  H    4.305709   5.125266   5.387014   4.810063   5.358761
    30  H    3.864267   4.558660   4.382943   3.761637   3.995066
    31  H    3.609126   3.882751   4.364932   3.644766   4.620066
    32  H    4.076413   3.727038   3.418629   2.101193   2.690123
    33  H    3.004292   2.449574   2.708693   2.034487   3.317442
    34  H    3.133291   4.064031   4.852228   4.711111   5.723823
    35  H    1.998385   2.441200   3.749606   4.074052   5.451994
                    6          7          8          9         10
     6  O    0.000000
     7  C    1.417880   0.000000
     8  C    2.418787   1.517632   0.000000
     9  C    3.642566   2.483253   1.523046   0.000000
    10  C    4.086394   3.279563   2.469247   1.525188   0.000000
    11  C    4.059016   3.386661   3.253461   2.508968   1.523507
    12  C    3.912136   3.795921   3.936721   3.719307   2.670794
    13  C    2.776946   3.270156   3.758081   4.199193   3.585410
    14  N    5.142404   4.935533   5.224660   4.755899   3.690500
    15  N    5.709390   5.768070   6.271178   6.001058   4.996343
    16  H    5.029888   5.003719   5.924998   5.782820   5.265267
    17  H    4.212246   5.075376   6.258900   6.912374   6.672054
    18  H    3.949784   4.332669   5.599750   5.971933   5.831866
    19  H    2.018392   3.136780   4.408302   5.507219   5.827598
    20  H    2.082037   2.365057   3.845258   4.565301   4.969419
    21  H    2.040525   1.091334   2.151243   3.041121   4.133124
    22  H    2.057013   1.093369   2.160265   2.487820   3.019015
    23  H    2.483075   2.177907   1.097835   2.169221   2.500272
    24  H    2.975969   2.145619   1.092646   2.148303   3.346553
    25  H    4.523877   3.363185   2.165477   1.094544   2.165123
    26  H    3.873810   2.534920   2.182141   1.101053   2.177826
    27  H    3.997267   3.519811   2.571637   2.197747   1.093318
    28  H    5.172481   4.288974   3.353978   2.128744   1.101655
    29  H    5.165634   4.431733   4.193730   3.168700   2.048753
    30  H    3.905727   3.050198   3.279949   2.549520   2.201832
    31  H    4.491049   4.472632   4.309192   4.088872   2.791416
    32  H    2.362648   2.973077   3.160736   3.853915   3.351421
    33  H    3.641828   4.321540   4.728964   5.182174   4.395732
    34  H    5.929923   5.604837   5.669875   4.983400   3.748930
    35  H    6.051477   6.274590   6.679659   6.506281   5.384499
                   11         12         13         14         15
    11  C    0.000000
    12  C    1.573212   0.000000
    13  C    2.879050   1.714718   0.000000
    14  N    2.278164   1.507808   2.870658   0.000000
    15  N    3.599072   2.490714   3.226545   1.391550   0.000000
    16  H    3.810354   3.139900   3.380221   2.444379   2.055476
    17  H    5.674928   4.592812   3.355716   4.862770   4.293936
    18  H    4.679108   3.948384   3.207072   4.004265   3.684209
    19  H    5.399312   4.866582   3.404683   5.779575   5.893227
    20  H    4.345911   4.154596   3.207065   4.859613   5.160863
    21  H    4.277864   4.809822   4.273502   5.837668   6.639845
    22  H    2.686853   3.164234   2.946178   4.083177   4.929675
    23  H    3.372500   3.728644   3.406995   5.163798   6.149401
    24  H    4.283179   5.027868   4.768852   6.308808   7.357428
    25  H    3.401297   4.680948   5.222443   5.679011   6.975205
    26  H    2.582862   3.925894   4.484243   4.702941   5.922480
    27  H    2.163783   2.699837   3.342401   3.953164   5.137363
    28  H    2.163463   3.407307   4.565426   4.153520   5.520520
    29  H    1.108704   2.198779   3.787482   2.274323   3.661136
    30  H    1.097009   2.210572   3.191183   2.609118   3.796785
    31  H    2.153141   1.099978   2.202144   2.080787   2.940551
    32  H    3.140007   2.304227   1.102409   3.708297   4.232707
    33  H    3.689459   2.250089   1.106230   3.144524   3.137327
    34  H    2.498578   2.105504   3.686652   1.024744   2.019206
    35  H    4.137705   2.811218   3.360010   2.037129   1.018157
                   16         17         18         19         20
    16  H    0.000000
    17  H    3.382267   0.000000
    18  H    2.105550   1.746678   0.000000
    19  H    4.865517   2.875466   3.090372   0.000000
    20  H    3.807134   3.181752   2.366180   1.739430   0.000000
    21  H    5.625319   5.588952   4.772155   3.364419   2.539485
    22  H    4.054254   4.709502   3.673459   3.361778   2.113150
    23  H    6.102168   6.181884   5.784003   4.466221   4.240652
    24  H    6.925161   7.073018   6.453676   4.903484   4.468572
    25  H    6.829640   7.990446   7.056548   6.449940   5.560608
    26  H    5.408053   6.826767   5.657226   5.522198   4.291359
    27  H    5.647452   6.628099   6.064332   5.762758   5.219703
    28  H    5.958482   7.668348   6.764065   6.923462   6.001629
    29  H    4.137312   6.469901   5.397309   6.453197   5.323245
    30  H    3.418967   5.452454   4.198183   5.092433   3.765379
    31  H    4.073644   5.276487   4.888851   5.555112   5.073886
    32  H    4.440841   4.084893   4.086663   3.435007   3.512157
    33  H    3.726967   3.316310   3.615634   3.945135   4.062330
    34  H    3.331779   5.867594   5.016169   6.733024   5.789937
    35  H    2.934197   4.479851   4.252466   6.206226   5.729302
                   21         22         23         24         25
    21  H    0.000000
    22  H    1.764959   0.000000
    23  H    2.994210   2.798694   0.000000
    24  H    2.291060   2.982727   1.749508   0.000000
    25  H    3.726354   3.510840   2.728395   2.310810   0.000000
    26  H    2.859653   2.226006   3.051078   2.725454   1.743666
    27  H    4.475901   3.482963   2.120326   3.421823   2.719316
    28  H    5.048977   3.999728   3.403528   4.059183   2.291186
    29  H    5.254989   3.683357   4.321048   5.158748   3.845897
    30  H    3.759169   2.125117   3.704423   4.246743   3.501705
    31  H    5.538807   4.021376   3.856831   5.359823   4.912072
    32  H    4.012949   3.008982   2.571012   4.088554   4.780342
    33  H    5.315165   4.048814   4.214369   5.710884   6.161545
    34  H    6.515196   4.775726   5.581600   6.732390   5.777428
    35  H    7.213967   5.550843   6.394829   7.766655   7.456567
                   26         27         28         29         30
    26  H    0.000000
    27  H    3.080904   0.000000
    28  H    2.665503   1.743064   0.000000
    29  H    3.144320   2.748664   2.113662   0.000000
    30  H    2.169558   3.019523   2.838899   1.712666   0.000000
    31  H    4.523365   2.472432   3.356776   2.532897   3.074646
    32  H    4.370185   2.862142   4.366060   4.123265   3.579291
    33  H    5.535829   3.984857   5.286413   4.442725   4.134675
    34  H    4.975663   4.031096   3.941379   2.043641   3.011119
    35  H    6.575018   5.329269   5.896232   4.214263   4.529242
                   31         32         33         34         35
    31  H    0.000000
    32  H    2.466152   0.000000
    33  H    2.350826   1.674976   0.000000
    34  H    2.276722   4.379442   3.892465   0.000000
    35  H    2.916201   4.278167   2.939340   2.447020   0.000000
 Stoichiometry    C10H20N4O
 Framework group  C1[X(C10H20N4O)]
 Deg. of freedom    99
 Full point group                 C1      NOp   1
 Largest Abelian subgroup         C1      NOp   1
 Largest concise Abelian subgroup C1      NOp   1
                         Standard orientation:                         
 ---------------------------------------------------------------------
 Center     Atomic      Atomic             Coordinates (Angstroms)
 Number     Number       Type             X           Y           Z
 ---------------------------------------------------------------------
      1          6           0       -2.887694   -0.338040   -0.614240
      2          7           0       -3.032929    0.661431    0.162198
      3          6           0       -2.143441    1.737284   -0.288853
      4          7           0       -0.834251    1.597168    0.342380
      5          6           0        0.230553    2.425298   -0.202412
      6          8           0        1.508344    2.083864    0.341359
      7          6           0        2.187005    1.215760   -0.550940
      8          6           0        3.141477    0.305298    0.199560
      9          6           0        3.145041   -1.072959   -0.448564
     10          6           0        2.145818   -1.952248    0.296151
     11          6           0        0.761825   -1.848636   -0.332262
     12          6           0       -0.434798   -1.306159    0.533077
     13          6           0       -0.517423    0.324456    1.057029
     14          7           0       -1.505747   -2.043156   -0.230722
     15          7           0       -2.822304   -1.609417   -0.108411
     16          1           0       -2.458892   -0.288979   -1.641172
     17          1           0       -2.644731    2.680166   -0.032018
     18          1           0       -2.030893    1.756155   -1.381199
     19          1           0        0.110930    3.500726    0.004247
     20          1           0        0.255983    2.358047   -1.299157
     21          1           0        2.739325    1.828061   -1.265811
     22          1           0        1.454538    0.627912   -1.110747
     23          1           0        2.882046    0.232463    1.263811
     24          1           0        4.149787    0.724662    0.163197
     25          1           0        4.145808   -1.514391   -0.408178
     26          1           0        2.898733   -1.015791   -1.520190
     27          1           0        2.097201   -1.734580    1.366479
     28          1           0        2.512353   -2.989010    0.229673
     29          1           0        0.566271   -2.908784   -0.591239
     30          1           0        0.768008   -1.372295   -1.320437
     31          1           0       -0.369900   -1.827759    1.499344
     32          1           0        0.363063    0.519126    1.691185
     33          1           0       -1.291032    0.306868    1.847575
     34          1           0       -1.413947   -3.056387   -0.108107
     35          1           0       -3.204963   -1.679632    0.832484
 ---------------------------------------------------------------------
 Rotational constants (GHZ):           0.8527631           0.5034960           0.3437394
 Standard basis: 6-31G(2df,p) (6D, 7F)
 There are   565 symmetry adapted cartesian basis functions of A   symmetry.
 There are   520 symmetry adapted basis functions of A   symmetry.
   520 basis functions,   800 primitive gaussians,   565 cartesian basis functions
    58 alpha electrons       58 beta electrons
       nuclear repulsion energy      1121.4828534274 Hartrees.
 NAtoms=   35 NActive=   35 NUniq=   35 SFac= 1.00D+00 NAtFMM=   60 NAOKFM=F Big=F
 Integral buffers will be    131072 words long.
 Raffenetti 2 integral format.
 Two-electron integral symmetry is turned on.
 One-electron integrals computed using PRISM.
 PrsmSu:  requested number of processors reduced to:  12 ShMem   1 Linda.
 NBasis=   520 RedAO= T EigKep=  2.55D-04  NBF=   520
 NBsUse=   520 1.00D-06 EigRej= -1.00D+00 NBFU=   520
 ExpMin= 1.61D-01 ExpMax= 5.48D+03 ExpMxC= 8.25D+02 IAcc=3 IRadAn=         5 AccDes= 0.00D+00
 Harris functional with IExCor=  402 and IRadAn=       5 diagonalized for initial guess.
 HarFok:  IExCor=  402 AccDes= 0.00D+00 IRadAn=         5 IDoV= 1 UseB2=F ITyADJ=14
 ICtDFT=  3500011 ScaDFX=  1.000000  1.000000  1.000000  1.000000
 FoFCou: FMM=F IPFlag=           0 FMFlag=      100000 FMFlg1=           0
         NFxFlg=           0 DoJE=T BraDBF=F KetDBF=T FulRan=T
         wScrn=  0.000000 ICntrl=       500 IOpCl=  0 I1Cent=   200000004 NGrid=           0
         NMat0=    1 NMatS0=      1 NMatT0=    0 NMatD0=    1 NMtDS0=    0 NMtDT0=    0
 Petite list used in FoFCou.
 Requested convergence on RMS density matrix=1.00D-08 within 128 cycles.
 Requested convergence on MAX density matrix=1.00D-06.
 Requested convergence on             energy=1.00D-06.
 No special actions if energy rises.
 Integral accuracy reduced to 1.0D-05 until final iterations.
 Initial convergence to 1.0D-05 achieved.  Increase integral accuracy.
 SCF Done:  E(RB3LYP) =  -687.188934688     A.U. after   13 cycles
            NFock= 13  Conv=0.80D-08     -V/T= 2.0077

 **********************************************************************

            Population analysis using the SCF density.

 **********************************************************************

 Orbital symmetries:
       Occupied  (A) (A) (A) (A) (A) (A) (A) (A) (A) (A) (A) (A)
                 (A) (A) (A) (A) (A) (A) (A) (A) (A) (A) (A) (A)
                 (A) (A) (A) (A) (A) (A) (A) (A) (A) (A) (A) (A)
                 (A) (A) (A) (A) (A) (A) (A) (A) (A) (A) (A) (A)
                 (A) (A) (A) (A) (A) (A) (A) (A) (A) (A)
       Virtual   (A) (A) (A) (A) (A) (A) (A) (A) (A) (A) (A) (A)
                 (A) (A) (A) (A) (A) (A) (A) (A) (A) (A) (A) (A)
                 (A) (A) (A) (A) (A) (A) (A) (A) (A) (A) (A) (A)
                 (A) (A) (A) (A) (A) (A) (A) (A) (A) (A) (A) (A)
                 (A) (A) (A) (A) (A) (A) (A) (A) (A) (A) (A) (A)
                 (A) (A) (A) (A) (A) (A) (A) (A) (A) (A) (A) (A)
                 (A) (A) (A) (A) (A) (A) (A) (A) (A) (A) (A) (A)
                 (A) (A) (A) (A) (A) (A) (A) (A) (A) (A) (A) (A)
                 (A) (A) (A) (A) (A) (A) (A) (A) (A) (A) (A) (A)
                 (A) (A) (A) (A) (A) (A) (A) (A) (A) (A) (A) (A)
                 (A) (A) (A) (A) (A) (A) (A) (A) (A) (A) (A) (A)
                 (A) (A) (A) (A) (A) (A) (A) (A) (A) (A) (A) (A)
                 (A) (A) (A) (A) (A) (A) (A) (A) (A) (A) (A) (A)
                 (A) (A) (A) (A) (A) (A) (A) (A) (A) (A) (A) (A)
                 (A) (A) (A) (A) (A) (A) (A) (A) (A) (A) (A) (A)
                 (A) (A) (A) (A) (A) (A) (A) (A) (A) (A) (A) (A)
                 (A) (A) (A) (A) (A) (A) (A) (A) (A) (A) (A) (A)
                 (A) (A) (A) (A) (A) (A) (A) (A) (A) (A) (A) (A)
                 (A) (A) (A) (A) (A) (A) (A) (A) (A) (A) (A) (A)
                 (A) (A) (A) (A) (A) (A) (A) (A) (A) (A) (A) (A)
                 (A) (A) (A) (A) (A) (A) (A) (A) (A) (A) (A) (A)
                 (A) (A) (A) (A) (A) (A) (A) (A) (A) (A) (A) (A)
                 (A) (A) (A) (A) (A) (A) (A) (A) (A) (A) (A) (A)
                 (A) (A) (A) (A) (A) (A) (A) (A) (A) (A) (A) (A)
                 (A) (A) (A) (A) (A) (A) (A) (A) (A) (A) (A) (A)
                 (A) (A) (A) (A) (A) (A) (A) (A) (A) (A) (A) (A)
                 (A) (A) (A) (A) (A) (A) (A) (A) (A) (A) (A) (A)
                 (A) (A) (A) (A) (A) (A) (A) (A) (A) (A) (A) (A)
                 (A) (A) (A) (A) (A) (A) (A) (A) (A) (A) (A) (A)
                 (A) (A) (A) (A) (A) (A) (A) (A) (A) (A) (A) (A)
                 (A) (A) (A) (A) (A) (A) (A) (A) (A) (A) (A) (A)
                 (A) (A) (A) (A) (A) (A) (A) (A) (A) (A) (A) (A)
                 (A) (A) (A) (A) (A) (A) (A) (A) (A) (A) (A) (A)
                 (A) (A) (A) (A) (A) (A) (A) (A) (A) (A) (A) (A)
                 (A) (A) (A) (A) (A) (A) (A) (A) (A) (A) (A) (A)
                 (A) (A) (A) (A) (A) (A) (A) (A) (A) (A) (A) (A)
                 (A) (A) (A) (A) (A) (A) (A) (A) (A) (A) (A) (A)
                 (A) (A) (A) (A) (A) (A) (A) (A) (A) (A) (A) (A)
                 (A) (A) (A) (A) (A) (A)
 The electronic state is 1-A.
 Alpha  occ. eigenvalues --  -19.14059 -14.35256 -14.35161 -14.32034 -14.30345
 Alpha  occ. eigenvalues --  -10.25190 -10.24567 -10.22993 -10.22602 -10.22244
 Alpha  occ. eigenvalues --  -10.22066 -10.17958 -10.17679 -10.17538 -10.17355
 Alpha  occ. eigenvalues --   -1.03452  -1.00297  -0.92849  -0.87857  -0.82248
 Alpha  occ. eigenvalues --   -0.79534  -0.74990  -0.72200  -0.68092  -0.66754
 Alpha  occ. eigenvalues --   -0.62438  -0.60237  -0.59369  -0.57945  -0.56869
 Alpha  occ. eigenvalues --   -0.51725  -0.50534  -0.48945  -0.48083  -0.47645
 Alpha  occ. eigenvalues --   -0.46791  -0.46174  -0.44235  -0.43837  -0.41407
 Alpha  occ. eigenvalues --   -0.40672  -0.40446  -0.38695  -0.38270  -0.36623
 Alpha  occ. eigenvalues --   -0.35930  -0.34962  -0.34470  -0.34153  -0.33599
 Alpha  occ. eigenvalues --   -0.32754  -0.31101  -0.29433  -0.26587  -0.25723
 Alpha  occ. eigenvalues --   -0.24151  -0.20921  -0.19531
 Alpha virt. eigenvalues --   -0.01416   0.06281   0.07701   0.08714   0.09415
 Alpha virt. eigenvalues --    0.10307   0.11058   0.11800   0.12762   0.12945
 Alpha virt. eigenvalues --    0.14119   0.14570   0.15299   0.16241   0.16314
 Alpha virt. eigenvalues --    0.16839   0.17160   0.17728   0.18900   0.19174
 Alpha virt. eigenvalues --    0.19562   0.20397   0.21339   0.22308   0.22741
 Alpha virt. eigenvalues --    0.24232   0.24717   0.24836   0.26384   0.27366
 Alpha virt. eigenvalues --    0.29243   0.29656   0.30971   0.31626   0.32493
 Alpha virt. eigenvalues --    0.33740   0.38772   0.39117   0.43763   0.46392
 Alpha virt. eigenvalues --    0.46761   0.47585   0.48343   0.48894   0.49194
 Alpha virt. eigenvalues --    0.50676   0.50775   0.51815   0.52778   0.53116
 Alpha virt. eigenvalues --    0.55016   0.55542   0.56206   0.56611   0.56930
 Alpha virt. eigenvalues --    0.58729   0.59408   0.60205   0.60516   0.62356
 Alpha virt. eigenvalues --    0.63090   0.63932   0.64780   0.65430   0.66641
 Alpha virt. eigenvalues --    0.67606   0.68003   0.68838   0.69442   0.70638
 Alpha virt. eigenvalues --    0.71572   0.71951   0.72519   0.72665   0.73897
 Alpha virt. eigenvalues --    0.74516   0.75176   0.75392   0.76146   0.76625
 Alpha virt. eigenvalues --    0.77291   0.78136   0.78436   0.79864   0.81070
 Alpha virt. eigenvalues --    0.81360   0.82555   0.82931   0.83648   0.84546
 Alpha virt. eigenvalues --    0.85056   0.85912   0.86278   0.87181   0.87505
 Alpha virt. eigenvalues --    0.88206   0.89100   0.90444   0.91907   0.92884
 Alpha virt. eigenvalues --    0.94577   0.95335   0.96392   0.97635   1.00769
 Alpha virt. eigenvalues --    1.01873   1.05230   1.05780   1.06764   1.07720
 Alpha virt. eigenvalues --    1.10245   1.10752   1.12722   1.14502   1.15452
 Alpha virt. eigenvalues --    1.17565   1.18227   1.18458   1.21242   1.22930
 Alpha virt. eigenvalues --    1.23216   1.24390   1.26384   1.27872   1.28652
 Alpha virt. eigenvalues --    1.31340   1.31693   1.32985   1.35482   1.36393
 Alpha virt. eigenvalues --    1.37517   1.38418   1.39532   1.40419   1.41573
 Alpha virt. eigenvalues --    1.42498   1.43196   1.44573   1.45874   1.46614
 Alpha virt. eigenvalues --    1.47326   1.48928   1.50903   1.51572   1.51936
 Alpha virt. eigenvalues --    1.52498   1.53317   1.55182   1.55672   1.56352
 Alpha virt. eigenvalues --    1.57043   1.57871   1.59179   1.60229   1.61606
 Alpha virt. eigenvalues --    1.61684   1.63510   1.64073   1.64543   1.65242
 Alpha virt. eigenvalues --    1.66723   1.68978   1.70344   1.72212   1.72988
 Alpha virt. eigenvalues --    1.75532   1.76767   1.77197   1.78951   1.79929
 Alpha virt. eigenvalues --    1.81555   1.83560   1.85301   1.87066   1.88372
 Alpha virt. eigenvalues --    1.91252   1.92224   1.93433   1.95013   1.98583
 Alpha virt. eigenvalues --    1.99459   2.01352   2.04899   2.06452   2.07474
 Alpha virt. eigenvalues --    2.08650   2.09990   2.12586   2.13517   2.17111
 Alpha virt. eigenvalues --    2.17413   2.19861   2.19925   2.22251   2.24525
 Alpha virt. eigenvalues --    2.25461   2.28124   2.29036   2.31467   2.32191
 Alpha virt. eigenvalues --    2.33689   2.38131   2.39144   2.39758   2.41904
 Alpha virt. eigenvalues --    2.43142   2.45137   2.46304   2.47631   2.48557
 Alpha virt. eigenvalues --    2.49735   2.51312   2.55210   2.55839   2.57397
 Alpha virt. eigenvalues --    2.58041   2.59016   2.59634   2.62127   2.62855
 Alpha virt. eigenvalues --    2.64311   2.66517   2.67117   2.68495   2.68713
 Alpha virt. eigenvalues --    2.71285   2.73704   2.74689   2.75745   2.76740
 Alpha virt. eigenvalues --    2.77844   2.80449   2.81097   2.81895   2.84063
 Alpha virt. eigenvalues --    2.84443   2.86060   2.86656   2.88214   2.89534
 Alpha virt. eigenvalues --    2.90870   2.91772   2.92407   2.94782   2.95540
 Alpha virt. eigenvalues --    2.96931   2.98166   2.99421   3.00034   3.00501
 Alpha virt. eigenvalues --    3.02259   3.02886   3.05411   3.07503   3.09597
 Alpha virt. eigenvalues --    3.10249   3.12609   3.14254   3.14780   3.15897
 Alpha virt. eigenvalues --    3.17403   3.18709   3.20169   3.22339   3.24000
 Alpha virt. eigenvalues --    3.24795   3.25576   3.27078   3.28538   3.30853
 Alpha virt. eigenvalues --    3.33237   3.35053   3.36503   3.37507   3.38112
 Alpha virt. eigenvalues --    3.39493   3.40296   3.41675   3.42471   3.43141
 Alpha virt. eigenvalues --    3.44895   3.46169   3.46970   3.47560   3.49437
 Alpha virt. eigenvalues --    3.49812   3.51410   3.53094   3.53422   3.54344
 Alpha virt. eigenvalues --    3.55572   3.57352   3.58524   3.60557   3.61156
 Alpha virt. eigenvalues --    3.62159   3.64162   3.65088   3.65799   3.68649
 Alpha virt. eigenvalues --    3.69698   3.70538   3.72923   3.74320   3.74949
 Alpha virt. eigenvalues --    3.75205   3.76666   3.81113   3.82697   3.83358
 Alpha virt. eigenvalues --    3.85338   3.87108   3.89056   3.90282   3.92465
 Alpha virt. eigenvalues --    3.94509   3.98081   3.99072   3.99271   4.00227
 Alpha virt. eigenvalues --    4.00889   4.04684   4.05897   4.08230   4.10797
 Alpha virt. eigenvalues --    4.12905   4.15390   4.18849   4.21779   4.22982
 Alpha virt. eigenvalues --    4.24065   4.27191   4.29097   4.31744   4.32097
 Alpha virt. eigenvalues --    4.34661   4.35145   4.36515   4.38278   4.38801
 Alpha virt. eigenvalues --    4.40216   4.43238   4.43646   4.45197   4.45887
 Alpha virt. eigenvalues --    4.46347   4.46870   4.48818   4.49284   4.50571
 Alpha virt. eigenvalues --    4.52129   4.53352   4.55163   4.55597   4.55777
 Alpha virt. eigenvalues --    4.57273   4.57475   4.58439   4.59623   4.60893
 Alpha virt. eigenvalues --    4.61446   4.62282   4.63278   4.64517   4.64945
 Alpha virt. eigenvalues --    4.66442   4.68358   4.68707   4.69148   4.69678
 Alpha virt. eigenvalues --    4.71211   4.72426   4.72716   4.74210   4.74728
 Alpha virt. eigenvalues --    4.75632   4.76397   4.77512   4.78916   4.80005
 Alpha virt. eigenvalues --    4.80562   4.81274   4.81723   4.82996   4.83446
 Alpha virt. eigenvalues --    4.83961   4.85535   4.86603   4.87335   4.88475
 Alpha virt. eigenvalues --    4.89925   4.91218   4.92541   4.94647   4.95629
 Alpha virt. eigenvalues --    4.97491   4.97776   4.99572   5.02026   5.02983
 Alpha virt. eigenvalues --    5.03233   5.05991   5.07520   5.08270   5.10337
 Alpha virt. eigenvalues --    5.11965   5.12388   5.14035   5.15326   5.17314
 Alpha virt. eigenvalues --    5.22015   5.24904   5.27746   5.29925   5.31244
 Alpha virt. eigenvalues --    5.33753   5.36335   5.39732   5.43226   5.43574
 Alpha virt. eigenvalues --    5.45196   5.45894   5.48240   5.51517   5.51938
 Alpha virt. eigenvalues --    5.53053   5.55785   5.58979   5.60190   5.63749
 Alpha virt. eigenvalues --    5.66037   5.71028   5.78956   5.81616   5.87659
 Alpha virt. eigenvalues --    5.95162   6.00841   6.07499   6.15602   6.21491
 Alpha virt. eigenvalues --    6.34407   6.52494   7.11359  10.00353  10.78458
 Alpha virt. eigenvalues --   11.04569  11.24355  11.29858  11.45660  11.45952
 Alpha virt. eigenvalues --   11.57718  11.85080  11.86419  12.17124  12.44831
 Alpha virt. eigenvalues --   12.50361  12.56307  12.68642  13.44705  14.36704
 Alpha virt. eigenvalues --   15.78341  20.45667
          Condensed to atoms (all electrons):
               1          2          3          4          5          6
     1  C    4.745809   0.689064  -0.100974  -0.008081   0.000381  -0.000015
     2  N    0.689064   6.349349   0.405777  -0.052952   0.001974  -0.000023
     3  C   -0.100974   0.405777   4.874800   0.389166  -0.058767   0.001406
     4  N   -0.008081  -0.052952   0.389166   6.263752   0.391280  -0.052636
     5  C    0.000381   0.001974  -0.058767   0.391280   4.792208   0.386746
     6  O   -0.000015  -0.000023   0.001406  -0.052636   0.386746   7.701589
     7  C   -0.000005  -0.000001  -0.000148   0.001723  -0.084081   0.324211
     8  C   -0.000000  -0.000000  -0.000003  -0.000159   0.005764  -0.029224
     9  C    0.000000   0.000000  -0.000002   0.000025  -0.000348   0.001521
    10  C    0.000024  -0.000001   0.000005   0.000057  -0.000012   0.000053
    11  C   -0.000131  -0.000091  -0.000062  -0.000535   0.000138   0.000291
    12  C   -0.001633   0.002772  -0.002138  -0.029838   0.000178  -0.000186
    13  C    0.004877  -0.008065  -0.067709   0.396270  -0.066133  -0.002699
    14  N   -0.062873   0.000188   0.000579  -0.000263  -0.000059  -0.000000
    15  N    0.377594  -0.085950   0.009935   0.001714  -0.000021   0.000000
    16  H    0.352849  -0.058577  -0.012780  -0.002241  -0.000008   0.000001
    17  H    0.003770  -0.016717   0.352045  -0.039617   0.000851  -0.000009
    18  H   -0.008315  -0.038834   0.332533  -0.053115  -0.009947  -0.000014
    19  H    0.000003  -0.000051   0.000659  -0.037100   0.359555  -0.015572
    20  H   -0.000102   0.000024  -0.007480  -0.055876   0.331975  -0.025771
    21  H   -0.000000  -0.000000   0.000016  -0.000460  -0.003386  -0.021923
    22  H    0.000071   0.000018   0.000049   0.004830  -0.003553  -0.036281
    23  H   -0.000000  -0.000000   0.000003  -0.000058   0.000260   0.002316
    24  H    0.000000  -0.000000   0.000000  -0.000011  -0.000085   0.001548
    25  H    0.000000   0.000000  -0.000000   0.000000   0.000004  -0.000069
    26  H   -0.000000   0.000000  -0.000000  -0.000005  -0.000028   0.000210
    27  H    0.000001  -0.000000   0.000001   0.000018   0.000013  -0.000047
    28  H   -0.000000  -0.000000   0.000000   0.000000  -0.000001   0.000001
    29  H   -0.000093  -0.000008  -0.000003  -0.000037   0.000002  -0.000000
    30  H    0.000110  -0.000018   0.000045   0.000801  -0.000101  -0.000024
    31  H    0.000310  -0.000271   0.000025   0.002588  -0.000039  -0.000004
    32  H    0.000078   0.000848   0.006023  -0.019133  -0.008800   0.014384
    33  H    0.000504   0.009042  -0.007948  -0.026146   0.005710   0.000539
    34  H    0.003191  -0.000005   0.000008  -0.000072   0.000000  -0.000000
    35  H   -0.044187   0.002567   0.000054   0.000156   0.000001   0.000000
               7          8          9         10         11         12
     1  C   -0.000005  -0.000000   0.000000   0.000024  -0.000131  -0.001633
     2  N   -0.000001  -0.000000   0.000000  -0.000001  -0.000091   0.002772
     3  C   -0.000148  -0.000003  -0.000002   0.000005  -0.000062  -0.002138
     4  N    0.001723  -0.000159   0.000025   0.000057  -0.000535  -0.029838
     5  C   -0.084081   0.005764  -0.000348  -0.000012   0.000138   0.000178
     6  O    0.324211  -0.029224   0.001521   0.000053   0.000291  -0.000186
     7  C    4.769732   0.427340  -0.024950  -0.001896  -0.002179  -0.001285
     8  C    0.427340   4.848301   0.386073  -0.027101   0.000100   0.000563
     9  C   -0.024950   0.386073   4.863613   0.403700  -0.024185   0.002795
    10  C   -0.001896  -0.027101   0.403700   4.926734   0.358121  -0.028329
    11  C   -0.002179   0.000100  -0.024185   0.358121   4.877917   0.395806
    12  C   -0.001285   0.000563   0.002795  -0.028329   0.395806   5.015258
    13  C    0.002990  -0.000659  -0.000276   0.000351  -0.019739   0.297434
    14  N    0.000032  -0.000004  -0.000039   0.004224  -0.049338   0.321493
    15  N    0.000000  -0.000000   0.000002  -0.000152   0.004842  -0.084461
    16  H   -0.000003   0.000000  -0.000001   0.000021   0.000069  -0.001627
    17  H   -0.000006  -0.000000   0.000000   0.000000   0.000000  -0.000271
    18  H    0.000041   0.000004   0.000000  -0.000000  -0.000005   0.001201
    19  H    0.004880  -0.000437   0.000001  -0.000000   0.000002  -0.000184
    20  H   -0.010750   0.000747   0.000059   0.000010  -0.000107   0.001083
    21  H    0.349372  -0.030878   0.002554   0.000141   0.000033   0.000017
    22  H    0.373592  -0.050874  -0.002540  -0.002285   0.002413  -0.000495
    23  H   -0.035252   0.375563  -0.033610  -0.012890  -0.000716   0.000161
    24  H   -0.026491   0.357001  -0.032043   0.004288  -0.000028   0.000007
    25  H    0.003241  -0.024556   0.355153  -0.028235   0.003263  -0.000106
    26  H   -0.012554  -0.038740   0.378924  -0.037948  -0.012902   0.000314
    27  H   -0.000226  -0.012589  -0.034727   0.373608  -0.036515  -0.011274
    28  H   -0.000025   0.004480  -0.035002   0.360544  -0.025277   0.003116
    29  H    0.000163  -0.000023   0.004451  -0.045703   0.357170  -0.031632
    30  H   -0.002576  -0.000696  -0.012231  -0.040078   0.365845  -0.033605
    31  H    0.000041  -0.000096   0.000082   0.000131  -0.049926   0.328048
    32  H   -0.001753  -0.000753  -0.000173   0.000845  -0.003424  -0.032261
    33  H   -0.000111  -0.000004   0.000006  -0.000050   0.002822  -0.042280
    34  H   -0.000001   0.000000   0.000009  -0.001078   0.002423  -0.053026
    35  H    0.000000   0.000000  -0.000000   0.000022  -0.000086  -0.002915
              13         14         15         16         17         18
     1  C    0.004877  -0.062873   0.377594   0.352849   0.003770  -0.008315
     2  N   -0.008065   0.000188  -0.085950  -0.058577  -0.016717  -0.038834
     3  C   -0.067709   0.000579   0.009935  -0.012780   0.352045   0.332533
     4  N    0.396270  -0.000263   0.001714  -0.002241  -0.039617  -0.053115
     5  C   -0.066133  -0.000059  -0.000021  -0.000008   0.000851  -0.009947
     6  O   -0.002699  -0.000000   0.000000   0.000001  -0.000009  -0.000014
     7  C    0.002990   0.000032   0.000000  -0.000003  -0.000006   0.000041
     8  C   -0.000659  -0.000004  -0.000000   0.000000  -0.000000   0.000004
     9  C   -0.000276  -0.000039   0.000002  -0.000001   0.000000   0.000000
    10  C    0.000351   0.004224  -0.000152   0.000021   0.000000  -0.000000
    11  C   -0.019739  -0.049338   0.004842   0.000069   0.000000  -0.000005
    12  C    0.297434   0.321493  -0.084461  -0.001627  -0.000271   0.001201
    13  C    5.008224  -0.010813  -0.002753  -0.000164   0.001799   0.006647
    14  N   -0.010813   6.558443   0.301033   0.010636  -0.000013  -0.000061
    15  N   -0.002753   0.301033   6.463725  -0.062496  -0.000413  -0.000838
    16  H   -0.000164   0.010636  -0.062496   0.643106   0.000462   0.019979
    17  H    0.001799  -0.000013  -0.000413   0.000462   0.669006  -0.068783
    18  H    0.006647  -0.000061  -0.000838   0.019979  -0.068783   0.732172
    19  H    0.002040  -0.000000  -0.000000   0.000001   0.004348  -0.003066
    20  H    0.006801   0.000016   0.000002   0.000148  -0.002781   0.020091
    21  H    0.000078  -0.000000   0.000000  -0.000000   0.000000  -0.000009
    22  H   -0.001263  -0.000098  -0.000006   0.000028   0.000020  -0.000168
    23  H   -0.001041  -0.000000  -0.000000  -0.000000   0.000000  -0.000000
    24  H    0.000045   0.000000   0.000000   0.000000  -0.000000   0.000000
    25  H   -0.000007   0.000001  -0.000000   0.000000  -0.000000   0.000000
    26  H   -0.000009  -0.000012   0.000000  -0.000001  -0.000000   0.000000
    27  H    0.000504   0.000211   0.000001   0.000001  -0.000000   0.000000
    28  H   -0.000050  -0.000187   0.000001   0.000000   0.000000  -0.000000
    29  H    0.002608  -0.007829   0.000778  -0.000003  -0.000000   0.000002
    30  H   -0.004397   0.005514  -0.000017   0.000662   0.000001  -0.000012
    31  H   -0.034564  -0.042378   0.003723   0.000213   0.000008  -0.000027
    32  H    0.354486   0.001228  -0.000140   0.000039  -0.000064  -0.000088
    33  H    0.348895  -0.003099   0.000864   0.000410   0.000873  -0.000306
    34  H    0.001983   0.344174  -0.027822  -0.000168  -0.000001   0.000012
    35  H   -0.001547  -0.050119   0.328694   0.009546   0.000022   0.000068
              19         20         21         22         23         24
     1  C    0.000003  -0.000102  -0.000000   0.000071  -0.000000   0.000000
     2  N   -0.000051   0.000024  -0.000000   0.000018  -0.000000  -0.000000
     3  C    0.000659  -0.007480   0.000016   0.000049   0.000003   0.000000
     4  N   -0.037100  -0.055876  -0.000460   0.004830  -0.000058  -0.000011
     5  C    0.359555   0.331975  -0.003386  -0.003553   0.000260  -0.000085
     6  O   -0.015572  -0.025771  -0.021923  -0.036281   0.002316   0.001548
     7  C    0.004880  -0.010750   0.349372   0.373592  -0.035252  -0.026491
     8  C   -0.000437   0.000747  -0.030878  -0.050874   0.375563   0.357001
     9  C    0.000001   0.000059   0.002554  -0.002540  -0.033610  -0.032043
    10  C   -0.000000   0.000010   0.000141  -0.002285  -0.012890   0.004288
    11  C    0.000002  -0.000107   0.000033   0.002413  -0.000716  -0.000028
    12  C   -0.000184   0.001083   0.000017  -0.000495   0.000161   0.000007
    13  C    0.002040   0.006801   0.000078  -0.001263  -0.001041   0.000045
    14  N   -0.000000   0.000016  -0.000000  -0.000098  -0.000000   0.000000
    15  N   -0.000000   0.000002   0.000000  -0.000006  -0.000000   0.000000
    16  H    0.000001   0.000148  -0.000000   0.000028  -0.000000   0.000000
    17  H    0.004348  -0.002781   0.000000   0.000020   0.000000  -0.000000
    18  H   -0.003066   0.020091  -0.000009  -0.000168  -0.000000   0.000000
    19  H    0.648269  -0.070645   0.000330   0.000388   0.000002   0.000016
    20  H   -0.070645   0.732342   0.005344   0.000339   0.000091  -0.000005
    21  H    0.000330   0.005344   0.665914  -0.054363   0.005482  -0.012172
    22  H    0.000388   0.000339  -0.054363   0.656117   0.000937   0.005732
    23  H    0.000002   0.000091   0.005482   0.000937   0.609656  -0.038316
    24  H    0.000016  -0.000005  -0.012172   0.005732  -0.038316   0.657826
    25  H   -0.000000  -0.000000  -0.000508   0.000504   0.001697  -0.009582
    26  H    0.000000   0.000022   0.002256   0.001520   0.005225   0.002341
    27  H   -0.000000  -0.000000  -0.000017   0.000067   0.006241   0.000443
    28  H    0.000000  -0.000000   0.000010  -0.000077   0.000572  -0.000448
    29  H   -0.000000   0.000004  -0.000006  -0.000196  -0.000024   0.000008
    30  H    0.000004  -0.000043   0.000103   0.005956   0.000128  -0.000052
    31  H    0.000004  -0.000012   0.000000   0.000013  -0.000011  -0.000001
    32  H    0.000330   0.000411   0.000253  -0.000293   0.003581  -0.000032
    33  H    0.000088  -0.000349  -0.000000   0.000058  -0.000006  -0.000000
    34  H   -0.000000   0.000001  -0.000000  -0.000000  -0.000000   0.000000
    35  H    0.000000  -0.000000   0.000000  -0.000000  -0.000000  -0.000000
              25         26         27         28         29         30
     1  C    0.000000  -0.000000   0.000001  -0.000000  -0.000093   0.000110
     2  N    0.000000   0.000000  -0.000000  -0.000000  -0.000008  -0.000018
     3  C   -0.000000  -0.000000   0.000001   0.000000  -0.000003   0.000045
     4  N    0.000000  -0.000005   0.000018   0.000000  -0.000037   0.000801
     5  C    0.000004  -0.000028   0.000013  -0.000001   0.000002  -0.000101
     6  O   -0.000069   0.000210  -0.000047   0.000001  -0.000000  -0.000024
     7  C    0.003241  -0.012554  -0.000226  -0.000025   0.000163  -0.002576
     8  C   -0.024556  -0.038740  -0.012589   0.004480  -0.000023  -0.000696
     9  C    0.355153   0.378924  -0.034727  -0.035002   0.004451  -0.012231
    10  C   -0.028235  -0.037948   0.373608   0.360544  -0.045703  -0.040078
    11  C    0.003263  -0.012902  -0.036515  -0.025277   0.357170   0.365845
    12  C   -0.000106   0.000314  -0.011274   0.003116  -0.031632  -0.033605
    13  C   -0.000007  -0.000009   0.000504  -0.000050   0.002608  -0.004397
    14  N    0.000001  -0.000012   0.000211  -0.000187  -0.007829   0.005514
    15  N   -0.000000   0.000000   0.000001   0.000001   0.000778  -0.000017
    16  H    0.000000  -0.000001   0.000001   0.000000  -0.000003   0.000662
    17  H   -0.000000  -0.000000  -0.000000   0.000000  -0.000000   0.000001
    18  H    0.000000   0.000000   0.000000  -0.000000   0.000002  -0.000012
    19  H   -0.000000   0.000000  -0.000000   0.000000  -0.000000   0.000004
    20  H   -0.000000   0.000022  -0.000000  -0.000000   0.000004  -0.000043
    21  H   -0.000508   0.002256  -0.000017   0.000010  -0.000006   0.000103
    22  H    0.000504   0.001520   0.000067  -0.000077  -0.000196   0.005956
    23  H    0.001697   0.005225   0.006241   0.000572  -0.000024   0.000128
    24  H   -0.009582   0.002341   0.000443  -0.000448   0.000008  -0.000052
    25  H    0.665603  -0.042486   0.001476  -0.008767  -0.000467   0.000294
    26  H   -0.042486   0.644365   0.005002   0.001863   0.000878   0.006117
    27  H    0.001476   0.005002   0.638352  -0.041941   0.005373   0.004698
    28  H   -0.008767   0.001863  -0.041941   0.672215  -0.020343   0.004129
    29  H   -0.000467   0.000878   0.005373  -0.020343   0.683004  -0.036622
    30  H    0.000294   0.006117   0.004698   0.004129  -0.036622   0.624475
    31  H    0.000007   0.000005   0.005101   0.000305  -0.003781   0.006546
    32  H    0.000004   0.000022   0.000946  -0.000002  -0.000079   0.000120
    33  H    0.000000  -0.000000  -0.000116   0.000002  -0.000116   0.000016
    34  H   -0.000000   0.000003   0.000013  -0.000008   0.007891  -0.000453
    35  H    0.000000  -0.000000   0.000001  -0.000000   0.000006   0.000051
              31         32         33         34         35
     1  C    0.000310   0.000078   0.000504   0.003191  -0.044187
     2  N   -0.000271   0.000848   0.009042  -0.000005   0.002567
     3  C    0.000025   0.006023  -0.007948   0.000008   0.000054
     4  N    0.002588  -0.019133  -0.026146  -0.000072   0.000156
     5  C   -0.000039  -0.008800   0.005710   0.000000   0.000001
     6  O   -0.000004   0.014384   0.000539  -0.000000   0.000000
     7  C    0.000041  -0.001753  -0.000111  -0.000001   0.000000
     8  C   -0.000096  -0.000753  -0.000004   0.000000   0.000000
     9  C    0.000082  -0.000173   0.000006   0.000009  -0.000000
    10  C    0.000131   0.000845  -0.000050  -0.001078   0.000022
    11  C   -0.049926  -0.003424   0.002822   0.002423  -0.000086
    12  C    0.328048  -0.032261  -0.042280  -0.053026  -0.002915
    13  C   -0.034564   0.354486   0.348895   0.001983  -0.001547
    14  N   -0.042378   0.001228  -0.003099   0.344174  -0.050119
    15  N    0.003723  -0.000140   0.000864  -0.027822   0.328694
    16  H    0.000213   0.000039   0.000410  -0.000168   0.009546
    17  H    0.000008  -0.000064   0.000873  -0.000001   0.000022
    18  H   -0.000027  -0.000088  -0.000306   0.000012   0.000068
    19  H    0.000004   0.000330   0.000088  -0.000000   0.000000
    20  H   -0.000012   0.000411  -0.000349   0.000001  -0.000000
    21  H    0.000000   0.000253  -0.000000  -0.000000   0.000000
    22  H    0.000013  -0.000293   0.000058  -0.000000  -0.000000
    23  H   -0.000011   0.003581  -0.000006  -0.000000  -0.000000
    24  H   -0.000001  -0.000032  -0.000000   0.000000  -0.000000
    25  H    0.000007   0.000004   0.000000  -0.000000   0.000000
    26  H    0.000005   0.000022  -0.000000   0.000003  -0.000000
    27  H    0.005101   0.000946  -0.000116   0.000013   0.000001
    28  H    0.000305  -0.000002   0.000002  -0.000008  -0.000000
    29  H   -0.003781  -0.000079  -0.000116   0.007891   0.000006
    30  H    0.006546   0.000120   0.000016  -0.000453   0.000051
    31  H    0.711921   0.001001   0.000237  -0.007873   0.004250
    32  H    0.001001   0.575979  -0.033397  -0.000074   0.000011
    33  H    0.000237  -0.033397   0.607789  -0.000166   0.001361
    34  H   -0.007873  -0.000074  -0.000166   0.490717  -0.002077
    35  H    0.004250   0.000011   0.001361  -0.002077   0.530612
 Mulliken charges:
               1
     1  C    0.047773
     2  N   -0.200059
     3  C   -0.115116
     4  N   -0.074048
     5  C   -0.041675
     6  O   -0.250320
     7  C   -0.053065
     8  C   -0.189142
     9  C   -0.198840
    10  C   -0.207117
    11  C   -0.146009
    12  C   -0.012698
    13  C   -0.214143
    14  N   -0.320587
    15  N   -0.227837
    16  H    0.099899
    17  H    0.095469
    18  H    0.070836
    19  H    0.106135
    20  H    0.074412
    21  H    0.091819
    22  H    0.099836
    23  H    0.110010
    24  H    0.090014
    25  H    0.083535
    26  H    0.095617
    27  H    0.095383
    28  H    0.084889
    29  H    0.084630
    30  H    0.105312
    31  H    0.074425
    32  H    0.139877
    33  H    0.134878
    34  H    0.242398
    35  H    0.223509
 Sum of Mulliken charges =  -0.00000
 Mulliken charges with hydrogens summed into heavy atoms:
               1
     1  C    0.147672
     2  N   -0.200059
     3  C    0.051188
     4  N   -0.074048
     5  C    0.138871
     6  O   -0.250320
     7  C    0.138590
     8  C    0.010882
     9  C   -0.019688
    10  C   -0.026845
    11  C    0.043933
    12  C    0.061727
    13  C    0.060612
    14  N   -0.078189
    15  N   -0.004328
 Electronic spatial extent (au):  <R**2>=           3306.7240
 Charge=             -0.0000 electrons
 Dipole moment (field-independent basis, Debye):
    X=              1.3923    Y=             -1.9210    Z=             -0.6514  Tot=              2.4603
 Quadrupole moment (field-independent basis, Debye-Ang):
   XX=            -97.4080   YY=            -88.5366   ZZ=            -91.1138
   XY=              0.1337   XZ=             -1.4185   YZ=             -6.2972
 Traceless Quadrupole moment (field-independent basis, Debye-Ang):
   XX=             -5.0552   YY=              3.8162   ZZ=              1.2390
   XY=              0.1337   XZ=             -1.4185   YZ=             -6.2972
 Octapole moment (field-independent basis, Debye-Ang**2):
  XXX=             24.9332  YYY=            -10.4558  ZZZ=              3.9135  XYY=            -10.9894
  XXY=             -6.5927  XXZ=             -2.6499  XZZ=             -2.2722  YZZ=              0.1661
  YYZ=              0.4300  XYZ=              6.8523
 Hexadecapole moment (field-independent basis, Debye-Ang**3):
 XXXX=          -2658.1530 YYYY=          -1402.2079 ZZZZ=           -297.3055 XXXY=             45.4628
 XXXZ=             -5.8388 YYYX=             18.3358 YYYZ=            -17.5709 ZZZX=              1.9375
 ZZZY=              1.6716 XXYY=           -690.6575 XXZZ=           -477.0993 YYZZ=           -308.5683
 XXYZ=            -33.4916 YYXZ=            -23.3286 ZZXY=             13.0780
 N-N= 1.121482853427D+03 E-N=-3.841633954951D+03  KE= 6.819243042422D+02
 PrsmSu:  requested number of processors reduced to:  13 ShMem   1 Linda.
 Calling FoFJK, ICntrl=      2127 FMM=F ISym2X=0 I1Cent= 0 IOpClX= 0 NMat=1 NMatS=1 NMatT=0.
 ***** Axes restored to original set *****
 -------------------------------------------------------------------
 Center     Atomic                   Forces (Hartrees/Bohr)
 Number     Number              X              Y              Z
 -------------------------------------------------------------------
      1        6           0.022585516    0.011901581    0.000901457
      2        7           0.013319426    0.010110415   -0.011256543
      3        6          -0.027555043    0.008738788   -0.001038582
      4        7           0.016013127   -0.023106480    0.013487310
      5        6           0.010598968    0.007391363    0.005226314
      6        8          -0.022214239   -0.002260161   -0.010679724
      7        6          -0.001169960    0.004768433    0.006651931
      8        6           0.012633133    0.010364246   -0.007295261
      9        6           0.013369238    0.000662039    0.014510775
     10        6           0.010603270   -0.007058091   -0.010464434
     11        6          -0.002783227   -0.011095366    0.006766354
     12        6           0.021330918   -0.008636661   -0.007987411
     13        6          -0.019799823   -0.008017317    0.012429009
     14        7          -0.011419763    0.017603659   -0.008442264
     15        7          -0.021603336   -0.041706685    0.007890620
     16        1          -0.003422800    0.000365184    0.008889404
     17        1           0.007133845    0.008136985    0.003367762
     18        1           0.001518366   -0.002153983   -0.008257934
     19        1          -0.008386942   -0.004724150    0.006484515
     20        1           0.001979007   -0.001620097   -0.005809584
     21        1           0.002150356    0.001167764   -0.006908455
     22        1           0.000998163   -0.000482088    0.000396612
     23        1          -0.002169542    0.001231984   -0.004799860
     24        1           0.000277375    0.004052281    0.001398937
     25        1           0.001227273    0.000464364    0.002433925
     26        1           0.000502968   -0.000249333    0.003820755
     27        1           0.003374311    0.004296674   -0.000097120
     28        1          -0.005589426   -0.000061693    0.000587474
     29        1          -0.014702594    0.005617001    0.002058395
     30        1          -0.000564594    0.003996027    0.004698175
     31        1           0.001412750    0.009865450    0.006746318
     32        1           0.005388137   -0.006044714   -0.016857509
     33        1           0.002684645   -0.010974071   -0.009552093
     34        1          -0.007213222    0.011197299   -0.001531452
     35        1          -0.000506282    0.006259353    0.002232185
 -------------------------------------------------------------------
 Cartesian Forces:  Max     0.041706685 RMS     0.010127710

 GradGradGradGradGradGradGradGradGradGradGradGradGradGradGradGradGradGrad
 Berny optimization.
 FormGI is forming the generalized inverse of G from B-inverse, IUseBI=4.
 Internal  Forces:  Max     0.025304814 RMS     0.007322876
 Search for a local minimum.
 Step number   1 out of a maximum of  210
 All quantities printed in internal units (Hartrees-Bohrs-Radians)
 Mixed Optimization -- RFO/linear search
 Second derivative matrix not updated -- first step.
 ITU=  0
     Eigenvalues ---    0.00307   0.00509   0.00572   0.00775   0.00889
     Eigenvalues ---    0.01001   0.01030   0.01182   0.01936   0.02101
     Eigenvalues ---    0.02233   0.02480   0.02846   0.02952   0.03102
     Eigenvalues ---    0.03203   0.03655   0.03830   0.04139   0.04241
     Eigenvalues ---    0.04552   0.04750   0.04810   0.04974   0.05120
     Eigenvalues ---    0.05170   0.05616   0.05842   0.06271   0.06756
     Eigenvalues ---    0.07370   0.07517   0.07730   0.07924   0.08133
     Eigenvalues ---    0.08458   0.08875   0.09229   0.09575   0.09995
     Eigenvalues ---    0.10499   0.10968   0.11517   0.11581   0.11899
     Eigenvalues ---    0.11991   0.12036   0.12477   0.12686   0.13172
     Eigenvalues ---    0.13487   0.14288   0.14964   0.15052   0.15585
     Eigenvalues ---    0.17710   0.17939   0.19791   0.20368   0.21728
     Eigenvalues ---    0.21977   0.22413   0.22602   0.23031   0.25515
     Eigenvalues ---    0.29311   0.29587   0.29665   0.30336   0.30901
     Eigenvalues ---    0.31801   0.32186   0.32738   0.33002   0.33417
     Eigenvalues ---    0.33500   0.33504   0.33566   0.33685   0.33782
     Eigenvalues ---    0.33870   0.33872   0.33923   0.34015   0.34293
     Eigenvalues ---    0.34426   0.34432   0.34509   0.34659   0.35291
     Eigenvalues ---    0.36434   0.37231   0.40289   0.41938   0.43590
     Eigenvalues ---    0.44633   0.45908   0.49478   0.71617
 RFO step:  Lambda=-5.31531936D-02 EMin= 3.06713958D-03
 Linear search not attempted -- first point.
 Maximum step size (   0.300) exceeded in Quadratic search.
    -- Step size scaled by   0.760
 Iteration  1 RMS(Cart)=  0.07576295 RMS(Int)=  0.00193174
 Iteration  2 RMS(Cart)=  0.00324287 RMS(Int)=  0.00052838
 Iteration  3 RMS(Cart)=  0.00000445 RMS(Int)=  0.00052837
 Iteration  4 RMS(Cart)=  0.00000000 RMS(Int)=  0.00052837
 Variable       Old X    -DE/DX   Delta X   Delta X   Delta X     New X
                                 (Linear)    (Quad)   (Total)
    R1        2.40738  -0.00366   0.00000  -0.00193  -0.00162   2.40576
    R2        2.58868   0.01120   0.00000   0.01388   0.01396   2.60264
    R3        2.10504  -0.00946   0.00000  -0.01916  -0.01916   2.08589
    R4        2.77223  -0.01330   0.00000  -0.02669  -0.02666   2.74557
    R5        2.75930  -0.00160   0.00000  -0.00211  -0.00209   2.75721
    R6        2.07550   0.00200   0.00000   0.00389   0.00389   2.07939
    R7        2.07547   0.00839   0.00000   0.01627   0.01627   2.09174
    R8        2.74915  -0.00002   0.00000  -0.00228  -0.00219   2.74696
    R9        2.82253  -0.00415   0.00000  -0.00861  -0.00888   2.81365
   R10        2.70238  -0.01487   0.00000  -0.02536  -0.02499   2.67739
   R11        2.08176  -0.00067   0.00000  -0.00131  -0.00131   2.08045
   R12        2.07700   0.00603   0.00000   0.01173   0.01173   2.08872
   R13        2.67941   0.00297   0.00000   0.00855   0.00858   2.68798
   R14        2.86791   0.00658   0.00000   0.01461   0.01495   2.88286
   R15        2.06232   0.00625   0.00000   0.01188   0.01188   2.07420
   R16        2.06617  -0.00037   0.00000  -0.00070  -0.00070   2.06546
   R17        2.87814   0.00920   0.00000   0.02650   0.02645   2.90459
   R18        2.07461  -0.00427   0.00000  -0.00826  -0.00826   2.06634
   R19        2.06480   0.00254   0.00000   0.00484   0.00484   2.06964
   R20        2.88219   0.01553   0.00000   0.03578   0.03571   2.91790
   R21        2.06839   0.00126   0.00000   0.00242   0.00242   2.07081
   R22        2.08069  -0.00382   0.00000  -0.00747  -0.00747   2.07322
   R23        2.87901   0.02530   0.00000   0.05676   0.05638   2.93539
   R24        2.06607   0.00056   0.00000   0.00107   0.00107   2.06714
   R25        2.08183  -0.00301   0.00000  -0.00589  -0.00589   2.07593
   R26        2.97294  -0.00249   0.00000  -0.00960  -0.00971   2.96323
   R27        2.09515  -0.00673   0.00000  -0.01345  -0.01345   2.08170
   R28        2.07305  -0.00277   0.00000  -0.00536  -0.00536   2.06769
   R29        3.24035  -0.02156   0.00000  -0.08522  -0.08545   3.15490
   R30        2.84934   0.01152   0.00000   0.02221   0.02204   2.87138
   R31        2.07866   0.00234   0.00000   0.00456   0.00456   2.08322
   R32        2.08325  -0.00794   0.00000  -0.01558  -0.01558   2.06767
   R33        2.09047  -0.00708   0.00000  -0.01403  -0.01403   2.07644
   R34        2.62965   0.00745   0.00000   0.01216   0.01230   2.64195
   R35        1.93648  -0.01300   0.00000  -0.02020  -0.02020   1.91628
   R36        1.92404   0.00157   0.00000   0.00238   0.00238   1.92642
    A1        2.10428   0.00581   0.00000   0.02775   0.02713   2.13141
    A2        2.17877  -0.00411   0.00000  -0.00932  -0.00983   2.16894
    A3        1.94219   0.00083   0.00000   0.00025  -0.00017   1.94202
    A4        1.89531   0.01574   0.00000   0.02480   0.02531   1.92063
    A5        1.91808  -0.01662   0.00000  -0.06013  -0.05979   1.85829
    A6        1.85557   0.01007   0.00000   0.04779   0.04677   1.90234
    A7        1.96117   0.00732   0.00000   0.01578   0.01499   1.97616
    A8        1.97199  -0.00314   0.00000  -0.02467  -0.02458   1.94741
    A9        1.91743   0.00186   0.00000   0.00871   0.00871   1.92614
   A10        1.83859   0.00173   0.00000   0.01691   0.01645   1.85503
[...]
 ,-0.00143939,-0.00004510,0.00112459,0.00020188,-0.00081828,-0.00020048
 ,0.00021089,-0.00002986,-0.00025765,-0.00040355,0.00070103,-0.00051471
 ,-0.00063340,-0.00020434,0.00022413,0.00183966,-0.00002128,0.00021741,
 -0.00399972,0.00952177,-0.01231813,-0.03685800,0.12068452,-0.21109694,
 0.00104013,0.01116578,-0.01980469,-0.00087238,0.00194379,-0.00062860,-
 0.00068957,-0.00137212,0.00173765,0.00014997,-0.00021271,0.00015108,-0
 .00005732,0.00000077,0.00007240,-0.00022097,0.00009237,-0.00005801,-0.
 00002262,-0.00002405,-0.00004816,0.00001067,0.00014081,0.00011914,-0.0
 0002622,0.00001497,-0.00001415,0.00024588,0.00038803,0.00026742,0.0004
 5346,0.00086110,0.00081245,0.00006302,0.00004483,0.00002591,0.00007707
 ,-0.00017460,0.00005311,0.00031716,0.00014345,0.00022646,-0.00013842,-
 0.00006177,0.00085461,-0.00022050,0.00009951,-0.00028388,-0.00171505,-
 0.00146513,-0.00107433,0.00129546,-0.00692998,0.00872878,0.03756450,-0
 .13496724,0.23241279,-0.00042296,-0.00143415,-0.00032257,0.00017223,0.
 00070997,0.00048267,-0.00020675,-0.00030116,0.00018351,0.00101980,0.00
 272976,0.00098621,-0.00096401,0.00031315,-0.00053350,0.00052527,-0.000
 22054,-0.00013415,-0.00002517,0.00011688,0.00048545,0.00012962,0.00005
 627,-0.00008774,-0.00003580,0.00028900,0.00016355,0.00190251,0.0002925
 8,0.00004002,0.00267168,-0.01533767,0.02578798,-0.05282063,0.01368579,
 -0.02168132,-0.00169429,0.00738123,-0.01101169,-0.00758643,0.00255233,
 -0.02479573,0.00235928,0.00033802,-0.00202319,-0.00002033,-0.00017302,
 0.00002176,-0.00004175,0.00008361,-0.00001571,0.00005965,0.00002881,-0
 .00002712,0.00005347,0.00007951,0.00001035,0.00013967,0.00020325,0.000
 03492,-0.00005364,-0.00009570,-0.00009072,-0.00010505,0.00002462,-0.00
 020384,-0.00002117,-0.00002553,-0.00001375,0.00000757,0.00001260,0.000
 00290,-0.00006170,-0.00006970,-0.00010995,0.00004848,-0.00009302,-0.00
 020350,-0.00002881,-0.00014618,-0.00027938,-0.00032542,0.00025115,-0.0
 0027624,0.00102312,0.00061726,-0.00064367,-0.00506737,-0.00001004,0.00
 365469,0.05893181,0.00012891,-0.00182306,-0.00057480,-0.00025094,0.001
 52167,0.00048877,-0.00123924,-0.00150348,0.00007739,0.00238670,-0.0051
 4723,-0.00143458,0.00164295,-0.00016127,0.00090420,-0.00056147,0.00017
 558,0.00002808,0.00020711,0.00003021,-0.00014539,0.00004434,-0.0000341
 3,0.00000674,-0.00010812,-0.00011772,-0.00010703,0.00011454,0.00038442
 ,0.00021860,0.00072571,-0.00006628,0.00114996,0.01462182,-0.09630734,0
 .09444505,0.00343381,-0.01518997,0.02573569,-0.01078065,0.00437993,-0.
 02353660,0.00288625,0.00057252,-0.00146051,-0.00013396,-0.00014780,-0.
 00004196,0.00041321,-0.00010418,0.00010642,0.00023631,-0.00002305,0.00
 005261,-0.00006853,-0.00023018,-0.00007799,-0.00024114,-0.00040121,0.0
 0000208,-0.00003210,-0.00005872,0.00001613,-0.00002707,-0.00002714,-0.
 00005156,-0.00001214,0.00000030,-0.00001013,-0.00002824,0.00002520,0.0
 0000309,-0.00003360,0.00000300,-0.00000191,0.00006885,0.00002388,-0.00
 007581,-0.00003832,-0.00029539,0.00000892,-0.00028865,0.00002815,-0.00
 003443,-0.00041867,0.00055119,0.00005399,-0.00044926,0.00061261,0.0002
 0298,-0.01169106,0.10992360,0.00038456,-0.00218257,-0.00046605,-0.0001
 8524,0.00133502,0.00060968,-0.00062803,-0.00083253,0.00036532,0.001054
 68,-0.00112631,0.00074617,0.00007252,-0.00026299,0.00012046,0.00001828
 ,0.00005730,0.00016304,-0.00010305,-0.00010751,-0.00031582,-0.00013105
 ,-0.00003191,0.00010410,0.00032381,-0.00009184,0.00009416,-0.00060270,
 -0.00048886,0.00023692,-0.00085334,0.00975283,-0.01478756,-0.02055455,
 0.09687838,-0.22346912,0.00148136,-0.00315477,0.00293144,-0.01108247,-
 0.00348603,-0.02073426,0.00054585,0.00032500,-0.00049799,0.00009812,-0
 .00023711,0.00007261,0.00004375,0.00007484,0.00003519,0.00020876,0.000
 00039,0.00002040,-0.00000354,0.00003811,0.00003550,-0.00005283,-0.0001
 3097,0.00001567,0.00005028,0.00006080,0.00006050,0.00008355,0.00004929
 ,0.00015017,0.00002736,0.00002373,0.00001157,0.00000102,-0.00004806,0.
 00000509,0.00011660,0.00007015,0.00002963,-0.00018071,-0.00000317,0.00
 018118,0.00024737,0.00035725,0.00025216,0.00074923,-0.00002871,0.00031
 557,-0.00028270,-0.00039603,0.00038510,0.00278088,-0.00049145,-0.00114
 669,0.02854758,-0.09723184,0.25237426,-0.00114347,0.00171541,-0.000236
 99,-0.00100319,-0.00034774,-0.00185446,0.00036091,-0.00080543,-0.00112
 866,-0.00329378,0.00170495,-0.00344791,-0.00023346,-0.00211426,-0.0004
 8145,-0.00033475,-0.00188310,0.00150004,-0.00018649,-0.00012524,0.0003
 1702,-0.00002704,-0.00004739,0.00002075,-0.00009867,-0.00010939,0.0000
 2440,-0.00128918,0.00129737,0.00101752,0.00010831,-0.00041399,0.000136
 83,0.00739063,0.00423001,0.00590311,-0.17838977,-0.07032746,-0.1125850
 1,-0.00092023,0.00304344,0.00134461,-0.00026215,-0.00064724,-0.0000142
 5,0.00026121,0.00002698,0.00005200,-0.00005743,0.00014349,0.00000574,-
 0.00020883,-0.00001793,0.00000355,-0.00003845,0.00083373,0.00039841,-0
 .00027990,0.00029256,0.00020642,-0.00001350,0.00008864,-0.00002531,-0.
 00000236,-0.00000533,0.00001354,-0.00002365,-0.00000509,-0.00000743,0.
 00001098,0.00002142,-0.00003161,0.00004769,0.00001143,-0.00002206,0.00
 002659,-0.00001201,-0.00004189,-0.00198953,0.00068007,0.00015394,0.000
 01827,-0.00005457,-0.00005048,0.00008547,-0.00010205,-0.00020942,-0.00
 006575,-0.00007682,0.00003962,0.00073047,-0.00067195,0.00024770,0.1973
 9766,0.00023491,-0.00069333,0.00046194,-0.00096856,0.00087534,-0.00040
 089,-0.00122165,-0.00203294,0.00375086,0.01789851,0.00226044,0.0172138
 9,0.00161259,0.00022608,0.00337198,-0.00039274,-0.00225169,0.00070951,
 -0.00048348,0.00033822,0.00045305,-0.00004030,0.00008190,-0.00006100,0
 .00013674,0.00039541,0.00012180,0.00016697,-0.00050985,-0.00031041,-0.
 00062821,0.00079866,-0.00011012,-0.02095869,-0.01585789,-0.01867104,-0
 .07408420,-0.08319574,-0.06312499,0.00431792,-0.00480760,-0.00008099,0
 .00044207,0.00077530,0.00040511,0.00002244,-0.00002010,-0.00002594,0.0
 0009986,-0.00001273,-0.00003750,0.00132927,-0.00013644,0.00031066,0.00
 024712,-0.00006862,-0.00060529,0.00000346,0.00015457,-0.00025349,0.000
 08870,0.00001207,-0.00013581,0.00004853,-0.00003886,-0.00011800,-0.000
 02314,-0.00001175,-0.00000673,0.00003330,-0.00006443,0.00001802,-0.000
 03328,-0.00003104,0.00002869,-0.00012267,-0.00006749,0.00012408,0.0007
 9127,0.00085810,0.00018637,-0.00004571,0.00005517,0.00010350,-0.000245
 14,0.00011470,0.00026037,0.00009155,0.00000751,-0.00007497,-0.00053957
 ,0.00022403,0.00055848,0.07377427,0.10365733,0.00036669,0.00013165,0.0
 0023702,0.00111065,-0.00013127,0.00106842,0.00292550,0.00058141,-0.003
 78460,-0.02003732,-0.00052206,-0.02063993,-0.00463464,-0.00014405,0.00
 055449,0.00060217,-0.00075768,0.00104574,0.00062167,-0.00044479,-0.000
 67035,0.00004848,0.00005508,0.00001896,0.00012550,0.00019458,0.0000307
 4,-0.00020789,-0.00019316,-0.00028844,-0.00097178,-0.00006613,-0.00033
 709,-0.00823638,-0.00765925,-0.00824001,-0.10751027,-0.05597931,-0.137
 65883,0.00192835,-0.00195769,0.00145716,0.00010173,0.00009232,-0.00000
 090,-0.00009151,0.00000272,0.00003124,-0.00000663,0.00006816,0.0001424
 5,-0.00147622,0.00022219,-0.00035840,0.00050269,0.00089217,0.00047653,
 -0.00009849,-0.00028203,0.00044105,-0.00016182,-0.00003663,0.00029583,
 -0.00009334,0.00009758,0.00015866,0.00004677,-0.00000401,-0.00000867,-
 0.00003911,-0.00001180,0.00003393,-0.00003597,0.00001452,0.00000867,-0
 .00009819,-0.00003345,0.00011043,0.00081120,0.00013859,0.00085481,-0.0
 0017208,0.00025210,0.00019314,-0.00004472,0.00013002,0.00012495,0.0000
 0569,0.00006292,-0.00006711,0.00045981,0.00057807,0.00088079,0.1238591
 7,0.05805180,0.15266554,-0.00112400,-0.00047570,-0.00115075,-0.0044641
 4,0.00010850,-0.00623114,0.00055662,-0.00077241,-0.00072296,0.00772250
 ,0.00089843,-0.00328452,-0.00112460,-0.00053073,-0.00039731,0.00023835
 ,-0.00056342,0.00035303,0.00013840,-0.00003036,-0.00003861,0.00001914,
 0.00004883,0.00000162,0.00003964,0.00006520,0.00000039,0.00030317,0.00
 015444,0.00014054,0.00028334,0.00201370,-0.00041217,-0.00775467,-0.000
 96919,0.00380712,-0.23390641,-0.01679496,0.12330671,-0.00014549,-0.000
 02069,-0.00032056,0.00034472,0.00062963,0.00056993,0.00016529,0.000006
 80,0.00015491,0.00021491,-0.00007640,0.00055237,0.00001592,0.00002917,
 0.00021919,-0.00015854,-0.00032154,0.00033378,-0.00009393,0.00013655,0
 .00000562,-0.00005343,-0.00003391,0.00003765,-0.00004284,0.00001265,-0
 .00001927,0.00000445,-0.00001575,-0.00000857,-0.00000413,-0.00002505,0
 .00001820,-0.00004352,-0.00001671,0.00001210,-0.00002107,-0.00003337,0
 .00000222,0.00026456,-0.00000310,0.00007136,-0.00009354,0.00007799,0.0
 0004452,-0.00046995,-0.00012052,0.00034407,0.00020856,-0.00011575,-0.0
 0011608,-0.00017005,0.00046151,-0.00061608,-0.01719362,-0.00068818,0.0
 1108284,0.25615453,-0.00014796,0.00014570,-0.00087356,0.00026080,0.000
 02535,0.00000990,-0.00193564,0.00066795,-0.00063202,-0.01768726,-0.007
 45523,0.01712085,0.00090125,0.00255124,0.00360835,-0.00069683,-0.00019
 885,0.00022981,0.00040388,-0.00020320,-0.00041047,0.00007562,-0.000114
 29,0.00001652,0.00002097,-0.00001325,0.00010838,-0.00048634,-0.0002133
 5,-0.00044360,0.00042022,-0.00656231,-0.00072415,0.02747908,0.00115761
 ,-0.01644841,-0.01590905,-0.05012579,0.01006828,0.00003748,0.00141935,
 0.00037548,-0.00032670,-0.00024794,0.00009467,0.00011110,-0.00009037,0
 .00004451,0.00042940,-0.00044695,-0.00034505,0.00014799,-0.00024756,-0
 .00001495,0.00025200,-0.00043359,-0.00090900,-0.00014975,-0.00103020,-
 0.00019258,-0.00008790,0.00003251,0.00008850,0.00007890,-0.00004800,0.
 00003461,-0.00000428,0.00004460,-0.00000691,-0.00003594,0.00006374,-0.
 00001138,0.00007676,0.00009054,-0.00002548,-0.00006631,0.00000697,0.00
 006748,0.00009334,0.00013273,0.00027482,-0.00000630,0.00008570,0.00005
 541,0.00189411,-0.00010001,-0.00117329,-0.00017176,-0.00000337,-0.0000
 1945,-0.00062999,0.00126321,0.00045375,-0.01091127,-0.00036733,0.00721
 960,0.01731387,0.06093384,-0.00004347,-0.00155693,-0.00126176,-0.00125
 078,0.00053183,-0.00027559,0.00206941,0.00136960,0.00212169,0.01780594
 ,0.01120905,-0.01914142,-0.00203025,-0.00229092,-0.00391991,0.00038232
 ,-0.00058945,0.00052474,-0.00001465,-0.00012923,0.00002443,-0.00002391
 ,0.00005496,-0.00001062,0.00003042,0.00011318,0.00005324,-0.00012863,-
 0.00001655,-0.00005695,0.00002840,-0.00237022,0.00062781,0.01009247,-0
 .00085112,-0.00550409,0.11759678,0.01012073,-0.11799008,0.00066253,0.0
 0054077,0.00033178,0.00029134,0.00112592,0.00019096,-0.00066964,0.0000
 6959,-0.00000751,-0.00093119,0.00026023,-0.00031477,-0.00024487,-0.000
 13083,0.00004326,0.00023070,0.00029097,0.00076423,0.00026635,0.0009685
 5,0.00019266,-0.00000203,0.00000777,0.00005942,-0.00009103,0.00005587,
 0.00009111,0.00002523,-0.00001476,0.00001225,0.00002432,-0.00001442,-0
 .00000092,0.00001448,-0.00001292,0.00001350,-0.00007248,-0.00004347,0.
 00002904,0.00025997,0.00013560,0.00012049,-0.00005368,0.00007035,0.000
 06950,0.00067354,0.00007875,-0.00025252,-0.00037907,0.00026715,0.00015
 229,-0.00058045,-0.00039217,0.00047604,-0.01566688,-0.00072087,0.01170
 893,-0.12764855,-0.01745602,0.13106019,-0.00783917,0.00002399,0.003413
 18,0.00030258,0.00242230,-0.00104548,-0.00008089,-0.00024577,0.0003735
 7,0.00023282,0.00011014,0.00032341,0.00038365,0.00000956,0.00005791,-0
 .00011490,0.00004184,0.00013119,0.00008658,-0.00003696,-0.00010801,0.0
 0000882,-0.00003505,0.00000703,-0.00002929,-0.00000199,0.00004653,-0.0
 0039837,0.00067216,0.00001862,0.00177025,-0.00142952,-0.00089451,0.006
 38054,-0.01758760,0.00248909,-0.00324170,-0.00021187,-0.00135231,-0.06
 529059,0.07263741,-0.01775188,-0.02615318,0.03641915,-0.00971007,0.000
 31290,0.00004791,-0.00018406,0.00016953,0.00010977,0.00000981,0.000081
 64,-0.00000485,0.00000250,-0.00002673,0.00001904,-0.00002023,-0.000064
 06,-0.00007851,0.00003342,-0.00001630,0.00001160,0.00002365,0.00001347
 ,0.00000468,0.00002219,0.00000208,0.00001550,0.00000136,-0.00000973,0.
 00001498,-0.00000665,0.00001136,0.00000828,-0.00000987,-0.00003086,-0.
 00001895,0.00002806,0.00025342,0.00012578,0.00012730,-0.00011822,-0.00
 005830,-0.00006613,-0.00122046,0.00073124,0.00056426,0.00001650,0.0001
 6131,-0.00017032,0.00028529,-0.00024214,-0.00089867,0.00039903,-0.0008
 5383,-0.00055006,-0.00001228,0.00007299,-0.00001590,0.09470083,0.00164
 815,-0.00163026,-0.00034723,-0.00010910,0.00137397,0.00050127,-0.00024
 877,0.00006412,-0.00002363,-0.00001459,0.00019162,0.00028326,0.0000829
 6,-0.00002194,0.00001067,-0.00008406,0.00003861,0.00007358,0.00003087,
 -0.00004644,-0.00008865,0.00000517,-0.00002804,0.00000890,-0.00009007,
 -0.00001601,-0.00001067,-0.00038287,0.00024936,0.00015927,-0.00060748,
 -0.00067536,-0.00096623,0.00627544,-0.01578553,0.00793769,-0.00310958,
 0.00081203,-0.00177953,0.09627993,-0.41812879,0.01474671,-0.00426378,0
 .00480150,0.00373870,0.00024099,0.00001921,-0.00012995,0.00001665,0.00
 001439,0.00000943,0.00008328,0.00003386,0.00001071,0.00000100,0.000046
 54,0.00001007,-0.00003441,-0.00003517,0.00001950,-0.00000298,0.0000195
 7,0.00001975,0.00001097,-0.00000460,0.00003860,0.00000485,0.00001094,0
 .00000323,-0.00000425,0.00001493,-0.00000795,0.00001049,0.00000831,0.0
 0001842,-0.00002291,0.00000051,0.00002069,0.00015820,0.00008659,0.0001
 2315,-0.00003071,-0.00000972,-0.00000870,-0.00082901,0.00036042,0.0004
 7081,0.00015319,0.00011631,-0.00001430,0.00058979,0.00186123,-0.000240
 82,0.00061198,-0.00083620,-0.00040461,0.00003105,-0.00002215,-0.000023
 26,-0.09538056,0.42724474,-0.00081351,0.00141476,-0.00086821,0.0003159
 6,0.00184088,0.00039922,-0.00046752,-0.00106185,0.00091954,0.00055908,
 0.00016194,0.00060481,-0.00012125,-0.00021563,0.00000808,0.00037997,0.
 00000644,-0.00000091,-0.00007199,0.00003627,0.00015180,0.00000441,0.00
 003191,-0.00004245,0.00000706,0.00007009,0.00005020,0.00035275,-0.0004
 5927,-0.00017928,0.00014829,0.00126336,0.00009422,0.00413370,-0.026902
 86,-0.00619161,-0.00379772,-0.00050773,-0.00307794,-0.03516875,0.05590
 719,-0.01067255,0.00712862,-0.00309021,-0.00369566,-0.00106046,-0.0001
 0433,-0.00013931,0.00011496,0.00014330,-0.00000153,0.00013780,0.000022
 50,-0.00009909,0.00004951,0.00009505,-0.00002317,-0.00002375,-0.000025
 79,0.00003959,0.00000626,-0.00001171,-0.00001378,-0.00002870,0.0000040
 5,-0.00001807,-0.00000066,-0.00001997,-0.00000267,0.00001539,-0.000003
 64,0.00000433,-0.00001403,-0.00001755,-0.00000786,0.00002910,-0.000000
 70,-0.00004667,-0.00013437,-0.00011440,-0.00010105,-0.00004914,0.00007
 586,-0.00000716,0.00084349,-0.00029114,0.00027264,0.00010065,0.0001976
 0,0.00009353,0.00122544,0.00013129,0.00101880,0.00051834,-0.00144731,-
 0.00037117,0.00002308,0.00003051,-0.00011315,0.02437384,-0.02439661,0.
 02304168,0.00640961,-0.00571681,-0.00499282,-0.00179842,0.00162760,-0.
 00029222,-0.00091845,-0.00012568,-0.00029452,0.00042768,0.00012430,0.0
 0001234,-0.00039621,-0.00024309,-0.00010613,0.00037148,-0.00000953,-0.
 00009515,-0.00012100,0.00003792,0.00016403,-0.00001238,0.00003665,-0.0
 0000963,-0.00000745,0.00001854,-0.00006095,-0.00003755,-0.00007533,0.0
 0001895,-0.00086475,-0.00016995,-0.00062223,0.00268315,0.00093295,0.00
 321726,-0.00084404,-0.00020592,-0.00000044,-0.03134660,0.00553710,0.03
 227351,-0.08812160,0.01210291,0.09935596,0.00099146,0.00250240,0.00044
 578,0.00006162,0.00009574,0.00005011,0.00016233,0.00023474,0.00013634,
 0.00003868,0.00003367,0.00003785,0.00002863,0.00003949,0.00001733,0.00
 001785,-0.00000638,-0.00003036,-0.00001483,0.00001053,-0.00002421,-0.0
 0000201,-0.00001106,0.00000257,0.00001718,-0.00001876,0.00000279,-0.00
 001831,-0.00002686,0.00002096,0.00001319,-0.00000344,-0.00000339,-0.00
 009324,-0.00006433,-0.00009245,-0.00004949,-0.00001786,-0.00003106,0.0
 0038155,-0.00028261,-0.00020201,0.00020281,0.00013657,-0.00009104,-0.0
 0040861,-0.00005473,-0.00090829,0.00021796,-0.00001013,-0.00013250,0.0
 0020210,-0.00081648,-0.00060674,-0.00076456,-0.00101985,0.00128414,0.1
 1359223,-0.01400516,-0.00800831,0.04011391,-0.00196836,0.00572228,-0.0
 0096859,-0.00074620,-0.00094359,-0.00073165,0.00052892,0.00014203,-0.0
 0006572,-0.00041968,-0.00042391,-0.00010704,0.00044635,0.00008093,-0.0
 0012175,-0.00017270,0.00000422,0.00021442,-0.00000773,-0.00000173,-0.0
 0001975,-0.00000537,-0.00000906,0.00003838,-0.00009373,0.00006055,-0.0
 0006132,-0.00017328,-0.00021998,0.00012814,-0.00113141,0.00019674,0.00
 190344,-0.00042078,-0.00026006,0.00056812,-0.00339316,-0.00152230,-0.0
 0516187,0.03164654,-0.03511918,-0.02806597,0.00124219,-0.00437125,0.00
 297333,0.00003052,0.00012095,-0.00008202,0.00034836,0.00050364,-0.0004
 0597,0.00002429,0.00004614,0.00005314,0.00001635,0.00003904,0.00000064
 ,0.00002483,0.00002800,-0.00003910,-0.00000641,-0.00000517,0.00000087,
 -0.00000508,-0.00000201,0.00001003,0.00002733,0.00000229,-0.00001725,0
 .00004401,0.00000455,0.00000181,-0.00000473,-0.00000278,-0.00001283,-0
 .00001537,-0.00000354,-0.00002807,0.00003063,-0.00003059,0.00001090,0.
 00002900,-0.00000420,-0.00007143,-0.00003786,0.00001273,-0.00003920,0.
 00041178,0.00005740,0.00053815,0.00020249,0.00016920,-0.00015758,-0.00
 038057,-0.00069732,-0.00065771,0.00252629,-0.00012856,-0.00276229,-0.0
 1459229,0.04456285,0.00707922,-0.00513278,-0.02487307,-0.00298070,-0.0
 0223294,0.00251767,0.00065982,-0.00087653,0.00113819,0.00018999,0.0000
 9935,0.00044739,-0.00007967,-0.00019020,0.00001428,0.00009863,0.000062
 24,-0.00001365,-0.00004659,-0.00001697,0.00001402,-0.00000729,0.000008
 02,-0.00000138,-0.00001740,-0.00000395,-0.00002776,-0.00010683,-0.0000
 7574,0.00005400,-0.00055262,-0.00002134,-0.00037911,0.00013599,-0.0000
 3426,0.00401628,0.00038516,0.00005822,-0.00012048,-0.00295142,-0.00374
 962,0.00989598,0.12352037,0.01521731,-0.35429214,0.00176502,0.00326850
 ,0.00061472,0.00000313,-0.00000151,0.00003802,-0.00024234,-0.00041366,
 0.00010515,0.00001987,0.00002744,0.00001466,-0.00001262,0.00000800,-0.
 00002269,0.00001179,0.00000907,-0.00000746,-0.00000005,0.00000258,0.00
 000886,0.00000185,-0.00000112,0.00000529,0.00000589,-0.00000261,-0.000
 00340,0.00000081,-0.00000450,0.00001240,-0.00000012,0.00000453,0.00000
 202,-0.00002135,-0.00000666,-0.00000602,0.00000646,0.00000752,0.000004
 64,0.00000734,-0.00005214,-0.00001575,-0.00003965,-0.00002259,-0.00010
 146,0.00094741,0.00096667,-0.00027404,0.00004108,0.00005525,-0.0001139
 8,-0.00011468,-0.00021516,0.00018173,0.00073723,0.00023773,-0.00102515
 ,-0.12844376,-0.00697815,0.36219223\\-0.00000164,-0.00001970,-0.000001
 23,-0.00001417,0.00000828,0.00000650,-0.00001282,-0.00000706,-0.000006
 39,0.00002296,-0.00000574,-0.00000964,-0.00000622,-0.00001195,-0.00001
 003,0.00000418,0.00000509,0.00002253,0.00000593,-0.00000130,-0.0000153
 6,-0.00000030,0.00000119,-0.00000320,0.00000544,0.00000273,-0.00000380
 ,-0.00000187,0.00000439,0.00001113,-0.00000598,-0.00000596,0.00000092,
 0.00002197,0.00001626,0.00001570,-0.00000229,-0.00000211,0.00000786,0.
 00001253,-0.00001796,-0.00001988,-0.00001792,0.00001882,-0.00000906,0.
 00000269,0.00000185,0.00000376,-0.00000111,-0.00000184,0.00000402,0.00
 000087,0.00000110,0.00000432,-0.00000340,0.00000405,0.00000359,0.00000
 144,0.00000487,0.00000329,-0.00000769,0.00000134,-0.00000030,0.0000011
 8,0.00000210,0.00000033,0.00000322,-0.00000110,0.00000229,-0.00000228,
 0.00000007,0.00000487,0.00000020,0.00000238,-0.00000004,-0.00000157,-0
 .00000151,0.00000209,0.00000151,-0.00000037,-0.00000174,-0.00000172,-0
 .00000121,-0.00000302,0.00000523,0.00000063,-0.00000472,-0.00000532,-0
 .00000122,-0.00000314,-0.00000438,0.00000263,-0.00000686,0.00000221,0.
 00000269,-0.00000134,-0.00000162,0.00000127,0.00000308,-0.00000254,-0.
 00000064,0.00000250,0.00000327,-0.00000206,0.00000098\\\@


 BOOKS ARE LIGHTHOUSES ERECTED IN THE GREAT SEA OF TIME.
     -- E.P.WHIPPLE
 Job cpu time:       0 days 14 hours 23 minutes 21.3 seconds.
 Elapsed time:       0 days  3 hours 35 minutes 51.7 seconds.
 File lengths (MBytes):  RWF=    694 Int=      0 D2E=      0 Chk=     23 Scr=      1
 Normal termination of Gaussian 16 at Sun May 28 01:25:57 2023.
### All Done ###
