### Starting Gaussian ###
 Entering Gaussian System, Link 0=g16
 Initial command:
 /cluster/software/gaussian/gaussian-16-A.03/avx2/g16/l1.exe "/local/scratch/linjian/Gau-23497.inp" -scrdir="/local/scratch/linjian/"
 Entering Link 1 = /cluster/software/gaussian/gaussian-16-A.03/avx2/g16/l1.exe PID=     23498.
  
 Copyright (c) 1988,1990,1992,1993,1995,1998,2003,2009,2016,
            Gaussian, Inc.  All Rights Reserved.
  
 This is part of the Gaussian(R) 16 program.  It is based on
 the Gaussian(R) 09 system (copyright 2009, Gaussian, Inc.),
 the Gaussian(R) 03 system (copyright 2003, Gaussian, Inc.),
 the Gaussian(R) 98 system (copyright 1998, Gaussian, Inc.),
 the Gaussian(R) 94 system (copyright 1995, Gaussian, Inc.),
 the Gaussian 92(TM) system (copyright 1992, Gaussian, Inc.),
 the Gaussian 90(TM) system (copyright 1990, Gaussian, Inc.),
 the Gaussian 88(TM) system (copyright 1988, Gaussian, Inc.),
 the Gaussian 86(TM) system (copyright 1986, Carnegie Mellon
 University), and the Gaussian 82(TM) system (copyright 1983,
 Carnegie Mellon University). Gaussian is a federally registered
 trademark of Gaussian, Inc.
  
 This software contains proprietary and confidential information,
 including trade secrets, belonging to Gaussian, Inc.
  
 This software is provided under written license and may be
 used, copied, transmitted, or stored only in accord with that
 written license.
  
 The following legend is applicable only to US Government
 contracts under FAR:
  
                    RESTRICTED RIGHTS LEGEND
  
 Use, reproduction and disclosure by the US Government is
 subject to restrictions as set forth in subparagraphs (a)
 and (c) of the Commercial Computer Software - Restricted
 Rights clause in FAR 52.227-19.
  
 Gaussian, Inc.
 340 Quinnipiac St., Bldg. 40, Wallingford CT 06492
  
  
 ---------------------------------------------------------------
 Warning -- This program may not be used in any manner that
 competes with the business of Gaussian, Inc. or will provide
 assistance to any competitor of Gaussian, Inc.  The licensee
 of this program is prohibited from giving any competitor of
 Gaussian, Inc. access to this program.  By using this program,
 the user acknowledges that Gaussian, Inc. is engaged in the
 business of creating and licensing software in the field of
 computational chemistry and represents and warrants to the
 licensee that it is not a competitor of Gaussian, Inc. and that
 it will not use this program in any manner prohibited above.
 ---------------------------------------------------------------
  

 Cite this work as:
 Gaussian 16, Revision A.03,
 M. J. Frisch, G. W. Trucks, H. B. Schlegel, G. E. Scuseria, 
 M. A. Robb, J. R. Cheeseman, G. Scalmani, V. Barone, 
 G. A. Petersson, H. Nakatsuji, X. Li, M. Caricato, A. V. Marenich, 
 J. Bloino, B. G. Janesko, R. Gomperts, B. Mennucci, H. P. Hratchian, 
 J. V. Ortiz, A. F. Izmaylov, J. L. Sonnenberg, D. Williams-Young, 
 F. Ding, F. Lipparini, F. Egidi, J. Goings, B. Peng, A. Petrone, 
 T. Henderson, D. Ranasinghe, V. G. Zakrzewski, J. Gao, N. Rega, 
 G. Zheng, W. Liang, M. Hada, M. Ehara, K. Toyota, R. Fukuda, 
 J. Hasegawa, M. Ishida, T. Nakajima, Y. Honda, O. Kitao, H. Nakai, 
 T. Vreven, K. Throssell, J. A. Montgomery, Jr., J. E. Peralta, 
 F. Ogliaro, M. J. Bearpark, J. J. Heyd, E. N. Brothers, K. N. Kudin, 
 V. N. Staroverov, T. A. Keith, R. Kobayashi, J. Normand, 
 K. Raghavachari, A. P. Rendell, J. C. Burant, S. S. Iyengar, 
 J. Tomasi, M. Cossi, J. M. Millam, M. Klene, C. Adamo, R. Cammi, 
 J. W. Ochterski, R. L. Martin, K. Morokuma, O. Farkas, 
 J. B. Foresman, and D. J. Fox, Gaussian, Inc., Wallingford CT, 2016.
 
 ******************************************
 Gaussian 16:  ES64L-G16RevA.03 25-Dec-2016
                28-May-2023 
 ******************************************
 %chk=CC12CCC3C1CC32.chk
 %NProcShared=20
 Will use up to   20 processors via shared memory.
 -----------------------------
 # opt freq b3lyp/6-31g(2df,p)
 -----------------------------
 1/18=20,19=15,26=3,38=1/1,3;
 2/9=110,12=2,17=6,18=5,40=1/2;
 3/5=1,6=6,7=104,11=2,25=1,30=1,71=1,74=-5/1,2,3;
 4//1;
 5/5=2,38=5/2;
 6/7=2,8=2,9=2,10=2,28=1/1;
 7//1,2,3,16;
 1/18=20,19=15,26=3/3(2);
 2/9=110/2;
 99//99;
 2/9=110/2;
 3/5=1,6=6,7=104,11=2,25=1,30=1,71=1,74=-5/1,2,3;
 4/5=5,16=3,69=1/1;
 5/5=2,38=5/2;
 7//1,2,3,16;
 1/18=20,19=15,26=3/3(-5);
 2/9=110/2;
 6/7=2,8=2,9=2,10=2,19=2,28=1/1;
 99/9=1/99;
 -------------------
 Title Card Required
 -------------------
 Symbolic Z-matrix:
 Charge =  0 Multiplicity = 1
 C                     0.9793   -0.04129   0.04586 
 C                     2.48889  -0.10571   0.14531 
 C                     3.01557  -1.53749   0.01597 
 C                     4.50925  -1.30775   0.0286 
 C                     4.53805   0.18903   0.15895 
 C                     3.37395   0.93385  -0.66222 
 C                     3.01824   1.96942   0.51079 
 C                     3.41068   0.62569   1.22631 
 H                     0.62201  -0.65594  -0.78932 
 H                     0.59925   0.96737  -0.13695 
 H                     0.51486  -0.41959   0.96101 
 H                     2.69182  -2.02042  -0.91143 
 H                     2.69674  -2.15525   0.8629 
 H                     4.98763  -1.66439  -0.88753 
 H                     4.98446  -1.79343   0.88681 
 H                     5.49807   0.70655   0.19529 
 H                     3.3131    1.06929  -1.73132 
 H                     2.00024   2.32833   0.66151 
 H                     3.73134   2.78136   0.67525 
 H                     3.40307   0.39944   2.28046 
 

 GradGradGradGradGradGradGradGradGradGradGradGradGradGradGradGradGradGrad
 Berny optimization.
 Initialization pass.
                           ----------------------------
                           !    Initial Parameters    !
                           ! (Angstroms and Degrees)  !
 --------------------------                            --------------------------
 ! Name  Definition              Value          Derivative Info.                !
 --------------------------------------------------------------------------------
 ! R1    R(1,2)                  1.5142         estimate D2E/DX2                !
 ! R2    R(1,9)                  1.0968         estimate D2E/DX2                !
 ! R3    R(1,10)                 1.0933         estimate D2E/DX2                !
 ! R4    R(1,11)                 1.0938         estimate D2E/DX2                !
 ! R5    R(2,3)                  1.5311         estimate D2E/DX2                !
 ! R6    R(2,6)                  1.5862         estimate D2E/DX2                !
 ! R7    R(2,8)                  1.5979         estimate D2E/DX2                !
 ! R8    R(3,4)                  1.5113         estimate D2E/DX2                !
 ! R9    R(3,12)                 1.0946         estimate D2E/DX2                !
 ! R10   R(3,13)                 1.0957         estimate D2E/DX2                !
 ! R11   R(4,5)                  1.5027         estimate D2E/DX2                !
 ! R12   R(4,14)                 1.0933         estimate D2E/DX2                !
 ! R13   R(4,15)                 1.0946         estimate D2E/DX2                !
 ! R14   R(5,6)                  1.6075         estimate D2E/DX2                !
 ! R15   R(5,8)                  1.6127         estimate D2E/DX2                !
 ! R16   R(5,16)                 1.0912         estimate D2E/DX2                !
 ! R17   R(6,7)                  1.6046         estimate D2E/DX2                !
 ! R18   R(6,17)                 1.0794         estimate D2E/DX2                !
 ! R19   R(7,8)                  1.5721         estimate D2E/DX2                !
 ! R20   R(7,18)                 1.0899         estimate D2E/DX2                !
 ! R21   R(7,19)                 1.0931         estimate D2E/DX2                !
 ! R22   R(8,20)                 1.0782         estimate D2E/DX2                !
 ! A1    A(2,1,9)              110.544          estimate D2E/DX2                !
 ! A2    A(2,1,10)             113.3777         estimate D2E/DX2                !
 ! A3    A(2,1,11)             110.7112         estimate D2E/DX2                !
 ! A4    A(9,1,10)             106.049          estimate D2E/DX2                !
 ! A5    A(9,1,11)             107.7563         estimate D2E/DX2                !
 ! A6    A(10,1,11)            108.1435         estimate D2E/DX2                !
 ! A7    A(1,2,3)              112.1592         estimate D2E/DX2                !
 ! A8    A(1,2,6)              119.6656         estimate D2E/DX2                !
 ! A9    A(1,2,8)              126.8752         estimate D2E/DX2                !
 ! A10   A(3,2,6)              112.2053         estimate D2E/DX2                !
 ! A11   A(3,2,8)              106.664          estimate D2E/DX2                !
 ! A12   A(6,2,8)               73.8917         estimate D2E/DX2                !
 ! A13   A(2,3,4)              101.3689         estimate D2E/DX2                !
 ! A14   A(2,3,12)             112.4839         estimate D2E/DX2                !
 ! A15   A(2,3,13)             111.2139         estimate D2E/DX2                !
 ! A16   A(4,3,12)             111.4985         estimate D2E/DX2                !
 ! A17   A(4,3,13)             111.5206         estimate D2E/DX2                !
 ! A18   A(12,3,13)            108.6679         estimate D2E/DX2                !
 ! A19   A(3,4,5)               99.8507         estimate D2E/DX2                !
 ! A20   A(3,4,14)             112.0775         estimate D2E/DX2                !
 ! A21   A(3,4,15)             111.6027         estimate D2E/DX2                !
 ! A22   A(5,4,14)             112.9054         estimate D2E/DX2                !
 ! A23   A(5,4,15)             111.445          estimate D2E/DX2                !
 ! A24   A(14,4,15)            108.8003         estimate D2E/DX2                !
 ! A25   A(4,5,6)              113.7851         estimate D2E/DX2                !
 ! A26   A(4,5,8)              108.2824         estimate D2E/DX2                !
 ! A27   A(4,5,16)             119.4805         estimate D2E/DX2                !
 ! A28   A(6,5,8)               72.9275         estimate D2E/DX2                !
 ! A29   A(6,5,16)             115.744          estimate D2E/DX2                !
 ! A30   A(8,5,16)             117.6806         estimate D2E/DX2                !
 ! A31   A(2,6,5)               80.8132         estimate D2E/DX2                !
 ! A32   A(2,6,7)               85.82           estimate D2E/DX2                !
 ! A33   A(2,6,17)             123.7127         estimate D2E/DX2                !
 ! A34   A(5,6,7)               94.9405         estimate D2E/DX2                !
 ! A35   A(5,6,17)             127.2237         estimate D2E/DX2                !
 ! A36   A(7,6,17)             129.093          estimate D2E/DX2                !
 ! A37   A(6,7,8)               74.0837         estimate D2E/DX2                !
 ! A38   A(6,7,18)             121.377          estimate D2E/DX2                !
 ! A39   A(6,7,19)             116.4069         estimate D2E/DX2                !
 ! A40   A(8,7,18)             116.8519         estimate D2E/DX2                !
 ! A41   A(8,7,19)             113.8012         estimate D2E/DX2                !
 ! A42   A(18,7,19)            110.1166         estimate D2E/DX2                !
 ! A43   A(2,8,5)               80.3044         estimate D2E/DX2                !
 ! A44   A(2,8,7)               86.5214         estimate D2E/DX2                !
 ! A45   A(2,8,20)             124.1471         estimate D2E/DX2                !
 ! A46   A(5,8,7)               96.0099         estimate D2E/DX2                !
 ! A47   A(5,8,20)             126.5268         estimate D2E/DX2                !
 ! A48   A(7,8,20)             128.5047         estimate D2E/DX2                !
 ! D1    D(9,1,2,3)            -45.4221         estimate D2E/DX2                !
 ! D2    D(9,1,2,6)             89.133          estimate D2E/DX2                !
 ! D3    D(9,1,2,8)           -179.2557         estimate D2E/DX2                !
 ! D4    D(10,1,2,3)          -164.3456         estimate D2E/DX2                !
 ! D5    D(10,1,2,6)           -29.7905         estimate D2E/DX2                !
 ! D6    D(10,1,2,8)            61.8208         estimate D2E/DX2                !
 ! D7    D(11,1,2,3)            73.9103         estimate D2E/DX2                !
 ! D8    D(11,1,2,6)          -151.5346         estimate D2E/DX2                !
 ! D9    D(11,1,2,8)           -59.9233         estimate D2E/DX2                !
 ! D10   D(1,2,3,4)            175.3997         estimate D2E/DX2                !
 ! D11   D(1,2,3,12)            56.2047         estimate D2E/DX2                !
 ! D12   D(1,2,3,13)           -65.9526         estimate D2E/DX2                !
 ! D13   D(6,2,3,4)             37.3725         estimate D2E/DX2                !
 ! D14   D(6,2,3,12)           -81.8225         estimate D2E/DX2                !
 ! D15   D(6,2,3,13)           156.0202         estimate D2E/DX2                !
 ! D16   D(8,2,3,4)            -41.6379         estimate D2E/DX2                !
 ! D17   D(8,2,3,12)          -160.8329         estimate D2E/DX2                !
 ! D18   D(8,2,3,13)            77.0098         estimate D2E/DX2                !
 ! D19   D(1,2,6,5)            174.7654         estimate D2E/DX2                !
 ! D20   D(1,2,6,7)             79.0669         estimate D2E/DX2                !
 ! D21   D(1,2,6,17)           -56.2756         estimate D2E/DX2                !
 ! D22   D(3,2,6,5)            -50.6986         estimate D2E/DX2                !
 ! D23   D(3,2,6,7)           -146.3971         estimate D2E/DX2                !
 ! D24   D(3,2,6,17)            78.2603         estimate D2E/DX2                !
 ! D25   D(8,2,6,5)             51.1016         estimate D2E/DX2                !
 ! D26   D(8,2,6,7)            -44.5968         estimate D2E/DX2                !
 ! D27   D(8,2,6,17)          -179.9394         estimate D2E/DX2                !
 ! D28   D(1,2,8,5)           -166.2786         estimate D2E/DX2                !
 ! D29   D(1,2,8,7)            -69.5711         estimate D2E/DX2                !
 ! D30   D(1,2,8,20)            65.8619         estimate D2E/DX2                !
 ! D31   D(3,2,8,5)             57.9372         estimate D2E/DX2                !
 ! D32   D(3,2,8,7)            154.6446         estimate D2E/DX2                !
 ! D33   D(3,2,8,20)           -69.9223         estimate D2E/DX2                !
 ! D34   D(6,2,8,5)            -50.9782         estimate D2E/DX2                !
 ! D35   D(6,2,8,7)             45.7292         estimate D2E/DX2                !
 ! D36   D(6,2,8,20)          -178.8378         estimate D2E/DX2                !
 ! D37   D(2,3,4,5)             -0.0724         estimate D2E/DX2                !
 ! D38   D(2,3,4,14)          -119.8557         estimate D2E/DX2                !
 ! D39   D(2,3,4,15)           117.8238         estimate D2E/DX2                !
 ! D40   D(12,3,4,5)           119.8246         estimate D2E/DX2                !
 ! D41   D(12,3,4,14)            0.0413         estimate D2E/DX2                !
 ! D42   D(12,3,4,15)         -122.2792         estimate D2E/DX2                !
 ! D43   D(13,3,4,5)          -118.4995         estimate D2E/DX2                !
 ! D44   D(13,3,4,14)          121.7173         estimate D2E/DX2                !
 ! D45   D(13,3,4,15)           -0.6032         estimate D2E/DX2                !
 ! D46   D(3,4,5,6)            -37.157          estimate D2E/DX2                !
 ! D47   D(3,4,5,8)             41.7574         estimate D2E/DX2                !
 ! D48   D(3,4,5,16)          -179.7583         estimate D2E/DX2                !
 ! D49   D(14,4,5,6)            82.0199         estimate D2E/DX2                !
 ! D50   D(14,4,5,8)           160.9343         estimate D2E/DX2                !
 ! D51   D(14,4,5,16)          -60.5814         estimate D2E/DX2                !
 ! D52   D(15,4,5,6)          -155.1704         estimate D2E/DX2                !
 ! D53   D(15,4,5,8)           -76.2561         estimate D2E/DX2                !
 ! D54   D(15,4,5,16)           62.2283         estimate D2E/DX2                !
 ! D55   D(4,5,6,2)             52.0985         estimate D2E/DX2                !
 ! D56   D(4,5,6,7)            137.0446         estimate D2E/DX2                !
 ! D57   D(4,5,6,17)           -73.5789         estimate D2E/DX2                !
 ! D58   D(8,5,6,2)            -50.8022         estimate D2E/DX2                !
 ! D59   D(8,5,6,7)             34.1439         estimate D2E/DX2                !
 ! D60   D(8,5,6,17)          -176.4796         estimate D2E/DX2                !
 ! D61   D(16,5,6,2)          -163.8445         estimate D2E/DX2                !
 ! D62   D(16,5,6,7)           -78.8984         estimate D2E/DX2                !
 ! D63   D(16,5,6,17)           70.4781         estimate D2E/DX2                !
 ! D64   D(4,5,8,2)            -59.6564         estimate D2E/DX2                !
 ! D65   D(4,5,8,7)           -145.0747         estimate D2E/DX2                !
 ! D66   D(4,5,8,20)            65.9418         estimate D2E/DX2                !
 ! D67   D(6,5,8,2)             50.395          estimate D2E/DX2                !
 ! D68   D(6,5,8,7)            -35.0232         estimate D2E/DX2                !
 ! D69   D(6,5,8,20)           175.9932         estimate D2E/DX2                !
 ! D70   D(16,5,8,2)           161.0041         estimate D2E/DX2                !
 ! D71   D(16,5,8,7)            75.5859         estimate D2E/DX2                !
 ! D72   D(16,5,8,20)          -73.3977         estimate D2E/DX2                !
 ! D73   D(2,6,7,8)             45.4735         estimate D2E/DX2                !
 ! D74   D(2,6,7,18)           -66.6273         estimate D2E/DX2                !
 ! D75   D(2,6,7,19)           154.5567         estimate D2E/DX2                !
 ! D76   D(5,6,7,8)            -34.9134         estimate D2E/DX2                !
 ! D77   D(5,6,7,18)          -147.0142         estimate D2E/DX2                !
 ! D78   D(5,6,7,19)            74.1698         estimate D2E/DX2                !
 ! D79   D(17,6,7,8)           176.595          estimate D2E/DX2                !
 ! D80   D(17,6,7,18)           64.4942         estimate D2E/DX2                !
 ! D81   D(17,6,7,19)          -74.3218         estimate D2E/DX2                !
 ! D82   D(6,7,8,2)            -45.0035         estimate D2E/DX2                !
 ! D83   D(6,7,8,5)             34.8563         estimate D2E/DX2                !
 ! D84   D(6,7,8,20)          -177.09           estimate D2E/DX2                !
 ! D85   D(18,7,8,2)            72.544          estimate D2E/DX2                !
 ! D86   D(18,7,8,5)           152.4039         estimate D2E/DX2                !
 ! D87   D(18,7,8,20)          -59.5425         estimate D2E/DX2                !
 ! D88   D(19,7,8,2)          -157.3175         estimate D2E/DX2                !
 ! D89   D(19,7,8,5)           -77.4577         estimate D2E/DX2                !
 ! D90   D(19,7,8,20)           70.5959         estimate D2E/DX2                !
 --------------------------------------------------------------------------------
 Trust Radius=3.00D-01 FncErr=1.00D-07 GrdErr=1.00D-06 EigMax=2.50D+02 EigMin=1.00D-04
 Number of steps in this run=    120 maximum allowed number of steps=    120.
 GradGradGradGradGradGradGradGradGradGradGradGradGradGradGradGradGradGrad

                          Input orientation:                          
 ---------------------------------------------------------------------
 Center     Atomic      Atomic             Coordinates (Angstroms)
 Number     Number       Type             X           Y           Z
 ---------------------------------------------------------------------
      1          6           0        0.979300   -0.041290    0.045860
      2          6           0        2.488890   -0.105710    0.145310
      3          6           0        3.015570   -1.537490    0.015970
      4          6           0        4.509250   -1.307750    0.028600
      5          6           0        4.538050    0.189030    0.158950
      6          6           0        3.373950    0.933850   -0.662220
      7          6           0        3.018240    1.969420    0.510790
      8          6           0        3.410680    0.625690    1.226310
      9          1           0        0.622010   -0.655940   -0.789320
     10          1           0        0.599250    0.967370   -0.136950
     11          1           0        0.514860   -0.419590    0.961010
     12          1           0        2.691820   -2.020420   -0.911430
     13          1           0        2.696740   -2.155250    0.862900
     14          1           0        4.987630   -1.664390   -0.887530
     15          1           0        4.984460   -1.793430    0.886810
     16          1           0        5.498070    0.706550    0.195290
     17          1           0        3.313100    1.069290   -1.731320
     18          1           0        2.000240    2.328330    0.661510
     19          1           0        3.731340    2.781360    0.675250
     20          1           0        3.403070    0.399440    2.280460
 ---------------------------------------------------------------------
                    Distance matrix (angstroms):
                    1          2          3          4          5
     1  C    0.000000
     2  C    1.514233   0.000000
     3  C    2.527035   1.531050   0.000000
     4  C    3.750302   2.353800   1.511297   0.000000
     5  C    3.567988   2.070293   2.306352   1.502721   0.000000
     6  C    2.680788   1.586229   2.587644   2.605937   1.607547
     7  C    2.901102   2.172545   3.541648   3.632556   2.367151
     8  C    2.783870   1.597875   2.510056   2.525778   1.612728
     9  H    1.096803   2.159057   2.674837   4.025479   4.116863
    10  H    1.093276   2.191326   3.483721   4.526773   4.025856
    11  H    1.093762   2.158861   2.897646   4.196828   4.147261
    12  H    2.786770   2.196359   1.094580   2.166704   3.071799
    13  H    2.843586   2.181456   1.095705   2.167834   3.062943
    14  H    4.424068   3.120888   2.172887   1.093313   2.175410
    15  H    4.451797   3.102594   2.168040   1.094639   2.158520
    16  H    4.582671   3.117279   3.351220   2.250101   1.091231
    17  H    3.136619   2.362559   3.152277   3.190362   2.418363
    18  H    2.652629   2.535703   4.048726   4.462822   3.357030
    19  H    3.992143   3.187427   4.427126   4.212377   2.763607
    20  H    3.326010   2.376924   3.004957   3.034634   2.415214
                    6          7          8          9         10
     6  C    0.000000
     7  C    1.604646   0.000000
     8  C    1.913859   1.572129   0.000000
     9  H    3.180686   3.784801   3.671787   0.000000
    10  H    2.824180   2.697255   3.143145   1.749640   0.000000
    11  H    3.555428   3.489553   3.090108   1.769463   1.770959
    12  H    3.042223   4.248304   3.476865   2.482102   3.729016
    13  H    3.511003   4.152138   2.894029   3.046681   3.892290
    14  H    3.066852   4.363298   3.492786   4.481658   5.171790
    15  H    3.525804   4.262212   2.905888   4.809809   5.282061
    16  H    2.301928   2.800703   2.329536   5.157693   4.916996
    17  H    1.079362   2.433975   2.992303   3.332529   3.149188
    18  H    2.363031   1.089888   2.281956   3.593090   2.110100
    19  H    2.308646   1.093071   2.247978   4.860857   3.709477
    20  H    2.990954   2.396803   1.078183   4.274538   3.745373
                   11         12         13         14         15
    11  H    0.000000
    12  H    3.287528   0.000000
    13  H    2.789757   1.779452   0.000000
    14  H    4.997229   2.323375   2.924573   0.000000
    15  H    4.676566   2.922566   2.316279   1.779029   0.000000
    16  H    5.165937   4.066477   4.059933   2.656013   2.644219
    17  H    4.158792   3.256458   4.184201   3.314972   4.224123
    18  H    3.138012   4.675901   4.541823   5.221670   5.093646
    19  H    4.546810   5.162872   5.047349   4.877011   4.748028
    20  H    3.279255   4.068140   3.005798   4.099559   3.041666
                   16         17         18         19         20
    16  H    0.000000
    17  H    2.935558   0.000000
    18  H    3.883600   3.005731   0.000000
    19  H    2.767044   2.982899   1.789450   0.000000
    20  H    2.971746   4.068313   2.882629   2.891021   0.000000
 Stoichiometry    C8H12
 Framework group  C1[X(C8H12)]
 Deg. of freedom    54
 Full point group                 C1      NOp   1
 Largest Abelian subgroup         C1      NOp   1
 Largest concise Abelian subgroup C1      NOp   1
                         Standard orientation:                         
 ---------------------------------------------------------------------
 Center     Atomic      Atomic             Coordinates (Angstroms)
 Number     Number       Type             X           Y           Z
 ---------------------------------------------------------------------
      1          6           0        1.474542    1.557695   -0.024460
      2          6           0        0.338473    0.557389    0.015997
      3          6           0       -1.030911    1.240420    0.064680
      4          6           0       -1.960034    0.051560   -0.021125
      5          6           0       -0.950372   -1.058454   -0.102509
      6          6           0        0.352955   -0.687261   -0.967241
      7          6           0        1.393941   -1.340930    0.064240
      8          6           0        0.236297   -0.740570    0.942316
      9          1           0        1.261404    2.353105   -0.748941
     10          1           0        2.428321    1.118816   -0.329327
     11          1           0        1.612515    2.026133    0.954235
     12          1           0       -1.184375    1.930598   -0.770910
     13          1           0       -1.166793    1.789860    1.002881
     14          1           0       -2.610174    0.100619   -0.898761
     15          1           0       -2.582750   -0.038734    0.874590
     16          1           0       -1.293124   -2.091452   -0.181397
     17          1           0        0.421498   -0.601695   -2.041020
     18          1           0        2.389419   -0.921266    0.208331
     19          1           0        1.440121   -2.432882    0.081914
     20          1           0        0.154589   -0.712196    2.017024
 ---------------------------------------------------------------------
 Rotational constants (GHZ):           3.0836008           2.6018254           1.7575773
 Standard basis: 6-31G(2df,p) (6D, 7F)
 There are   308 symmetry adapted cartesian basis functions of A   symmetry.
 There are   284 symmetry adapted basis functions of A   symmetry.
   284 basis functions,   436 primitive gaussians,   308 cartesian basis functions
    30 alpha electrons       30 beta electrons
       nuclear repulsion energy       388.9471929674 Hartrees.
 NAtoms=   20 NActive=   20 NUniq=   20 SFac= 1.00D+00 NAtFMM=   60 NAOKFM=F Big=F
 Integral buffers will be    131072 words long.
 Raffenetti 2 integral format.
 Two-electron integral symmetry is turned on.
 One-electron integrals computed using PRISM.
 PrsmSu:  requested number of processors reduced to:  13 ShMem   1 Linda.
 NBasis=   284 RedAO= T EigKep=  3.60D-04  NBF=   284
 NBsUse=   284 1.00D-06 EigRej= -1.00D+00 NBFU=   284
 ExpMin= 1.61D-01 ExpMax= 3.05D+03 ExpMxC= 4.57D+02 IAcc=3 IRadAn=         5 AccDes= 0.00D+00
 Harris functional with IExCor=  402 and IRadAn=       5 diagonalized for initial guess.
 HarFok:  IExCor=  402 AccDes= 0.00D+00 IRadAn=         5 IDoV= 1 UseB2=F ITyADJ=14
 ICtDFT=  3500011 ScaDFX=  1.000000  1.000000  1.000000  1.000000
 FoFCou: FMM=F IPFlag=           0 FMFlag=      100000 FMFlg1=           0
         NFxFlg=           0 DoJE=T BraDBF=F KetDBF=T FulRan=T
         wScrn=  0.000000 ICntrl=       500 IOpCl=  0 I1Cent=   200000004 NGrid=           0
         NMat0=    1 NMatS0=      1 NMatT0=    0 NMatD0=    1 NMtDS0=    0 NMtDT0=    0
 Petite list used in FoFCou.
 Requested convergence on RMS density matrix=1.00D-08 within 128 cycles.
 Requested convergence on MAX density matrix=1.00D-06.
 Requested convergence on             energy=1.00D-06.
 No special actions if energy rises.
 Integral accuracy reduced to 1.0D-05 until final iterations.
 Initial convergence to 1.0D-05 achieved.  Increase integral accuracy.
 SCF Done:  E(RB3LYP) =  -312.004074966     A.U. after   12 cycles
            NFock= 12  Conv=0.57D-08     -V/T= 2.0091

 **********************************************************************

            Population analysis using the SCF density.

 **********************************************************************

 Orbital symmetries:
       Occupied  (A) (A) (A) (A) (A) (A) (A) (A) (A) (A) (A) (A)
                 (A) (A) (A) (A) (A) (A) (A) (A) (A) (A) (A) (A)
                 (A) (A) (A) (A) (A) (A)
       Virtual   (A) (A) (A) (A) (A) (A) (A) (A) (A) (A) (A) (A)
                 (A) (A) (A) (A) (A) (A) (A) (A) (A) (A) (A) (A)
                 (A) (A) (A) (A) (A) (A) (A) (A) (A) (A) (A) (A)
                 (A) (A) (A) (A) (A) (A) (A) (A) (A) (A) (A) (A)
                 (A) (A) (A) (A) (A) (A) (A) (A) (A) (A) (A) (A)
                 (A) (A) (A) (A) (A) (A) (A) (A) (A) (A) (A) (A)
                 (A) (A) (A) (A) (A) (A) (A) (A) (A) (A) (A) (A)
                 (A) (A) (A) (A) (A) (A) (A) (A) (A) (A) (A) (A)
                 (A) (A) (A) (A) (A) (A) (A) (A) (A) (A) (A) (A)
                 (A) (A) (A) (A) (A) (A) (A) (A) (A) (A) (A) (A)
                 (A) (A) (A) (A) (A) (A) (A) (A) (A) (A) (A) (A)
                 (A) (A) (A) (A) (A) (A) (A) (A) (A) (A) (A) (A)
                 (A) (A) (A) (A) (A) (A) (A) (A) (A) (A) (A) (A)
                 (A) (A) (A) (A) (A) (A) (A) (A) (A) (A) (A) (A)
                 (A) (A) (A) (A) (A) (A) (A) (A) (A) (A) (A) (A)
                 (A) (A) (A) (A) (A) (A) (A) (A) (A) (A) (A) (A)
                 (A) (A) (A) (A) (A) (A) (A) (A) (A) (A) (A) (A)
                 (A) (A) (A) (A) (A) (A) (A) (A) (A) (A) (A) (A)
                 (A) (A) (A) (A) (A) (A) (A) (A) (A) (A) (A) (A)
                 (A) (A) (A) (A) (A) (A) (A) (A) (A) (A) (A) (A)
                 (A) (A) (A) (A) (A) (A) (A) (A) (A) (A) (A) (A)
                 (A) (A)
 The electronic state is 1-A.
 Alpha  occ. eigenvalues --  -10.19389 -10.19074 -10.18920 -10.18861 -10.18404
 Alpha  occ. eigenvalues --  -10.17054 -10.16688 -10.16558  -0.90046  -0.76815
 Alpha  occ. eigenvalues --   -0.73257  -0.64493  -0.62953  -0.61685  -0.54735
 Alpha  occ. eigenvalues --   -0.50021  -0.48164  -0.45812  -0.45152  -0.42625
 Alpha  occ. eigenvalues --   -0.40785  -0.37315  -0.35314  -0.33426  -0.32882
 Alpha  occ. eigenvalues --   -0.31291  -0.30515  -0.28715  -0.28198  -0.26592
 Alpha virt. eigenvalues --    0.09553   0.10561   0.11231   0.12804   0.13321
 Alpha virt. eigenvalues --    0.14807   0.15505   0.15672   0.16482   0.17103
 Alpha virt. eigenvalues --    0.18009   0.18427   0.19602   0.20428   0.21366
 Alpha virt. eigenvalues --    0.22964   0.24315   0.25325   0.26611   0.26788
 Alpha virt. eigenvalues --    0.29412   0.34892   0.43756   0.45040   0.45263
 Alpha virt. eigenvalues --    0.46679   0.47825   0.48995   0.49928   0.51810
 Alpha virt. eigenvalues --    0.54071   0.56254   0.57381   0.59522   0.61114
 Alpha virt. eigenvalues --    0.62339   0.63449   0.65638   0.67183   0.67811
 Alpha virt. eigenvalues --    0.69502   0.71190   0.72317   0.73446   0.73991
 Alpha virt. eigenvalues --    0.74765   0.75423   0.76304   0.77632   0.77945
 Alpha virt. eigenvalues --    0.78205   0.80480   0.81065   0.84298   0.86609
 Alpha virt. eigenvalues --    0.87326   0.88247   0.91016   0.96828   0.99167
 Alpha virt. eigenvalues --    1.02252   1.07411   1.10793   1.11533   1.15756
 Alpha virt. eigenvalues --    1.17518   1.21498   1.24325   1.26182   1.30438
 Alpha virt. eigenvalues --    1.30858   1.33112   1.36622   1.37812   1.38401
 Alpha virt. eigenvalues --    1.40011   1.41788   1.42366   1.43606   1.48205
 Alpha virt. eigenvalues --    1.48684   1.49912   1.51638   1.53486   1.55484
 Alpha virt. eigenvalues --    1.57065   1.60089   1.63658   1.64059   1.65317
 Alpha virt. eigenvalues --    1.65871   1.69036   1.71257   1.73413   1.75559
 Alpha virt. eigenvalues --    1.77079   1.82514   1.84521   1.86642   1.90341
 Alpha virt. eigenvalues --    1.91769   1.97927   1.98913   2.01204   2.06797
 Alpha virt. eigenvalues --    2.11738   2.20309   2.21316   2.28265   2.29275
 Alpha virt. eigenvalues --    2.31645   2.33918   2.35951   2.38277   2.39343
 Alpha virt. eigenvalues --    2.40682   2.43185   2.45680   2.50055   2.50685
 Alpha virt. eigenvalues --    2.52786   2.56737   2.57996   2.59633   2.64415
 Alpha virt. eigenvalues --    2.65776   2.70468   2.72154   2.73136   2.75607
 Alpha virt. eigenvalues --    2.79581   2.80766   2.83792   2.85148   2.89560
 Alpha virt. eigenvalues --    2.90483   2.91837   2.93549   2.94222   2.96140
 Alpha virt. eigenvalues --    2.98168   3.00484   3.03046   3.04950   3.05702
 Alpha virt. eigenvalues --    3.08815   3.09788   3.11662   3.14825   3.17578
 Alpha virt. eigenvalues --    3.19190   3.19575   3.21735   3.22566   3.24463
 Alpha virt. eigenvalues --    3.28677   3.30178   3.32393   3.37845   3.40132
 Alpha virt. eigenvalues --    3.41887   3.43584   3.46673   3.48195   3.51814
 Alpha virt. eigenvalues --    3.56494   3.58011   3.60958   3.61532   3.65838
 Alpha virt. eigenvalues --    3.67321   3.70545   3.73875   3.74660   3.77064
 Alpha virt. eigenvalues --    3.81140   3.82421   3.83960   3.87646   3.90372
 Alpha virt. eigenvalues --    3.91830   3.96415   3.97606   4.02905   4.05960
 Alpha virt. eigenvalues --    4.09396   4.12162   4.19592   4.23341   4.26664
 Alpha virt. eigenvalues --    4.31361   4.34942   4.36953   4.39851   4.41030
 Alpha virt. eigenvalues --    4.42899   4.45835   4.47029   4.50888   4.53391
 Alpha virt. eigenvalues --    4.57791   4.58280   4.60035   4.61606   4.64529
 Alpha virt. eigenvalues --    4.64817   4.66039   4.68673   4.70400   4.72381
 Alpha virt. eigenvalues --    4.73824   4.76012   4.76766   4.78328   4.79149
 Alpha virt. eigenvalues --    4.79949   4.81454   4.83504   4.83925   4.87409
 Alpha virt. eigenvalues --    4.90868   4.91733   4.95095   4.98139   4.99961
 Alpha virt. eigenvalues --    5.02702   5.06406   5.07563   5.15765   5.16945
 Alpha virt. eigenvalues --    5.21000   5.26840   5.33616   5.42454   5.44438
 Alpha virt. eigenvalues --    5.49142   5.51199   5.54855   5.57885   5.60561
 Alpha virt. eigenvalues --    5.70722   5.77615   5.88109   6.01671   7.01841
 Alpha virt. eigenvalues --    7.25857  10.83150  11.55200  11.82566  11.88603
 Alpha virt. eigenvalues --   11.99668  12.18980  12.84043  13.02728
          Condensed to atoms (all electrons):
               1          2          3          4          5          6
     1  C    5.222326   0.371352  -0.073566   0.009316   0.007189  -0.058655
     2  C    0.371352   4.320418   0.413967  -0.051837  -0.011526   0.355007
     3  C   -0.073566   0.413967   5.067866   0.350544  -0.053268  -0.050458
     4  C    0.009316  -0.051837   0.350544   4.913568   0.431499  -0.020120
     5  C    0.007189  -0.011526  -0.053268   0.431499   4.772991   0.325662
     6  C   -0.058655   0.355007  -0.050458  -0.020120   0.325662   5.012141
     7  C    0.000973  -0.022297   0.009336   0.003636  -0.013593   0.330622
     8  C   -0.048774   0.352969  -0.058194  -0.025117   0.333833  -0.063977
     9  H    0.361042  -0.012353  -0.009432   0.000143  -0.000204  -0.001259
    10  H    0.354795  -0.010717   0.006446  -0.000327   0.000325  -0.007994
    11  H    0.357911  -0.013124  -0.000223  -0.000118  -0.000215   0.005596
    12  H   -0.003216  -0.018045   0.349027  -0.025590   0.001489  -0.003554
    13  H    0.000531  -0.019151   0.353638  -0.025056   0.000551   0.005613
    14  H   -0.000087   0.001126  -0.023224   0.361949  -0.024502  -0.003321
    15  H   -0.000190   0.000052  -0.022522   0.361304  -0.022720   0.003374
    16  H   -0.000611   0.003714   0.008740  -0.052938   0.351849  -0.036765
    17  H   -0.000516  -0.034142  -0.000836   0.000567  -0.038219   0.347385
    18  H    0.001837  -0.011629   0.000476  -0.000284   0.005454  -0.020931
    19  H    0.000087   0.002771  -0.000620   0.000026  -0.010105  -0.015470
    20  H   -0.000679  -0.033987  -0.000336   0.001046  -0.041421   0.013462
               7          8          9         10         11         12
     1  C    0.000973  -0.048774   0.361042   0.354795   0.357911  -0.003216
     2  C   -0.022297   0.352969  -0.012353  -0.010717  -0.013124  -0.018045
     3  C    0.009336  -0.058194  -0.009432   0.006446  -0.000223   0.349027
     4  C    0.003636  -0.025117   0.000143  -0.000327  -0.000118  -0.025590
     5  C   -0.013593   0.333833  -0.000204   0.000325  -0.000215   0.001489
     6  C    0.330622  -0.063977  -0.001259  -0.007994   0.005596  -0.003554
     7  C    4.982951   0.330959  -0.000222   0.000507  -0.000249  -0.000354
     8  C    0.330959   4.997491   0.004817  -0.002022  -0.005744   0.006410
     9  H   -0.000222   0.004817   0.604941  -0.033746  -0.033919   0.005644
    10  H    0.000507  -0.002022  -0.033746   0.609874  -0.033244  -0.000074
    11  H   -0.000249  -0.005744  -0.033919  -0.033244   0.607553  -0.000504
    12  H   -0.000354   0.006410   0.005644  -0.000074  -0.000504   0.652447
    13  H   -0.000235  -0.006274  -0.000406  -0.000139   0.002507  -0.044926
    14  H   -0.000169   0.003752  -0.000023   0.000007   0.000002  -0.011105
    15  H   -0.000088  -0.005094   0.000001   0.000005   0.000001   0.004806
    16  H   -0.002511  -0.031202   0.000008  -0.000003   0.000009  -0.000182
    17  H   -0.040110   0.012877   0.000924   0.000104  -0.000122   0.001192
    18  H    0.377669  -0.022850  -0.000246   0.005793  -0.000009  -0.000013
    19  H    0.348091  -0.017425   0.000002  -0.000343   0.000008   0.000011
    20  H   -0.041250   0.346016  -0.000064  -0.000082   0.001281  -0.000133
              13         14         15         16         17         18
     1  C    0.000531  -0.000087  -0.000190  -0.000611  -0.000516   0.001837
     2  C   -0.019151   0.001126   0.000052   0.003714  -0.034142  -0.011629
     3  C    0.353638  -0.023224  -0.022522   0.008740  -0.000836   0.000476
     4  C   -0.025056   0.361949   0.361304  -0.052938   0.000567  -0.000284
     5  C    0.000551  -0.024502  -0.022720   0.351849  -0.038219   0.005454
     6  C    0.005613  -0.003321   0.003374  -0.036765   0.347385  -0.020931
     7  C   -0.000235  -0.000169  -0.000088  -0.002511  -0.040110   0.377669
     8  C   -0.006274   0.003752  -0.005094  -0.031202   0.012877  -0.022850
     9  H   -0.000406  -0.000023   0.000001   0.000008   0.000924  -0.000246
    10  H   -0.000139   0.000007   0.000005  -0.000003   0.000104   0.005793
    11  H    0.002507   0.000002   0.000001   0.000009  -0.000122  -0.000009
    12  H   -0.044926  -0.011105   0.004806  -0.000182   0.001192  -0.000013
    13  H    0.647814   0.004788  -0.011744  -0.000222  -0.000127  -0.000014
    14  H    0.004788   0.639775  -0.044066   0.000069   0.000969   0.000008
    15  H   -0.011744  -0.044066   0.637812   0.000209  -0.000150   0.000009
    16  H   -0.000222   0.000069   0.000209   0.700217   0.000369  -0.000305
    17  H   -0.000127   0.000969  -0.000150   0.000369   0.685147   0.000273
    18  H   -0.000014   0.000008   0.000009  -0.000305   0.000273   0.603662
    19  H    0.000010  -0.000001  -0.000002   0.004437   0.001110  -0.049176
    20  H    0.002059  -0.000170   0.001915   0.000206  -0.000956   0.000120
              19         20
     1  C    0.000087  -0.000679
     2  C    0.002771  -0.033987
     3  C   -0.000620  -0.000336
     4  C    0.000026   0.001046
     5  C   -0.010105  -0.041421
     6  C   -0.015470   0.013462
     7  C    0.348091  -0.041250
     8  C   -0.017425   0.346016
     9  H    0.000002  -0.000064
    10  H   -0.000343  -0.000082
    11  H    0.000008   0.001281
    12  H    0.000011  -0.000133
    13  H    0.000010   0.002059
    14  H   -0.000001  -0.000170
    15  H   -0.000002   0.001915
    16  H    0.004437   0.000206
    17  H    0.001110  -0.000956
    18  H   -0.049176   0.000120
    19  H    0.651879   0.000790
    20  H    0.000790   0.691249
 Mulliken charges:
               1
     1  C   -0.501066
     2  C    0.417432
     3  C   -0.267360
     4  C   -0.232208
     5  C   -0.015069
     6  C   -0.116357
     7  C   -0.263666
     8  C   -0.102452
     9  H    0.114353
    10  H    0.110834
    11  H    0.112601
    12  H    0.086670
    13  H    0.090785
    14  H    0.094224
    15  H    0.097091
    16  H    0.054911
    17  H    0.064262
    18  H    0.110157
    19  H    0.083922
    20  H    0.060935
 Sum of Mulliken charges =  -0.00000
 Mulliken charges with hydrogens summed into heavy atoms:
               1
     1  C   -0.163278
     2  C    0.417432
     3  C   -0.089905
     4  C   -0.040893
     5  C    0.039842
     6  C   -0.052095
     7  C   -0.069586
     8  C   -0.041517
 Electronic spatial extent (au):  <R**2>=            827.6946
 Charge=             -0.0000 electrons
 Dipole moment (field-independent basis, Debye):
    X=             -0.0955    Y=              0.2809    Z=              0.0553  Tot=              0.3018
 Quadrupole moment (field-independent basis, Debye-Ang):
   XX=            -49.8029   YY=            -50.8118   ZZ=            -49.1506
   XY=             -0.0168   XZ=              0.0544   YZ=             -0.1759
 Traceless Quadrupole moment (field-independent basis, Debye-Ang):
   XX=              0.1189   YY=             -0.8901   ZZ=              0.7712
   XY=             -0.0168   XZ=              0.0544   YZ=             -0.1759
 Octapole moment (field-independent basis, Debye-Ang**2):
  XXX=              1.1812  YYY=              0.1908  ZZZ=              0.3995  XYY=             -0.9305
  XXY=             -0.5254  XXZ=              0.3193  XZZ=             -1.5308  YZZ=              2.2161
  YYZ=             -0.2463  XYZ=             -0.1784
 Hexadecapole moment (field-independent basis, Debye-Ang**3):
 XXXX=           -530.3454 YYYY=           -444.6338 ZZZZ=           -160.1243 XXXY=             -2.0295
 XXXZ=              0.5588 YYYX=              0.5839 YYYZ=             -1.5491 ZZZX=             -0.4371
 ZZZY=              0.2897 XXYY=           -168.0283 XXZZ=           -115.3002 YYZZ=           -101.9892
 XXYZ=             -0.6812 YYXZ=              0.9825 ZZXY=              0.1882
 N-N= 3.889471929674D+02 E-N=-1.499486790119D+03  KE= 3.091841797638D+02
 PrsmSu:  requested number of processors reduced to:  13 ShMem   1 Linda.
 Calling FoFJK, ICntrl=      2127 FMM=F ISym2X=0 I1Cent= 0 IOpClX= 0 NMat=1 NMatS=1 NMatT=0.
 ***** Axes restored to original set *****
 -------------------------------------------------------------------
 Center     Atomic                   Forces (Hartrees/Bohr)
 Number     Number              X              Y              Z
 -------------------------------------------------------------------
      1        6          -0.003324451    0.006213845    0.005028110
      2        6          -0.007028105   -0.008055961   -0.002270023
      3        6          -0.009409660   -0.003013142   -0.004690093
      4        6           0.010646276   -0.001933286   -0.003940401
      5        6          -0.011227287    0.057410997    0.014912627
      6        6          -0.012688720   -0.021824731    0.027548658
      7        6           0.047545567   -0.021016335   -0.002257077
      8        6          -0.017735373   -0.006406982   -0.031059372
      9        1           0.001944777   -0.000918634    0.001002973
     10        1          -0.000502482    0.000696002    0.002396011
     11        1          -0.002971823   -0.001144710    0.000295676
     12        1          -0.003757025   -0.001172842    0.001002590
     13        1          -0.003967444   -0.000367214   -0.001966996
     14        1           0.003483369   -0.000344724    0.000706430
     15        1           0.004283321    0.000959031   -0.001684519
     16        1           0.002193255   -0.001180545    0.002259781
     17        1           0.001469546    0.003881238   -0.008173041
     18        1          -0.000418272   -0.004284237   -0.005685192
     19        1           0.000147493    0.002751785   -0.003377246
     20        1           0.001317037   -0.000249555    0.009951104
 -------------------------------------------------------------------
 Cartesian Forces:  Max     0.057410997 RMS     0.012828620

 GradGradGradGradGradGradGradGradGradGradGradGradGradGradGradGradGradGrad
 Berny optimization.
 FormGI is forming the generalized inverse of G from B-inverse, IUseBI=4.
 Internal  Forces:  Max     0.021639096 RMS     0.005002530
 Search for a local minimum.
 Step number   1 out of a maximum of  120
 All quantities printed in internal units (Hartrees-Bohrs-Radians)
 Mixed Optimization -- RFO/linear search
 Second derivative matrix not updated -- first step.
 ITU=  0
     Eigenvalues ---    0.00578   0.00741   0.01683   0.01901   0.02036
     Eigenvalues ---    0.02391   0.02484   0.02536   0.03084   0.03305
     Eigenvalues ---    0.03717   0.03835   0.04093   0.04845   0.05413
     Eigenvalues ---    0.05656   0.05714   0.05832   0.05975   0.06281
     Eigenvalues ---    0.06491   0.06612   0.06717   0.07354   0.08040
     Eigenvalues ---    0.09640   0.10550   0.11439   0.12849   0.15738
     Eigenvalues ---    0.16000   0.16000   0.16000   0.16797   0.18852
     Eigenvalues ---    0.19566   0.19637   0.24051   0.27121   0.28659
     Eigenvalues ---    0.30929   0.31082   0.34038   0.34162   0.34282
     Eigenvalues ---    0.34289   0.34382   0.34433   0.34437   0.34460
     Eigenvalues ---    0.34671   0.34826   0.36072   0.36215
 RFO step:  Lambda=-2.91722745D-02 EMin= 5.77669476D-03
 Linear search not attempted -- first point.
 Iteration  1 RMS(Cart)=  0.06139346 RMS(Int)=  0.00265994
 Iteration  2 RMS(Cart)=  0.00273371 RMS(Int)=  0.00153452
 Iteration  3 RMS(Cart)=  0.00000266 RMS(Int)=  0.00153451
 Iteration  4 RMS(Cart)=  0.00000000 RMS(Int)=  0.00153451
 Variable       Old X    -DE/DX   Delta X   Delta X   Delta X     New X
                                 (Linear)    (Quad)   (Total)
    R1        2.86149   0.00447   0.00000   0.01321   0.01321   2.87470
    R2        2.07266  -0.00088   0.00000  -0.00239  -0.00239   2.07027
    R3        2.06599   0.00042   0.00000   0.00112   0.00112   2.06711
    R4        2.06691   0.00190   0.00000   0.00511   0.00511   2.07202
    R5        2.89327  -0.00039   0.00000   0.00285   0.00392   2.89718
    R6        2.99754  -0.00159   0.00000  -0.00848  -0.00999   2.98755
    R7        3.01955  -0.00212   0.00000  -0.01744  -0.01955   2.99999
    R8        2.85594   0.01905   0.00000   0.07540   0.07728   2.93322
    R9        2.06846   0.00078   0.00000   0.00210   0.00210   2.07056
   R10        2.07058  -0.00016   0.00000  -0.00043  -0.00043   2.07015
   R11        2.83973   0.00764   0.00000   0.02514   0.02475   2.86448
   R12        2.06606   0.00105   0.00000   0.00280   0.00280   2.06886
   R13        2.06857   0.00011   0.00000   0.00030   0.00030   2.06887
   R14        3.03782  -0.01628   0.00000  -0.06917  -0.06979   2.96803
   R15        3.04761  -0.01434   0.00000  -0.07156  -0.07269   2.97493
   R16        2.06213   0.00144   0.00000   0.00384   0.00384   2.06597
   R17        3.03234  -0.02164   0.00000  -0.08677  -0.08508   2.94726
   R18        2.03970   0.00850   0.00000   0.02180   0.02180   2.06149
   R19        2.97089  -0.01707   0.00000  -0.05231  -0.05110   2.91980
   R20        2.05959  -0.00181   0.00000  -0.00479  -0.00479   2.05481
   R21        2.06561   0.00163   0.00000   0.00437   0.00437   2.06997
   R22        2.03747   0.00977   0.00000   0.02498   0.02498   2.06245
    A1        1.92936  -0.00319   0.00000  -0.01750  -0.01744   1.91191
    A2        1.97881   0.00045   0.00000   0.00428   0.00426   1.98307
    A3        1.93228   0.00338   0.00000   0.01666   0.01666   1.94894
    A4        1.85090   0.00198   0.00000   0.01280   0.01283   1.86373
    A5        1.88070  -0.00084   0.00000  -0.00818  -0.00810   1.87260
    A6        1.88746  -0.00192   0.00000  -0.00891  -0.00897   1.87849
    A7        1.95755   0.00127   0.00000   0.03948   0.03951   1.99706
    A8        2.08856   0.00318   0.00000   0.02615   0.02742   2.11598
    A9        2.21439  -0.00169   0.00000  -0.03293  -0.03167   2.18272
   A10        1.95835  -0.00241   0.00000  -0.04891  -0.04950   1.90885
   A11        1.86164   0.00149   0.00000   0.00228   0.00191   1.86355
   A12        1.28965  -0.00359   0.00000  -0.01221  -0.01422   1.27543
   A13        1.76922  -0.00556   0.00000  -0.01595  -0.01575   1.75347
   A14        1.96321   0.00071   0.00000  -0.00350  -0.00323   1.95998
   A15        1.94105   0.00059   0.00000  -0.00874  -0.00888   1.93216
   A16        1.94602   0.00476   0.00000   0.03144   0.03062   1.97664
   A17        1.94640   0.00231   0.00000   0.01675   0.01723   1.96364
   A18        1.89661  -0.00267   0.00000  -0.01837  -0.01878   1.87784
   A19        1.74272   0.00018   0.00000   0.00916   0.00779   1.75051
   A20        1.95612   0.00207   0.00000   0.01819   0.01836   1.97448
   A21        1.94784   0.00138   0.00000   0.01581   0.01652   1.96435
   A22        1.97057  -0.00050   0.00000  -0.00641  -0.00640   1.96417
   A23        1.94508  -0.00130   0.00000  -0.01527  -0.01486   1.93022
   A24        1.89892  -0.00160   0.00000  -0.01857  -0.01917   1.87975
   A25        1.98592  -0.00524   0.00000  -0.05749  -0.05790   1.92803
   A26        1.88988  -0.00200   0.00000  -0.00778  -0.00773   1.88215
   A27        2.08533  -0.00057   0.00000   0.00388   0.00466   2.08999
   A28        1.27283   0.00299   0.00000   0.01580   0.01375   1.28658
   A29        2.02011   0.00370   0.00000   0.03469   0.03474   2.05485
   A30        2.05391   0.00228   0.00000   0.01309   0.01289   2.06680
   A31        1.41046   0.00724   0.00000   0.04843   0.04956   1.46002
   A32        1.49784   0.00288   0.00000   0.06119   0.06242   1.56027
   A33        2.15919  -0.00207   0.00000   0.00713   0.00607   2.16526
   A34        1.65702  -0.00941   0.00000  -0.09161  -0.09806   1.55896
   A35        2.22047   0.00302   0.00000   0.01523   0.01288   2.23335
   A36        2.25310   0.00077   0.00000  -0.00475  -0.00667   2.24643
   A37        1.29300   0.00522   0.00000   0.01635   0.01302   1.30602
   A38        2.11843  -0.00699   0.00000  -0.06048  -0.05998   2.05845
   A39        2.03168   0.00134   0.00000   0.01029   0.00996   2.04165
   A40        2.03945  -0.00481   0.00000  -0.01740  -0.01667   2.02278
   A41        1.98621   0.00338   0.00000   0.04492   0.04548   2.03168
   A42        1.92190   0.00250   0.00000   0.01295   0.01160   1.93350
   A43        1.40158   0.00674   0.00000   0.05098   0.05265   1.45423
   A44        1.51008   0.00162   0.00000   0.05387   0.05507   1.56516
   A45        2.16678  -0.00321   0.00000  -0.00480  -0.00636   2.16041
   A46        1.67569  -0.01189   0.00000  -0.10465  -0.10989   1.56580
   A47        2.20831   0.00240   0.00000   0.00995   0.00854   2.21685
   A48        2.24283   0.00482   0.00000   0.01964   0.01783   2.26066
    D1       -0.79277   0.00039   0.00000  -0.00112  -0.00155  -0.79432
    D2        1.55566   0.00162   0.00000  -0.00309  -0.00181   1.55386
    D3       -3.12860  -0.00192   0.00000  -0.01939  -0.02021   3.13438
    D4       -2.86837  -0.00021   0.00000  -0.00806  -0.00849  -2.87686
    D5       -0.51994   0.00102   0.00000  -0.01003  -0.00874  -0.52868
    D6        1.07898  -0.00252   0.00000  -0.02634  -0.02714   1.05184
    D7        1.28998  -0.00054   0.00000  -0.01189  -0.01237   1.27761
    D8       -2.64478   0.00069   0.00000  -0.01386  -0.01263  -2.65740
    D9       -1.04586  -0.00285   0.00000  -0.03016  -0.03102  -1.07688
   D10        3.06130   0.00305   0.00000   0.03912   0.03771   3.09901
   D11        0.98096   0.00039   0.00000   0.01309   0.01244   0.99340
   D12       -1.15109   0.00291   0.00000   0.04589   0.04521  -1.10588
   D13        0.65227  -0.00055   0.00000   0.00951   0.00747   0.65974
   D14       -1.42807  -0.00321   0.00000  -0.01652  -0.01780  -1.44587
   D15        2.72307  -0.00069   0.00000   0.01627   0.01497   2.73803
   D16       -0.72672   0.00343   0.00000   0.03321   0.03368  -0.69304
   D17       -2.80706   0.00076   0.00000   0.00718   0.00842  -2.79865
   D18        1.34407   0.00329   0.00000   0.03997   0.04118   1.38526
   D19        3.05023  -0.01032   0.00000  -0.09243  -0.09346   2.95678
   D20        1.37998   0.00039   0.00000   0.01546   0.01674   1.39671
   D21       -0.98220  -0.00198   0.00000  -0.03586  -0.03665  -1.01885
   D22       -0.88486  -0.00756   0.00000  -0.05777  -0.05857  -0.94342
   D23       -2.55511   0.00315   0.00000   0.05012   0.05162  -2.50349
   D24        1.36590   0.00078   0.00000  -0.00119  -0.00177   1.36414
   D25        0.89189  -0.00670   0.00000  -0.04936  -0.05009   0.84180
   D26       -0.77836   0.00401   0.00000   0.05853   0.06010  -0.71826
   D27       -3.14053   0.00164   0.00000   0.00722   0.00671  -3.13383
   D28       -2.90211   0.00603   0.00000   0.02627   0.02608  -2.87603
   D29       -1.21424  -0.00690   0.00000  -0.09403  -0.09536  -1.30960
   D30        1.14951  -0.00087   0.00000  -0.02167  -0.02199   1.12752
   D31        1.01119   0.00381   0.00000  -0.00578  -0.00658   1.00462
   D32        2.69906  -0.00913   0.00000  -0.12608  -0.12801   2.57104
   D33       -1.22038  -0.00309   0.00000  -0.05372  -0.05464  -1.27502
   D34       -0.88974   0.00745   0.00000   0.04935   0.04979  -0.83995
   D35        0.79813  -0.00548   0.00000  -0.07095  -0.07165   0.72648
   D36       -3.12131   0.00056   0.00000   0.00141   0.00173  -3.11958
   D37       -0.00126   0.00003   0.00000   0.00054   0.00029  -0.00098
   D38       -2.09188  -0.00039   0.00000  -0.00506  -0.00492  -2.09680
   D39        2.05641  -0.00081   0.00000  -0.00565  -0.00576   2.05065
   D40        2.09133  -0.00013   0.00000   0.00177   0.00133   2.09266
   D41        0.00072  -0.00055   0.00000  -0.00382  -0.00388  -0.00316
   D42       -2.13417  -0.00097   0.00000  -0.00441  -0.00472  -2.13889
   D43       -2.06821   0.00142   0.00000   0.01218   0.01197  -2.05623
   D44        2.12437   0.00100   0.00000   0.00658   0.00676   2.13113
   D45       -0.01053   0.00058   0.00000   0.00599   0.00592  -0.00460
   D46       -0.64851  -0.00217   0.00000  -0.02170  -0.01992  -0.66843
   D47        0.72880  -0.00089   0.00000  -0.02137  -0.02198   0.70682
   D48       -3.13737  -0.00032   0.00000  -0.00533  -0.00525   3.14056
   D49        1.43152   0.00014   0.00000   0.00210   0.00330   1.43482
   D50        2.80883   0.00141   0.00000   0.00243   0.00124   2.81007
   D51       -1.05734   0.00198   0.00000   0.01847   0.01797  -1.03938
   D52       -2.70823  -0.00332   0.00000  -0.03859  -0.03692  -2.74516
   D53       -1.33092  -0.00205   0.00000  -0.03826  -0.03899  -1.36990
   D54        1.08609  -0.00148   0.00000  -0.02222  -0.02225   1.06383
   D55        0.90929   0.00415   0.00000   0.04708   0.04775   0.95704
   D56        2.39188   0.00942   0.00000   0.12985   0.12668   2.51856
   D57       -1.28419  -0.00012   0.00000  -0.00715  -0.00849  -1.29268
   D58       -0.88667   0.00412   0.00000   0.03740   0.03916  -0.84751
   D59        0.59592   0.00939   0.00000   0.12016   0.11809   0.71401
   D60       -3.08015  -0.00016   0.00000  -0.01683  -0.01708  -3.09723
   D61       -2.85963   0.00087   0.00000   0.02102   0.02263  -2.83700
   D62       -1.37704   0.00614   0.00000   0.10378   0.10156  -1.27548
   D63        1.23007  -0.00340   0.00000  -0.03321  -0.03361   1.19647
   D64       -1.04120   0.00066   0.00000   0.02195   0.02112  -1.02008
   D65       -2.53203  -0.00393   0.00000  -0.05798  -0.05376  -2.58579
   D66        1.15090   0.00263   0.00000   0.05916   0.05948   1.21038
   D67        0.87956  -0.00383   0.00000  -0.03436  -0.03600   0.84356
   D68       -0.61127  -0.00842   0.00000  -0.11429  -0.11087  -0.72214
   D69        3.07166  -0.00186   0.00000   0.00286   0.00236   3.07402
   D70        2.81005   0.00141   0.00000   0.01040   0.00839   2.81844
   D71        1.31922  -0.00318   0.00000  -0.06953  -0.06648   1.25274
   D72       -1.28103   0.00338   0.00000   0.04761   0.04675  -1.23428
   D73        0.79366  -0.00157   0.00000  -0.05665  -0.05914   0.73452
   D74       -1.16287   0.00081   0.00000  -0.04875  -0.05072  -1.21359
   D75        2.69752   0.00428   0.00000  -0.00052  -0.00345   2.69408
   D76       -0.60935  -0.00999   0.00000  -0.11970  -0.11626  -0.72561
   D77       -2.56588  -0.00761   0.00000  -0.11181  -0.10784  -2.67372
   D78        1.29451  -0.00414   0.00000  -0.06357  -0.06056   1.23395
   D79        3.08216  -0.00113   0.00000   0.01270   0.01172   3.09388
   D80        1.12564   0.00126   0.00000   0.02060   0.02014   1.14577
   D81       -1.29716   0.00472   0.00000   0.06884   0.06742  -1.22974
   D82       -0.78546   0.00126   0.00000   0.05158   0.05472  -0.73074
   D83        0.60836   0.00921   0.00000   0.11778   0.11515   0.72351
   D84       -3.09080   0.00113   0.00000  -0.00886  -0.00914  -3.09994
   D85        1.26613  -0.00410   0.00000  -0.00839  -0.00579   1.26034
   D86        2.65995   0.00385   0.00000   0.05782   0.05464   2.71459
   D87       -1.03921  -0.00423   0.00000  -0.06882  -0.06965  -1.10886
   D88       -2.74571  -0.00166   0.00000   0.04010   0.04338  -2.70233
   D89       -1.35189   0.00629   0.00000   0.10630   0.10381  -1.24808
   D90        1.23213  -0.00180   0.00000  -0.02034  -0.02047   1.21166
         Item               Value     Threshold  Converged?
 Maximum Force            0.021639     0.000450     NO 
 RMS     Force            0.005003     0.000300     NO 
 Maximum Displacement     0.311637     0.001800     NO 
 RMS     Displacement     0.062341     0.001200     NO 
 Predicted change in Energy=-1.868004D-02
 GradGradGradGradGradGradGradGradGradGradGradGradGradGradGradGradGradGrad

                          Input orientation:                          
 ---------------------------------------------------------------------
 Center     Atomic      Atomic             Coordinates (Angstroms)
 Number     Number       Type             X           Y           Z
 ---------------------------------------------------------------------
      1          6           0        0.924871   -0.055048    0.082456
      2          6           0        2.442574   -0.137775    0.144612
      3          6           0        3.007387   -1.553839   -0.017298
      4          6           0        4.530220   -1.257147    0.030156
      5          6           0        4.507621    0.248316    0.205584
      6          6           0        3.352445    0.883458   -0.648229
      7          6           0        3.123675    1.936894    0.478873
      8          6           0        3.352888    0.598770    1.216562
      9          1           0        0.559345   -0.653766   -0.759052
     10          1           0        0.546954    0.960824   -0.064941
     11          1           0        0.460151   -0.453516    0.992121
     12          1           0        2.687358   -2.024547   -0.953543
     13          1           0        2.679781   -2.197971    0.806010
     14          1           0        5.057019   -1.565879   -0.878548
     15          1           0        5.025039   -1.736588    0.880964
     16          1           0        5.448580    0.800091    0.278872
     17          1           0        3.315752    1.022437   -1.729614
     18          1           0        2.131120    2.369779    0.577814
     19          1           0        3.896251    2.702681    0.607553
     20          1           0        3.327489    0.381897    2.285896
 ---------------------------------------------------------------------
                    Distance matrix (angstroms):
                    1          2          3          4          5
     1  C    0.000000
     2  C    1.521226   0.000000
     3  C    2.567722   1.533124   0.000000
     4  C    3.800831   2.371573   1.552192   0.000000
     5  C    3.597678   2.101715   2.355449   1.515817   0.000000
     6  C    2.703296   1.580943   2.541173   2.535656   1.570616
     7  C    2.993279   2.209045   3.527737   3.518752   2.200294
     8  C    2.758431   1.587529   2.505096   2.497618   1.574263
     9  H    1.095540   2.151605   2.711686   4.093259   4.163311
    10  H    1.093866   2.200956   3.518456   4.560137   4.033329
    11  H    1.096463   2.178982   2.952634   4.258716   4.182490
    12  H    2.838763   2.196764   1.095691   2.225469   3.134141
    13  H    2.862753   2.176723   1.095476   2.216129   3.112207
    14  H    4.503419   3.149866   2.223260   1.094795   2.183685
    15  H    4.502951   3.125307   2.216121   1.094798   2.159560
    16  H    4.608013   3.151775   3.404133   2.266598   1.093266
    17  H    3.187614   2.370918   3.108748   3.125416   2.401001
    18  H    2.753216   2.563687   4.064084   4.382944   3.207323
    19  H    4.087774   3.224233   4.393004   4.051609   2.561106
    20  H    3.289170   2.374496   3.025598   3.036674   2.395466
                    6          7          8          9         10
     6  C    0.000000
     7  C    1.559623   0.000000
     8  C    1.886398   1.545089   0.000000
     9  H    3.190102   3.849645   3.643595   0.000000
    10  H    2.866530   2.808547   3.105898   1.757511   0.000000
    11  H    3.583799   3.615500   3.086359   1.765374   1.767844
    12  H    2.998675   4.234997   3.469017   2.538760   3.779336
    13  H    3.473110   4.171471   2.905750   3.054543   3.909666
    14  H    2.992970   4.224905   3.461105   4.590784   5.233247
    15  H    3.464195   4.155880   2.891818   4.878993   5.312628
    16  H    2.293523   2.595671   2.304716   5.205343   4.916298
    17  H    1.090896   2.398028   2.976714   3.368891   3.231281
    18  H    2.281220   1.087356   2.244369   3.660534   2.215371
    19  H    2.276464   1.095382   2.256674   4.926285   3.834594
    20  H    2.976790   2.392674   1.091400   4.243457   3.686864
                   11         12         13         14         15
    11  H    0.000000
    12  H    3.348760   0.000000
    13  H    2.829225   1.768095   0.000000
    14  H    5.086054   2.414808   2.981365   0.000000
    15  H    4.743083   2.985480   2.391386   1.768063   0.000000
    16  H    5.192752   4.137846   4.114911   2.662846   2.641333
    17  H    4.211975   3.206443   4.147876   3.233527   4.165213
    18  H    3.306778   4.686635   4.606239   5.115786   5.032784
    19  H    4.681480   5.123000   5.053274   4.666527   4.588684
    20  H    3.254750   4.085916   3.043897   4.098635   3.056712
                   16         17         18         19         20
    16  H    0.000000
    17  H    2.938096   0.000000
    18  H    3.682231   2.922825   0.000000
    19  H    2.477419   2.936418   1.796496   0.000000
    20  H    2.949925   4.066295   2.881062   2.919994   0.000000
 Stoichiometry    C8H12
 Framework group  C1[X(C8H12)]
 Deg. of freedom    54
 Full point group                 C1      NOp   1
 Largest Abelian subgroup         C1      NOp   1
 Largest concise Abelian subgroup C1      NOp   1
                         Standard orientation:                         
 ---------------------------------------------------------------------
 Center     Atomic      Atomic             Coordinates (Angstroms)
 Number     Number       Type             X           Y           Z
 ---------------------------------------------------------------------
      1          6           0        1.775114    1.282933   -0.010295
      2          6           0        0.454541    0.528122    0.011501
      3          6           0       -0.788357    1.425561    0.028095
      4          6           0       -1.910460    0.354057   -0.017322
      5          6           0       -1.075961   -0.910920   -0.051185
      6          6           0        0.198721   -0.704205   -0.945216
      7          6           0        1.008576   -1.610216    0.032384
      8          6           0        0.131912   -0.718535    0.939944
      9          1           0        1.723178    2.091133   -0.748079
     10          1           0        2.631584    0.659959   -0.283983
     11          1           0        1.995147    1.741857    0.960893
     12          1           0       -0.814368    2.115492   -0.822703
     13          1           0       -0.819617    2.027001    0.943169
     14          1           0       -2.562021    0.450491   -0.891819
     15          1           0       -2.545249    0.372855    0.874459
     16          1           0       -1.569685   -1.885704   -0.086701
     17          1           0        0.254168   -0.654581   -2.033571
     18          1           0        2.081798   -1.450765    0.103896
     19          1           0        0.774090   -2.680196    0.027766
     20          1           0        0.086465   -0.668323    2.029241
 ---------------------------------------------------------------------
 Rotational constants (GHZ):           3.0209236           2.6766714           1.7596246
 Standard basis: 6-31G(2df,p) (6D, 7F)
 There are   308 symmetry adapted cartesian basis functions of A   symmetry.
 There are   284 symmetry adapted basis functions of A   symmetry.
   284 basis functions,   436 primitive gaussians,   308 cartesian basis functions
    30 alpha electrons       30 beta electrons
       nuclear repulsion energy       389.9861747941 Hartrees.
 NAtoms=   20 NActive=   20 NUniq=   20 SFac= 1.00D+00 NAtFMM=   60 NAOKFM=F Big=F
 Integral buffers will be    131072 words long.
 Raffenetti 2 integral format.
 Two-electron integral symmetry is turned on.
 One-electron integrals computed using PRISM.
 PrsmSu:  requested number of processors reduced to:  13 ShMem   1 Linda.
 NBasis=   284 RedAO= T EigKep=  3.33D-04  NBF=   284
 NBsUse=   284 1.00D-06 EigRej= -1.00D+00 NBFU=   284
 Initial guess from the checkpoint file:  "CC12CCC3C1CC32.chk"
 B after Tr=     0.000000    0.000000    0.000000
         Rot=    0.995655    0.003692   -0.003602    0.092975 Ang=  10.69 deg.
 ExpMin= 1.61D-01 ExpMax= 3.05D+03 ExpMxC= 4.57D+02 IAcc=2 IRadAn=         4 AccDes= 0.00D+00
 Harris functional with IExCor=  402 and IRadAn=       4 diagonalized for initial guess.
 HarFok:  IExCor=  402 AccDes= 0.00D+00 IRadAn=         4 IDoV= 1 UseB2=F ITyADJ=14
 ICtDFT=  3500011 ScaDFX=  1.000000  1.000000  1.000000  1.000000
 FoFCou: FMM=F IPFlag=           0 FMFlag=      100000 FMFlg1=           0
         NFxFlg=           0 DoJE=T BraDBF=F KetDBF=T FulRan=T
         wScrn=  0.000000 ICntrl=       500 IOpCl=  0 I1Cent=   200000004 NGrid=           0
         NMat0=    1 NMatS0=      1 NMatT0=    0 NMatD0=    1 NMtDS0=    0 NMtDT0=    0
 Petite list used in FoFCou.
 Requested convergence on RMS density matrix=1.00D-08 within 128 cycles.
 Requested convergence on MAX density matrix=1.00D-06.
 Requested convergence on             energy=1.00D-06.
 No special actions if energy rises.
 Integral accuracy reduced to 1.0D-05 until final iterations.
 Initial convergence to 1.0D-05 achieved.  Increase integral accuracy.
 SCF Done:  E(RB3LYP) =  -312.020760781     A.U. after   11 cycles
            NFock= 11  Conv=0.47D-08     -V/T= 2.0090
 PrsmSu:  requested number of processors reduced to:  13 ShMem   1 Linda.
 Calling FoFJK, ICntrl=      2127 FMM=F ISym2X=0 I1Cent= 0 IOpClX= 0 NMat=1 NMatS=1 NMatT=0.
 ***** Axes restored to original set *****
 -------------------------------------------------------------------
 Center     Atomic                   Forces (Hartrees/Bohr)
 Number     Number              X              Y              Z
 -------------------------------------------------------------------
      1        6           0.001718587    0.003227571    0.002553150
      2        6           0.002577684    0.001726915   -0.000493927
      3        6           0.004477701    0.002732341   -0.000004215
      4        6           0.002844330   -0.004659246   -0.001685048
      5        6          -0.009782784    0.007787153    0.003045152
      6        6          -0.004367638   -0.005168214    0.006314935
      7        6           0.004773031   -0.004411513   -0.000353433
      8        6          -0.005804615   -0.003041146   -0.007535205
      9        1          -0.000058013   -0.000207681   -0.000161175
     10        1           0.000925045    0.000786047    0.001548919
     11        1           0.000318032   -0.000671294   -0.000286209
     12        1           0.000317921    0.000139509    0.000111250
     13        1          -0.000131246   -0.001123020   -0.000649098
     14        1          -0.000144569   -0.000847523   -0.000012300
     15        1           0.000619791   -0.001687831   -0.000819453
     16        1          -0.000556506   -0.001443010    0.000838513
     17        1           0.003015817    0.002400988   -0.001132425
     18        1          -0.002625490    0.002447538   -0.001987095
     19        1          -0.000436033   -0.000791092   -0.001169806
     20        1           0.002318954    0.002803509    0.001877469
 -------------------------------------------------------------------
 Cartesian Forces:  Max     0.009782784 RMS     0.003025875

 GradGradGradGradGradGradGradGradGradGradGradGradGradGradGradGradGradGrad
 Berny optimization.
 Using GEDIIS/GDIIS optimizer.
 FormGI is forming the generalized inverse of G from B-inverse, IUseBI=4.
 Internal  Forces:  Max     0.004908718 RMS     0.001326510
 Search for a local minimum.
 Step number   2 out of a maximum of  120
 All quantities printed in internal units (Hartrees-Bohrs-Radians)
 Mixed Optimization -- RFO/linear search
 Update second derivatives using D2CorX and points    1    2
 DE= -1.67D-02 DEPred=-1.87D-02 R= 8.93D-01
 TightC=F SS=  1.41D+00  RLast= 5.56D-01 DXNew= 5.0454D-01 1.6690D+00
 Trust test= 8.93D-01 RLast= 5.56D-01 DXMaxT set to 5.05D-01
 ITU=  1  0
 Use linear search instead of GDIIS.
     Eigenvalues ---    0.00577   0.00750   0.01816   0.02039   0.02078
     Eigenvalues ---    0.02409   0.02523   0.02948   0.03159   0.03178
     Eigenvalues ---    0.03304   0.03880   0.04171   0.04876   0.05335
     Eigenvalues ---    0.05672   0.05759   0.05787   0.05852   0.06131
     Eigenvalues ---    0.06517   0.06674   0.06699   0.07327   0.08060
     Eigenvalues ---    0.09528   0.10693   0.11485   0.13153   0.15962
     Eigenvalues ---    0.16000   0.16013   0.16063   0.16658   0.18666
     Eigenvalues ---    0.19048   0.20699   0.22413   0.27177   0.28937
     Eigenvalues ---    0.30956   0.31483   0.34040   0.34162   0.34282
     Eigenvalues ---    0.34290   0.34382   0.34431   0.34436   0.34476
     Eigenvalues ---    0.34684   0.34971   0.35970   0.36172
 RFO step:  Lambda=-2.86263701D-03 EMin= 5.77158735D-03
 Quartic linear search produced a step of  0.10577.
 Iteration  1 RMS(Cart)=  0.03450448 RMS(Int)=  0.00082376
 Iteration  2 RMS(Cart)=  0.00087894 RMS(Int)=  0.00028792
 Iteration  3 RMS(Cart)=  0.00000059 RMS(Int)=  0.00028792
 Variable       Old X    -DE/DX   Delta X   Delta X   Delta X     New X
                                 (Linear)    (Quad)   (Total)
    R1        2.87470  -0.00288   0.00140  -0.01081  -0.00941   2.86529
    R2        2.07027   0.00025  -0.00025   0.00094   0.00068   2.07095
    R3        2.06711   0.00020   0.00012   0.00059   0.00071   2.06782
    R4        2.07202  -0.00013   0.00054  -0.00066  -0.00012   2.07190
    R5        2.89718   0.00217   0.00041   0.00772   0.00827   2.90545
    R6        2.98755  -0.00427  -0.00106  -0.01291  -0.01412   2.97343
    R7        2.99999  -0.00491  -0.00207  -0.02341  -0.02587   2.97413
    R8        2.93322  -0.00242   0.00817  -0.00942  -0.00079   2.93243
    R9        2.07056  -0.00025   0.00022  -0.00089  -0.00067   2.06989
   R10        2.07015   0.00021  -0.00005   0.00070   0.00065   2.07080
   R11        2.86448   0.00461   0.00262   0.01560   0.01825   2.88273
   R12        2.06886   0.00018   0.00030   0.00043   0.00073   2.06959
   R13        2.06887   0.00038   0.00003   0.00120   0.00123   2.07010
   R14        2.96803  -0.00329  -0.00738  -0.01222  -0.01987   2.94816
   R15        2.97493  -0.00261  -0.00769  -0.01777  -0.02562   2.94930
   R16        2.06597  -0.00115   0.00041  -0.00382  -0.00341   2.06256
   R17        2.94726  -0.00411  -0.00900  -0.02067  -0.02938   2.91788
   R18        2.06149   0.00133   0.00231   0.00296   0.00527   2.06676
   R19        2.91980  -0.00178  -0.00540   0.00224  -0.00308   2.91672
   R20        2.05481   0.00319  -0.00051   0.01024   0.00973   2.06453
   R21        2.06997  -0.00100   0.00046  -0.00337  -0.00291   2.06706
   R22        2.06245   0.00123   0.00264   0.00250   0.00514   2.06759
    A1        1.91191   0.00045  -0.00184   0.00677   0.00494   1.91686
    A2        1.98307  -0.00147   0.00045  -0.01030  -0.00988   1.97320
    A3        1.94894  -0.00037   0.00176  -0.00610  -0.00437   1.94457
    A4        1.86373   0.00102   0.00136   0.01081   0.01219   1.87592
    A5        1.87260  -0.00009  -0.00086   0.00000  -0.00084   1.87176
    A6        1.87849   0.00058  -0.00095  -0.00005  -0.00108   1.87741
    A7        1.99706   0.00230   0.00418   0.02320   0.02765   2.02470
    A8        2.11598  -0.00056   0.00290   0.00575   0.00863   2.12460
    A9        2.18272  -0.00271  -0.00335  -0.04147  -0.04455   2.13817
   A10        1.90885  -0.00109  -0.00524  -0.01694  -0.02240   1.88645
   A11        1.86355   0.00051   0.00020   0.01665   0.01675   1.88030
   A12        1.27543   0.00073  -0.00150   0.00356   0.00205   1.27748
   A13        1.75347   0.00194  -0.00167   0.00925   0.00744   1.76091
   A14        1.95998  -0.00086  -0.00034  -0.00449  -0.00471   1.95527
   A15        1.93216   0.00015  -0.00094   0.01083   0.00987   1.94203
   A16        1.97664  -0.00027   0.00324  -0.00790  -0.00477   1.97187
   A17        1.96364  -0.00100   0.00182  -0.00196  -0.00007   1.96357
   A18        1.87784   0.00007  -0.00199  -0.00458  -0.00663   1.87120
   A19        1.75051  -0.00354   0.00082  -0.01955  -0.01891   1.73161
   A20        1.97448   0.00112   0.00194  -0.00384  -0.00193   1.97255
   A21        1.96435   0.00040   0.00175   0.00020   0.00225   1.96660
   A22        1.96417   0.00126  -0.00068   0.00753   0.00674   1.97091
   A23        1.93022   0.00206  -0.00157   0.02139   0.01987   1.95009
   A24        1.87975  -0.00121  -0.00203  -0.00495  -0.00716   1.87259
   A25        1.92803   0.00091  -0.00612  -0.00404  -0.01056   1.91747
   A26        1.88215   0.00229  -0.00082   0.02973   0.02891   1.91106
   A27        2.08999  -0.00168   0.00049  -0.01391  -0.01326   2.07673
   A28        1.28658  -0.00007   0.00145   0.00206   0.00355   1.29013
   A29        2.05485  -0.00003   0.00367   0.00348   0.00711   2.06196
   A30        2.06680  -0.00048   0.00136  -0.00844  -0.00713   2.05967
   A31        1.46002  -0.00030   0.00524  -0.00785  -0.00270   1.45732
   A32        1.56027   0.00019   0.00660   0.00154   0.00814   1.56840
   A33        2.16526   0.00177   0.00064   0.03116   0.03208   2.19734
   A34        1.55896   0.00045  -0.01037   0.00490  -0.00631   1.55265
   A35        2.23335  -0.00011   0.00136  -0.01430  -0.01352   2.21983
   A36        2.24643  -0.00167  -0.00071  -0.01352  -0.01513   2.23130
   A37        1.30602  -0.00005   0.00138  -0.00076   0.00037   1.30639
   A38        2.05845  -0.00026  -0.00634  -0.01007  -0.01653   2.04192
   A39        2.04165  -0.00057   0.00105  -0.01192  -0.01094   2.03071
   A40        2.02278   0.00102  -0.00176   0.02661   0.02485   2.04763
   A41        2.03168   0.00010   0.00481   0.00121   0.00600   2.03768
   A42        1.93350  -0.00013   0.00123  -0.00252  -0.00208   1.93142
   A43        1.45423  -0.00032   0.00557  -0.00304   0.00254   1.45676
   A44        1.56516  -0.00035   0.00583  -0.00246   0.00340   1.56856
   A45        2.16041   0.00122  -0.00067   0.03036   0.02979   2.19020
   A46        1.56580  -0.00055  -0.01162  -0.00081  -0.01314   1.55265
   A47        2.21685  -0.00008   0.00090  -0.00770  -0.00751   2.20934
   A48        2.26066  -0.00016   0.00189  -0.01475  -0.01351   2.24715
    D1       -0.79432  -0.00018  -0.00016  -0.04993  -0.05040  -0.84472
    D2        1.55386   0.00026  -0.00019  -0.04152  -0.04140   1.51246
    D3        3.13438  -0.00080  -0.00214  -0.05802  -0.06016   3.07421
    D4       -2.87686  -0.00084  -0.00090  -0.06170  -0.06287  -2.93973
    D5       -0.52868  -0.00040  -0.00092  -0.05328  -0.05387  -0.58255
    D6        1.05184  -0.00145  -0.00287  -0.06978  -0.07263   0.97921
    D7        1.27761  -0.00023  -0.00131  -0.04934  -0.05098   1.22663
    D8       -2.65740   0.00021  -0.00134  -0.04093  -0.04198  -2.69938
    D9       -1.07688  -0.00085  -0.00328  -0.05743  -0.06074  -1.13762
   D10        3.09901   0.00112   0.00399   0.02956   0.03307   3.13208
   D11        0.99340   0.00069   0.00132   0.03547   0.03649   1.02989
   D12       -1.10588   0.00108   0.00478   0.03683   0.04132  -1.06457
   D13        0.65974   0.00072   0.00079   0.01457   0.01495   0.67469
   D14       -1.44587   0.00029  -0.00188   0.02048   0.01837  -1.42751
   D15        2.73803   0.00067   0.00158   0.02183   0.02319   2.76122
   D16       -0.69304   0.00002   0.00356   0.00973   0.01351  -0.67952
   D17       -2.79865  -0.00040   0.00089   0.01564   0.01693  -2.78172
   D18        1.38526  -0.00002   0.00436   0.01700   0.02175   1.40701
   D19        2.95678  -0.00253  -0.00989  -0.04476  -0.05474   2.90204
   D20        1.39671  -0.00296   0.00177  -0.04960  -0.04748   1.34923
   D21       -1.01885  -0.00211  -0.00388  -0.05520  -0.05934  -1.07819
   D22       -0.94342  -0.00077  -0.00619  -0.02129  -0.02748  -0.97091
   D23       -2.50349  -0.00120   0.00546  -0.02612  -0.02023  -2.52372
   D24        1.36414  -0.00034  -0.00019  -0.03172  -0.03209   1.33205
   D25        0.84180   0.00026  -0.00530   0.00181  -0.00359   0.83821
   D26       -0.71826  -0.00017   0.00636  -0.00302   0.00367  -0.71459
   D27       -3.13383   0.00069   0.00071  -0.00862  -0.00819   3.14117
   D28       -2.87603   0.00024   0.00276  -0.01209  -0.00948  -2.88551
   D29       -1.30960  -0.00028  -0.01009  -0.01260  -0.02311  -1.33272
   D30        1.12752   0.00008  -0.00233  -0.01264  -0.01502   1.11250
   D31        1.00462  -0.00113  -0.00070  -0.02446  -0.02531   0.97931
   D32        2.57104  -0.00165  -0.01354  -0.02498  -0.03894   2.53211
   D33       -1.27502  -0.00129  -0.00578  -0.02501  -0.03084  -1.30586
   D34       -0.83995  -0.00001   0.00527  -0.00330   0.00209  -0.83785
   D35        0.72648  -0.00052  -0.00758  -0.00382  -0.01154   0.71494
   D36       -3.11958  -0.00016   0.00018  -0.00385  -0.00344  -3.12302
   D37       -0.00098   0.00005   0.00003   0.00102   0.00098  -0.00000
   D38       -2.09680   0.00018  -0.00052   0.00560   0.00509  -2.09171
   D39        2.05065   0.00062  -0.00061   0.01495   0.01433   2.06498
   D40        2.09266   0.00008   0.00014  -0.00236  -0.00233   2.09033
   D41       -0.00316   0.00021  -0.00041   0.00222   0.00178  -0.00138
   D42       -2.13889   0.00065  -0.00050   0.01157   0.01102  -2.12787
   D43       -2.05623  -0.00079   0.00127  -0.01597  -0.01476  -2.07099
   D44        2.13113  -0.00066   0.00072  -0.01139  -0.01065   2.12049
[...]
 -0.07550825,-0.01463945,-0.02263768,0.00282889,-0.00232948,0.00172034,
 -0.00423638,0.00848138,0.00822990,-0.10091934,0.00921977,0.03669970,0.
 01660475,0.00023566,0.00147134,-0.06386070,0.01083404,-0.00856222,0.29
 998451,-0.00182044,0.00107815,0.00324576,-0.01257466,-0.06843218,-0.02
 276732,-0.00499490,-0.01950583,-0.02769799,0.01433354,-0.01303750,-0.0
 2548448,0.00830508,-0.05845068,-0.01167085,-0.00034402,0.00932891,0.02
 111882,0.00922095,-0.12965021,0.05167015,-0.01237717,0.36494537,0.0011
 2791,0.00389947,0.00276225,-0.02871389,-0.02774619,-0.08991910,0.00065
 704,-0.00112921,-0.00298629,-0.00016172,-0.00095316,-0.00190357,0.0453
 5246,-0.01494260,-0.08804724,0.00527326,0.01644761,-0.13715338,-0.0088
 1235,0.05399835,-0.08098115,-0.01523274,-0.05367742,0.69447476,-0.0777
 0471,-0.03124411,-0.07863026,-0.01353603,-0.01331503,-0.03175400,0.001
 20400,-0.00071850,-0.00050224,0.00014774,-0.00040494,0.00040123,-0.000
 84671,-0.00108204,-0.00085581,0.00141904,-0.00006834,-0.00018978,-0.00
 000885,0.00090202,-0.00036231,-0.00414466,0.00248680,0.00185352,0.0870
 4500,-0.03108970,-0.07794894,-0.07864256,-0.00005075,-0.00060949,0.002
 69917,0.00001093,0.00053176,0.00075929,-0.00011197,-0.00000517,0.00007
 811,-0.00007008,0.00012403,-0.00004495,0.00027526,0.00030003,-0.000679
 26,0.00003622,-0.00033855,-0.00030176,0.00030565,0.00001348,0.00017990
 ,0.03505435,0.08088429,-0.07870891,-0.07847445,-0.24026849,-0.00073476
 ,-0.00014504,0.00007513,0.00026331,0.00000133,0.00013738,-0.00016795,0
 .00000174,0.00026241,-0.00001504,-0.00025456,0.00009711,-0.00052489,-0
 .00002260,0.00082717,0.00009569,0.00024984,0.00003665,0.00117537,0.000
 88598,0.00153661,0.08786072,0.08692618,0.26073329,-0.07343306,0.077318
 40,0.00918261,-0.00794958,0.03431949,0.00421120,-0.00584812,-0.0023236
 7,-0.00043345,-0.00048040,0.00172890,0.00019490,0.00080244,0.00060343,
 0.00009419,0.00121967,0.00006849,0.00081936,-0.00157005,0.00036196,0.0
 0000437,0.00124899,0.00023480,-0.00073289,0.00307870,-0.01099851,-0.00
 034673,0.08023505,0.07894076,-0.27972330,-0.02776580,0.00203533,-0.001
 03438,0.00019976,0.00027158,0.00181336,0.00015517,-0.00004144,-0.00018
 579,-0.00010289,0.00016248,-0.00023242,-0.00002160,0.00000826,-0.00049
 290,0.00028255,-0.00162692,-0.00042103,-0.00013150,-0.00000356,-0.0005
 7380,-0.00044605,0.00270428,-0.01006445,-0.00041699,-0.08574673,0.3066
 1717,0.00938836,-0.02780177,-0.04972174,0.00013420,0.00089298,-0.00214
 945,-0.00010513,0.00009962,0.00064189,-0.00002913,-0.00006456,0.000611
 54,0.00003838,-0.00001213,-0.00003397,-0.00008343,-0.00075998,0.000079
 39,-0.00024624,-0.00008899,0.00032678,0.00013194,0.00060289,0.00013215
 ,0.00933894,-0.02710361,-0.00266461,-0.01007819,0.03113954,0.04914920,
 -0.08424755,-0.05453668,0.07353285,-0.01482684,-0.02070128,0.02683675,
 0.00119542,-0.00082956,0.00035684,0.00016083,-0.00029034,-0.00049271,-
 0.00087543,-0.00126458,0.00051628,-0.00402123,0.00294009,-0.00140175,-
 0.00002511,0.00079630,0.00057387,0.00138687,-0.00011312,0.00018757,0.0
 0418545,0.00711902,-0.00819706,0.00349739,0.00496148,-0.00824889,0.094
 35151,-0.05441558,-0.12524722,0.10543133,-0.00003826,0.00015850,-0.002
 85366,0.00010070,0.00069538,-0.00061645,-0.00014479,0.00003282,-0.0001
 4147,-0.00006792,0.00005757,0.00002706,0.00063207,0.00034498,-0.000447
 98,0.00004851,-0.00033291,0.00020750,0.00010812,0.00016359,0.00051341,
 0.00525797,0.00625815,-0.00906620,-0.01183283,-0.01619767,0.02318821,0
 .06099821,0.13322647,0.07364871,0.10525697,-0.18640458,0.00009948,-0.0
 0073882,0.00058116,-0.00020057,0.00010709,-0.00001711,0.00013158,-0.00
 007431,0.00021180,-0.00004575,0.00018935,0.00019256,-0.00128933,-0.001
 05751,0.00108168,-0.00008793,-0.00030985,0.00004675,0.00059369,-0.0001
 5499,0.00099635,0.01085792,0.01631539,-0.02091322,-0.00241413,-0.00284
 397,0.00305210,-0.08181181,-0.11658971,0.20107323,0.00092210,-0.000318
 15,0.00053057,0.00361252,0.00419554,0.01413271,-0.06390689,-0.02724010
 ,-0.05927976,-0.00820700,-0.01145492,-0.02617930,-0.00381653,0.0002488
 0,-0.00074008,0.00079913,-0.00048543,-0.00069724,0.00059066,0.00020569
 ,0.00038591,-0.00166608,0.00241325,-0.00004000,-0.00011030,-0.00004700
 ,-0.00033314,0.00009857,-0.00013764,-0.00020381,0.00002084,0.00008870,
 0.00001253,0.07008652,-0.00110881,0.00071084,-0.00016586,-0.00918188,-
 0.01177104,-0.02735990,-0.02774811,-0.08756523,-0.08840721,0.00044337,
 -0.00133558,-0.00178512,0.00004098,-0.00089464,-0.00067093,-0.00006097
 ,0.00196147,-0.00045862,-0.00099069,-0.00073017,-0.00084278,0.00235925
 ,-0.00436281,0.00033157,0.00075891,0.00018353,0.00041487,-0.00008968,0
 .00005296,0.00040987,0.00012272,0.00000218,0.00008080,0.03079244,0.095
 92729,-0.00009415,0.00006203,-0.00003925,-0.00139592,-0.00134831,-0.00
 262135,-0.06059187,-0.08923449,-0.24558048,0.00171426,0.00172988,0.000
 69863,0.00074863,0.00029043,-0.00007431,0.00000809,-0.00043927,0.00090
 741,-0.00029404,-0.00019002,0.00006446,0.00114400,0.00030043,0.0015204
 0,0.00056401,-0.00019870,0.00025803,0.00019860,-0.00000012,0.00025425,
 -0.00007020,-0.00000030,-0.00008792,0.06469745,0.09956832,0.26407551,0
 .00094720,-0.00018203,-0.00055252,0.00417870,0.00756219,-0.01250002,-0
 .06905225,-0.04648846,0.05661476,-0.00917186,-0.01745364,0.02209291,-0
 .00381456,0.00009270,0.00061939,-0.00163904,0.00238668,0.00051634,0.00
 059871,0.00028977,-0.00030522,0.00077225,-0.00066410,0.00054029,0.0000
 1684,0.00008769,0.00001452,0.00009997,-0.00018257,0.00015867,-0.000103
 46,-0.00013467,0.00029580,0.00258001,0.00507015,-0.00611854,0.07561582
 ,-0.00111352,0.00064700,0.00029689,-0.01035577,-0.01809978,0.02302886,
 -0.04726830,-0.13967697,0.11329669,0.00084343,-0.00113234,0.00120501,0
 .00022155,-0.00093847,0.00045594,0.00262742,-0.00387440,-0.00160247,-0
 .00106594,-0.00092624,0.00054476,-0.00008096,0.00168316,0.00065013,0.0
 0010385,0.00001504,-0.00004974,-0.00001891,0.00016545,-0.00043511,0.00
 089461,0.00023616,-0.00038421,0.00384554,0.00843707,-0.00979070,0.0518
 0561,0.15378882,-0.00014477,0.00010481,0.00000100,-0.00092431,-0.00230
 085,0.00314773,0.05776175,0.11415295,-0.18836072,-0.00198280,-0.002969
 03,0.00146962,-0.00088137,-0.00050498,-0.00003738,-0.00064403,-0.00157
 201,0.00100509,0.00005315,-0.00005288,0.00025218,-0.00003762,0.0006107
 3,0.00120945,0.00010349,0.00003040,-0.00009723,-0.00021661,-0.00002984
 ,0.00014078,-0.00036961,0.00019060,0.00019905,0.00833393,0.01777006,-0
 .02184065,-0.06130578,-0.12536313,0.20071123,-0.00008051,0.00121907,0.
 00003488,-0.00319763,-0.00157090,0.00067596,-0.01309947,0.00701321,0.0
 2386223,-0.10460478,0.03139047,0.10255742,0.00053986,0.00048633,-0.002
 66834,0.00051814,-0.00002156,0.00076889,0.00014845,0.00009894,0.000063
 64,-0.00008382,-0.00065273,-0.00016106,-0.00000805,-0.00001078,-0.0000
 3039,-0.00045152,0.00016864,-0.00014838,0.00017341,-0.00001398,-0.0000
 3633,0.00190686,-0.00023491,-0.00012526,-0.00356613,0.00032370,0.00008
 707,0.11492858,-0.00005868,0.00030073,0.00015355,-0.00096461,-0.001512
 38,-0.00052884,-0.00514345,0.00136172,0.00819869,0.03184387,-0.0624287
 9,-0.05298124,0.01767946,-0.00657066,-0.02939070,-0.00040067,0.0019513
 5,-0.00012981,0.00124686,-0.00024710,-0.00070229,-0.00082679,-0.005615
 60,0.00034620,0.00012089,0.00002048,0.00002432,-0.00014816,0.00001610,
 -0.00006668,0.00006914,0.00002517,-0.00005056,0.00067631,0.00085461,0.
 00001784,-0.00188302,0.00003454,0.00005881,-0.03513560,0.06799089,-0.0
 0009191,0.00014919,0.00001925,-0.00111744,-0.00004723,0.00000142,-0.00
 350718,0.00163145,0.00275092,0.10455782,-0.05357103,-0.23239430,0.0015
 8145,-0.00075608,-0.00273324,0.00021146,-0.00039990,0.00101272,0.00037
 566,-0.00012513,0.00013816,-0.00151724,-0.00023763,0.00139393,0.000039
 15,-0.00000405,0.00001264,-0.00007265,0.00000730,-0.00003276,0.0000224
 9,0.00001660,-0.00000761,0.00011714,0.00003751,0.00163449,-0.00011526,
 -0.00021726,0.00071677,-0.11273812,0.06087118,0.24923590,-0.00008880,0
 .00119221,0.00026616,-0.00319308,-0.00132853,-0.00118292,-0.01220989,0
 .01284927,-0.02196268,-0.09625795,0.05201674,-0.08678980,0.00039654,-0
 .00017682,0.00268119,-0.00014502,-0.00063538,-0.00006320,0.00015987,0.
 00010905,-0.00004078,0.00056405,0.00015170,-0.00077561,0.00017216,-0.0
 0002295,0.00003918,-0.00045976,0.00012872,0.00016720,-0.00000827,-0.00
 001811,0.00002596,-0.00355388,0.00035256,-0.00018829,0.00190414,-0.000
 25449,0.00007637,0.00688002,-0.00730790,0.01189048,0.10583870,-0.00007
 420,0.00034982,-0.00007193,-0.00120660,-0.00154312,0.00008349,-0.00542
 189,0.00377016,-0.00805397,0.05297768,-0.09907284,0.09011826,0.0162884
 2,-0.01368497,0.02732577,-0.00111734,-0.00514868,-0.00207340,0.0012720
 6,-0.00042941,0.00061381,-0.00034317,0.00176830,0.00031195,0.00006923,
 0.00001469,0.00005913,-0.00016194,-0.00000104,0.00006698,0.00012779,0.
 00002431,-0.00001592,-0.00182344,0.00004705,-0.00031095,0.00068704,0.0
 0091336,-0.00017288,-0.00386995,0.00420717,-0.00648404,-0.05777575,0.1
 0905275,0.00007183,-0.00001192,-0.00002168,0.00070069,-0.00041325,0.00
 003173,0.00157433,-0.00082048,-0.00055050,-0.08861299,0.09067836,-0.20
 409822,0.00267481,-0.00204663,0.00451095,0.00121095,-0.00147645,0.0009
 8802,-0.00006117,-0.00001327,0.00030945,-0.00032844,0.00060090,0.00115
 251,0.00000258,-0.00001180,0.00000404,0.00001444,0.00000619,-0.0000068
 9,-0.00000857,0.00000645,0.00000902,-0.00053862,0.00006035,0.00069051,
 0.00006688,-0.00023301,0.00157836,-0.01202439,0.01290703,-0.02184531,0
 .09554758,-0.10004478,0.21727682,-0.00002343,-0.00189190,-0.00029716,-
 0.00831418,0.00146534,0.00005905,-0.00020688,0.00211505,0.00022894,0.0
 0526492,0.00429923,0.00067389,-0.24012049,-0.11501662,-0.01872094,-0.0
 0984956,-0.00742327,0.00447016,0.00050553,-0.00251423,-0.00025614,-0.0
 1028833,-0.00648790,-0.00678684,-0.00051494,0.00000627,-0.00007870,0.0
 0010881,0.00014646,0.00002115,-0.00048883,-0.00001269,0.00005881,0.000
 25808,-0.00013846,0.00003855,0.00026704,-0.00012124,-0.00005857,0.0000
 5026,-0.00073810,-0.00010822,0.00004643,-0.00073504,-0.00007502,0.2618
 5937,0.00051003,0.00145206,-0.00013879,0.00279987,-0.00306097,-0.00001
 573,-0.00015608,-0.00463491,-0.00078097,-0.02457819,-0.00690907,-0.001
 30006,-0.11680435,-0.12219685,-0.01224529,0.00933370,0.00413364,-0.002
 26206,0.00159007,0.00313039,0.00072135,0.00525392,0.00072062,0.0024576
 6,0.00016923,0.00004477,0.00010731,-0.00027867,0.00009458,0.00000790,0
 .00034048,0.00005779,-0.00006978,-0.00114281,-0.00026452,0.00010067,-0
 .00109917,-0.00019796,-0.00020033,0.00049818,0.00054477,-0.00053566,0.
 00045492,0.00043176,0.00068162,0.12490585,0.12629214,0.00000689,-0.000
 19139,0.00261764,0.00022617,-0.00004409,-0.00245839,-0.00005770,-0.000
 73387,0.00144938,-0.00296775,-0.00067441,-0.00097657,-0.01894632,-0.01
 220585,-0.04707516,-0.01509284,-0.01114124,0.00096702,0.00026202,0.000
 63206,-0.00223122,0.01636920,0.01072005,0.00481859,0.00068599,-0.00002
 598,-0.00003279,-0.00003251,0.00001711,-0.00001400,-0.00064118,0.00005
 253,-0.00007136,0.00001582,0.00008109,-0.00000061,-0.00028583,-0.00013
 692,-0.00007599,-0.00000343,0.00021602,-0.00005927,0.00012604,-0.00012
 271,0.00005662,0.02054187,0.01353619,0.04252849,0.00133743,0.00041329,
 0.00031204,0.00319115,0.00380662,0.01301439,-0.00041124,0.00085507,0.0
 0007427,0.00020494,-0.00134458,-0.00027539,0.00727016,-0.00124178,-0.0
 1586415,-0.05074627,-0.00033034,0.00727867,-0.00192796,-0.00222248,0.0
 0268842,-0.00186668,-0.00000091,0.00008536,-0.00025206,-0.00009877,-0.
 00038884,-0.00017262,0.00006947,0.00006151,-0.00041355,-0.00006216,-0.
 00012220,0.00017531,-0.00024777,-0.00036634,0.00012715,-0.00032947,-0.
 00008158,0.00000775,0.00031721,0.00049841,-0.00007013,0.00047242,0.000
 17705,0.00028306,-0.00045662,0.00011349,0.03986200,0.00084177,0.000179
 67,-0.00011895,0.00593760,0.00144946,0.01159782,-0.00015030,0.00146181
 ,0.00076175,-0.00045984,0.00093077,0.00058107,-0.00451027,-0.00178854,
 0.00562700,-0.00038153,-0.05793468,0.03020959,-0.00126204,0.00879366,-
 0.01418268,-0.00004058,-0.00252939,0.00091054,-0.00030143,0.00003746,-
 0.00022468,-0.00028536,0.00009853,-0.00004487,-0.00024977,-0.00004072,
 -0.00001066,-0.00002679,-0.00023085,-0.00043514,-0.00000744,-0.0004573
 8,-0.00023931,0.00014426,-0.00008616,-0.00026139,0.00017686,-0.0002508
 7,-0.00017852,0.00019176,0.00019908,-0.00023778,0.00045126,0.04635311,
 0.00012802,0.00011702,0.00032705,-0.00349777,-0.00300078,-0.00335272,0
 .00003557,0.00004237,0.00013586,-0.00006632,0.00002232,0.00013313,0.00
 479286,-0.00171559,-0.00388064,0.00635275,0.02942833,-0.30619230,-0.00
 100604,0.00673940,-0.00477125,0.00036957,0.00130395,-0.01022021,0.0005
 0813,0.00017386,0.00001056,0.00002226,-0.00004077,-0.00009823,0.000063
 58,-0.00000080,-0.00002499,-0.00000013,0.00055815,0.00008025,-0.000018
 09,0.00008358,-0.00002027,-0.00018327,0.00055295,0.00008996,0.00000035
 ,0.00011123,0.00000077,-0.00028185,-0.00006049,0.00000667,-0.00735142,
 -0.03440509,0.32911983,-0.00068951,-0.00115166,-0.00016111,-0.00036603
 ,-0.00024856,0.00001531,0.00013522,-0.00004438,-0.00000323,-0.00030056
 ,-0.00062347,-0.00014283,0.00022833,0.00296053,0.00041525,-0.00116804,
 0.00076562,-0.00143158,-0.26716536,0.09688124,0.00743708,-0.00041114,0
 .00014130,0.00137751,0.00021933,-0.00010685,0.00000819,-0.00052727,-0.
 00179624,-0.00024990,0.00022460,-0.00010983,-0.00002580,0.00004143,0.0
 0008937,0.00006513,0.00004440,0.00010517,-0.00004042,-0.00002181,0.000
 17303,0.00004534,-0.00001799,0.00021019,0.00000281,0.00042980,-0.00033
 547,-0.00003330,-0.00000558,0.00029879,0.00025724,0.28870818,0.0001878
 5,-0.00120597,-0.00015651,0.00286626,0.00190741,0.00062118,0.00020871,
 0.00023662,0.00003125,0.00229369,-0.00016325,-0.00030699,0.00122164,-0
 .00830853,-0.00080862,0.01130976,-0.00644552,0.00478742,0.09456651,-0.
 09327317,-0.00385703,0.01631837,-0.00657876,-0.00661509,-0.00014016,0.
 00044165,0.00003437,-0.00208824,-0.00029953,-0.00015128,-0.00011469,0.
 00039700,0.00006731,-0.00004734,-0.00004191,-0.00007257,-0.00004645,-0
 .00004347,0.00004984,-0.00005773,-0.00057723,-0.00016520,-0.00004522,-
 0.00041749,0.00004226,0.00047620,0.00006286,0.00001635,-0.00029409,0.0
 0028519,-0.00021244,-0.10728692,0.10455405,0.00000701,-0.00018472,0.00
 004060,0.00040822,0.00055319,-0.00244465,0.00002868,0.00002601,0.00002
 790,0.00022477,-0.00036999,0.00262336,0.00019547,-0.00077031,-0.001785
 00,0.02053578,-0.00747499,0.00330113,0.00714422,-0.00380571,-0.0467750
 4,-0.01721984,0.00506804,0.00267978,0.00009263,-0.00010744,-0.00001874
 ,-0.00028617,-0.00014546,0.00052219,-0.00011495,0.00020959,0.00002083,
 0.00000851,0.00004674,0.00003898,-0.00002018,-0.00006325,0.00003757,0.
 00005911,0.00066918,0.00005632,-0.00007206,-0.00078193,-0.00010693,0.0
 0006900,-0.00000121,0.00001605,0.00027208,0.00003784,-0.00000837,-0.00
 816591,0.00568515,0.04158912,-0.00007555,0.00015993,0.00000895,-0.0005
 1153,0.00156480,0.00023298,0.00039114,0.00084770,0.00006263,0.00037364
 ,-0.00033971,-0.00003179,0.00294029,0.00202110,0.00037994,0.00269518,0
 .00349088,-0.00021171,-0.19233371,-0.12737882,-0.01925249,0.00199019,0
 .00275563,0.00098004,0.00005159,-0.00019986,-0.00001710,0.00067069,-0.
 00014273,-0.00000107,0.00005802,-0.00019991,-0.00003266,0.00004397,0.0
 0010561,0.00006254,0.00003419,0.00014338,-0.00002861,0.00002614,-0.000
 02776,-0.00001499,0.00002402,-0.00003094,0.00000805,0.00045654,-0.0005
 8650,-0.00007373,0.00005473,-0.00039140,-0.00018790,-0.01937503,-0.019
 10024,-0.00282933,0.20244971,0.00093362,-0.00019620,-0.00006195,0.0019
 1728,-0.00829253,-0.00073251,-0.00201888,-0.00087374,-0.00046124,0.000
 01870,0.00024043,0.00004807,-0.00348705,0.00075216,0.00037709,-0.00884
 125,-0.01011968,0.00367465,-0.12514857,-0.16323682,-0.01760872,-0.0125
 4905,-0.01209794,-0.00764340,-0.00012880,0.00013813,-0.00004696,-0.000
 38972,0.00030134,0.00004522,-0.00009580,0.00011322,0.00006441,0.000277
 32,-0.00051372,-0.00017231,0.00020332,-0.00039320,0.00007292,0.0000599
 0,-0.00001414,-0.00002992,0.00004929,-0.00002275,0.00002384,0.00136971
 ,-0.00001741,-0.00002874,0.00022789,0.00028344,-0.00024336,0.00972477,
 0.00924535,0.00137124,0.13773636,0.18449903,0.00010640,-0.00007837,0.0
 0044571,0.00027799,-0.00073908,-0.00225232,-0.00029918,-0.00040002,0.0
 0238418,0.00001348,0.00004024,-0.00013203,-0.00031424,0.00049593,-0.00
 277981,-0.01700820,-0.01502458,0.00120559,-0.01897046,-0.01765558,-0.0
 4773977,0.01429035,0.01165349,0.00389094,0.00012649,-0.00003543,0.0000
 2875,-0.00003207,0.00005042,-0.00011713,-0.00015407,0.00004903,0.00004
 741,-0.00024301,0.00054358,0.00003093,0.00030618,-0.00064769,-0.000080
 30,-0.00003000,-0.00001132,0.00000924,0.00004424,0.00000158,0.00001995
 ,0.00017300,-0.00007101,0.00044019,-0.00027064,0.00000226,-0.00007468,
 0.00080561,0.00074683,0.00015548,0.02085814,0.02103124,0.04449512,0.00
 134837,0.00047791,-0.00015502,0.00353153,0.00671024,-0.01134439,-0.000
 41013,0.00084203,0.00011929,0.00019976,-0.00137459,-0.00006113,0.00681
 302,-0.00528538,0.01551378,-0.00186331,-0.00001185,0.00028476,-0.00183
 593,-0.00127060,-0.00305440,-0.05065176,-0.00001310,0.00398213,-0.0004
 1352,-0.00008818,0.00008654,-0.00016791,0.00008036,-0.00004619,-0.0002
 4407,-0.00018355,0.00034203,0.00012470,-0.00033408,0.00000335,0.000160
 89,-0.00030567,0.00030035,-0.00006574,0.00050795,-0.00005640,0.0000188
 5,0.00045543,-0.00040279,0.00027681,-0.00041836,-0.00021288,0.00335241
 ,0.00002445,0.00006247,0.00001703,-0.00022791,-0.00033705,0.00003578,0
 .00014096,0.00032001,0.03977320,0.00083700,0.00018163,0.00012022,0.005
 30216,0.00315655,-0.00962987,-0.00010903,0.00156792,-0.00039933,-0.000
 44196,0.00103713,-0.00037203,-0.00301275,-0.00093599,-0.00509366,0.000
 00263,-0.00247007,0.00107416,-0.00215334,0.00617799,0.01693694,-0.0002
 5832,-0.05886689,0.03310633,-0.00022419,-0.00004090,-0.00000386,-0.000
 27306,0.00006681,0.00007579,-0.00017400,0.00002522,0.00021898,-0.00001
 997,-0.00046652,0.00012327,-0.00004358,-0.00018040,0.00036413,0.000165
 44,-0.00025547,0.00012128,0.00008386,-0.00000824,0.00024311,0.00010358
 ,0.00011724,0.00027157,0.00001575,0.00324638,0.00054614,0.00035337,0.0
 0022469,0.00003801,-0.00042752,0.00020502,0.00004850,0.00027395,0.0472
 1790,0.00012806,-0.00013274,0.00031519,0.00525702,0.00494821,-0.005395
 74,-0.00008866,0.00036213,0.00002662,-0.00004207,0.00014806,0.00003272
 ,-0.00526004,0.00226659,-0.00426495,-0.00000203,0.00068006,-0.01028294
 ,0.00065334,-0.00399574,-0.00225751,0.00486199,0.03390949,-0.30535677,
 -0.00014040,-0.00000676,-0.00002468,-0.00009651,0.00008695,-0.00007150
 ,-0.00057944,-0.00017573,0.00001484,0.00002053,-0.00021249,-0.00000926
 ,-0.00000430,-0.00063838,0.00004372,0.00003978,-0.00015435,0.00000078,
 0.00021060,-0.00055969,0.00000079,0.00032900,0.00006866,0.00009471,0.0
 0014487,0.00061121,-0.00126043,-0.00017538,0.00026378,0.00002941,0.000
 08811,0.00032042,0.00002257,-0.00534447,-0.03778968,0.32834242\\-0.000
 00056,0.00000077,-0.00000863,0.00000769,-0.00002135,-0.00000467,0.0000
 0497,0.00000388,0.00001031,-0.00003510,-0.00000231,-0.00000945,-0.0000
 0359,0.00002527,0.00000251,0.00001157,0.00003674,-0.00000124,-0.000026
 58,-0.00001041,0.00000691,0.00003518,0.00000233,0.00001693,-0.00000369
 ,0.00000100,0.00000247,0.00000023,-0.00000141,-0.00000127,0.00000746,-
 0.00000680,0.00000446,0.00000229,-0.00000215,-0.00000630,-0.00000067,0
 .00000057,-0.00000496,0.00000756,-0.00000274,-0.00000150,0.00000356,0.
 00000952,0.00000149,-0.00000073,-0.00000557,-0.00000372,-0.00000434,-0
 .00002451,-0.00000479,0.00000962,-0.00000524,-0.00000010,0.00000920,-0
 .00000168,-0.00000112,-0.00002407,0.00000409,0.00000266\\\@


 "MATHEMATICS IS THE ART OF GIVING THE SAME NAME
 TO DIFFERENT THINGS."
                    - H. POINCARE
 Job cpu time:       0 days  1 hours 59 minutes 49.3 seconds.
 Elapsed time:       0 days  0 hours 30 minutes  7.5 seconds.
 File lengths (MBytes):  RWF=    122 Int=      0 D2E=      0 Chk=      8 Scr=      1
 Normal termination of Gaussian 16 at Sun May 28 11:41:32 2023.
### All Done ###
