### Starting Gaussian ###
 Entering Gaussian System, Link 0=g16
 Initial command:
 /cluster/software/gaussian/gaussian-16-A.03/avx2/g16/l1.exe "/local/scratch/yxie/Gau-14474.inp" -scrdir="/local/scratch/yxie/"
 Entering Link 1 = /cluster/software/gaussian/gaussian-16-A.03/avx2/g16/l1.exe PID=     14475.
  
 Copyright (c) 1988,1990,1992,1993,1995,1998,2003,2009,2016,
            Gaussian, Inc.  All Rights Reserved.
  
 This is part of the Gaussian(R) 16 program.  It is based on
 the Gaussian(R) 09 system (copyright 2009, Gaussian, Inc.),
 the Gaussian(R) 03 system (copyright 2003, Gaussian, Inc.),
 the Gaussian(R) 98 system (copyright 1998, Gaussian, Inc.),
 the Gaussian(R) 94 system (copyright 1995, Gaussian, Inc.),
 the Gaussian 92(TM) system (copyright 1992, Gaussian, Inc.),
 the Gaussian 90(TM) system (copyright 1990, Gaussian, Inc.),
 the Gaussian 88(TM) system (copyright 1988, Gaussian, Inc.),
 the Gaussian 86(TM) system (copyright 1986, Carnegie Mellon
 University), and the Gaussian 82(TM) system (copyright 1983,
 Carnegie Mellon University). Gaussian is a federally registered
 trademark of Gaussian, Inc.
  
 This software contains proprietary and confidential information,
 including trade secrets, belonging to Gaussian, Inc.
  
 This software is provided under written license and may be
 used, copied, transmitted, or stored only in accord with that
 written license.
  
 The following legend is applicable only to US Government
 contracts under FAR:
  
                    RESTRICTED RIGHTS LEGEND
  
 Use, reproduction and disclosure by the US Government is
 subject to restrictions as set forth in subparagraphs (a)
 and (c) of the Commercial Computer Software - Restricted
 Rights clause in FAR 52.227-19.
  
 Gaussian, Inc.
 340 Quinnipiac St., Bldg. 40, Wallingford CT 06492
  
  
 ---------------------------------------------------------------
 Warning -- This program may not be used in any manner that
 competes with the business of Gaussian, Inc. or will provide
 assistance to any competitor of Gaussian, Inc.  The licensee
 of this program is prohibited from giving any competitor of
 Gaussian, Inc. access to this program.  By using this program,
 the user acknowledges that Gaussian, Inc. is engaged in the
 business of creating and licensing software in the field of
 computational chemistry and represents and warrants to the
 licensee that it is not a competitor of Gaussian, Inc. and that
 it will not use this program in any manner prohibited above.
 ---------------------------------------------------------------
  

 Cite this work as:
 Gaussian 16, Revision A.03,
 M. J. Frisch, G. W. Trucks, H. B. Schlegel, G. E. Scuseria, 
 M. A. Robb, J. R. Cheeseman, G. Scalmani, V. Barone, 
 G. A. Petersson, H. Nakatsuji, X. Li, M. Caricato, A. V. Marenich, 
 J. Bloino, B. G. Janesko, R. Gomperts, B. Mennucci, H. P. Hratchian, 
 J. V. Ortiz, A. F. Izmaylov, J. L. Sonnenberg, D. Williams-Young, 
 F. Ding, F. Lipparini, F. Egidi, J. Goings, B. Peng, A. Petrone, 
 T. Henderson, D. Ranasinghe, V. G. Zakrzewski, J. Gao, N. Rega, 
 G. Zheng, W. Liang, M. Hada, M. Ehara, K. Toyota, R. Fukuda, 
 J. Hasegawa, M. Ishida, T. Nakajima, Y. Honda, O. Kitao, H. Nakai, 
 T. Vreven, K. Throssell, J. A. Montgomery, Jr., J. E. Peralta, 
 F. Ogliaro, M. J. Bearpark, J. J. Heyd, E. N. Brothers, K. N. Kudin, 
 V. N. Staroverov, T. A. Keith, R. Kobayashi, J. Normand, 
 K. Raghavachari, A. P. Rendell, J. C. Burant, S. S. Iyengar, 
 J. Tomasi, M. Cossi, J. M. Millam, M. Klene, C. Adamo, R. Cammi, 
 J. W. Ochterski, R. L. Martin, K. Morokuma, O. Farkas, 
 J. B. Foresman, and D. J. Fox, Gaussian, Inc., Wallingford CT, 2016.
 
 ******************************************
 Gaussian 16:  ES64L-G16RevA.03 25-Dec-2016
                23-May-2023 
 ******************************************
 %chk=CC1COCC1CCCC1CCCC1.chk
 %NProcShared=20
 Will use up to   20 processors via shared memory.
 -----------------------------
 # opt freq b3lyp/6-31g(2df,p)
 -----------------------------
 1/18=20,19=15,26=3,38=1/1,3;
 2/9=110,12=2,17=6,18=5,40=1/2;
 3/5=1,6=6,7=104,11=2,25=1,30=1,71=1,74=-5/1,2,3;
 4//1;
 5/5=2,38=5/2;
 6/7=2,8=2,9=2,10=2,28=1/1;
 7//1,2,3,16;
 1/18=20,19=15,26=3/3(2);
 2/9=110/2;
 99//99;
 2/9=110/2;
 3/5=1,6=6,7=104,11=2,25=1,30=1,71=1,74=-5/1,2,3;
 4/5=5,16=3,69=1/1;
 5/5=2,38=5/2;
 7//1,2,3,16;
 1/18=20,19=15,26=3/3(-5);
 2/9=110/2;
 6/7=2,8=2,9=2,10=2,19=2,28=1/1;
 99/9=1/99;
 -------------------
 Title Card Required
 -------------------
 Symbolic Z-matrix:
 Charge =  0 Multiplicity = 1
 C                     1.07931   0.06008   0.09831 
 C                     2.60621   0.003     0.10353 
 C                     3.19861   1.10093   0.96501 
 O                     4.50165   0.63912   1.3216 
 C                     4.42217  -0.77925   1.49406 
 C                     3.20452  -1.27078   0.71744 
 C                     3.61663  -2.33237  -0.3217 
 C                     2.39925  -2.76601  -1.10983 
 C                     2.63891  -3.78665  -2.20596 
 C                     1.32739  -4.17299  -2.92258 
 C                     0.80182  -5.52851  -2.45473 
 C                    -0.65193  -5.52909  -2.89622 
 C                    -1.12556  -4.10331  -2.68133 
 C                     0.11818  -3.22726  -2.75383 
 H                     0.7322    0.98731  -0.37118 
 H                     0.67297   0.02014   1.11282 
 H                     0.63205  -0.76692  -0.45734 
 H                     2.97568   0.12699  -0.92119 
 H                     2.62565   1.26373   1.88342 
 H                     3.27967   2.04939   0.42637 
 H                     4.29649  -0.98674   2.56377 
 H                     5.36162  -1.23113   1.16976 
 H                     2.49604  -1.72803   1.41745 
 H                     4.05894  -3.19865   0.18633 
 H                     4.3741   -1.92954  -1.00118 
 H                     2.01324  -1.875    -1.61275 
 H                     1.64816  -3.14492  -0.40824 
 H                     3.13508  -4.6753   -1.79628 
 H                     3.33426  -3.35723  -2.93708 
 H                     1.54599  -4.25277  -3.99702 
 H                     0.87366  -5.6234   -1.36518 
 H                     1.35963  -6.35535  -2.90685 
 H                    -1.24908  -6.24585  -2.32519 
 H                    -0.72798  -5.78718  -3.95753 
 H                    -1.57816  -4.00608  -1.68614 
 H                    -1.87902  -3.79784  -3.41258 
 H                     0.11932  -2.64283  -1.83193 
 H                     0.07289  -2.50212  -3.57266 
 

 GradGradGradGradGradGradGradGradGradGradGradGradGradGradGradGradGradGrad
 Berny optimization.
 Initialization pass.
                           ----------------------------
                           !    Initial Parameters    !
                           ! (Angstroms and Degrees)  !
 --------------------------                            --------------------------
 ! Name  Definition              Value          Derivative Info.                !
 --------------------------------------------------------------------------------
 ! R1    R(1,2)                  1.528          estimate D2E/DX2                !
 ! R2    R(1,15)                 1.0957         estimate D2E/DX2                !
 ! R3    R(1,16)                 1.0936         estimate D2E/DX2                !
 ! R4    R(1,17)                 1.0921         estimate D2E/DX2                !
 ! R5    R(2,3)                  1.5161         estimate D2E/DX2                !
 ! R6    R(2,6)                  1.5354         estimate D2E/DX2                !
 ! R7    R(2,18)                 1.0963         estimate D2E/DX2                !
 ! R8    R(3,4)                  1.4277         estimate D2E/DX2                !
 ! R9    R(3,19)                 1.0947         estimate D2E/DX2                !
 ! R10   R(3,20)                 1.0937         estimate D2E/DX2                !
 ! R11   R(4,5)                  1.431          estimate D2E/DX2                !
 ! R12   R(5,6)                  1.5256         estimate D2E/DX2                !
 ! R13   R(5,21)                 1.0969         estimate D2E/DX2                !
 ! R14   R(5,22)                 1.0918         estimate D2E/DX2                !
 ! R15   R(6,7)                  1.5416         estimate D2E/DX2                !
 ! R16   R(6,23)                 1.0959         estimate D2E/DX2                !
 ! R17   R(7,8)                  1.5137         estimate D2E/DX2                !
 ! R18   R(7,24)                 1.0973         estimate D2E/DX2                !
 ! R19   R(7,25)                 1.0944         estimate D2E/DX2                !
 ! R20   R(8,9)                  1.5168         estimate D2E/DX2                !
 ! R21   R(8,26)                 1.0935         estimate D2E/DX2                !
 ! R22   R(8,27)                 1.0954         estimate D2E/DX2                !
 ! R23   R(9,10)                 1.5437         estimate D2E/DX2                !
 ! R24   R(9,28)                 1.0971         estimate D2E/DX2                !
 ! R25   R(9,29)                 1.0966         estimate D2E/DX2                !
 ! R26   R(10,11)                1.5273         estimate D2E/DX2                !
 ! R27   R(10,14)                1.5444         estimate D2E/DX2                !
 ! R28   R(10,30)                1.0994         estimate D2E/DX2                !
 ! R29   R(11,12)                1.5193         estimate D2E/DX2                !
 ! R30   R(11,31)                1.096          estimate D2E/DX2                !
 ! R31   R(11,32)                1.0951         estimate D2E/DX2                !
 ! R32   R(12,13)                1.5177         estimate D2E/DX2                !
 ! R33   R(12,33)                1.0938         estimate D2E/DX2                !
 ! R34   R(12,34)                1.0949         estimate D2E/DX2                !
 ! R35   R(13,14)                1.523          estimate D2E/DX2                !
 ! R36   R(13,35)                1.0976         estimate D2E/DX2                !
 ! R37   R(13,36)                1.0935         estimate D2E/DX2                !
 ! R38   R(14,37)                1.0915         estimate D2E/DX2                !
 ! R39   R(14,38)                1.0947         estimate D2E/DX2                !
 ! A1    A(2,1,15)             110.4648         estimate D2E/DX2                !
 ! A2    A(2,1,16)             111.5166         estimate D2E/DX2                !
 ! A3    A(2,1,17)             112.5008         estimate D2E/DX2                !
 ! A4    A(15,1,16)            108.1004         estimate D2E/DX2                !
 ! A5    A(15,1,17)            107.0412         estimate D2E/DX2                !
 ! A6    A(16,1,17)            106.9877         estimate D2E/DX2                !
 ! A7    A(1,2,3)              111.4294         estimate D2E/DX2                !
 ! A8    A(1,2,6)              114.9462         estimate D2E/DX2                !
 ! A9    A(1,2,18)             109.2294         estimate D2E/DX2                !
 ! A10   A(3,2,6)              102.7873         estimate D2E/DX2                !
 ! A11   A(3,2,18)             108.5133         estimate D2E/DX2                !
 ! A12   A(6,2,18)             109.6473         estimate D2E/DX2                !
 ! A13   A(2,3,4)              105.3252         estimate D2E/DX2                !
 ! A14   A(2,3,19)             112.3287         estimate D2E/DX2                !
 ! A15   A(2,3,20)             112.1549         estimate D2E/DX2                !
 ! A16   A(4,3,19)             108.4374         estimate D2E/DX2                !
 ! A17   A(4,3,20)             109.6247         estimate D2E/DX2                !
 ! A18   A(19,3,20)            108.8449         estimate D2E/DX2                !
 ! A19   A(3,4,5)              107.4583         estimate D2E/DX2                !
 ! A20   A(4,5,6)              107.5971         estimate D2E/DX2                !
 ! A21   A(4,5,21)             108.1428         estimate D2E/DX2                !
 ! A22   A(4,5,22)             109.0656         estimate D2E/DX2                !
 ! A23   A(6,5,21)             110.1243         estimate D2E/DX2                !
 ! A24   A(6,5,22)             113.718          estimate D2E/DX2                !
 ! A25   A(21,5,22)            108.0585         estimate D2E/DX2                !
 ! A26   A(2,6,5)              104.3164         estimate D2E/DX2                !
 ! A27   A(2,6,7)              113.9504         estimate D2E/DX2                !
 ! A28   A(2,6,23)             110.4642         estimate D2E/DX2                !
 ! A29   A(5,6,7)              110.5876         estimate D2E/DX2                !
 ! A30   A(5,6,23)             108.9807         estimate D2E/DX2                !
 ! A31   A(7,6,23)             108.4243         estimate D2E/DX2                !
 ! A32   A(6,7,8)              109.4658         estimate D2E/DX2                !
 ! A33   A(6,7,24)             109.8344         estimate D2E/DX2                !
 ! A34   A(6,7,25)             110.4904         estimate D2E/DX2                !
 ! A35   A(8,7,24)             109.82           estimate D2E/DX2                !
 ! A36   A(8,7,25)             109.8055         estimate D2E/DX2                !
 ! A37   A(24,7,25)            107.3996         estimate D2E/DX2                !
 ! A38   A(7,8,9)              116.2296         estimate D2E/DX2                !
 ! A39   A(7,8,26)             106.8537         estimate D2E/DX2                !
 ! A40   A(7,8,27)             108.4856         estimate D2E/DX2                !
 ! A41   A(9,8,26)             105.7649         estimate D2E/DX2                !
 ! A42   A(9,8,27)             109.7814         estimate D2E/DX2                !
 ! A43   A(26,8,27)            109.5338         estimate D2E/DX2                !
 ! A44   A(8,9,10)             111.6941         estimate D2E/DX2                !
 ! A45   A(8,9,28)             110.2815         estimate D2E/DX2                !
 ! A46   A(8,9,29)             108.573          estimate D2E/DX2                !
 ! A47   A(10,9,28)            110.785          estimate D2E/DX2                !
 ! A48   A(10,9,29)            109.1016         estimate D2E/DX2                !
 ! A49   A(28,9,29)            106.2232         estimate D2E/DX2                !
 ! A50   A(9,10,11)            111.8573         estimate D2E/DX2                !
 ! A51   A(9,10,14)            117.4675         estimate D2E/DX2                !
 ! A52   A(9,10,30)            107.634          estimate D2E/DX2                !
 ! A53   A(11,10,14)           103.9217         estimate D2E/DX2                !
 ! A54   A(11,10,30)           107.6624         estimate D2E/DX2                !
 ! A55   A(14,10,30)           107.8739         estimate D2E/DX2                !
 ! A56   A(10,11,12)           103.9219         estimate D2E/DX2                !
 ! A57   A(10,11,31)           111.0268         estimate D2E/DX2                !
 ! A58   A(10,11,32)           111.6154         estimate D2E/DX2                !
 ! A59   A(12,11,31)           110.5823         estimate D2E/DX2                !
 ! A60   A(12,11,32)           111.5389         estimate D2E/DX2                !
 ! A61   A(31,11,32)           108.1595         estimate D2E/DX2                !
 ! A62   A(11,12,13)           104.8984         estimate D2E/DX2                !
 ! A63   A(11,12,33)           111.7729         estimate D2E/DX2                !
 ! A64   A(11,12,34)           110.3789         estimate D2E/DX2                !
 ! A65   A(13,12,33)           111.797          estimate D2E/DX2                !
 ! A66   A(13,12,34)           109.6956         estimate D2E/DX2                !
 ! A67   A(33,12,34)           108.28           estimate D2E/DX2                !
 ! A68   A(12,13,14)           106.1877         estimate D2E/DX2                !
 ! A69   A(12,13,35)           109.8945         estimate D2E/DX2                !
 ! A70   A(12,13,36)           112.506          estimate D2E/DX2                !
 ! A71   A(14,13,35)           109.205          estimate D2E/DX2                !
 ! A72   A(14,13,36)           111.7259         estimate D2E/DX2                !
 ! A73   A(35,13,36)           107.3051         estimate D2E/DX2                !
 ! A74   A(10,14,13)           106.9995         estimate D2E/DX2                !
 ! A75   A(10,14,37)           114.7932         estimate D2E/DX2                !
 ! A76   A(10,14,38)           110.8734         estimate D2E/DX2                !
 ! A77   A(13,14,37)           105.5823         estimate D2E/DX2                !
 ! A78   A(13,14,38)           112.5099         estimate D2E/DX2                !
 ! A79   A(37,14,38)           106.0887         estimate D2E/DX2                !
 ! D1    D(15,1,2,3)            64.6564         estimate D2E/DX2                !
 ! D2    D(15,1,2,6)          -178.9326         estimate D2E/DX2                !
 ! D3    D(15,1,2,18)          -55.2224         estimate D2E/DX2                !
 ! D4    D(16,1,2,3)           -55.5807         estimate D2E/DX2                !
 ! D5    D(16,1,2,6)            60.8303         estimate D2E/DX2                !
 ! D6    D(16,1,2,18)         -175.4595         estimate D2E/DX2                !
 ! D7    D(17,1,2,3)          -175.7951         estimate D2E/DX2                !
 ! D8    D(17,1,2,6)           -59.3842         estimate D2E/DX2                !
 ! D9    D(17,1,2,18)           64.326          estimate D2E/DX2                !
 ! D10   D(1,2,3,4)            157.3313         estimate D2E/DX2                !
 ! D11   D(1,2,3,19)            39.4874         estimate D2E/DX2                !
 ! D12   D(1,2,3,20)           -83.4867         estimate D2E/DX2                !
 ! D13   D(6,2,3,4)             33.7106         estimate D2E/DX2                !
 ! D14   D(6,2,3,19)           -84.1333         estimate D2E/DX2                !
 ! D15   D(6,2,3,20)           152.8926         estimate D2E/DX2                !
 ! D16   D(18,2,3,4)           -82.3674         estimate D2E/DX2                !
 ! D17   D(18,2,3,19)          159.7887         estimate D2E/DX2                !
 ! D18   D(18,2,3,20)           36.8146         estimate D2E/DX2                !
 ! D19   D(1,2,6,5)           -141.0251         estimate D2E/DX2                !
 ! D20   D(1,2,6,7)             98.2806         estimate D2E/DX2                !
 ! D21   D(1,2,6,23)           -24.0554         estimate D2E/DX2                !
 ! D22   D(3,2,6,5)            -19.7753         estimate D2E/DX2                !
 ! D23   D(3,2,6,7)           -140.4696         estimate D2E/DX2                !
 ! D24   D(3,2,6,23)            97.1944         estimate D2E/DX2                !
 ! D25   D(18,2,6,5)            95.4867         estimate D2E/DX2                !
 ! D26   D(18,2,6,7)           -25.2077         estimate D2E/DX2                !
 ! D27   D(18,2,6,23)         -147.5436         estimate D2E/DX2                !
 ! D28   D(2,3,4,5)            -35.3607         estimate D2E/DX2                !
 ! D29   D(19,3,4,5)            85.0772         estimate D2E/DX2                !
 ! D30   D(20,3,4,5)          -156.2142         estimate D2E/DX2                !
 ! D31   D(3,4,5,6)             22.167          estimate D2E/DX2                !
 ! D32   D(3,4,5,21)           -96.7642         estimate D2E/DX2                !
 ! D33   D(3,4,5,22)           145.9526         estimate D2E/DX2                !
 ! D34   D(4,5,6,2)             -0.3628         estimate D2E/DX2                !
 ! D35   D(4,5,6,7)            122.5524         estimate D2E/DX2                !
 ! D36   D(4,5,6,23)          -118.355          estimate D2E/DX2                !
 ! D37   D(21,5,6,2)           117.2912         estimate D2E/DX2                !
 ! D38   D(21,5,6,7)          -119.7935         estimate D2E/DX2                !
 ! D39   D(21,5,6,23)           -0.7009         estimate D2E/DX2                !
 ! D40   D(22,5,6,2)          -121.2698         estimate D2E/DX2                !
 ! D41   D(22,5,6,7)             1.6455         estimate D2E/DX2                !
 ! D42   D(22,5,6,23)          120.7381         estimate D2E/DX2                !
 ! D43   D(2,6,7,8)            -60.889          estimate D2E/DX2                !
 ! D44   D(2,6,7,24)           178.4611         estimate D2E/DX2                !
 ! D45   D(2,6,7,25)            60.1568         estimate D2E/DX2                !
 ! D46   D(5,6,7,8)           -178.0107         estimate D2E/DX2                !
 ! D47   D(5,6,7,24)            61.3394         estimate D2E/DX2                !
 ! D48   D(5,6,7,25)           -56.9649         estimate D2E/DX2                !
 ! D49   D(23,6,7,8)            62.5605         estimate D2E/DX2                !
 ! D50   D(23,6,7,24)          -58.0894         estimate D2E/DX2                !
 ! D51   D(23,6,7,25)         -176.3938         estimate D2E/DX2                !
 ! D52   D(6,7,8,9)            178.4234         estimate D2E/DX2                !
 ! D53   D(6,7,8,26)            60.6658         estimate D2E/DX2                !
 ! D54   D(6,7,8,27)           -57.3461         estimate D2E/DX2                !
 ! D55   D(24,7,8,9)           -60.918          estimate D2E/DX2                !
 ! D56   D(24,7,8,26)         -178.6756         estimate D2E/DX2                !
 ! D57   D(24,7,8,27)           63.3125         estimate D2E/DX2                !
 ! D58   D(25,7,8,9)            56.9635         estimate D2E/DX2                !
 ! D59   D(25,7,8,26)          -60.7941         estimate D2E/DX2                !
 ! D60   D(25,7,8,27)         -178.806          estimate D2E/DX2                !
 ! D61   D(7,8,9,10)           178.9291         estimate D2E/DX2                !
 ! D62   D(7,8,9,28)            55.2754         estimate D2E/DX2                !
 ! D63   D(7,8,9,29)           -60.7253         estimate D2E/DX2                !
 ! D64   D(26,8,9,10)          -62.7156         estimate D2E/DX2                !
 ! D65   D(26,8,9,28)          173.6307         estimate D2E/DX2                !
 ! D66   D(26,8,9,29)           57.6301         estimate D2E/DX2                !
 ! D67   D(27,8,9,10)           55.3677         estimate D2E/DX2                !
 ! D68   D(27,8,9,28)          -68.286          estimate D2E/DX2                !
 ! D69   D(27,8,9,29)          175.7133         estimate D2E/DX2                !
 ! D70   D(8,9,10,11)         -102.3099         estimate D2E/DX2                !
 ! D71   D(8,9,10,14)           17.7359         estimate D2E/DX2                !
 ! D72   D(8,9,10,30)          139.621          estimate D2E/DX2                !
 ! D73   D(28,9,10,11)          21.0589         estimate D2E/DX2                !
 ! D74   D(28,9,10,14)         141.1047         estimate D2E/DX2                !
 ! D75   D(28,9,10,30)         -97.0101         estimate D2E/DX2                !
 ! D76   D(29,9,10,11)         137.6544         estimate D2E/DX2                !
 ! D77   D(29,9,10,14)        -102.2998         estimate D2E/DX2                !
 ! D78   D(29,9,10,30)          19.5853         estimate D2E/DX2                !
 ! D79   D(9,10,11,12)         162.3358         estimate D2E/DX2                !
 ! D80   D(9,10,11,31)          43.4337         estimate D2E/DX2                !
 ! D81   D(9,10,11,32)         -77.3279         estimate D2E/DX2                !
 ! D82   D(14,10,11,12)         34.642          estimate D2E/DX2                !
 ! D83   D(14,10,11,31)        -84.2601         estimate D2E/DX2                !
 ! D84   D(14,10,11,32)        154.9783         estimate D2E/DX2                !
 ! D85   D(30,10,11,12)        -79.6121         estimate D2E/DX2                !
 ! D86   D(30,10,11,31)        161.4858         estimate D2E/DX2                !
 ! D87   D(30,10,11,32)         40.7242         estimate D2E/DX2                !
 ! D88   D(9,10,14,13)        -143.3584         estimate D2E/DX2                !
 ! D89   D(9,10,14,37)         -26.574          estimate D2E/DX2                !
 ! D90   D(9,10,14,38)          93.6146         estimate D2E/DX2                !
 ! D91   D(11,10,14,13)        -19.2229         estimate D2E/DX2                !
 ! D92   D(11,10,14,37)         97.5615         estimate D2E/DX2                !
 ! D93   D(11,10,14,38)       -142.2499         estimate D2E/DX2                !
 ! D94   D(30,10,14,13)         94.8802         estimate D2E/DX2                !
 ! D95   D(30,10,14,37)       -148.3354         estimate D2E/DX2                !
 ! D96   D(30,10,14,38)        -28.1468         estimate D2E/DX2                !
 ! D97   D(10,11,12,13)        -37.4263         estimate D2E/DX2                !
 ! D98   D(10,11,12,33)       -158.7597         estimate D2E/DX2                !
 ! D99   D(10,11,12,34)         80.664          estimate D2E/DX2                !
 ! D100  D(31,11,12,13)         81.7798         estimate D2E/DX2                !
 ! D101  D(31,11,12,33)        -39.5536         estimate D2E/DX2                !
 ! D102  D(31,11,12,34)       -160.1298         estimate D2E/DX2                !
 ! D103  D(32,11,12,13)       -157.8142         estimate D2E/DX2                !
 ! D104  D(32,11,12,33)         80.8523         estimate D2E/DX2                !
 ! D105  D(32,11,12,34)        -39.7239         estimate D2E/DX2                !
 ! D106  D(11,12,13,14)         25.2424         estimate D2E/DX2                !
 ! D107  D(11,12,13,35)        -92.7479         estimate D2E/DX2                !
 ! D108  D(11,12,13,36)        147.7563         estimate D2E/DX2                !
 ! D109  D(33,12,13,14)        146.56           estimate D2E/DX2                !
 ! D110  D(33,12,13,35)         28.5697         estimate D2E/DX2                !
 ! D111  D(33,12,13,36)        -90.9261         estimate D2E/DX2                !
 ! D112  D(34,12,13,14)        -93.3104         estimate D2E/DX2                !
 ! D113  D(34,12,13,35)        148.6994         estimate D2E/DX2                !
 ! D114  D(34,12,13,36)         29.2035         estimate D2E/DX2                !
 ! D115  D(12,13,14,10)         -3.5616         estimate D2E/DX2                !
 ! D116  D(12,13,14,37)       -126.2788         estimate D2E/DX2                !
 ! D117  D(12,13,14,38)        118.4443         estimate D2E/DX2                !
 ! D118  D(35,13,14,10)        114.885          estimate D2E/DX2                !
 ! D119  D(35,13,14,37)         -7.8322         estimate D2E/DX2                !
 ! D120  D(35,13,14,38)       -123.1092         estimate D2E/DX2                !
 ! D121  D(36,13,14,10)       -126.5682         estimate D2E/DX2                !
 ! D122  D(36,13,14,37)        110.7147         estimate D2E/DX2                !
 ! D123  D(36,13,14,38)         -4.5623         estimate D2E/DX2                !
 --------------------------------------------------------------------------------
 Trust Radius=3.00D-01 FncErr=1.00D-07 GrdErr=1.00D-06 EigMax=2.50D+02 EigMin=1.00D-04
 Number of steps in this run=    228 maximum allowed number of steps=    228.
 GradGradGradGradGradGradGradGradGradGradGradGradGradGradGradGradGradGrad

                          Input orientation:                          
 ---------------------------------------------------------------------
 Center     Atomic      Atomic             Coordinates (Angstroms)
 Number     Number       Type             X           Y           Z
 ---------------------------------------------------------------------
      1          6           0        1.079310    0.060080    0.098310
      2          6           0        2.606210    0.003000    0.103530
      3          6           0        3.198610    1.100930    0.965010
      4          8           0        4.501650    0.639120    1.321600
      5          6           0        4.422170   -0.779250    1.494060
      6          6           0        3.204520   -1.270780    0.717440
      7          6           0        3.616630   -2.332370   -0.321700
      8          6           0        2.399250   -2.766010   -1.109830
      9          6           0        2.638910   -3.786650   -2.205960
     10          6           0        1.327390   -4.172990   -2.922580
     11          6           0        0.801820   -5.528510   -2.454730
     12          6           0       -0.651930   -5.529090   -2.896220
     13          6           0       -1.125560   -4.103310   -2.681330
     14          6           0        0.118180   -3.227260   -2.753830
     15          1           0        0.732200    0.987310   -0.371180
     16          1           0        0.672970    0.020140    1.112820
     17          1           0        0.632050   -0.766920   -0.457340
     18          1           0        2.975680    0.126990   -0.921190
     19          1           0        2.625650    1.263730    1.883420
     20          1           0        3.279670    2.049390    0.426370
     21          1           0        4.296490   -0.986740    2.563770
     22          1           0        5.361620   -1.231130    1.169760
     23          1           0        2.496040   -1.728030    1.417450
     24          1           0        4.058940   -3.198650    0.186330
     25          1           0        4.374100   -1.929540   -1.001180
     26          1           0        2.013240   -1.875000   -1.612750
     27          1           0        1.648160   -3.144920   -0.408240
     28          1           0        3.135080   -4.675300   -1.796280
     29          1           0        3.334260   -3.357230   -2.937080
     30          1           0        1.545990   -4.252770   -3.997020
     31          1           0        0.873660   -5.623400   -1.365180
     32          1           0        1.359630   -6.355350   -2.906850
     33          1           0       -1.249080   -6.245850   -2.325190
     34          1           0       -0.727980   -5.787180   -3.957530
     35          1           0       -1.578160   -4.006080   -1.686140
     36          1           0       -1.879020   -3.797840   -3.412580
     37          1           0        0.119320   -2.642830   -1.831930
     38          1           0        0.072890   -2.502120   -3.572660
 ---------------------------------------------------------------------
                    Distance matrix (angstroms):
                    1          2          3          4          5
     1  C    0.000000
     2  C    1.527975   0.000000
     3  C    2.515148   1.516092   0.000000
     4  O    3.680236   2.341161   1.427704   0.000000
     5  C    3.718509   2.417271   2.304793   1.431025   0.000000
     6  C    2.582833   1.535375   2.384604   2.386477   1.525586
     7  C    3.512580   2.579869   3.690246   3.509052   2.521520
     8  C    3.344941   3.030263   4.460624   4.682611   3.849632
     9  C    4.747562   4.438047   5.852927   5.958265   5.090640
    10  C    5.206362   5.313343   6.813887   7.158589   6.371958
    11  C    6.150394   6.355952   7.835094   8.123366   7.159284
    12  C    6.572916   7.086466   8.584458   9.077236   8.220829
    13  C    5.470070   6.208328   7.686245   8.377326   7.698088
    14  C    4.457026   4.978893   6.484755   7.125506   6.523929
    15  H    1.095747   2.169361   2.807399   4.146745   4.496191
    16  H    1.093589   2.180912   2.751147   3.884008   3.852385
    17  H    1.092116   2.191953   3.478387   4.485017   4.262995
    18  H    2.154084   1.096327   2.134481   2.760610   2.957539
    19  H    2.650766   2.181244   1.094652   2.055518   2.748245
    20  H    2.984386   2.178414   1.093746   2.069670   3.232100
    21  H    4.186236   3.144744   2.849516   2.056331   1.096871
    22  H    4.599283   3.201907   3.187325   2.064083   1.091757
    23  H    2.635259   2.176003   2.949800   3.104039   2.148495
    24  H    4.416476   3.516794   4.453414   4.026575   2.774093
    25  H    4.002887   2.842627   3.798872   3.465486   2.748036
    26  H    2.746723   2.612301   4.111704   4.596019   4.081162
    27  H    3.294269   3.330040   4.724082   5.045167   4.112210
    28  H    5.499044   5.076955   6.402624   6.311240   5.259481
    29  H    5.096705   4.589827   5.926204   5.955667   5.240661
    30  H    5.965752   6.004178   7.484317   7.807319   7.105611
    31  H    5.872482   6.067554   7.486774   7.720120   6.650787
    32  H    7.089944   7.144576   8.600538   8.756408   7.735635
    33  H    7.145593   7.733697   9.196877   9.683635   8.754054
    34  H    7.342110   7.818901   9.332501   9.824234   9.017940
    35  H    5.174946   6.065030   7.478481   8.221221   7.518648
    36  H    5.996800   6.850307   8.303226   9.100111   8.537681
    37  H    3.457330   4.114735   5.596485   6.318288   5.748883
    38  H    4.588439   5.119347   6.583505   7.309931   6.896098
                    6          7          8          9         10
     6  C    0.000000
     7  C    1.541629   0.000000
     8  C    2.494612   1.513673   0.000000
     9  C    3.898177   2.573189   1.516787   0.000000
    10  C    5.019580   3.923401   2.532694   1.543660   0.000000
    11  C    5.827855   4.763222   3.462939   2.543789   1.527266
    12  C    6.787043   5.921805   4.487260   3.787108   2.399460
    13  C    6.190675   5.585020   4.084393   3.807556   2.465770
    14  C    5.040141   4.353761   2.849345   2.639538   1.544367
    15  H    3.520856   4.398029   4.172777   5.458265   5.787278
    16  H    2.869067   4.032032   3.960158   5.419490   5.856198
    17  H    2.872557   3.372944   2.746835   4.025410   4.261715
    18  H    2.165926   2.611256   2.955893   4.132871   5.021180
    19  H    2.849270   4.333189   5.024899   6.498426   7.371637
    20  H    3.333751   4.457911   5.130607   6.434213   7.331090
    21  H    2.163796   3.255590   4.501184   5.773854   7.004840
    22  H    2.204370   2.546011   4.040795   5.033817   6.455757
    23  H    1.095918   2.155363   2.733846   4.169824   5.116584
    24  H    2.174579   1.097348   2.149832   2.843463   4.251591
    25  H    2.180719   1.094407   2.147445   2.812692   4.243499
    26  H    2.685892   2.108757   1.093541   2.097085   2.732545
    27  H    2.683619   2.131338   1.095417   2.150628   2.735275
    28  H    4.232537   2.809911   2.158251   1.097142   2.188289
    29  H    4.210181   2.823169   2.136031   1.096563   2.166380
    30  H    5.819718   4.635026   3.357733   2.149334   1.099351
    31  H    5.358686   4.409491   3.249201   2.682661   2.176018
    32  H    6.510910   5.287856   4.146499   2.953984   2.182655
    33  H    7.337811   6.557776   5.186203   4.601994   3.360330
    34  H    7.597221   6.635556   5.197733   4.290229   2.810921
    35  H    6.011081   5.625731   4.205912   4.254649   3.162098
    36  H    7.020362   6.473277   4.966983   4.676296   3.265257
    37  H    4.230871   3.822088   2.394720   2.792231   2.233907
    38  H    5.452363   4.812032   3.398105   3.178419   2.188191
                   11         12         13         14         15
    11  C    0.000000
    12  C    1.519310   0.000000
    13  C    2.407766   1.517680   0.000000
    14  C    2.419210   2.431412   1.523026   0.000000
    15  H    6.841194   7.124262   5.890881   4.880230   0.000000
    16  H    6.597843   6.972927   5.884991   5.079801   1.772338
    17  H    5.166346   5.502273   4.377993   3.404585   1.759198
    18  H    6.249967   7.003680   6.149285   4.772302   2.464927
    19  H    8.263197   8.929160   7.982082   6.925351   2.957158
    20  H    8.477325   9.161356   8.180438   6.924718   2.872926
    21  H    7.617463   8.656286   8.162274   7.124260   5.021451
    22  H    7.238520   8.436079   8.072411   6.846368   5.359804
    23  H    5.683996   6.554809   5.963048   5.030058   3.699108
    24  H    4.797111   6.093058   5.993407   4.916803   5.375898
    25  H    5.275090   6.465981   6.147718   4.782124   4.708328
    26  H    3.940127   4.701362   3.994909   2.592667   3.372740
    27  H    3.253600   4.143033   3.712004   2.801680   4.232692
    28  H    2.570141   4.034882   4.389025   3.480719   6.314261
    29  H    3.370515   4.539643   4.529022   3.223917   5.677111
    30  H    2.135406   2.769766   2.981704   2.153099   6.423971
    31  H    1.096031   2.163424   2.835455   2.870642   6.686519
    32  H    1.095093   2.174671   3.361356   3.368911   7.793455
    33  H    2.176591   1.093804   2.175447   3.341410   7.749983
    34  H    2.160001   1.094885   2.149924   2.952638   7.803060
    35  H    2.927939   2.154473   1.097590   2.150370   5.656927
    36  H    3.331606   2.183942   1.093499   2.179064   6.242295
    37  H    3.029989   3.171441   2.098621   1.091540   3.960723
    38  H    3.307589   3.185197   2.189649   1.094697   4.781243
                   16         17         18         19         20
    16  H    0.000000
    17  H    1.756855   0.000000
    18  H    3.074262   2.550850   0.000000
    19  H    2.439938   3.684717   3.046397   0.000000
    20  H    3.374012   3.965153   2.367266   1.779887   0.000000
    21  H    4.031000   4.754319   3.889715   2.884302   3.849739
    22  H    4.853077   5.023124   3.450981   3.770831   3.955876
    23  H    2.544107   2.813011   3.023308   3.030603   3.983117
    24  H    4.762750   4.251023   3.668778   4.984704   5.311008
    25  H    4.687069   3.956057   2.488231   4.644886   4.366642
    26  H    3.580029   2.114356   2.326480   4.738130   4.600293
    27  H    3.644479   2.586460   3.568028   5.063930   5.508108
    28  H    6.047479   4.830461   4.883972   7.005126   7.083963
    29  H    5.906842   4.490073   4.041309   6.715104   6.367677
    30  H    6.717915   5.051314   5.539589   8.134925   7.892354
    31  H    6.166872   4.946509   6.138616   7.813797   8.238340
    32  H    7.568099   6.144918   6.969591   9.088447   9.243190
    33  H    7.401136   6.086558   7.773860   9.440324   9.843356
    34  H    7.835565   6.269292   7.610116   9.750839   9.833192
    35  H    5.395573   4.109396   6.197167   7.627888   8.045491
    36  H    6.447392   4.921930   6.721564   8.599951   8.691359
    37  H    4.008677   2.381476   4.081684   5.945311   6.091359
    38  H    5.354962   3.609543   4.729556   7.104014   6.855065
                   21         22         23         24         25
    21  H    0.000000
    22  H    1.771297   0.000000
    23  H    2.259465   2.918871   0.000000
    24  H    3.255948   2.556412   2.474073   0.000000
    25  H    3.688328   2.485146   3.068792   1.766394   0.000000
    26  H    4.842061   4.400975   3.071939   3.028800   2.439396
    27  H    4.528160   4.465698   2.461630   2.483598   3.042939
    28  H    5.827897   5.061342   4.407134   2.639082   3.115534
    29  H    6.066668   5.049418   4.724282   3.210296   2.620549
    30  H    7.827910   7.098236   6.049247   4.992645   4.729763
    31  H    6.975029   6.771982   5.054607   4.293321   5.101978
    32  H    8.208216   7.674132   6.434523   5.178686   5.683872
    33  H    9.072680   9.003524   6.960171   6.615757   7.211358
    34  H    9.529789   9.172237   7.467357   6.840078   7.046461
    35  H    7.854277   8.001066   5.605434   5.994580   6.341182
    36  H    9.041901   8.944982   6.837723   6.969258   6.957507
    37  H    6.285981   6.203608   4.128453   4.461268   4.393413
    38  H    7.602036   7.216414   5.601077   5.523020   5.043884
                   26         27         28         29         30
    26  H    0.000000
    27  H    1.787967   0.000000
    28  H    3.022232   2.545515   0.000000
    29  H    2.386619   3.046808   1.754539   0.000000
    30  H    3.399538   3.757275   2.747179   2.263487   0.000000
    31  H    3.925613   2.767390   2.489731   3.696072   3.042571
    32  H    4.709080   4.078377   2.684801   3.590098   2.375720
    33  H    5.500421   4.656658   4.686921   5.452113   3.818350
    34  H    5.321413   5.022453   4.564045   4.842290   2.743522
    35  H    4.176726   3.575439   4.761787   5.110551   3.893756
    36  H    4.699616   4.679034   5.340745   5.253430   3.504173
    37  H    2.055368   2.148567   3.636896   3.473840   3.052034
    38  H    2.828336   3.592801   4.153943   3.430992   2.326990
                   31         32         33         34         35
    31  H    0.000000
    32  H    1.774448   0.000000
    33  H    2.411449   2.675011   0.000000
    34  H    3.051615   2.405174   1.773826   0.000000
    35  H    2.954685   3.954720   2.352286   3.009042   0.000000
    36  H    3.886099   4.157580   2.751726   2.362062   1.764788
    37  H    3.109772   4.059141   3.885560   3.888834   2.182004
    38  H    3.905968   4.116599   4.161646   3.403107   2.923494
                   36         37         38
    36  H    0.000000
    37  H    2.797475   0.000000
    38  H    2.348291   1.747025   0.000000
 Stoichiometry    C13H24O
 Framework group  C1[X(C13H24O)]
 Deg. of freedom   108
 Full point group                 C1      NOp   1
 Largest Abelian subgroup         C1      NOp   1
 Largest concise Abelian subgroup C1      NOp   1
                         Standard orientation:                         
 ---------------------------------------------------------------------
 Center     Atomic      Atomic             Coordinates (Angstroms)
 Number     Number       Type             X           Y           Z
 ---------------------------------------------------------------------
      1          6           0       -1.680241    2.084118   -0.158842
      2          6           0       -2.397287    0.819685    0.312074
      3          6           0       -3.903424    0.978263    0.241797
      4          8           0       -4.419918   -0.350880    0.171445
      5          6           0       -3.499286   -1.128967   -0.599821
      6          6           0       -2.146181   -0.426127   -0.549480
      7          6           0       -1.065744   -1.369927    0.014892
      8          6           0        0.253642   -0.632861    0.099517
      9          6           0        1.421511   -1.412535    0.672957
     10          6           0        2.716681   -0.572748    0.686341
     11          6           0        3.656489   -0.958837   -0.453939
     12          6           0        4.610082    0.219480   -0.556566
     13          6           0        3.750360    1.441539   -0.290479
     14          6           0        2.574072    0.958777    0.547912
     15          1           0       -1.894586    2.920088    0.516341
     16          1           0       -1.994296    2.371776   -1.166096
     17          1           0       -0.595065    1.964024   -0.185061
     18          1           0       -2.117275    0.611645    1.351423
     19          1           0       -4.223081    1.521720   -0.653043
     20          1           0       -4.306676    1.482827    1.124455
     21          1           0       -3.866316   -1.167538   -1.632743
     22          1           0       -3.479439   -2.148344   -0.209424
     23          1           0       -1.856701   -0.136912   -1.566137
     24          1           0       -0.960799   -2.247166   -0.635963
     25          1           0       -1.353013   -1.731157    1.007220
     26          1           0        0.101212    0.213558    0.774922
     27          1           0        0.509533   -0.262969   -0.899301
     28          1           0        1.567774   -2.344851    0.113389
     29          1           0        1.174231   -1.707142    1.699850
     30          1           0        3.237565   -0.778996    1.632235
     31          1           0        3.104109   -1.090274   -1.391427
     32          1           0        4.190304   -1.890502   -0.238831
     33          1           0        5.091655    0.267451   -1.537481
     34          1           0        5.391732    0.144966    0.206482
     35          1           0        3.375302    1.847965   -1.238557
     36          1           0        4.303129    2.241217    0.210223
     37          1           0        1.679867    1.289016    0.016123
     38          1           0        2.536134    1.437479    1.531663
 ---------------------------------------------------------------------
 Rotational constants (GHZ):           1.5927684           0.2701913           0.2443777
 Standard basis: 6-31G(2df,p) (6D, 7F)
 There are   554 symmetry adapted cartesian basis functions of A   symmetry.
 There are   512 symmetry adapted basis functions of A   symmetry.
   512 basis functions,   784 primitive gaussians,   554 cartesian basis functions
    55 alpha electrons       55 beta electrons
       nuclear repulsion energy       948.6732514384 Hartrees.
 NAtoms=   38 NActive=   38 NUniq=   38 SFac= 1.00D+00 NAtFMM=   60 NAOKFM=F Big=F
 Integral buffers will be    131072 words long.
 Raffenetti 2 integral format.
 Two-electron integral symmetry is turned on.
 One-electron integrals computed using PRISM.
 PrsmSu:  requested number of processors reduced to:  12 ShMem   1 Linda.
 NBasis=   512 RedAO= T EigKep=  4.12D-04  NBF=   512
 NBsUse=   512 1.00D-06 EigRej= -1.00D+00 NBFU=   512
 ExpMin= 1.61D-01 ExpMax= 5.48D+03 ExpMxC= 8.25D+02 IAcc=3 IRadAn=         5 AccDes= 0.00D+00
 Harris functional with IExCor=  402 and IRadAn=       5 diagonalized for initial guess.
 HarFok:  IExCor=  402 AccDes= 0.00D+00 IRadAn=         5 IDoV= 1 UseB2=F ITyADJ=14
 ICtDFT=  3500011 ScaDFX=  1.000000  1.000000  1.000000  1.000000
 FoFCou: FMM=F IPFlag=           0 FMFlag=      100000 FMFlg1=           0
         NFxFlg=           0 DoJE=T BraDBF=F KetDBF=T FulRan=T
         wScrn=  0.000000 ICntrl=       500 IOpCl=  0 I1Cent=   200000004 NGrid=           0
         NMat0=    1 NMatS0=      1 NMatT0=    0 NMatD0=    1 NMtDS0=    0 NMtDT0=    0
 Petite list used in FoFCou.
 Requested convergence on RMS density matrix=1.00D-08 within 128 cycles.
 Requested convergence on MAX density matrix=1.00D-06.
 Requested convergence on             energy=1.00D-06.
 No special actions if energy rises.
 Integral accuracy reduced to 1.0D-05 until final iterations.
 Initial convergence to 1.0D-05 achieved.  Increase integral accuracy.
 SCF Done:  E(RB3LYP) =  -585.086928351     A.U. after   12 cycles
            NFock= 12  Conv=0.48D-08     -V/T= 2.0078

 **********************************************************************

            Population analysis using the SCF density.

 **********************************************************************

 Orbital symmetries:
       Occupied  (A) (A) (A) (A) (A) (A) (A) (A) (A) (A) (A) (A)
                 (A) (A) (A) (A) (A) (A) (A) (A) (A) (A) (A) (A)
                 (A) (A) (A) (A) (A) (A) (A) (A) (A) (A) (A) (A)
                 (A) (A) (A) (A) (A) (A) (A) (A) (A) (A) (A) (A)
                 (A) (A) (A) (A) (A) (A) (A)
       Virtual   (A) (A) (A) (A) (A) (A) (A) (A) (A) (A) (A) (A)
                 (A) (A) (A) (A) (A) (A) (A) (A) (A) (A) (A) (A)
                 (A) (A) (A) (A) (A) (A) (A) (A) (A) (A) (A) (A)
                 (A) (A) (A) (A) (A) (A) (A) (A) (A) (A) (A) (A)
                 (A) (A) (A) (A) (A) (A) (A) (A) (A) (A) (A) (A)
                 (A) (A) (A) (A) (A) (A) (A) (A) (A) (A) (A) (A)
                 (A) (A) (A) (A) (A) (A) (A) (A) (A) (A) (A) (A)
                 (A) (A) (A) (A) (A) (A) (A) (A) (A) (A) (A) (A)
                 (A) (A) (A) (A) (A) (A) (A) (A) (A) (A) (A) (A)
                 (A) (A) (A) (A) (A) (A) (A) (A) (A) (A) (A) (A)
                 (A) (A) (A) (A) (A) (A) (A) (A) (A) (A) (A) (A)
                 (A) (A) (A) (A) (A) (A) (A) (A) (A) (A) (A) (A)
                 (A) (A) (A) (A) (A) (A) (A) (A) (A) (A) (A) (A)
                 (A) (A) (A) (A) (A) (A) (A) (A) (A) (A) (A) (A)
                 (A) (A) (A) (A) (A) (A) (A) (A) (A) (A) (A) (A)
                 (A) (A) (A) (A) (A) (A) (A) (A) (A) (A) (A) (A)
                 (A) (A) (A) (A) (A) (A) (A) (A) (A) (A) (A) (A)
                 (A) (A) (A) (A) (A) (A) (A) (A) (A) (A) (A) (A)
                 (A) (A) (A) (A) (A) (A) (A) (A) (A) (A) (A) (A)
                 (A) (A) (A) (A) (A) (A) (A) (A) (A) (A) (A) (A)
                 (A) (A) (A) (A) (A) (A) (A) (A) (A) (A) (A) (A)
                 (A) (A) (A) (A) (A) (A) (A) (A) (A) (A) (A) (A)
                 (A) (A) (A) (A) (A) (A) (A) (A) (A) (A) (A) (A)
                 (A) (A) (A) (A) (A) (A) (A) (A) (A) (A) (A) (A)
                 (A) (A) (A) (A) (A) (A) (A) (A) (A) (A) (A) (A)
                 (A) (A) (A) (A) (A) (A) (A) (A) (A) (A) (A) (A)
                 (A) (A) (A) (A) (A) (A) (A) (A) (A) (A) (A) (A)
                 (A) (A) (A) (A) (A) (A) (A) (A) (A) (A) (A) (A)
                 (A) (A) (A) (A) (A) (A) (A) (A) (A) (A) (A) (A)
                 (A) (A) (A) (A) (A) (A) (A) (A) (A) (A) (A) (A)
                 (A) (A) (A) (A) (A) (A) (A) (A) (A) (A) (A) (A)
                 (A) (A) (A) (A) (A) (A) (A) (A) (A) (A) (A) (A)
                 (A) (A) (A) (A) (A) (A) (A) (A) (A) (A) (A) (A)
                 (A) (A) (A) (A) (A) (A) (A) (A) (A) (A) (A) (A)
                 (A) (A) (A) (A) (A) (A) (A) (A) (A) (A) (A) (A)
                 (A) (A) (A) (A) (A) (A) (A) (A) (A) (A) (A) (A)
                 (A) (A) (A) (A) (A) (A) (A) (A) (A) (A) (A) (A)
                 (A) (A) (A) (A) (A) (A) (A) (A) (A) (A) (A) (A)
                 (A)
 The electronic state is 1-A.
 Alpha  occ. eigenvalues --  -19.12252 -10.21517 -10.21258 -10.18375 -10.18045
 Alpha  occ. eigenvalues --  -10.17632 -10.17538 -10.17505 -10.17129 -10.17052
 Alpha  occ. eigenvalues --  -10.16842 -10.16789 -10.16766 -10.16650  -1.01910
 Alpha  occ. eigenvalues --   -0.84058  -0.81800  -0.77883  -0.75001  -0.71100
 Alpha  occ. eigenvalues --   -0.70354  -0.67722  -0.64535  -0.59412  -0.58667
 Alpha  occ. eigenvalues --   -0.56373  -0.56156  -0.53329  -0.48964  -0.48122
 Alpha  occ. eigenvalues --   -0.47355  -0.46296  -0.45884  -0.43945  -0.42749
 Alpha  occ. eigenvalues --   -0.41717  -0.41073  -0.41019  -0.39475  -0.38962
 Alpha  occ. eigenvalues --   -0.37499  -0.36524  -0.35030  -0.34107  -0.33115
 Alpha  occ. eigenvalues --   -0.33023  -0.32699  -0.32402  -0.31712  -0.31295
 Alpha  occ. eigenvalues --   -0.30759  -0.29817  -0.29492  -0.28881  -0.23814
 Alpha virt. eigenvalues --    0.07545   0.08084   0.09005   0.09934   0.10015
 Alpha virt. eigenvalues --    0.11107   0.12199   0.13042   0.13748   0.14257
 Alpha virt. eigenvalues --    0.14954   0.15657   0.15762   0.16317   0.16610
 Alpha virt. eigenvalues --    0.17225   0.17745   0.18311   0.18856   0.19405
 Alpha virt. eigenvalues --    0.19852   0.20113   0.20554   0.21526   0.22312
 Alpha virt. eigenvalues --    0.23038   0.23688   0.23883   0.24453   0.25643
 Alpha virt. eigenvalues --    0.26509   0.27421   0.27657   0.28480   0.31123
 Alpha virt. eigenvalues --    0.32234   0.33294   0.34071   0.35461   0.43818
 Alpha virt. eigenvalues --    0.44919   0.46308   0.46934   0.47347   0.48674
 Alpha virt. eigenvalues --    0.49284   0.49585   0.50366   0.51035   0.51711
 Alpha virt. eigenvalues --    0.52179   0.53189   0.54131   0.55412   0.56340
 Alpha virt. eigenvalues --    0.57692   0.58357   0.59019   0.59044   0.59912
 Alpha virt. eigenvalues --    0.60898   0.61326   0.61677   0.62890   0.63818
 Alpha virt. eigenvalues --    0.64176   0.65688   0.67313   0.67630   0.69068
 Alpha virt. eigenvalues --    0.69279   0.69777   0.71225   0.72126   0.72692
 Alpha virt. eigenvalues --    0.73891   0.74402   0.75188   0.75461   0.76202
 Alpha virt. eigenvalues --    0.76495   0.76847   0.78135   0.78236   0.78931
 Alpha virt. eigenvalues --    0.79496   0.80256   0.80619   0.80737   0.81087
 Alpha virt. eigenvalues --    0.81615   0.82493   0.83055   0.83559   0.84204
 Alpha virt. eigenvalues --    0.85186   0.85677   0.85813   0.86112   0.87008
 Alpha virt. eigenvalues --    0.89098   0.90677   0.93812   0.94253   0.95899
 Alpha virt. eigenvalues --    0.98355   1.02425   1.03131   1.04584   1.06218
 Alpha virt. eigenvalues --    1.08021   1.09565   1.11100   1.13013   1.14550
 Alpha virt. eigenvalues --    1.16106   1.16816   1.18043   1.19138   1.19979
 Alpha virt. eigenvalues --    1.23160   1.24076   1.24655   1.26440   1.28010
 Alpha virt. eigenvalues --    1.28858   1.32519   1.33143   1.34128   1.34925
 Alpha virt. eigenvalues --    1.35594   1.36693   1.37547   1.38810   1.39656
 Alpha virt. eigenvalues --    1.41428   1.42779   1.43994   1.44507   1.45173
 Alpha virt. eigenvalues --    1.46598   1.46800   1.47780   1.50410   1.51604
 Alpha virt. eigenvalues --    1.52230   1.52831   1.54034   1.54289   1.55535
 Alpha virt. eigenvalues --    1.56049   1.58338   1.59245   1.59862   1.60647
 Alpha virt. eigenvalues --    1.62898   1.63766   1.65005   1.66572   1.68315
 Alpha virt. eigenvalues --    1.68619   1.70026   1.71061   1.73193   1.73981
 Alpha virt. eigenvalues --    1.74661   1.77177   1.77423   1.78748   1.80442
 Alpha virt. eigenvalues --    1.84313   1.85696   1.87049   1.87720   1.88611
 Alpha virt. eigenvalues --    1.89337   1.90717   1.91838   1.93530   1.95243
 Alpha virt. eigenvalues --    1.96282   1.97852   1.99906   2.01198   2.03153
 Alpha virt. eigenvalues --    2.04278   2.09306   2.11589   2.14416   2.16327
 Alpha virt. eigenvalues --    2.17951   2.18871   2.20676   2.21470   2.21867
 Alpha virt. eigenvalues --    2.25354   2.26213   2.27524   2.28921   2.30311
 Alpha virt. eigenvalues --    2.32389   2.32783   2.33637   2.33821   2.36897
 Alpha virt. eigenvalues --    2.37694   2.39336   2.40411   2.41247   2.42173
 Alpha virt. eigenvalues --    2.43194   2.44850   2.45941   2.47535   2.49398
 Alpha virt. eigenvalues --    2.53007   2.55570   2.56276   2.57002   2.60182
 Alpha virt. eigenvalues --    2.61715   2.63957   2.64187   2.65958   2.68587
 Alpha virt. eigenvalues --    2.69867   2.70218   2.72467   2.73934   2.74790
 Alpha virt. eigenvalues --    2.75281   2.77077   2.77548   2.78607   2.79195
 Alpha virt. eigenvalues --    2.80121   2.81934   2.82426   2.83377   2.84602
 Alpha virt. eigenvalues --    2.86070   2.87014   2.87591   2.89058   2.89664
 Alpha virt. eigenvalues --    2.91103   2.91608   2.91819   2.92336   2.93740
 Alpha virt. eigenvalues --    2.94143   2.94880   2.95153   2.96061   2.98750
 Alpha virt. eigenvalues --    2.99977   3.00776   3.03222   3.03822   3.05242
 Alpha virt. eigenvalues --    3.06263   3.07072   3.10103   3.10656   3.12958
 Alpha virt. eigenvalues --    3.14691   3.16534   3.17269   3.17972   3.19582
 Alpha virt. eigenvalues --    3.21322   3.22842   3.24599   3.25589   3.26992
 Alpha virt. eigenvalues --    3.27399   3.28909   3.30000   3.31488   3.32892
 Alpha virt. eigenvalues --    3.35556   3.36650   3.38816   3.39830   3.40759
 Alpha virt. eigenvalues --    3.41073   3.42646   3.44169   3.44599   3.45143
 Alpha virt. eigenvalues --    3.47011   3.48797   3.49217   3.50689   3.51333
 Alpha virt. eigenvalues --    3.52256   3.53460   3.55413   3.56755   3.57781
 Alpha virt. eigenvalues --    3.58283   3.59450   3.60698   3.63743   3.64395
 Alpha virt. eigenvalues --    3.65954   3.67490   3.68593   3.70290   3.71878
 Alpha virt. eigenvalues --    3.73816   3.75069   3.76274   3.78295   3.78604
 Alpha virt. eigenvalues --    3.80157   3.81268   3.83695   3.83987   3.85783
 Alpha virt. eigenvalues --    3.87544   3.89424   3.91295   3.93507   3.97577
 Alpha virt. eigenvalues --    3.98011   3.99239   4.01534   4.07083   4.09941
 Alpha virt. eigenvalues --    4.10314   4.15067   4.15967   4.21197   4.23272
 Alpha virt. eigenvalues --    4.25096   4.29087   4.32123   4.35248   4.36768
 Alpha virt. eigenvalues --    4.37397   4.39593   4.40384   4.42510   4.43930
 Alpha virt. eigenvalues --    4.44832   4.47130   4.48095   4.49015   4.49759
 Alpha virt. eigenvalues --    4.51439   4.52584   4.53519   4.55501   4.56114
 Alpha virt. eigenvalues --    4.56606   4.57184   4.58040   4.58181   4.59613
 Alpha virt. eigenvalues --    4.60163   4.61071   4.61994   4.63091   4.63904
 Alpha virt. eigenvalues --    4.64885   4.65721   4.66820   4.68044   4.69186
 Alpha virt. eigenvalues --    4.70309   4.70755   4.71548   4.72098   4.72418
 Alpha virt. eigenvalues --    4.73825   4.74239   4.74891   4.76215   4.77341
 Alpha virt. eigenvalues --    4.78131   4.78388   4.79372   4.80398   4.81910
 Alpha virt. eigenvalues --    4.82741   4.84148   4.84808   4.85370   4.86237
 Alpha virt. eigenvalues --    4.86680   4.87413   4.88437   4.90995   4.91352
 Alpha virt. eigenvalues --    4.92234   4.93165   4.94572   4.95278   4.96677
 Alpha virt. eigenvalues --    4.97036   4.98691   5.00479   5.02872   5.05666
 Alpha virt. eigenvalues --    5.06230   5.09361   5.11054   5.13321   5.13961
 Alpha virt. eigenvalues --    5.16103   5.18071   5.21195   5.25894   5.29307
 Alpha virt. eigenvalues --    5.30456   5.34384   5.36633   5.39157   5.40459
 Alpha virt. eigenvalues --    5.42721   5.45560   5.46443   5.47346   5.49142
 Alpha virt. eigenvalues --    5.53792   5.56843   5.61799   5.62189   5.65389
 Alpha virt. eigenvalues --    5.73570   5.75384   5.83718   5.85675   5.97563
 Alpha virt. eigenvalues --    6.04737   6.13352   6.24096   6.26105   6.42659
 Alpha virt. eigenvalues --    6.83961   7.09077   7.28071  10.99540  11.18620
 Alpha virt. eigenvalues --   11.46869  11.63717  11.88947  11.91319  11.98917
 Alpha virt. eigenvalues --   12.17319  12.43504  12.64730  12.68826  13.00382
 Alpha virt. eigenvalues --   13.08156  13.40840
          Condensed to atoms (all electrons):
               1          2          3          4          5          6
     1  C    5.070848   0.363732  -0.029544   0.002469   0.003713  -0.024255
     2  C    0.363732   4.716721   0.382571  -0.053151  -0.054450   0.444374
     3  C   -0.029544   0.382571   4.845054   0.390631  -0.127834  -0.053347
     4  O    0.002469  -0.053151   0.390631   7.686885   0.390505  -0.051824
     5  C    0.003713  -0.054450  -0.127834   0.390505   4.870382   0.358721
     6  C   -0.024255   0.444374  -0.053347  -0.051824   0.358721   4.767393
     7  C    0.002829  -0.012397   0.002636   0.001594  -0.023015   0.396001
     8  C   -0.003373  -0.007029   0.000286  -0.000113   0.001811  -0.025810
     9  C    0.000281   0.000134  -0.000009   0.000001  -0.000109   0.002154
    10  C    0.000031   0.000005  -0.000000  -0.000000   0.000001  -0.000120
    11  C   -0.000001  -0.000000  -0.000000   0.000000   0.000000   0.000001
    12  C   -0.000000  -0.000000  -0.000000   0.000000   0.000000  -0.000000
    13  C    0.000010   0.000001   0.000000  -0.000000  -0.000000  -0.000001
    14  C   -0.000548  -0.000016  -0.000000   0.000000   0.000000   0.000029
    15  H    0.369692  -0.021744  -0.003705   0.000033  -0.000150   0.003633
    16  H    0.368883  -0.023199  -0.006913   0.000046   0.000512  -0.007270
    17  H    0.369471  -0.020299   0.003982  -0.000081  -0.000122  -0.005089
    18  H   -0.052681   0.356849  -0.032681   0.001806   0.006057  -0.047482
    19  H   -0.003589  -0.040533   0.354768  -0.036360   0.004956  -0.012142
    20  H    0.000859  -0.011931   0.350871  -0.014383   0.006151   0.005793
    21  H    0.000274   0.003627   0.004606  -0.034327   0.340008  -0.031264
    22  H   -0.000209  -0.000468   0.005591  -0.021036   0.361397  -0.020504
    23  H   -0.012237  -0.046308   0.003732   0.002329  -0.030634   0.350385
    24  H   -0.000181   0.004244  -0.000165   0.000062  -0.005100  -0.021087
    25  H    0.000113  -0.009249   0.000507   0.000509  -0.003790  -0.026995
    26  H   -0.003815   0.005887  -0.000045   0.000003   0.000172  -0.006427
    27  H    0.000071  -0.001939   0.000004  -0.000001   0.000160  -0.001362
    28  H   -0.000005   0.000013   0.000000   0.000000  -0.000000   0.000032
    29  H   -0.000003  -0.000016  -0.000000  -0.000000   0.000006   0.000173
    30  H   -0.000000  -0.000000  -0.000000   0.000000  -0.000000   0.000002
    31  H    0.000000   0.000000   0.000000   0.000000  -0.000000   0.000002
    32  H    0.000000  -0.000000   0.000000  -0.000000   0.000000  -0.000000
    33  H    0.000000   0.000000   0.000000   0.000000  -0.000000   0.000000
    34  H    0.000000   0.000000   0.000000   0.000000  -0.000000  -0.000000
    35  H    0.000005  -0.000000   0.000000  -0.000000  -0.000000   0.000000
    36  H   -0.000000  -0.000000  -0.000000   0.000000   0.000000   0.000000
    37  H   -0.000300  -0.000051  -0.000000  -0.000000  -0.000001   0.000113
    38  H   -0.000009  -0.000010  -0.000000  -0.000000   0.000000   0.000002
               7          8          9         10         11         12
     1  C    0.002829  -0.003373   0.000281   0.000031  -0.000001  -0.000000
     2  C   -0.012397  -0.007029   0.000134   0.000005  -0.000000  -0.000000
     3  C    0.002636   0.000286  -0.000009  -0.000000  -0.000000  -0.000000
     4  O    0.001594  -0.000113   0.000001  -0.000000   0.000000   0.000000
     5  C   -0.023015   0.001811  -0.000109   0.000001   0.000000   0.000000
     6  C    0.396001  -0.025810   0.002154  -0.000120   0.000001  -0.000000
     7  C    4.935957   0.416268  -0.033251   0.002776   0.000040  -0.000001
     8  C    0.416268   4.742941   0.423963  -0.027115  -0.001738   0.000056
     9  C   -0.033251   0.423963   4.940791   0.396568  -0.026349   0.003486
    10  C    0.002776  -0.027115   0.396568   4.628883   0.422840  -0.048143
    11  C    0.000040  -0.001738  -0.026349   0.422840   4.887775   0.411327
    12  C   -0.000001   0.000056   0.003486  -0.048143   0.411327   4.847683
    13  C   -0.000032   0.000178   0.004403  -0.053437  -0.063085   0.425549
    14  C    0.001061  -0.010760  -0.038926   0.433564  -0.061269  -0.062174
    15  H   -0.000148   0.000016  -0.000005  -0.000000  -0.000000  -0.000000
    16  H    0.000154   0.000012  -0.000004  -0.000001   0.000000   0.000000
    17  H   -0.000561  -0.000191  -0.000122   0.000003   0.000002   0.000002
    18  H   -0.009504  -0.002548  -0.000141   0.000010  -0.000000   0.000000
    19  H    0.000125  -0.000043   0.000000   0.000000   0.000000   0.000000
    20  H   -0.000187   0.000012   0.000000   0.000000  -0.000000   0.000000
    21  H    0.003995  -0.000362   0.000003  -0.000000   0.000000  -0.000000
    22  H   -0.012248   0.000713  -0.000008   0.000000  -0.000000   0.000000
    23  H   -0.048388  -0.004957   0.000015   0.000005  -0.000001   0.000000
    24  H    0.347118  -0.028126  -0.003014  -0.000019  -0.000008   0.000000
    25  H    0.354133  -0.029090  -0.003425   0.000096  -0.000000  -0.000000
    26  H   -0.039239   0.372907  -0.028636  -0.007994  -0.000041   0.000067
    27  H   -0.038889   0.370707  -0.042299  -0.003055   0.001472  -0.000329
    28  H   -0.002796  -0.035259   0.361702  -0.027889  -0.014085   0.000418
    29  H   -0.003443  -0.028339   0.345877  -0.018553   0.004666  -0.000277
    30  H   -0.000177   0.002827  -0.037757   0.353813  -0.047472   0.002133
    31  H   -0.000170   0.000082  -0.005347  -0.035618   0.364328  -0.033925
    32  H    0.000008   0.000068   0.000049  -0.023857   0.362094  -0.028251
    33  H   -0.000000   0.000008  -0.000216   0.004589  -0.026714   0.366303
    34  H   -0.000000  -0.000016   0.000173  -0.000391  -0.030110   0.366488
    35  H   -0.000002  -0.000142   0.000098   0.001707   0.002648  -0.035099
    36  H    0.000000   0.000022  -0.000180   0.003961   0.004413  -0.027082
    37  H    0.000039   0.002544  -0.013564  -0.027050   0.000692   0.003987
    38  H   -0.000062  -0.001025   0.004558  -0.024257   0.006172   0.003874
              13         14         15         16         17         18
     1  C    0.000010  -0.000548   0.369692   0.368883   0.369471  -0.052681
     2  C    0.000001  -0.000016  -0.021744  -0.023199  -0.020299   0.356849
     3  C    0.000000  -0.000000  -0.003705  -0.006913   0.003982  -0.032681
     4  O   -0.000000   0.000000   0.000033   0.000046  -0.000081   0.001806
     5  C   -0.000000   0.000000  -0.000150   0.000512  -0.000122   0.006057
     6  C   -0.000001   0.000029   0.003633  -0.007270  -0.005089  -0.047482
     7  C   -0.000032   0.001061  -0.000148   0.000154  -0.000561  -0.009504
     8  C    0.000178  -0.010760   0.000016   0.000012  -0.000191  -0.002548
     9  C    0.004403  -0.038926  -0.000005  -0.000004  -0.000122  -0.000141
    10  C   -0.053437   0.433564  -0.000000  -0.000001   0.000003   0.000010
    11  C   -0.063085  -0.061269  -0.000000   0.000000   0.000002  -0.000000
    12  C    0.425549  -0.062174  -0.000000   0.000000   0.000002   0.000000
    13  C    4.848165   0.406928   0.000000  -0.000000  -0.000047  -0.000000
    14  C    0.406928   4.903923   0.000008   0.000007  -0.000055  -0.000007
    15  H    0.000000   0.000008   0.605605  -0.031754  -0.032281  -0.003423
    16  H   -0.000000   0.000007  -0.031754   0.598498  -0.031864   0.006103
    17  H   -0.000047  -0.000055  -0.032281  -0.031864   0.578940  -0.001873
    18  H   -0.000000  -0.000007  -0.003423   0.006103  -0.001873   0.689920
    19  H   -0.000000   0.000000  -0.000139   0.007636   0.000008   0.006958
    20  H   -0.000000  -0.000000   0.001492  -0.000262  -0.000282  -0.009727
    21  H   -0.000000   0.000000   0.000004   0.000009   0.000004  -0.000126
    22  H    0.000000   0.000000   0.000005  -0.000002  -0.000003   0.000161
    23  H    0.000000  -0.000006   0.000088   0.005258   0.000746   0.007359
    24  H    0.000001   0.000005   0.000005   0.000014  -0.000060   0.000142
    25  H   -0.000000  -0.000013   0.000008   0.000009   0.000039   0.006153
    26  H    0.000024   0.000333   0.000428   0.000040   0.000745   0.002742
    27  H    0.000010  -0.002487   0.000014   0.000102   0.000963   0.000310
    28  H   -0.000071   0.004037   0.000000   0.000000   0.000001  -0.000000
    29  H   -0.000141   0.002064   0.000000   0.000000   0.000008   0.000032
    30  H    0.003571  -0.040515   0.000000  -0.000000  -0.000001  -0.000000
    31  H    0.001371  -0.002824   0.000000  -0.000000  -0.000004  -0.000000
    32  H    0.005088   0.006713  -0.000000  -0.000000  -0.000000   0.000000
    33  H   -0.031398   0.005953   0.000000  -0.000000  -0.000000  -0.000000
    34  H   -0.030872  -0.000277  -0.000000  -0.000000  -0.000000   0.000000
    35  H    0.372716  -0.031739  -0.000000  -0.000000  -0.000012   0.000000
    36  H    0.366754  -0.027226   0.000000   0.000000   0.000003  -0.000000
    37  H   -0.028561   0.366750  -0.000019  -0.000017   0.005849  -0.000032
    38  H   -0.032485   0.363032  -0.000000  -0.000000   0.000114   0.000002
              19         20         21         22         23         24
     1  C   -0.003589   0.000859   0.000274  -0.000209  -0.012237  -0.000181
     2  C   -0.040533  -0.011931   0.003627  -0.000468  -0.046308   0.004244
     3  C    0.354768   0.350871   0.004606   0.005591   0.003732  -0.000165
     4  O   -0.036360  -0.014383  -0.034327  -0.021036   0.002329   0.000062
     5  C    0.004956   0.006151   0.340008   0.361397  -0.030634  -0.005100
     6  C   -0.012142   0.005793  -0.031264  -0.020504   0.350385  -0.021087
     7  C    0.000125  -0.000187   0.003995  -0.012248  -0.048388   0.347118
     8  C   -0.000043   0.000012  -0.000362   0.000713  -0.004957  -0.028126
     9  C    0.000000   0.000000   0.000003  -0.000008   0.000015  -0.003014
    10  C    0.000000   0.000000  -0.000000   0.000000   0.000005  -0.000019
    11  C    0.000000  -0.000000   0.000000  -0.000000  -0.000001  -0.000008
    12  C    0.000000   0.000000  -0.000000   0.000000   0.000000   0.000000
    13  C   -0.000000  -0.000000  -0.000000   0.000000   0.000000   0.000001
    14  C    0.000000  -0.000000   0.000000   0.000000  -0.000006   0.000005
    15  H   -0.000139   0.001492   0.000004   0.000005   0.000088   0.000005
    16  H    0.007636  -0.000262   0.000009  -0.000002   0.005258   0.000014
    17  H    0.000008  -0.000282   0.000004  -0.000003   0.000746  -0.000060
    18  H    0.006958  -0.009727  -0.000126   0.000161   0.007359   0.000142
    19  H    0.685079  -0.053379   0.005356  -0.000510   0.001146   0.000011
    20  H   -0.053379   0.620738  -0.000419  -0.000124  -0.000204   0.000004
    21  H    0.005356  -0.000419   0.696093  -0.057041  -0.011521   0.000486
    22  H   -0.000510  -0.000124  -0.057041   0.630575   0.006271   0.001564
    23  H    0.001146  -0.000204  -0.011521   0.006271   0.702522  -0.004227
    24  H    0.000011   0.000004   0.000486   0.001564  -0.004227   0.654810
    25  H    0.000015  -0.000024   0.000071   0.004314   0.006621  -0.041572
    26  H    0.000007   0.000016  -0.000009   0.000021  -0.000421   0.006939
    27  H    0.000001  -0.000000   0.000001   0.000030   0.006583  -0.005778
    28  H   -0.000000   0.000000   0.000000   0.000001  -0.000002   0.005036
    29  H    0.000000   0.000000   0.000000   0.000000   0.000011  -0.000443
    30  H    0.000000  -0.000000   0.000000  -0.000000  -0.000000   0.000002
    31  H    0.000000   0.000000   0.000000  -0.000000  -0.000001   0.000014
    32  H    0.000000   0.000000  -0.000000   0.000000   0.000000  -0.000001
    33  H    0.000000  -0.000000   0.000000  -0.000000   0.000000   0.000000
    34  H   -0.000000  -0.000000   0.000000  -0.000000  -0.000000   0.000000
    35  H    0.000000  -0.000000   0.000000   0.000000   0.000000   0.000000
    36  H    0.000000  -0.000000  -0.000000  -0.000000  -0.000000  -0.000000
    37  H   -0.000000   0.000000  -0.000000   0.000000   0.000004  -0.000004
    38  H    0.000000   0.000000   0.000000   0.000000   0.000000  -0.000000
              25         26         27         28         29         30
     1  C    0.000113  -0.003815   0.000071  -0.000005  -0.000003  -0.000000
     2  C   -0.009249   0.005887  -0.001939   0.000013  -0.000016  -0.000000
     3  C    0.000507  -0.000045   0.000004   0.000000  -0.000000  -0.000000
     4  O    0.000509   0.000003  -0.000001   0.000000  -0.000000   0.000000
     5  C   -0.003790   0.000172   0.000160  -0.000000   0.000006  -0.000000
     6  C   -0.026995  -0.006427  -0.001362   0.000032   0.000173   0.000002
     7  C    0.354133  -0.039239  -0.038889  -0.002796  -0.003443  -0.000177
     8  C   -0.029090   0.372907   0.370707  -0.035259  -0.028339   0.002827
     9  C   -0.003425  -0.028636  -0.042299   0.361702   0.345877  -0.037757
    10  C    0.000096  -0.007994  -0.003055  -0.027889  -0.018553   0.353813
    11  C   -0.000000  -0.000041   0.001472  -0.014085   0.004666  -0.047472
    12  C   -0.000000   0.000067  -0.000329   0.000418  -0.000277   0.002133
    13  C   -0.000000   0.000024   0.000010  -0.000071  -0.000141   0.003571
    14  C   -0.000013   0.000333  -0.002487   0.004037   0.002064  -0.040515
    15  H    0.000008   0.000428   0.000014   0.000000   0.000000   0.000000
    16  H    0.000009   0.000040   0.000102   0.000000   0.000000  -0.000000
    17  H    0.000039   0.000745   0.000963   0.000001   0.000008  -0.000001
    18  H    0.006153   0.002742   0.000310  -0.000000   0.000032  -0.000000
    19  H    0.000015   0.000007   0.000001  -0.000000   0.000000   0.000000
    20  H   -0.000024   0.000016  -0.000000   0.000000   0.000000  -0.000000
    21  H    0.000071  -0.000009   0.000001   0.000000   0.000000   0.000000
    22  H    0.004314   0.000021   0.000030   0.000001   0.000000  -0.000000
    23  H    0.006621  -0.000421   0.006583  -0.000002   0.000011  -0.000000
    24  H   -0.041572   0.006939  -0.005778   0.005036  -0.000443   0.000002
    25  H    0.641014  -0.007191   0.006765  -0.000533   0.004938  -0.000004
    26  H   -0.007191   0.641588  -0.045904   0.006459  -0.007988   0.000090
    27  H    0.006765  -0.045904   0.659706  -0.005083   0.007017  -0.000051
    28  H   -0.000533   0.006459  -0.005083   0.652089  -0.043236   0.004161
    29  H    0.004938  -0.007988   0.007017  -0.043236   0.663380  -0.012276
    30  H   -0.000004   0.000090  -0.000051   0.004161  -0.012276   0.713244
    31  H    0.000001   0.000003   0.002364   0.003040   0.000063   0.007091
    32  H    0.000000  -0.000011  -0.000023   0.002382  -0.000097  -0.009448
    33  H    0.000000  -0.000001   0.000007  -0.000006   0.000003  -0.000141
    34  H   -0.000000   0.000000   0.000006   0.000005   0.000009   0.002187
    35  H    0.000000   0.000037   0.000325   0.000006   0.000005  -0.000179
    36  H    0.000000  -0.000003  -0.000006   0.000002   0.000002  -0.000065
    37  H    0.000011  -0.001364   0.001671   0.000253  -0.000006   0.006223
    38  H    0.000004   0.001459   0.000226  -0.000170   0.000296  -0.011714
              31         32         33         34         35         36
     1  C    0.000000   0.000000   0.000000   0.000000   0.000005  -0.000000
     2  C    0.000000  -0.000000   0.000000   0.000000  -0.000000  -0.000000
     3  C    0.000000   0.000000   0.000000   0.000000   0.000000  -0.000000
     4  O    0.000000  -0.000000   0.000000   0.000000  -0.000000   0.000000
     5  C   -0.000000   0.000000  -0.000000  -0.000000  -0.000000   0.000000
     6  C    0.000002  -0.000000   0.000000  -0.000000   0.000000   0.000000
     7  C   -0.000170   0.000008  -0.000000  -0.000000  -0.000002   0.000000
     8  C    0.000082   0.000068   0.000008  -0.000016  -0.000142   0.000022
     9  C   -0.005347   0.000049  -0.000216   0.000173   0.000098  -0.000180
    10  C   -0.035618  -0.023857   0.004589  -0.000391   0.001707   0.003961
    11  C    0.364328   0.362094  -0.026714  -0.030110   0.002648   0.004413
    12  C   -0.033925  -0.028251   0.366303   0.366488  -0.035099  -0.027082
    13  C    0.001371   0.005088  -0.031398  -0.030872   0.372716   0.366754
    14  C   -0.002824   0.006713   0.005953  -0.000277  -0.031739  -0.027226
    15  H    0.000000  -0.000000   0.000000  -0.000000  -0.000000   0.000000
    16  H   -0.000000  -0.000000  -0.000000  -0.000000  -0.000000   0.000000
    17  H   -0.000004  -0.000000  -0.000000  -0.000000  -0.000012   0.000003
    18  H   -0.000000   0.000000  -0.000000   0.000000   0.000000  -0.000000
    19  H    0.000000   0.000000   0.000000  -0.000000   0.000000   0.000000
    20  H    0.000000   0.000000  -0.000000  -0.000000  -0.000000  -0.000000
    21  H    0.000000  -0.000000   0.000000   0.000000   0.000000  -0.000000
    22  H   -0.000000   0.000000  -0.000000  -0.000000   0.000000  -0.000000
    23  H   -0.000001   0.000000   0.000000  -0.000000   0.000000  -0.000000
    24  H    0.000014  -0.000001   0.000000   0.000000   0.000000  -0.000000
    25  H    0.000001   0.000000   0.000000  -0.000000   0.000000   0.000000
    26  H    0.000003  -0.000011  -0.000001   0.000000   0.000037  -0.000003
    27  H    0.002364  -0.000023   0.000007   0.000006   0.000325  -0.000006
    28  H    0.003040   0.002382  -0.000006   0.000005   0.000006   0.000002
    29  H    0.000063  -0.000097   0.000003   0.000009   0.000005   0.000002
    30  H    0.007091  -0.009448  -0.000141   0.002187  -0.000179  -0.000065
    31  H    0.652339  -0.041867  -0.007268   0.005985   0.001410  -0.000148
    32  H   -0.041867   0.643562   0.002286  -0.007508  -0.000149  -0.000218
    33  H   -0.007268   0.002286   0.648319  -0.040773  -0.010116   0.003344
    34  H    0.005985  -0.007508  -0.040773   0.647586   0.006190  -0.010476
    35  H    0.001410  -0.000149  -0.010116   0.006190   0.655843  -0.043562
    36  H   -0.000148  -0.000218   0.003344  -0.010476  -0.043562   0.647109
    37  H    0.001124  -0.000161  -0.000204  -0.000122  -0.016190   0.005369
    38  H   -0.000110  -0.000227  -0.000152   0.000255   0.005905  -0.012153
              37         38
     1  C   -0.000300  -0.000009
     2  C   -0.000051  -0.000010
     3  C   -0.000000  -0.000000
     4  O   -0.000000  -0.000000
     5  C   -0.000001   0.000000
     6  C    0.000113   0.000002
     7  C    0.000039  -0.000062
     8  C    0.002544  -0.001025
     9  C   -0.013564   0.004558
    10  C   -0.027050  -0.024257
    11  C    0.000692   0.006172
    12  C    0.003987   0.003874
    13  C   -0.028561  -0.032485
    14  C    0.366750   0.363032
    15  H   -0.000019  -0.000000
    16  H   -0.000017  -0.000000
    17  H    0.005849   0.000114
    18  H   -0.000032   0.000002
    19  H   -0.000000   0.000000
    20  H    0.000000   0.000000
    21  H   -0.000000   0.000000
    22  H    0.000000   0.000000
    23  H    0.000004   0.000000
    24  H   -0.000004  -0.000000
    25  H    0.000011   0.000004
    26  H   -0.001364   0.001459
    27  H    0.001671   0.000226
    28  H    0.000253  -0.000170
    29  H   -0.000006   0.000296
    30  H    0.006223  -0.011714
    31  H    0.001124  -0.000110
    32  H   -0.000161  -0.000227
    33  H   -0.000204  -0.000152
    34  H   -0.000122   0.000255
    35  H   -0.016190   0.005905
    36  H    0.005369  -0.012153
    37  H    0.630144  -0.047027
    38  H   -0.047027   0.657321
 Mulliken charges:
               1
     1  C   -0.422530
     2  C    0.024631
     3  C   -0.090994
     4  O   -0.265598
     5  C   -0.099348
     6  C    0.006170
     7  C   -0.240222
     8  C   -0.129385
     9  C   -0.250894
    10  C    0.048646
    11  C   -0.197597
    12  C   -0.196091
    13  C   -0.194639
    14  C   -0.215568
    15  H    0.112336
    16  H    0.114001
    17  H    0.132066
    18  H    0.075621
    19  H    0.080628
    20  H    0.104986
    21  H    0.080530
    22  H    0.101509
    23  H    0.065828
    24  H    0.089328
    25  H    0.096565
    26  H    0.109122
    27  H    0.088692
    28  H    0.089498
    29  H    0.086268
    30  H    0.064456
    31  H    0.088062
    32  H    0.089569
    33  H    0.086176
    34  H    0.091660
    35  H    0.090296
    36  H    0.090141
    37  H    0.109900
    38  H    0.086180
 Sum of Mulliken charges =  -0.00000
 Mulliken charges with hydrogens summed into heavy atoms:
               1
     1  C   -0.064127
     2  C    0.100252
     3  C    0.094621
     4  O   -0.265598
     5  C    0.082692
     6  C    0.071998
     7  C   -0.054330
     8  C    0.068429
     9  C   -0.075128
    10  C    0.113103
    11  C   -0.019965
    12  C   -0.018255
    13  C   -0.014203
    14  C   -0.019488
 Electronic spatial extent (au):  <R**2>=           4553.4377
 Charge=             -0.0000 electrons
 Dipole moment (field-independent basis, Debye):
    X=              1.6213    Y=              0.4819    Z=             -0.2955  Tot=              1.7170
 Quadrupole moment (field-independent basis, Debye-Ang):
   XX=           -102.6262   YY=            -88.5350   ZZ=            -87.3368
   XY=             -3.3449   XZ=              2.4346   YZ=              1.0495
 Traceless Quadrupole moment (field-independent basis, Debye-Ang):
   XX=             -9.7935   YY=              4.2977   ZZ=              5.4959
   XY=             -3.3449   XZ=              2.4346   YZ=              1.0495
 Octapole moment (field-independent basis, Debye-Ang**2):
  XXX=             51.8142  YYY=             -4.2899  ZZZ=              0.9895  XYY=            -13.7505
  XXY=             14.0317  XXZ=             -2.2543  XZZ=             -8.0721  YZZ=              0.8698
  YYZ=              1.3433  XYZ=             -3.3527
 Hexadecapole moment (field-independent basis, Debye-Ang**3):
 XXXX=          -5399.0035 YYYY=           -881.0303 ZZZZ=           -289.4663 XXXY=            -78.1060
 XXXZ=             55.8659 YYYX=              8.2000 YYYZ=              6.5198 ZZZX=             -3.7221
 ZZZY=             -0.5779 XXYY=           -951.4417 XXZZ=           -854.3855 YYZZ=           -192.8470
 XXYZ=             16.7842 YYXZ=             -0.3805 ZZXY=             -0.9168
 N-N= 9.486732514384D+02 E-N=-3.254083381282D+03  KE= 5.805551962580D+02
 PrsmSu:  requested number of processors reduced to:  13 ShMem   1 Linda.
 Calling FoFJK, ICntrl=      2127 FMM=F ISym2X=0 I1Cent= 0 IOpClX= 0 NMat=1 NMatS=1 NMatT=0.
 ***** Axes restored to original set *****
 -------------------------------------------------------------------
 Center     Atomic                   Forces (Hartrees/Bohr)
 Number     Number              X              Y              Z
 -------------------------------------------------------------------
[...]
 0000398,-0.00000773,-0.00004237,-0.00002358,-0.00002318,-0.00000490,-0
 .00004946,0.00002067,-0.00001447,0.00003087,0.00019738,0.00000312,0.00
 000506,-0.00001345,-0.00016368,-0.00005388,-0.00003354,-0.00026102,-0.
 00003008,0.00047724,-0.00398213,-0.00183113,-0.00220229,0.00198441,0.0
 0027272,0.00037609,-0.00157715,0.02249693,0.01386846,0.05193478,0.0000
 0683,0.00001091,0.00000587,-0.00000020,-0.00000496,0.00000492,0.000013
 72,0.00001585,0.00001151,-0.00002336,-0.00001740,-0.00001215,0.0000242
 7,0.00000555,0.00000907,-0.00001503,0.00000566,0.00000819,0.00002019,0
 .00002692,0.00001079,0.00007656,0.00001217,0.00003426,-0.00024053,0.00
 009366,0.00020609,0.00043096,-0.00037632,-0.00015765,0.00170469,-0.002
 66032,-0.00180710,0.01340769,-0.23549925,-0.11683341,0.00215973,-0.019
 44360,-0.01056288,0.00068085,-0.00152451,0.00236062,0.00000129,-0.0000
 0272,0.00000182,-0.00000434,-0.00000176,-0.00000889,-0.00000996,-0.000
 00654,0.00000574,0.00000322,0.00000722,-0.00001044,-0.00000175,-0.0000
 0340,-0.00000796,-0.00000128,-0.00000366,0.00000198,-0.00000544,-0.000
 00462,-0.00001184,-0.00000055,0.00000115,0.00000363,0.00000256,-0.0000
 0149,-0.00000122,-0.00001551,0.00000007,-0.00000856,-0.00000375,-0.000
 00423,-0.00000202,-0.00001578,0.00003758,0.00001825,-0.00000967,0.0000
 0031,0.00000624,-0.00008465,-0.00001853,-0.00005871,-0.00002575,-0.000
 03336,-0.00002155,-0.00035026,0.00000453,0.00028326,-0.00060772,0.0008
 4531,0.00041171,-0.00031427,0.00139415,0.00033379,0.00015191,0.0022052
 7,0.00089157,-0.01579414,0.25575687,0.00000856,0.00001066,0.00001082,-
 0.00000320,-0.00000097,-0.00001041,0.00000477,0.00001841,0.00001062,-0
 .00001783,-0.00002967,-0.00000694,0.00002546,0.00001290,0.00000475,-0.
 00001451,0.00001539,0.00000275,0.00002107,-0.00003226,0.00008677,-0.00
 001001,0.00011668,-0.00015312,-0.00002447,-0.00015423,0.00018735,-0.00
 002439,0.00007993,-0.00054735,0.00035970,-0.01248293,-0.01096068,0.010
 87917,-0.11743266,-0.11519406,-0.00118844,0.02037326,0.00818054,-0.000
 91318,0.00195625,-0.00159340,0.00000083,-0.00001136,-0.00000174,-0.000
 00039,0.00000049,-0.00000118,-0.00001152,0.00000209,-0.00000522,-0.000
 00087,0.00000430,-0.00000139,0.00000031,-0.00000246,-0.00000522,-0.000
 00193,-0.00000692,0.00000153,-0.00000551,-0.00000547,-0.00000950,0.000
 00074,0.00000042,0.00000368,0.00000322,-0.00000276,0.00000851,-0.00000
 115,0.00000426,-0.00000690,-0.00004074,-0.00002162,-0.00001262,0.00000
 607,-0.00004356,0.00000678,0.00000226,-0.00000892,0.00017542,0.0000404
 4,0.00002286,0.00000648,-0.00012972,-0.00006698,0.00000385,0.00005730,
 -0.00018092,0.00032197,-0.00358092,-0.00083838,-0.00071468,0.00031358,
 0.00046156,0.00084461,0.00179079,-0.01835302,-0.01117868,-0.00759363,0
 .12361796,0.12903560,-0.00000661,-0.00000771,0.00000186,-0.00002334,0.
 00001058,0.00000049,-0.00001301,0.00002737,0.00001238,0.00001333,-0.00
 006761,-0.00000989,0.00003916,0.00003473,-0.00001443,-0.00007044,0.000
 00155,0.00002689,0.00011585,-0.00003644,-0.00006821,-0.00018223,0.0000
 8334,0.00009927,-0.00044038,0.00141591,-0.00033111,-0.00261432,-0.0038
 0378,-0.00110932,-0.00021601,-0.00025134,0.00026391,-0.00023843,-0.000
 91331,0.00147272,-0.25420267,0.10396668,0.02808193,-0.01856977,0.01069
 785,0.00271070,0.00000892,-0.00002347,-0.00000652,0.00000482,-0.000000
 55,-0.00000349,-0.00002098,0.00001665,0.00000497,0.00000178,0.00001381
 ,-0.00000819,0.00000116,-0.00000720,-0.00001460,-0.00000384,-0.0000129
 7,0.00000258,-0.00001512,-0.00001405,-0.00001874,0.00001136,-0.0000006
 3,0.00000685,0.00000471,-0.00000245,-0.00000783,0.00001528,-0.00000730
 ,0.00000735,-0.00000428,0.00000066,0.00000392,0.00002369,-0.00004965,0
 .00001387,0.00000972,0.00000390,-0.00004432,-0.00046935,-0.00022586,-0
 .00028902,0.00006336,-0.00000164,0.00004279,0.00030794,-0.00013347,0.0
 0020421,-0.00002400,0.00002097,-0.00016764,0.00000412,0.00007921,-0.00
 018618,0.00144155,-0.00012894,-0.00039905,0.00002859,-0.00038466,-0.00
 047008,0.27593134,-0.00000386,-0.00000429,-0.00000019,-0.00000272,0.00
 000089,-0.00000350,-0.00000082,-0.00000099,-0.00000005,0.00000246,-0.0
 0000063,-0.00000092,0.00000302,-0.00000099,-0.00000299,-0.00001156,-0.
 00000816,0.00000694,0.00001825,-0.00001836,-0.00004712,-0.00002483,0.0
 0006258,0.00012478,-0.00055372,0.00112550,-0.00047873,-0.00287092,-0.0
 0351387,-0.00005244,0.00017384,-0.00242877,0.00061900,0.01893981,-0.01
 065773,-0.00332717,0.10489142,-0.09710178,-0.01438273,-0.02066869,0.01
 037246,0.00166975,0.00000155,-0.00000140,-0.00000190,0.00000211,-0.000
 00011,0.00000101,0.00000034,0.00000306,-0.00000056,-0.00000143,0.00000
 106,0.00000015,0.00000010,-0.00000045,-0.00000037,-0.00000042,-0.00000
 078,-0.00000019,-0.00000182,-0.00000137,-0.00000189,0.00000090,-0.0000
 0005,0.00000100,0.00000178,-0.00000039,-0.00000474,0.00001359,-0.00000
 103,0.00001105,0.00000997,0.00000779,0.00000382,0.00001088,-0.00003266
 ,-0.00000711,0.00000955,-0.00001221,-0.00006576,-0.00042941,-0.0001394
 6,-0.00026771,0.00012579,0.00008079,0.00003367,-0.00009377,0.00002831,
 0.00015492,0.00016438,0.00009271,0.00012219,0.00073130,0.00035738,0.00
 041642,-0.00046252,0.00177217,-0.00035810,0.00071858,-0.00224486,0.002
 08734,-0.11109467,0.10568527,-0.00000703,-0.00001461,-0.00000510,-0.00
 000677,0.00000646,0.00000510,-0.00000612,-0.00000352,-0.00000091,0.000
 01260,-0.00000497,0.00000060,-0.00000052,0.00000478,-0.00000213,0.0000
 0098,0.00000311,0.00000380,-0.00000023,-0.00001317,0.00001579,0.000065
 61,0.00007820,0.00002840,-0.00046759,0.00031892,0.00013212,-0.00115252
 ,-0.00005288,-0.00095713,-0.00115973,0.00186836,-0.00133788,-0.0176141
 2,0.00867187,0.00195895,0.03064890,-0.01519910,-0.05099576,-0.00641975
 ,0.00226560,-0.00013998,0.00000176,-0.00000305,-0.00000109,0.00000318,
 0.00000210,0.00000169,-0.00000255,0.00000914,0.00000052,-0.00000003,-0
 .00000003,-0.00000090,0.00000050,-0.00000070,-0.00000178,0.00000005,-0
 .00000048,-0.00000017,-0.00000091,-0.00000089,-0.00000022,0.00000296,-
 0.00000030,0.00000012,-0.00000047,0.00000066,-0.00000146,0.00001516,-0
 .00000228,0.00000589,-0.00000232,-0.00000058,-0.00000227,0.00000921,-0
 .00005386,-0.00000408,-0.00001038,0.00000463,0.00001481,-0.00009747,-0
 .00011317,-0.00005104,-0.00003032,-0.00004279,-0.00000484,-0.00026387,
 0.00028621,0.00011949,-0.00023647,-0.00003825,-0.00025227,-0.00060163,
 -0.00017192,-0.00050168,-0.00013413,-0.00054408,0.00156064,-0.00067419
 ,0.00151504,-0.00079985,-0.03015872,0.01460945,0.05447100,0.00000388,0
 .00000561,-0.00000041,-0.00000035,-0.00000044,0.00001091,0.00000527,0.
 00000764,0.00000151,-0.00000544,-0.00001056,-0.00000435,0.00000978,0.0
 0000504,0.00000276,-0.00000232,0.00000744,0.00001354,-0.00001679,0.000
 11917,0.00000399,0.00003447,-0.00012476,0.00002268,-0.00021920,0.00005
 665,0.00017871,0.00095514,-0.00064776,-0.00022771,-0.00080272,0.000522
 76,-0.00024116,0.00008456,-0.00108274,-0.00301997,-0.05067104,0.007306
 30,0.01719752,0.00177578,-0.00964352,-0.02389461,0.00000052,-0.0000044
 5,-0.00000031,-0.00000251,-0.00000323,-0.00000575,-0.00001016,-0.00000
 045,0.00000955,0.00000439,0.00000729,-0.00000829,-0.00000168,-0.000002
 63,-0.00000410,-0.00000078,-0.00000223,0.00000069,-0.00000251,-0.00000
 293,-0.00000506,0.00000175,0.00000026,0.00000127,0.00000114,0.00000036
 ,-0.00000188,-0.00004026,-0.00002068,-0.00002313,-0.00000346,-0.000008
 01,0.00000253,-0.00003478,0.00016912,0.00006438,-0.00000649,0.00002071
 ,-0.00001603,-0.00008119,-0.00002381,0.00000142,-0.00002202,-0.0000207
 1,-0.00000857,-0.00041868,0.00032478,0.00022988,-0.00001967,-0.0000081
 2,0.00003882,-0.00013384,0.00004727,-0.00014860,0.00028217,-0.00030447
 ,-0.00008510,0.00119628,-0.00017931,-0.00016207,-0.00183237,0.00989118
 ,0.02866411,0.05151421,0.00001187,0.00002154,0.00000587,0.00000455,-0.
 00000745,0.00000662,0.00001629,0.00001880,0.00000685,-0.00002566,-0.00
 001596,-0.00000932,0.00002086,0.00000634,0.00000701,-0.00001197,0.0000
 0232,0.00001928,-0.00001079,0.00012894,-0.00000240,0.00002805,-0.00023
 772,0.00006729,-0.00008427,0.00011523,-0.00002963,0.00047173,-0.000381
 23,0.00008605,-0.00056262,-0.00185214,0.00128925,-0.00155198,0.0041946
 1,0.02576910,0.00699099,-0.06963572,-0.07928823,0.00095736,-0.01047530
 ,-0.02059319,0.00000100,-0.00000178,0.00000166,-0.00000825,-0.00000635
 ,-0.00001229,-0.00001227,-0.00001258,0.00001414,0.00000675,0.00001194,
 -0.00001274,-0.00000275,-0.00000408,-0.00000661,-0.00000130,-0.0000044
 7,0.00000187,-0.00000498,-0.00000476,-0.00001073,-0.00000015,0.0000011
 4,0.00000275,0.00000287,-0.00000071,-0.00000304,-0.00005529,-0.0000175
 6,-0.00002504,-0.00000193,-0.00000836,0.00000346,-0.00002808,0.0002203
 1,0.00003301,0.00000150,0.00001125,-0.00004039,-0.00012884,-0.00000534
 ,-0.00001673,0.00003588,0.00000939,0.00001948,-0.00006054,0.00053503,-
 0.00005313,0.00019206,0.00009811,0.00014678,0.00046423,0.00013866,0.00
 023782,0.00060085,-0.00221682,0.00295189,-0.00033761,0.00194958,0.0003
 5487,0.00117952,-0.00458225,-0.01382411,-0.00455032,0.08314833,0.00000
 884,0.00001555,0.00000733,-0.00000022,-0.00000640,-0.00000421,0.000010
 37,0.00002057,0.00000841,-0.00002309,-0.00002852,-0.00000585,0.0000232
 4,0.00001483,0.00000458,-0.00000694,0.00000866,0.00000625,0.00001207,0
 .00002849,0.00003530,0.00011465,0.00000679,0.00001838,-0.00026807,0.00
 014162,0.00021324,0.00047581,-0.00002735,-0.00038546,0.00015253,0.0015
 6527,-0.00047158,0.00224015,-0.00465924,-0.01680475,0.01622175,-0.0791
 3325,-0.27844027,0.00135933,-0.00207130,-0.00456212,0.00000152,-0.0000
 0728,0.00000062,-0.00000313,-0.00000139,-0.00000494,-0.00001125,-0.000
 00533,0.00000152,0.00000216,0.00000718,-0.00000579,-0.00000080,-0.0000
 0324,-0.00000595,-0.00000158,-0.00000688,0.00000228,-0.00000495,-0.000
 00448,-0.00000834,0.00000034,0.00000113,0.00000291,0.00000074,-0.00000
 281,0.00000423,-0.00001081,-0.00000425,-0.00000887,-0.00001353,-0.0000
 1123,0.00000033,-0.00001677,0.00003763,0.00000655,-0.00001415,0.000003
 71,0.00003546,-0.00004211,-0.00000706,-0.00004104,-0.00006511,-0.00006
 323,-0.00001868,-0.00047129,0.00029870,0.00016384,0.00003268,-0.000076
 02,0.00005418,-0.00045272,-0.00007658,-0.00035416,-0.00127779,0.001990
 09,-0.00148132,-0.00003229,0.00005677,0.00207427,0.00070668,-0.0016570
 0,-0.00410582,-0.01729849,0.08379706,0.30146471,-0.00001024,-0.0000242
 5,-0.00000647,0.00000181,0.00001907,-0.00006192,-0.00003214,-0.0000429
 7,-0.00000157,0.00003666,0.00004169,0.00001958,-0.00004361,-0.00001439
 ,-0.00001354,0.00000913,-0.00003393,-0.00006937,0.00009794,-0.00055405
 ,-0.00003353,-0.00063307,0.00064381,-0.00040799,0.00113527,-0.00010080
 ,0.00112095,-0.00916380,0.01732617,0.01975201,0.00041829,-0.00091238,0
 .00077448,-0.00027065,0.00022873,-0.00034136,0.00404606,-0.01720629,-0
 .02072618,-0.06316804,0.04377048,0.05150130,-0.00000189,0.00001967,0.0
 0000269,0.00000547,0.00001117,0.00002282,0.00004277,0.00000121,-0.0000
 2768,-0.00002472,-0.00004279,0.00003992,0.00000935,0.00001345,0.000018
 78,0.00000331,0.00001055,-0.00000398,0.00001131,0.00001178,0.00002255,
 -0.00000572,-0.00000170,-0.00000532,-0.00000349,-0.00000292,0.00000345
 ,0.00020613,0.00008871,0.00011965,0.00002770,0.00005286,-0.00000538,-0
 .00061122,-0.00115539,-0.00098015,0.00009435,-0.00010328,0.00001134,0.
 00030123,-0.00017746,-0.00013380,-0.00014067,-0.00002525,-0.00003504,-
 0.00336086,0.00389063,-0.00255966,0.00064571,0.00008371,-0.00045650,-0
 .00005968,-0.00022742,-0.00020215,0.00004833,-0.00018713,0.00011454,-0
 .00003024,0.00007182,0.00015529,0.00186655,0.00078763,-0.00029686,-0.0
 0320470,-0.00430633,-0.00101229,0.07437101,0.00002976,0.00004133,0.000
 02360,0.00001358,-0.00000982,-0.00001626,0.00001620,0.00002277,0.00000
 968,-0.00003618,-0.00002174,-0.00000791,0.00002219,0.00001323,0.000018
 00,0.00003530,0.00003457,0.00004568,-0.00017265,0.00037409,0.00017682,
 -0.00021635,-0.00035486,-0.00030513,-0.00089958,0.00013615,-0.00031558
 ,0.00652994,-0.01290723,-0.01431720,0.00012321,0.00070135,-0.00101250,
 -0.00029688,0.00011549,0.00002341,0.00451177,-0.01139003,-0.01465744,0
 .04364833,-0.15012482,-0.11329583,-0.00000353,-0.00001640,-0.00000506,
 -0.00000688,-0.00000808,-0.00000696,-0.00001641,-0.00000304,0.00000599
 ,-0.00000556,0.00000808,-0.00000816,-0.00000096,-0.00000252,-0.0000038
 3,-0.00000243,-0.00000734,0.00000157,-0.00000228,-0.00000465,-0.000009
 15,0.00000013,0.00000111,0.00000224,0.00000550,-0.00000527,0.00000973,
 -0.00015846,-0.00006040,-0.00008205,-0.00005762,-0.00004325,-0.0000047
 8,-0.00070290,0.00062088,-0.00046909,0.00008680,-0.00004951,0.00015468
 ,-0.00003866,0.00004347,0.00008549,0.00003074,0.00005920,0.00005096,0.
 00258263,-0.00197794,0.00160339,-0.00002347,-0.00014465,0.00076736,-0.
 00006988,0.00031685,0.00036860,-0.00014030,-0.00032507,0.00006901,0.00
 001923,0.00007411,0.00019047,0.00019796,0.00153875,0.00052969,-0.00245
 874,-0.00193219,-0.00016130,-0.04773019,0.16400155,-0.00000483,0.00001
 224,-0.00000397,0.00001586,-0.00000667,0.00004462,0.00003978,0.0000071
 7,0.00000083,-0.00004344,0.00001550,-0.00001246,0.00000983,-0.00000353
 ,0.00002948,0.00005229,0.00000775,0.00002418,-0.00016161,0.00030898,0.
 00007446,-0.00027664,-0.00084367,-0.00034571,0.00019040,-0.00080807,0.
 00027819,-0.00177031,0.00698165,0.00798011,-0.00026316,-0.00015824,0.0
 0071569,0.00000085,-0.00023564,-0.00025639,0.00064837,-0.00434179,-0.0
 0607401,0.05174076,-0.11319946,-0.18121761,-0.00000003,0.00002157,0.00
 001416,-0.00000975,-0.00000029,-0.00001922,0.00000083,-0.00002866,0.00
 002190,0.00001288,0.00001169,-0.00002693,-0.00000708,-0.00000439,-0.00
 000780,0.00000101,0.00000382,0.00000241,0.00000212,0.00000219,-0.00000
 617,-0.00000729,0.00000278,0.00000024,-0.00000143,0.00000315,-0.000005
 22,-0.00013390,-0.00001686,-0.00004898,0.00001925,-0.00000395,0.000002
 31,-0.00118540,0.00018776,-0.00061868,0.00000904,0.00002869,-0.0001020
 7,0.00028038,0.00006814,0.00010180,-0.00006060,-0.00004490,-0.00002770
 ,-0.00170162,0.00183834,0.00056760,-0.00015484,-0.00004918,0.00016694,
 0.00000671,-0.00019858,0.00017131,0.00000390,-0.00013685,0.00013703,0.
 00002374,-0.00010072,0.00010863,-0.00027177,0.00048172,0.00085795,-0.0
 0158745,-0.00119995,0.00117187,-0.05279424,0.12824036,0.19533943,-0.00
 000558,-0.00001394,-0.00000539,-0.00000240,0.00000428,0.00000827,0.000
 00191,-0.00000911,-0.00000084,0.00000290,0.00001004,0.00000134,-0.0000
 0294,-0.00000537,-0.00000290,-0.00000830,-0.00000771,-0.00000606,0.000
 01920,-0.00005571,-0.00003457,-0.00003885,-0.00000373,0.00004212,0.001
 24365,0.00033788,0.00005659,0.00809689,0.01252428,-0.02084473,-0.00419
 166,0.00305505,-0.00164185,-0.00318245,-0.00158127,-0.00151127,-0.0052
 3555,-0.01218756,0.01930574,-0.06688497,-0.03805285,0.05891207,-0.0000
 0030,0.00000687,0.00000332,0.00000045,0.00000323,0.00000011,0.00000353
 ,0.00000039,-0.00000073,0.00000270,-0.00000455,-0.00000142,-0.00000034
 ,0.00000095,0.00000041,0.00000126,0.00000340,-0.00000062,0.00000012,0.
 00000131,0.00000131,-0.00000098,0.00000066,-0.00000079,-0.00000126,0.0
 0000336,-0.00000010,0.00001419,0.00000640,0.00000521,-0.00000345,-0.00
 000294,-0.00000257,0.00001084,-0.00005504,-0.00000497,-0.00000677,0.00
 004656,0.00006788,-0.00002359,-0.00006966,0.00034400,-0.00026893,-0.00
 037491,0.00024996,0.00116075,-0.00102248,0.00062092,-0.00005555,-0.000
 04570,-0.00006168,0.00102827,0.00110228,-0.00077579,0.00019810,-0.0004
 4524,0.00045126,0.00009496,-0.00066836,0.00052503,-0.00094609,-0.00027
 728,-0.00008030,0.00166361,0.00075957,-0.00033548,-0.00261362,-0.00481
 332,0.00737739,0.06993027,0.00001218,0.00001806,0.00000467,0.00000510,
 -0.00000606,-0.00000475,0.00000063,0.00000075,0.00000270,-0.00000389,0
 .00000972,-0.00000523,-0.00000440,-0.00000809,0.00000781,0.00000849,0.
 00000185,0.00000636,-0.00001802,0.00006201,0.00003923,0.00005017,-0.00
 013108,0.00002343,-0.00027955,0.00001436,-0.00019840,-0.00643595,-0.00
 919614,0.01308870,0.00152963,-0.00281371,0.00039521,-0.00144037,-0.002
 06650,0.00045599,-0.00320685,-0.00922864,0.01399447,-0.03710723,-0.117
 98596,0.10802431,-0.00000229,-0.00000153,-0.00000122,-0.00000521,-0.00
 000577,-0.00000530,-0.00000170,-0.00000305,0.00001134,-0.00000136,0.00
 000233,-0.00000251,0.00000010,0.00000019,-0.00000054,-0.00000041,0.000
 00110,0.00000008,0.00000175,0.00000059,-0.00000252,-0.00000061,-0.0000
 0069,0.00000046,0.00000278,-0.00000103,-0.00000350,-0.00002973,0.00000
 594,-0.00000944,0.00000142,0.00000600,0.00000006,0.00002162,0.00008615
 ,0.00002969,0.00003979,-0.00004922,-0.00004199,0.00012832,0.00007336,-
 0.00014259,0.00040381,0.00035440,0.00000067,-0.00060984,0.00056915,-0.
 00039079,-0.00010466,0.00006773,0.00036102,-0.00042795,-0.00065001,0.0
 0090195,-0.00006620,-0.00061134,0.00033064,-0.00009083,-0.00059534,0.0
 0034499,-0.00058300,-0.00037611,-0.00008947,0.00060829,0.00079126,0.00
 002006,0.00577576,0.01128585,-0.01684207,0.04183021,0.13037951,0.00003
 062,0.00003316,0.00002380,0.00000224,0.00000462,-0.00007486,-0.0000117
 3,0.00002070,0.00000335,-0.00000958,-0.00004462,0.00001585,0.00001684,
 0.00002406,-0.00002045,-0.00003066,-0.00000107,0.00001147,0.00003218,0
 .00008158,-0.00001670,-0.00026624,-0.00017439,-0.00008304,0.00057487,0
 .00034805,-0.00022370,0.00432412,0.00349283,-0.00774646,-0.00239192,0.
 00140246,0.00039293,-0.00178504,-0.00149505,0.00043005,-0.00278315,-0.
 00628647,0.00664808,0.05880171,0.11072168,-0.21542451,0.00000009,-0.00
 001925,-0.00000991,-0.00000753,-0.00000767,0.00000719,-0.00001321,0.00
 000040,-0.00000246,-0.00000339,-0.00000152,0.00002173,0.00000464,0.000
 00132,0.00000818,-0.00000218,-0.00001448,-0.00000183,-0.00000607,-0.00
 000611,0.00000010,0.00000382,-0.00000009,0.00000045,0.00000214,-0.0000
 0589,0.00002186,-0.00002594,-0.00001912,-0.00000519,-0.00007189,-0.000
 03981,0.00000268,0.00011114,0.00012472,-0.00013908,0.00006607,-0.00005
 240,0.00021066,-0.00021427,-0.00014937,0.00017100,-0.00061610,-0.00024
 529,0.00010366,-0.00033384,-0.00016368,0.00120768,-0.00010605,-0.00030
 085,0.00037756,0.00047742,0.00063103,-0.00026335,0.00011318,-0.0002869
 2,0.00026750,0.00006847,-0.00019399,0.00012802,-0.00008426,0.00031799,
 -0.00001052,0.00029876,0.00030545,0.00143288,0.00649561,0.01230152,-0.
 01903824,-0.06266090,-0.12030352,0.23157364\\0.00000013,0.00000016,-0.
 00000053,-0.00000050,0.00000143,-0.00000052,0.00000086,-0.00000102,-0.
 00000028,0.,0.00000049,0.00000061,-0.00000096,0.00000069,-0.00000033,0
 .00000026,-0.00000147,0.00000033,0.00000023,0.00000062,0.00000052,-0.0
 0000070,-0.00000085,-0.00000064,-0.00000080,-0.00000078,0.00000135,0.0
 0000366,0.00000082,0.00000400,-0.00000012,-0.00000120,-0.00000151,0.00
 000046,0.00000008,-0.00000137,-0.00000165,-0.00000007,0.00000249,-0.00
 000018,0.00000045,-0.00000373,-0.00000003,0.00000049,-0.00000083,-0.00
 000028,0.00000060,-0.00000045,-0.00000028,0.00000051,-0.00000037,0.000
 00042,-0.00000022,-0.00000013,0.,0.00000046,-0.00000024,0.00000036,-0.
 00000004,-0.00000052,-0.00000027,-0.00000008,0.00000068,-0.00000030,-0
 .00000002,0.00000057,-0.00000047,0.00000039,0.00000004,-0.00000027,-0.
 00000038,0.00000074,0.00000016,-0.00000058,0.00000032,-0.00000016,-0.0
 0000006,-0.00000052,-0.00000035,-0.00000045,0.00000024,-0.00000019,-0.
 00000029,0.00000067,0.00000054,-0.00000028,-0.00000024,-0.00000017,-0.
 00000044,0.00000018,-0.00000031,0.00000096,0.00000075,-0.00000050,0.00
 000043,-0.00000005,-0.00000072,0.00000192,-0.00000043,0.00000026,-0.00
 000027,-0.00000044,-0.00000028,-0.00000059,0.00000059,0.00000062,-0.00
 000045,-0.00000022,0.00000022,0.00000011,-0.00000045,0.00000129,-0.000
 00105,-0.00000027\\\@


 AN OPTIMIST IS A GUY
 THAT HAS NEVER HAD
 MUCH EXPERIENCE
   (CERTAIN MAXIMS OF ARCHY  -- DON MARQUIS)
 Job cpu time:       0 days 10 hours 50 minutes 36.4 seconds.
 Elapsed time:       0 days  2 hours 43 minutes  1.7 seconds.
 File lengths (MBytes):  RWF=    703 Int=      0 D2E=      0 Chk=     23 Scr=      1
 Normal termination of Gaussian 16 at Wed May 24 09:00:13 2023.
### All Done ###
