### Starting Gaussian ###
 Entering Gaussian System, Link 0=g16
 Initial command:
 /cluster/software/gaussian/gaussian-16-A.03/avx2/g16/l1.exe "/local/scratch/ks29c/Gau-30428.inp" -scrdir="/local/scratch/ks29c/"
 Entering Link 1 = /cluster/software/gaussian/gaussian-16-A.03/avx2/g16/l1.exe PID=     30454.
  
 Copyright (c) 1988,1990,1992,1993,1995,1998,2003,2009,2016,
            Gaussian, Inc.  All Rights Reserved.
  
 This is part of the Gaussian(R) 16 program.  It is based on
 the Gaussian(R) 09 system (copyright 2009, Gaussian, Inc.),
 the Gaussian(R) 03 system (copyright 2003, Gaussian, Inc.),
 the Gaussian(R) 98 system (copyright 1998, Gaussian, Inc.),
 the Gaussian(R) 94 system (copyright 1995, Gaussian, Inc.),
 the Gaussian 92(TM) system (copyright 1992, Gaussian, Inc.),
 the Gaussian 90(TM) system (copyright 1990, Gaussian, Inc.),
 the Gaussian 88(TM) system (copyright 1988, Gaussian, Inc.),
 the Gaussian 86(TM) system (copyright 1986, Carnegie Mellon
 University), and the Gaussian 82(TM) system (copyright 1983,
 Carnegie Mellon University). Gaussian is a federally registered
 trademark of Gaussian, Inc.
  
 This software contains proprietary and confidential information,
 including trade secrets, belonging to Gaussian, Inc.
  
 This software is provided under written license and may be
 used, copied, transmitted, or stored only in accord with that
 written license.
  
 The following legend is applicable only to US Government
 contracts under FAR:
  
                    RESTRICTED RIGHTS LEGEND
  
 Use, reproduction and disclosure by the US Government is
 subject to restrictions as set forth in subparagraphs (a)
 and (c) of the Commercial Computer Software - Restricted
 Rights clause in FAR 52.227-19.
  
 Gaussian, Inc.
 340 Quinnipiac St., Bldg. 40, Wallingford CT 06492
  
  
 ---------------------------------------------------------------
 Warning -- This program may not be used in any manner that
 competes with the business of Gaussian, Inc. or will provide
 assistance to any competitor of Gaussian, Inc.  The licensee
 of this program is prohibited from giving any competitor of
 Gaussian, Inc. access to this program.  By using this program,
 the user acknowledges that Gaussian, Inc. is engaged in the
 business of creating and licensing software in the field of
 computational chemistry and represents and warrants to the
 licensee that it is not a competitor of Gaussian, Inc. and that
 it will not use this program in any manner prohibited above.
 ---------------------------------------------------------------
  

 Cite this work as:
 Gaussian 16, Revision A.03,
 M. J. Frisch, G. W. Trucks, H. B. Schlegel, G. E. Scuseria, 
 M. A. Robb, J. R. Cheeseman, G. Scalmani, V. Barone, 
 G. A. Petersson, H. Nakatsuji, X. Li, M. Caricato, A. V. Marenich, 
 J. Bloino, B. G. Janesko, R. Gomperts, B. Mennucci, H. P. Hratchian, 
 J. V. Ortiz, A. F. Izmaylov, J. L. Sonnenberg, D. Williams-Young, 
 F. Ding, F. Lipparini, F. Egidi, J. Goings, B. Peng, A. Petrone, 
 T. Henderson, D. Ranasinghe, V. G. Zakrzewski, J. Gao, N. Rega, 
 G. Zheng, W. Liang, M. Hada, M. Ehara, K. Toyota, R. Fukuda, 
 J. Hasegawa, M. Ishida, T. Nakajima, Y. Honda, O. Kitao, H. Nakai, 
 T. Vreven, K. Throssell, J. A. Montgomery, Jr., J. E. Peralta, 
 F. Ogliaro, M. J. Bearpark, J. J. Heyd, E. N. Brothers, K. N. Kudin, 
 V. N. Staroverov, T. A. Keith, R. Kobayashi, J. Normand, 
 K. Raghavachari, A. P. Rendell, J. C. Burant, S. S. Iyengar, 
 J. Tomasi, M. Cossi, J. M. Millam, M. Klene, C. Adamo, R. Cammi, 
 J. W. Ochterski, R. L. Martin, K. Morokuma, O. Farkas, 
 J. B. Foresman, and D. J. Fox, Gaussian, Inc., Wallingford CT, 2016.
 
 ******************************************
 Gaussian 16:  ES64L-G16RevA.03 25-Dec-2016
                22-May-2023 
 ******************************************
 %chk=CC1CC1CC1OCCCdCCdCC1O.chk
 %NProcShared=20
 Will use up to   20 processors via shared memory.
 -----------------------------
 # opt freq b3lyp/6-31g(2df,p)
 -----------------------------
 1/18=20,19=15,26=3,38=1/1,3;
 2/9=110,12=2,17=6,18=5,40=1/2;
 3/5=1,6=6,7=104,11=2,25=1,30=1,71=1,74=-5/1,2,3;
 4//1;
 5/5=2,38=5/2;
 6/7=2,8=2,9=2,10=2,28=1/1;
 7//1,2,3,16;
 1/18=20,19=15,26=3/3(2);
 2/9=110/2;
 99//99;
 2/9=110/2;
 3/5=1,6=6,7=104,11=2,25=1,30=1,71=1,74=-5/1,2,3;
 4/5=5,16=3,69=1/1;
 5/5=2,38=5/2;
 7//1,2,3,16;
 1/18=20,19=15,26=3/3(-5);
 2/9=110/2;
 6/7=2,8=2,9=2,10=2,19=2,28=1/1;
 99/9=1/99;
 -------------------
 Title Card Required
 -------------------
 Symbolic Z-matrix:
 Charge =  0 Multiplicity = 1
 C                     1.06731   0.05375   0.0208 
 C                     2.55845   0.0923    0.04671 
 C                     3.34248  -0.60221  -1.03738 
 C                     3.3631    0.98957  -0.90674 
 C                     4.59316   1.86524  -0.38431 
 C                     4.64921   3.6907   -0.3515 
 O                     5.97178   3.95361  -0.61793 
 C                     5.83431   5.2442   -1.11659 
 C                     6.98385   5.90177  -0.51476 
 C                     6.79329   7.24993  -1.12163 
 C                     7.2175    8.15343  -0.25836 
 C                     5.8485    8.39274   0.35322 
 C                     4.88323   7.2731    0.77113 
 C                     4.22941   5.24272   0.69655 
 O                     2.78346   4.95147  -0.03308 
 H                     0.69247  -0.54772   0.85965 
 H                     0.66951  -0.38128  -0.90106 
 H                     0.67707   1.06656   0.14431 
 H                     2.87128   0.03221   1.08208 
 H                     2.74757  -1.13184  -1.80085 
 H                     4.17392  -1.27753  -0.82162 
 H                     2.92331   1.44675  -1.78501 
 H                     5.34318   1.56486  -1.17135 
 H                     4.99089   1.41735   0.52328 
 H                     4.12742   3.75399  -1.36768 
 H                     5.0694    5.91659  -0.76375 
 H                     5.22859   5.32799  -2.02082 
 H                     7.85334   5.42119  -0.88462 
 H                     6.95282   5.77415   0.63048 
 H                     5.7281    7.51299  -1.44403 
 H                     8.15702   7.96341   0.29632 
 H                     5.78136   9.51871   0.00158 
 H                     5.71387   7.5246    1.62732 
 H                     3.92365   4.96449   1.67816 
 H                     2.69654   3.93896  -0.22167 
 
 Add virtual bond connecting atoms C6         and C14        Dist= 3.63D+00.
 Add virtual bond connecting atoms C6         and H35        Dist= 3.73D+00.
 Add virtual bond connecting atoms H25        and H35        Dist= 3.48D+00.
 Add virtual bond connecting atoms H26        and C14        Dist= 3.43D+00.

 GradGradGradGradGradGradGradGradGradGradGradGradGradGradGradGradGradGrad
 Berny optimization.
 Initialization pass.
                           ----------------------------
                           !    Initial Parameters    !
                           ! (Angstroms and Degrees)  !
 --------------------------                            --------------------------
 ! Name  Definition              Value          Derivative Info.                !
 --------------------------------------------------------------------------------
 ! R1    R(1,2)                  1.4919         estimate D2E/DX2                !
 ! R2    R(1,16)                 1.0982         estimate D2E/DX2                !
 ! R3    R(1,17)                 1.0942         estimate D2E/DX2                !
 ! R4    R(1,18)                 1.0924         estimate D2E/DX2                !
 ! R5    R(2,3)                  1.5074         estimate D2E/DX2                !
 ! R6    R(2,4)                  1.5368         estimate D2E/DX2                !
 ! R7    R(2,19)                 1.0833         estimate D2E/DX2                !
 ! R8    R(3,4)                  1.5973         estimate D2E/DX2                !
 ! R9    R(3,20)                 1.1033         estimate D2E/DX2                !
 ! R10   R(3,21)                 1.0927         estimate D2E/DX2                !
 ! R11   R(4,5)                  1.5977         estimate D2E/DX2                !
 ! R12   R(4,22)                 1.0834         estimate D2E/DX2                !
 ! R13   R(5,6)                  1.8266         estimate D2E/DX2                !
 ! R14   R(5,23)                 1.1279         estimate D2E/DX2                !
 ! R15   R(5,24)                 1.0874         estimate D2E/DX2                !
 ! R16   R(6,7)                  1.3745         estimate D2E/DX2                !
 ! R17   R(6,14)                 1.9192         estimate D2E/DX2                !
 ! R18   R(6,25)                 1.1441         estimate D2E/DX2                !
 ! R19   R(6,35)                 1.9727         estimate D2E/DX2                !
 ! R20   R(7,8)                  1.3904         estimate D2E/DX2                !
 ! R21   R(8,9)                  1.4547         estimate D2E/DX2                !
 ! R22   R(8,26)                 1.0778         estimate D2E/DX2                !
 ! R23   R(8,27)                 1.0916         estimate D2E/DX2                !
 ! R24   R(9,10)                 1.4907         estimate D2E/DX2                !
 ! R25   R(9,28)                 1.0601         estimate D2E/DX2                !
 ! R26   R(9,29)                 1.1527         estimate D2E/DX2                !
 ! R27   R(10,11)                1.3197         estimate D2E/DX2                !
 ! R28   R(10,30)                1.1436         estimate D2E/DX2                !
 ! R29   R(11,12)                1.5184         estimate D2E/DX2                !
 ! R30   R(11,31)                1.1075         estimate D2E/DX2                !
 ! R31   R(12,13)                1.5362         estimate D2E/DX2                !
 ! R32   R(12,32)                1.1815         estimate D2E/DX2                !
 ! R33   R(13,33)                1.2191         estimate D2E/DX2                !
 ! R34   R(14,15)                1.6456         estimate D2E/DX2                !
 ! R35   R(14,26)                1.8144         estimate D2E/DX2                !
 ! R36   R(14,34)                1.0651         estimate D2E/DX2                !
 ! R37   R(15,35)                1.0336         estimate D2E/DX2                !
 ! R38   R(25,35)                1.8425         estimate D2E/DX2                !
 ! A1    A(2,1,16)             110.0023         estimate D2E/DX2                !
 ! A2    A(2,1,17)             112.8472         estimate D2E/DX2                !
 ! A3    A(2,1,18)             109.3379         estimate D2E/DX2                !
 ! A4    A(16,1,17)            107.5599         estimate D2E/DX2                !
 ! A5    A(16,1,18)            107.4279         estimate D2E/DX2                !
 ! A6    A(17,1,18)            109.5111         estimate D2E/DX2                !
 ! A7    A(1,2,3)              119.7006         estimate D2E/DX2                !
 ! A8    A(1,2,4)              121.8475         estimate D2E/DX2                !
 ! A9    A(1,2,19)             107.6866         estimate D2E/DX2                !
 ! A10   A(3,2,19)             120.7715         estimate D2E/DX2                !
 ! A11   A(4,2,19)             118.3058         estimate D2E/DX2                !
 ! A12   A(2,3,20)             115.9998         estimate D2E/DX2                !
 ! A13   A(2,3,21)             122.5828         estimate D2E/DX2                !
 ! A14   A(4,3,20)             122.816          estimate D2E/DX2                !
 ! A15   A(4,3,21)             126.1539         estimate D2E/DX2                !
 ! A16   A(20,3,21)            104.4923         estimate D2E/DX2                !
 ! A17   A(2,4,5)              121.3484         estimate D2E/DX2                !
 ! A18   A(2,4,22)             122.4653         estimate D2E/DX2                !
 ! A19   A(3,4,5)              125.6525         estimate D2E/DX2                !
 ! A20   A(3,4,22)             110.4254         estimate D2E/DX2                !
 ! A21   A(5,4,22)             110.2616         estimate D2E/DX2                !
 ! A22   A(4,5,6)              125.2551         estimate D2E/DX2                !
 ! A23   A(4,5,23)              97.9216         estimate D2E/DX2                !
 ! A24   A(4,5,24)             109.1928         estimate D2E/DX2                !
 ! A25   A(6,5,23)             104.9678         estimate D2E/DX2                !
 ! A26   A(6,5,24)             112.6687         estimate D2E/DX2                !
 ! A27   A(23,5,24)            103.2666         estimate D2E/DX2                !
 ! A28   A(5,6,7)              102.5445         estimate D2E/DX2                !
 ! A29   A(5,6,14)             144.219          estimate D2E/DX2                !
 ! A30   A(5,6,25)              91.4518         estimate D2E/DX2                !
 ! A31   A(5,6,35)              95.5422         estimate D2E/DX2                !
 ! A32   A(7,6,14)              99.3021         estimate D2E/DX2                !
 ! A33   A(7,6,25)             104.8386         estimate D2E/DX2                !
 ! A34   A(7,6,35)             160.2437         estimate D2E/DX2                !
 ! A35   A(14,6,25)            109.9098         estimate D2E/DX2                !
 ! A36   A(14,6,35)             69.2538         estimate D2E/DX2                !
 ! A37   A(6,7,8)               98.7387         estimate D2E/DX2                !
 ! A38   A(7,8,9)              101.1327         estimate D2E/DX2                !
 ! A39   A(7,8,26)             122.1288         estimate D2E/DX2                !
 ! A40   A(7,8,27)             115.0372         estimate D2E/DX2                !
 ! A41   A(9,8,26)              98.2435         estimate D2E/DX2                !
 ! A42   A(9,8,27)             138.2903         estimate D2E/DX2                !
 ! A43   A(26,8,27)             80.1824         estimate D2E/DX2                !
 ! A44   A(8,9,10)              98.0115         estimate D2E/DX2                !
 ! A45   A(8,9,28)             107.391          estimate D2E/DX2                !
 ! A46   A(8,9,29)             109.8594         estimate D2E/DX2                !
 ! A47   A(10,9,28)            111.8891         estimate D2E/DX2                !
 ! A48   A(10,9,29)            120.0755         estimate D2E/DX2                !
 ! A49   A(28,9,29)            108.5732         estimate D2E/DX2                !
 ! A50   A(9,10,11)            108.1665         estimate D2E/DX2                !
 ! A51   A(9,10,30)            116.2241         estimate D2E/DX2                !
 ! A52   A(11,10,30)           109.0475         estimate D2E/DX2                !
 ! A53   A(10,11,12)            94.6784         estimate D2E/DX2                !
 ! A54   A(10,11,31)           118.8733         estimate D2E/DX2                !
 ! A55   A(12,11,31)           126.1711         estimate D2E/DX2                !
 ! A56   A(11,12,13)           124.1407         estimate D2E/DX2                !
 ! A57   A(11,12,32)            94.6782         estimate D2E/DX2                !
 ! A58   A(13,12,32)           137.7163         estimate D2E/DX2                !
 ! A59   A(12,13,33)            67.2063         estimate D2E/DX2                !
 ! A60   A(6,14,15)             78.8691         estimate D2E/DX2                !
 ! A61   A(6,14,26)             76.0883         estimate D2E/DX2                !
 ! A62   A(6,14,34)            110.7824         estimate D2E/DX2                !
 ! A63   A(15,14,26)            96.6423         estimate D2E/DX2                !
 ! A64   A(15,14,34)            96.324          estimate D2E/DX2                !
 ! A65   A(14,15,35)           109.158          estimate D2E/DX2                !
 ! A66   A(8,26,14)            111.1203         estimate D2E/DX2                !
 ! A67   A(6,35,15)             92.9836         estimate D2E/DX2                !
 ! A68   A(15,35,25)            98.4254         estimate D2E/DX2                !
 ! A69   L(26,14,34,6,-1)      186.8707         estimate D2E/DX2                !
 ! A70   L(26,14,34,6,-2)      167.5991         estimate D2E/DX2                !
 ! D1    D(16,1,2,3)           111.9471         estimate D2E/DX2                !
 ! D2    D(16,1,2,4)          -172.8208         estimate D2E/DX2                !
 ! D3    D(16,1,2,19)          -31.1934         estimate D2E/DX2                !
 ! D4    D(17,1,2,3)            -8.1705         estimate D2E/DX2                !
 ! D5    D(17,1,2,4)            67.0616         estimate D2E/DX2                !
 ! D6    D(17,1,2,19)         -151.3109         estimate D2E/DX2                !
 ! D7    D(18,1,2,3)          -130.3081         estimate D2E/DX2                !
 ! D8    D(18,1,2,4)           -55.076          estimate D2E/DX2                !
 ! D9    D(18,1,2,19)           86.5515         estimate D2E/DX2                !
 ! D10   D(1,2,3,20)            -1.1545         estimate D2E/DX2                !
 ! D11   D(1,2,3,21)          -131.1063         estimate D2E/DX2                !
 ! D12   D(19,2,3,20)          137.152          estimate D2E/DX2                !
 ! D13   D(19,2,3,21)            7.2002         estimate D2E/DX2                !
 ! D14   D(1,2,4,5)            135.2081         estimate D2E/DX2                !
 ! D15   D(1,2,4,22)           -15.0397         estimate D2E/DX2                !
 ! D16   D(19,2,4,5)            -2.5895         estimate D2E/DX2                !
 ! D17   D(19,2,4,22)         -152.8373         estimate D2E/DX2                !
 ! D18   D(20,3,4,5)          -149.531          estimate D2E/DX2                !
 ! D19   D(20,3,4,22)          -13.3183         estimate D2E/DX2                !
 ! D20   D(21,3,4,5)            -2.3965         estimate D2E/DX2                !
 ! D21   D(21,3,4,22)          133.8161         estimate D2E/DX2                !
 ! D22   D(2,4,5,6)           -114.4037         estimate D2E/DX2                !
 ! D23   D(2,4,5,23)           130.9075         estimate D2E/DX2                !
 ! D24   D(2,4,5,24)            23.8241         estimate D2E/DX2                !
 ! D25   D(3,4,5,6)            175.3598         estimate D2E/DX2                !
 ! D26   D(3,4,5,23)            60.671          estimate D2E/DX2                !
 ! D27   D(3,4,5,24)           -46.4124         estimate D2E/DX2                !
 ! D28   D(22,4,5,6)            39.089          estimate D2E/DX2                !
 ! D29   D(22,4,5,23)          -75.5998         estimate D2E/DX2                !
 ! D30   D(22,4,5,24)          177.3167         estimate D2E/DX2                !
 ! D31   D(4,5,6,7)           -145.4938         estimate D2E/DX2                !
 ! D32   D(4,5,6,14)            88.2109         estimate D2E/DX2                !
 ! D33   D(4,5,6,25)           -39.9435         estimate D2E/DX2                !
 ! D34   D(4,5,6,35)            26.5088         estimate D2E/DX2                !
 ! D35   D(23,5,6,7)           -34.1676         estimate D2E/DX2                !
 ! D36   D(23,5,6,14)         -160.4629         estimate D2E/DX2                !
 ! D37   D(23,5,6,25)           71.3826         estimate D2E/DX2                !
 ! D38   D(23,5,6,35)          137.8349         estimate D2E/DX2                !
 ! D39   D(24,5,6,7)            77.4919         estimate D2E/DX2                !
 ! D40   D(24,5,6,14)          -48.8034         estimate D2E/DX2                !
 ! D41   D(24,5,6,25)         -176.9579         estimate D2E/DX2                !
 ! D42   D(24,5,6,35)         -110.5056         estimate D2E/DX2                !
 ! D43   D(5,6,7,8)            156.5573         estimate D2E/DX2                !
 ! D44   D(14,6,7,8)           -51.9666         estimate D2E/DX2                !
 ! D45   D(25,6,7,8)            61.6353         estimate D2E/DX2                !
 ! D46   D(35,6,7,8)             0.7418         estimate D2E/DX2                !
 ! D47   D(5,6,14,15)          -84.4797         estimate D2E/DX2                !
 ! D48   D(5,6,14,26)          175.7218         estimate D2E/DX2                !
 ! D49   D(5,6,14,34)            8.1227         estimate D2E/DX2                !
 ! D50   D(7,6,14,15)          148.3858         estimate D2E/DX2                !
 ! D51   D(7,6,14,26)           48.5872         estimate D2E/DX2                !
 ! D52   D(7,6,14,34)         -119.0118         estimate D2E/DX2                !
 ! D53   D(25,6,14,15)          38.7931         estimate D2E/DX2                !
 ! D54   D(25,6,14,26)         -61.0054         estimate D2E/DX2                !
 ! D55   D(25,6,14,34)         131.3955         estimate D2E/DX2                !
 ! D56   D(35,6,14,15)         -14.9022         estimate D2E/DX2                !
 ! D57   D(35,6,14,26)        -114.7007         estimate D2E/DX2                !
 ! D58   D(35,6,14,34)          77.7002         estimate D2E/DX2                !
 ! D59   D(5,6,35,15)          170.3191         estimate D2E/DX2                !
 ! D60   D(7,6,35,15)          -33.3701         estimate D2E/DX2                !
 ! D61   D(14,6,35,15)          23.7212         estimate D2E/DX2                !
 ! D62   D(6,7,8,9)            139.489          estimate D2E/DX2                !
 ! D63   D(6,7,8,26)            32.2632         estimate D2E/DX2                !
 ! D64   D(6,7,8,27)           -61.8144         estimate D2E/DX2                !
 ! D65   D(7,8,9,10)           178.3678         estimate D2E/DX2                !
 ! D66   D(7,8,9,28)            62.353          estimate D2E/DX2                !
 ! D67   D(7,8,9,29)           -55.552          estimate D2E/DX2                !
 ! D68   D(26,8,9,10)          -56.449          estimate D2E/DX2                !
 ! D69   D(26,8,9,28)         -172.4638         estimate D2E/DX2                !
 ! D70   D(26,8,9,29)           69.6312         estimate D2E/DX2                !
 ! D71   D(27,8,9,10)           28.0193         estimate D2E/DX2                !
 ! D72   D(27,8,9,28)          -87.9954         estimate D2E/DX2                !
 ! D73   D(27,8,9,29)          154.0995         estimate D2E/DX2                !
 ! D74   D(7,8,26,14)            9.4517         estimate D2E/DX2                !
 ! D75   D(9,8,26,14)          -99.2937         estimate D2E/DX2                !
 ! D76   D(27,8,26,14)         122.9357         estimate D2E/DX2                !
 ! D77   D(8,9,10,11)          147.1813         estimate D2E/DX2                !
 ! D78   D(8,9,10,30)           24.1898         estimate D2E/DX2                !
 ! D79   D(28,9,10,11)        -100.3712         estimate D2E/DX2                !
 ! D80   D(28,9,10,30)         136.6372         estimate D2E/DX2                !
 ! D81   D(29,9,10,11)          28.6302         estimate D2E/DX2                !
 ! D82   D(29,9,10,30)         -94.3613         estimate D2E/DX2                !
 ! D83   D(9,10,11,12)         -94.1415         estimate D2E/DX2                !
 ! D84   D(9,10,11,31)          42.0255         estimate D2E/DX2                !
 ! D85   D(30,10,11,12)         33.1084         estimate D2E/DX2                !
 ! D86   D(30,10,11,31)        169.2754         estimate D2E/DX2                !
 ! D87   D(10,11,12,13)         46.4077         estimate D2E/DX2                !
 ! D88   D(10,11,12,32)       -115.8331         estimate D2E/DX2                !
 ! D89   D(31,11,12,13)        -84.892          estimate D2E/DX2                !
 ! D90   D(31,11,12,32)        112.8672         estimate D2E/DX2                !
 ! D91   D(11,12,13,33)         83.8689         estimate D2E/DX2                !
 ! D92   D(32,12,13,33)       -122.993          estimate D2E/DX2                !
 ! D93   D(6,14,15,35)          29.0721         estimate D2E/DX2                !
 ! D94   D(26,14,15,35)        103.4314         estimate D2E/DX2                !
 ! D95   D(34,14,15,35)        -80.9286         estimate D2E/DX2                !
 ! D96   D(6,14,26,8)          -33.8651         estimate D2E/DX2                !
 ! D97   D(15,14,26,8)        -110.6226         estimate D2E/DX2                !
 ! D98   D(14,15,35,6)         -27.6767         estimate D2E/DX2                !
 ! D99   D(14,15,35,25)        -62.1232         estimate D2E/DX2                !
 --------------------------------------------------------------------------------
 Trust Radius=3.00D-01 FncErr=1.00D-07 GrdErr=1.00D-06 EigMax=2.50D+02 EigMin=1.00D-04
 Number of steps in this run=    210 maximum allowed number of steps=    210.
 GradGradGradGradGradGradGradGradGradGradGradGradGradGradGradGradGradGrad

                          Input orientation:                          
 ---------------------------------------------------------------------
 Center     Atomic      Atomic             Coordinates (Angstroms)
 Number     Number       Type             X           Y           Z
 ---------------------------------------------------------------------
      1          6           0        1.067310    0.053750    0.020800
      2          6           0        2.558450    0.092300    0.046710
      3          6           0        3.342480   -0.602210   -1.037380
      4          6           0        3.363100    0.989570   -0.906740
      5          6           0        4.593160    1.865240   -0.384310
      6          6           0        4.649210    3.690700   -0.351500
      7          8           0        5.971780    3.953610   -0.617930
      8          6           0        5.834310    5.244200   -1.116590
      9          6           0        6.983850    5.901770   -0.514760
     10          6           0        6.793290    7.249930   -1.121630
     11          6           0        7.217500    8.153430   -0.258360
     12          6           0        5.848500    8.392740    0.353220
     13          6           0        4.883230    7.273100    0.771130
     14          6           0        4.229410    5.242720    0.696550
     15          8           0        2.783460    4.951470   -0.033080
     16          1           0        0.692470   -0.547720    0.859650
     17          1           0        0.669510   -0.381280   -0.901060
     18          1           0        0.677070    1.066560    0.144310
     19          1           0        2.871280    0.032210    1.082080
     20          1           0        2.747570   -1.131840   -1.800850
     21          1           0        4.173920   -1.277530   -0.821620
     22          1           0        2.923310    1.446750   -1.785010
     23          1           0        5.343180    1.564860   -1.171350
     24          1           0        4.990890    1.417350    0.523280
     25          1           0        4.127420    3.753990   -1.367680
     26          1           0        5.069400    5.916590   -0.763750
     27          1           0        5.228590    5.327990   -2.020820
     28          1           0        7.853340    5.421190   -0.884620
     29          1           0        6.952820    5.774150    0.630480
     30          1           0        5.728100    7.512990   -1.444030
     31          1           0        8.157020    7.963410    0.296320
     32          1           0        5.781360    9.518710    0.001580
     33          1           0        5.713870    7.524600    1.627320
     34          1           0        3.923650    4.964490    1.678160
     35          1           0        2.696540    3.938960   -0.221670
 ---------------------------------------------------------------------
                    Distance matrix (angstroms):
                    1          2          3          4          5
     1  C    0.000000
     2  C    1.491863   0.000000
     3  C    2.593536   1.507414   0.000000
     4  C    2.647025   1.536757   1.597265   0.000000
     5  C    3.984624   2.732973   2.842360   1.597742   0.000000
     6  C    5.118205   4.180709   4.539499   3.042774   1.826615
     7  O    6.298469   5.196372   5.276803   3.959060   2.513257
     8  C    7.138537   6.215030   6.355785   4.924712   3.673426
     9  C    8.336163   7.324572   7.472246   6.114997   4.693186
    10  C    9.266984   8.398247   8.577371   7.141743   5.863369
    11  C   10.173868   9.315666   9.606450   8.160741   6.815010
    12  C    9.618162   8.933962   9.440499   7.910224   6.687906
    13  C    8.200198   7.582432   8.225882   6.678981   5.537520
    14  C    6.113994   5.453552   6.160874   4.627128   3.564820
    15  O    5.189965   4.865031   5.671374   4.098282   3.594884
    16  H    1.098153   2.133630   3.259485   3.551853   4.752388
    17  H    1.094222   2.165789   2.685547   3.022365   4.550705
    18  H    1.092395   2.120919   3.359404   2.885375   4.031512
    19  H    2.093105   1.083266   2.261997   2.261378   2.911214
    20  H    2.747236   2.224357   1.103319   2.383000   3.794111
    21  H    3.483246   2.289143   1.092658   2.409236   3.200626
    22  H    2.940431   2.307132   2.221011   1.083415   2.219345
    23  H    4.689109   3.377399   2.952447   2.078868   1.127914
    24  H    4.184062   2.810630   3.038345   2.208541   1.087435
    25  H    4.998392   4.227309   4.438661   2.904939   2.179749
    26  H    7.141788   6.394065   6.749213   5.216074   4.096854
    27  H    7.021543   6.230311   6.300146   4.852125   3.882341
    28  H    8.699391   7.569696   7.526788   6.308883   4.850141
    29  H    8.230062   7.206573   7.514937   6.175868   4.677325
    30  H    8.916779   8.205829   8.468354   6.959663   5.857318
    31  H   10.625564   9.662332   9.916068   8.547717   7.095917
    32  H   10.573935   9.962248  10.462342   8.911748   7.754762
    33  H    8.943435   8.227642   8.875199   7.392848   6.109910
    34  H    5.917845   5.316355   6.220938   4.774507   3.782509
    35  H    4.219957   3.858483   4.658846   3.100407   2.814948
                    6          7          8          9         10
     6  C    0.000000
     7  O    1.374517   0.000000
     8  C    2.098377   1.390389   0.000000
     9  C    3.219632   2.197785   1.454661   0.000000
    10  C    4.225908   3.434286   2.223201   1.490684   0.000000
    11  C    5.149830   4.395406   3.333676   2.278224   1.319660
    12  C    4.903479   4.545790   3.474744   2.871818   2.091369
    13  C    3.761470   3.759447   2.929928   2.818983   2.689127
    14  C    1.919220   2.534860   2.421401   3.080350   3.729363
    15  O    2.274193   3.391631   3.250749   4.333401   4.748326
    16  H    5.923418   7.093400   7.993146   9.114076  10.096971
    17  H    5.720232   6.854597   7.639872   8.916100   9.786966
    18  H    4.786422   6.078653   6.755714   7.974278   8.788903
    19  H    4.312857   5.280200   6.385807   7.342674   8.504939
    20  H    5.382726   6.136500   7.116886   8.310943   9.331841
    21  H    5.013005   5.535216   6.736235   7.715712   8.925731
    22  H    3.173168   4.115774   4.831287   6.160254   7.006691
    23  H    2.381794   2.531312   3.712378   4.683129   5.867309
    24  H    2.459696   2.949088   4.247977   5.015919   6.322449
    25  H    1.144068   2.000909   2.279747   3.674183   4.403294
    26  H    2.302411   2.165374   1.077818   1.930631   2.208545
    27  H    2.408948   2.099846   1.091581   2.382935   2.636415
    28  H    3.680389   2.401079   2.040004   1.060078   2.127010
    29  H    3.257555   2.415643   2.141066   1.152746   2.296359
    30  H    4.119166   3.662104   2.294756   2.244210   1.143579
    31  H    5.566009   4.657212   3.845179   2.506898   2.092701
    32  H    5.947447   5.602713   4.418659   3.846407   2.726347
    33  H    4.443874   4.226066   3.569842   2.972362   2.966027
    34  H    2.503697   3.238633   3.396982   3.879719   4.614856
    35  H    1.972665   3.299157   3.514276   4.724357   5.343764
                   11         12         13         14         15
    11  C    0.000000
    12  C    1.518374   0.000000
    13  C    2.698823   1.536225   0.000000
    14  C    4.279342   3.558364   2.134358   0.000000
    15  O    5.473939   4.624504   3.231989   1.645587   0.000000
    16  H   10.933251  10.333099   8.873304   6.787175   5.950655
    17  H   10.776387  10.265407   8.896133   6.845044   5.801758
    18  H    9.652103   8.969963   7.523684   5.510390   4.422767
    19  H    9.308094   8.904692   7.521643   5.398385   5.044840
    20  H   10.419971  10.245653   9.045393   7.004846   6.335058
    21  H    9.925908   9.884260   8.726583   6.694892   6.430833
    22  H    8.108655   7.834254   6.657439   4.719473   3.920699
    23  H    6.910563   7.014243   6.047213   4.272726   4.395106
    24  H    7.137473   7.029970   5.861982   3.904271   4.203842
    25  H    5.489468   5.238474   4.186871   2.547109   2.240836
    26  H    3.142166   2.825940   2.056851   1.814431   2.586669
    27  H    3.878806   3.925945   3.420192   2.896503   3.173569
    28  H    2.874305   3.792327   3.872032   3.957881   5.162310
    29  H    2.553638   2.855418   2.559265   2.775562   4.301241
    30  H    2.008554   2.004636   2.382916   3.461543   4.150069
    31  H    1.107463   2.348793   3.379301   4.794628   6.168909
    32  H    1.998514   1.181510   2.538033   4.601698   5.463359
    33  H    2.492412   1.547619   1.219129   2.876966   4.238541
    34  H    4.976836   4.148905   2.659545   1.065110   2.056343
    35  H    6.180791   5.486484   4.108985   2.211924   1.033585
                   16         17         18         19         20
    16  H    0.000000
    17  H    1.768708   0.000000
    18  H    1.765743   1.785804   0.000000
    19  H    2.265614   2.991924   2.600740   0.000000
    20  H    3.412168   2.385644   3.592155   3.111527   0.000000
    21  H    3.934436   3.618075   4.319229   2.652614   1.736258
    22  H    3.993593   3.033591   2.985367   3.197473   2.584620
    23  H    5.497005   5.069883   4.873587   3.679301   3.795478
    24  H    4.738255   4.892662   4.344619   2.592994   4.114904
    25  H    5.938400   5.410669   4.627452   4.629347   5.095386
    26  H    7.973722   7.683818   6.606052   6.547118   7.493119
    27  H    7.962252   7.391538   6.600296   6.574967   6.923384
    28  H    9.484114   9.234519   8.456971   7.598022   8.357665
    29  H    8.900030   8.928321   7.860204   7.059234   8.443233
    30  H    9.779548   9.391680   8.342193   8.396709   9.151173
    31  H   11.334733  11.275211  10.175426   9.563493  10.788134
    32  H   11.312210  11.178353   9.874866   9.981469  11.219931
    33  H    9.537616   9.712940   8.323158   8.032030   9.771655
    34  H    6.441657   6.768978   5.299701   5.078403   7.117016
    35  H    5.031486   4.820259   3.530281   4.122256   5.311255
                   21         22         23         24         25
    21  H    0.000000
    22  H    3.148626   0.000000
    23  H    3.093325   2.499260   0.000000
    24  H    3.120669   3.099025   1.737135   0.000000
    25  H    5.061278   2.635792   2.511754   3.127490   0.000000
    26  H    7.249869   5.062425   4.379343   4.680360   2.434933
    27  H    6.795830   4.520392   3.859518   4.671408   2.028951
    28  H    7.642967   6.396254   4.610249   5.119232   4.110399
    29  H    7.717323   6.387326   4.853417   4.779369   4.007066
    30  H    8.948526   6.691964   5.966806   6.447528   4.086329
    31  H   10.124715   8.613391   7.142352   7.275080   6.060181
    32  H   10.946247   8.747393   8.051801   8.156534   6.151617
    33  H    9.265325   7.508094   6.594579   6.248208   5.069946
    34  H    6.728622   5.036737   4.657495   3.880071   3.283896
    35  H    5.454756   2.950689   3.680074   3.489629   1.842545
                   26         27         28         29         30
    26  H    0.000000
    27  H    1.397146   0.000000
    28  H    2.830257   2.861634   0.000000
    29  H    2.347645   3.193966   1.797511   0.000000
    30  H    1.856114   2.314395   3.034009   2.971043   0.000000
    31  H    3.853131   4.570588   2.819525   2.520837   3.021812
    32  H    3.750718   4.685914   4.676336   3.973608   2.472961
    33  H    2.952669   4.285968   3.912992   2.364902   3.071405
    34  H    2.860448   3.939220   4.713691   3.305912   4.415763
    35  H    3.136134   3.402591   5.406394   4.712749   4.843368
                   31         32         33         34         35
    31  H    0.000000
    32  H    2.854749   0.000000
    33  H    2.816575   2.573725   0.000000
    34  H    5.368838   5.196434   3.124362   0.000000
    35  H    6.803040   6.379621   5.037843   2.483317   0.000000
 Stoichiometry    C13H20O2
 Framework group  C1[X(C13H20O2)]
 Deg. of freedom    99
 Full point group                 C1      NOp   1
 Largest Abelian subgroup         C1      NOp   1
 Largest concise Abelian subgroup C1      NOp   1
                         Standard orientation:                         
 ---------------------------------------------------------------------
 Center     Atomic      Atomic             Coordinates (Angstroms)
 Number     Number       Type             X           Y           Z
 ---------------------------------------------------------------------
      1          6           0       -5.173850    1.353342   -0.082360
      2          6           0       -4.446173    0.166239    0.453298
      3          6           0       -4.729064   -1.201578   -0.113576
      4          6           0       -3.306821   -0.506936   -0.327941
      5          6           0       -1.944694   -0.932756    0.390436
      6          6           0       -0.302113   -0.210277    0.049151
      7          8           0        0.537044   -1.286771    0.211240
      8          6           0        1.600415   -0.844891   -0.567969
      9          6           0        2.734492   -1.262932    0.241446
     10          6           0        3.820904   -0.798218   -0.667338
     11          6           0        4.843481   -0.417515    0.074890
     12          6           0        4.437571    1.045307    0.103999
     13          6           0        3.010740    1.538643    0.388183
     14          6           0        0.907826    1.200908    0.526659
     15          8           0       -0.043596    1.959466   -0.581197
     16          1           0       -5.855161    1.752208    0.680962
     17          1           0       -5.771312    1.120906   -0.969115
     18          1           0       -4.455102    2.140102   -0.322642
     19          1           0       -4.322973    0.309473    1.519961
     20          1           0       -5.497076   -1.248038   -0.904342
     21          1           0       -4.933976   -2.069392    0.517941
     22          1           0       -3.132866   -0.318534   -1.380572
     23          1           0       -1.885670   -1.988678   -0.001653
     24          1           0       -2.129088   -1.071115    1.453154
     25          1           0       -0.518988   -0.174283   -1.073596
     26          1           0        1.850690    0.199690   -0.656866
     27          1           0        1.366045   -0.686410   -1.622248
     28          1           0        2.702049   -2.320278    0.310243
     29          1           0        2.641463   -0.822901    1.302833
     30          1           0        3.549163    0.045865   -1.389456
     31          1           0        5.128440   -1.034292    0.949452
     32          1           0        5.392335    1.421908   -0.481292
     33          1           0        3.644903    1.316109    1.405332
     34          1           0        0.548961    1.735470    1.375139
     35          1           0       -0.985717    1.534615   -0.566841
 ---------------------------------------------------------------------
 Rotational constants (GHZ):           1.5572693           0.2223122           0.2022569
 Standard basis: 6-31G(2df,p) (6D, 7F)
 There are   565 symmetry adapted cartesian basis functions of A   symmetry.
 There are   520 symmetry adapted basis functions of A   symmetry.
   520 basis functions,   800 primitive gaussians,   565 cartesian basis functions
    57 alpha electrons       57 beta electrons
       nuclear repulsion energy       973.6513395942 Hartrees.
 NAtoms=   35 NActive=   35 NUniq=   35 SFac= 1.00D+00 NAtFMM=   60 NAOKFM=F Big=F
 Integral buffers will be    131072 words long.
 Raffenetti 2 integral format.
 Two-electron integral symmetry is turned on.
 One-electron integrals computed using PRISM.
 PrsmSu:  requested number of processors reduced to:  12 ShMem   1 Linda.
 NBasis=   520 RedAO= T EigKep=  5.39D-04  NBF=   520
 NBsUse=   520 1.00D-06 EigRej= -1.00D+00 NBFU=   520
 ExpMin= 1.61D-01 ExpMax= 5.48D+03 ExpMxC= 8.25D+02 IAcc=3 IRadAn=         5 AccDes= 0.00D+00
 Harris functional with IExCor=  402 and IRadAn=       5 diagonalized for initial guess.
 HarFok:  IExCor=  402 AccDes= 0.00D+00 IRadAn=         5 IDoV= 1 UseB2=F ITyADJ=14
 ICtDFT=  3500011 ScaDFX=  1.000000  1.000000  1.000000  1.000000
 FoFCou: FMM=F IPFlag=           0 FMFlag=      100000 FMFlg1=           0
         NFxFlg=           0 DoJE=T BraDBF=F KetDBF=T FulRan=T
         wScrn=  0.000000 ICntrl=       500 IOpCl=  0 I1Cent=   200000004 NGrid=           0
         NMat0=    1 NMatS0=      1 NMatT0=    0 NMatD0=    1 NMtDS0=    0 NMtDT0=    0
 Petite list used in FoFCou.
 Requested convergence on RMS density matrix=1.00D-08 within 128 cycles.
 Requested convergence on MAX density matrix=1.00D-06.
 Requested convergence on             energy=1.00D-06.
 No special actions if energy rises.
 Integral accuracy reduced to 1.0D-05 until final iterations.
 EnCoef did     3 forward-backward iterations
 Problem detected with inexpensive integrals.
 Switching to full accuracy and repeating last cycle.
 EnCoef did     2 forward-backward iterations
 EnCoef did     3 forward-backward iterations
 EnCoef did     1 forward-backward iterations
 Restarting incremental Fock formation.
 SCF Done:  E(RB3LYP) =  -657.075702480     A.U. after   27 cycles
            NFock= 27  Conv=0.73D-08     -V/T= 2.0080

 **********************************************************************

            Population analysis using the SCF density.

 **********************************************************************

 Orbital symmetries:
       Occupied  (A) (A) (A) (A) (A) (A) (A) (A) (A) (A) (A) (A)
                 (A) (A) (A) (A) (A) (A) (A) (A) (A) (A) (A) (A)
                 (A) (A) (A) (A) (A) (A) (A) (A) (A) (A) (A) (A)
                 (A) (A) (A) (A) (A) (A) (A) (A) (A) (A) (A) (A)
                 (A) (A) (A) (A) (A) (A) (A) (A) (A)
       Virtual   (A) (A) (A) (A) (A) (A) (A) (A) (A) (A) (A) (A)
                 (A) (A) (A) (A) (A) (A) (A) (A) (A) (A) (A) (A)
                 (A) (A) (A) (A) (A) (A) (A) (A) (A) (A) (A) (A)
                 (A) (A) (A) (A) (A) (A) (A) (A) (A) (A) (A) (A)
                 (A) (A) (A) (A) (A) (A) (A) (A) (A) (A) (A) (A)
                 (A) (A) (A) (A) (A) (A) (A) (A) (A) (A) (A) (A)
                 (A) (A) (A) (A) (A) (A) (A) (A) (A) (A) (A) (A)
                 (A) (A) (A) (A) (A) (A) (A) (A) (A) (A) (A) (A)
                 (A) (A) (A) (A) (A) (A) (A) (A) (A) (A) (A) (A)
                 (A) (A) (A) (A) (A) (A) (A) (A) (A) (A) (A) (A)
                 (A) (A) (A) (A) (A) (A) (A) (A) (A) (A) (A) (A)
                 (A) (A) (A) (A) (A) (A) (A) (A) (A) (A) (A) (A)
                 (A) (A) (A) (A) (A) (A) (A) (A) (A) (A) (A) (A)
                 (A) (A) (A) (A) (A) (A) (A) (A) (A) (A) (A) (A)
                 (A) (A) (A) (A) (A) (A) (A) (A) (A) (A) (A) (A)
                 (A) (A) (A) (A) (A) (A) (A) (A) (A) (A) (A) (A)
                 (A) (A) (A) (A) (A) (A) (A) (A) (A) (A) (A) (A)
                 (A) (A) (A) (A) (A) (A) (A) (A) (A) (A) (A) (A)
                 (A) (A) (A) (A) (A) (A) (A) (A) (A) (A) (A) (A)
                 (A) (A) (A) (A) (A) (A) (A) (A) (A) (A) (A) (A)
                 (A) (A) (A) (A) (A) (A) (A) (A) (A) (A) (A) (A)
                 (A) (A) (A) (A) (A) (A) (A) (A) (A) (A) (A) (A)
                 (A) (A) (A) (A) (A) (A) (A) (A) (A) (A) (A) (A)
                 (A) (A) (A) (A) (A) (A) (A) (A) (A) (A) (A) (A)
                 (A) (A) (A) (A) (A) (A) (A) (A) (A) (A) (A) (A)
                 (A) (A) (A) (A) (A) (A) (A) (A) (A) (A) (A) (A)
                 (A) (A) (A) (A) (A) (A) (A) (A) (A) (A) (A) (A)
                 (A) (A) (A) (A) (A) (A) (A) (A) (A) (A) (A) (A)
                 (A) (A) (A) (A) (A) (A) (A) (A) (A) (A) (A) (A)
                 (A) (A) (A) (A) (A) (A) (A) (A) (A) (A) (A) (A)
                 (A) (A) (A) (A) (A) (A) (A) (A) (A) (A) (A) (A)
                 (A) (A) (A) (A) (A) (A) (A) (A) (A) (A) (A) (A)
                 (A) (A) (A) (A) (A) (A) (A) (A) (A) (A) (A) (A)
                 (A) (A) (A) (A) (A) (A) (A) (A) (A) (A) (A) (A)
                 (A) (A) (A) (A) (A) (A) (A) (A) (A) (A) (A) (A)
                 (A) (A) (A) (A) (A) (A) (A) (A) (A) (A) (A) (A)
                 (A) (A) (A) (A) (A) (A) (A) (A) (A) (A) (A) (A)
                 (A) (A) (A) (A) (A) (A) (A) (A) (A) (A) (A) (A)
                 (A) (A) (A) (A) (A) (A) (A)
 The electronic state is 1-A.
 Alpha  occ. eigenvalues --  -19.14321 -19.11867 -10.30414 -10.26935 -10.25586
 Alpha  occ. eigenvalues --  -10.25253 -10.20548 -10.20145 -10.19955 -10.19812
 Alpha  occ. eigenvalues --  -10.19704 -10.19676 -10.18725 -10.18657 -10.16876
 Alpha  occ. eigenvalues --   -1.06306  -0.94037  -0.88386  -0.84038  -0.79058
 Alpha  occ. eigenvalues --   -0.73474  -0.71798  -0.68649  -0.65402  -0.63697
 Alpha  occ. eigenvalues --   -0.60774  -0.58766  -0.57238  -0.56279  -0.55531
 Alpha  occ. eigenvalues --   -0.49985  -0.48905  -0.46236  -0.45356  -0.44492
 Alpha  occ. eigenvalues --   -0.43500  -0.42276  -0.41768  -0.41274  -0.40669
 Alpha  occ. eigenvalues --   -0.38594  -0.38199  -0.37864  -0.37516  -0.37260
 Alpha  occ. eigenvalues --   -0.36588  -0.34009  -0.33280  -0.30870  -0.29372
 Alpha  occ. eigenvalues --   -0.27901  -0.27103  -0.26426  -0.24967  -0.22412
 Alpha  occ. eigenvalues --   -0.20994  -0.18151
 Alpha virt. eigenvalues --   -0.13850  -0.06898  -0.03995   0.00586   0.05296
 Alpha virt. eigenvalues --    0.06469   0.07944   0.08195   0.09283   0.10266
 Alpha virt. eigenvalues --    0.11063   0.11892   0.12846   0.13353   0.14250
 Alpha virt. eigenvalues --    0.14611   0.15144   0.15585   0.16272   0.16728
 Alpha virt. eigenvalues --    0.17462   0.18161   0.18576   0.19163   0.19449
 Alpha virt. eigenvalues --    0.19999   0.20744   0.21895   0.24017   0.25812
 Alpha virt. eigenvalues --    0.26940   0.27713   0.28188   0.29583   0.31082
 Alpha virt. eigenvalues --    0.32014   0.33521   0.34077   0.41479   0.41589
 Alpha virt. eigenvalues --    0.43362   0.44678   0.45301   0.46759   0.47950
 Alpha virt. eigenvalues --    0.48475   0.49349   0.50200   0.51196   0.51794
 Alpha virt. eigenvalues --    0.52460   0.53048   0.53080   0.54079   0.55251
 Alpha virt. eigenvalues --    0.55609   0.56518   0.57197   0.58737   0.59295
 Alpha virt. eigenvalues --    0.59782   0.61100   0.61647   0.62448   0.63617
 Alpha virt. eigenvalues --    0.63670   0.64962   0.65549   0.66395   0.67083
 Alpha virt. eigenvalues --    0.68158   0.68641   0.69455   0.70289   0.71025
 Alpha virt. eigenvalues --    0.72228   0.72515   0.72979   0.74120   0.74222
 Alpha virt. eigenvalues --    0.74719   0.74936   0.75180   0.75641   0.76272
 Alpha virt. eigenvalues --    0.76892   0.78378   0.79028   0.79835   0.80563
 Alpha virt. eigenvalues --    0.80601   0.81816   0.82234   0.83357   0.83521
 Alpha virt. eigenvalues --    0.83993   0.85559   0.86387   0.87213   0.87491
 Alpha virt. eigenvalues --    0.88201   0.90633   0.91540   0.92604   0.93840
 Alpha virt. eigenvalues --    0.94925   0.95315   0.96459   0.97701   0.99604
 Alpha virt. eigenvalues --    1.00976   1.01991   1.03769   1.05197   1.05905
 Alpha virt. eigenvalues --    1.07085   1.09120   1.09816   1.11445   1.12081
 Alpha virt. eigenvalues --    1.13296   1.14055   1.15293   1.17143   1.19031
 Alpha virt. eigenvalues --    1.19746   1.20668   1.22589   1.24458   1.25360
 Alpha virt. eigenvalues --    1.27134   1.29235   1.30658   1.31211   1.31783
 Alpha virt. eigenvalues --    1.33121   1.33841   1.35247   1.36334   1.36804
 Alpha virt. eigenvalues --    1.38139   1.38986   1.40236   1.41893   1.42967
 Alpha virt. eigenvalues --    1.43803   1.45009   1.45886   1.49308   1.50652
 Alpha virt. eigenvalues --    1.51449   1.51726   1.52357   1.53488   1.54047
 Alpha virt. eigenvalues --    1.56089   1.56310   1.57565   1.58263   1.59579
 Alpha virt. eigenvalues --    1.60191   1.60684   1.62744   1.63484   1.65916
 Alpha virt. eigenvalues --    1.67520   1.68383   1.69546   1.70475   1.71626
 Alpha virt. eigenvalues --    1.74859   1.75337   1.75732   1.78083   1.80193
 Alpha virt. eigenvalues --    1.81117   1.84287   1.86043   1.86600   1.88305
 Alpha virt. eigenvalues --    1.90313   1.92627   1.93589   1.95336   1.96095
 Alpha virt. eigenvalues --    1.98705   2.00174   2.01122   2.03093   2.04685
 Alpha virt. eigenvalues --    2.06806   2.07317   2.10598   2.12963   2.15510
 Alpha virt. eigenvalues --    2.17321   2.19781   2.22519   2.23337   2.25041
 Alpha virt. eigenvalues --    2.25272   2.28969   2.32560   2.33149   2.34465
 Alpha virt. eigenvalues --    2.35502   2.36812   2.37626   2.39829   2.40861
 Alpha virt. eigenvalues --    2.41848   2.44328   2.44396   2.45868   2.48167
 Alpha virt. eigenvalues --    2.49610   2.50129   2.51295   2.53467   2.54095
 Alpha virt. eigenvalues --    2.55050   2.55808   2.57321   2.59376   2.61479
 Alpha virt. eigenvalues --    2.62134   2.63591   2.65494   2.66604   2.67461
 Alpha virt. eigenvalues --    2.68921   2.70155   2.72340   2.72995   2.73479
 Alpha virt. eigenvalues --    2.74976   2.75499   2.77172   2.78014   2.80748
 Alpha virt. eigenvalues --    2.81353   2.82018   2.83405   2.84478   2.84739
 Alpha virt. eigenvalues --    2.85867   2.87398   2.88442   2.89660   2.90928
 Alpha virt. eigenvalues --    2.91988   2.94719   2.96253   2.96866   2.97395
 Alpha virt. eigenvalues --    2.98638   2.98770   3.00537   3.00825   3.02078
 Alpha virt. eigenvalues --    3.02509   3.02870   3.04247   3.06648   3.07659
 Alpha virt. eigenvalues --    3.08190   3.08875   3.09730   3.09861   3.11333
 Alpha virt. eigenvalues --    3.13215   3.14158   3.15559   3.17614   3.19142
 Alpha virt. eigenvalues --    3.20297   3.21239   3.22372   3.24910   3.25526
 Alpha virt. eigenvalues --    3.27384   3.28185   3.28473   3.29925   3.30604
 Alpha virt. eigenvalues --    3.32413   3.33137   3.34363   3.35906   3.37300
 Alpha virt. eigenvalues --    3.39868   3.40719   3.41251   3.42064   3.42530
 Alpha virt. eigenvalues --    3.43178   3.45961   3.47903   3.48447   3.48937
 Alpha virt. eigenvalues --    3.50835   3.51436   3.52743   3.54193   3.56677
 Alpha virt. eigenvalues --    3.57093   3.57765   3.59510   3.59989   3.63573
 Alpha virt. eigenvalues --    3.64815   3.67453   3.69896   3.70850   3.71873
 Alpha virt. eigenvalues --    3.72293   3.75301   3.76664   3.77999   3.78777
 Alpha virt. eigenvalues --    3.80401   3.81782   3.82970   3.84682   3.87513
 Alpha virt. eigenvalues --    3.91133   3.92987   3.94499   3.97003   3.97727
 Alpha virt. eigenvalues --    3.98508   4.01183   4.03027   4.06537   4.09798
 Alpha virt. eigenvalues --    4.13018   4.13365   4.21751   4.22906   4.24232
 Alpha virt. eigenvalues --    4.25700   4.27517   4.28293   4.28603   4.30506
 Alpha virt. eigenvalues --    4.31223   4.31596   4.34168   4.36170   4.36456
 Alpha virt. eigenvalues --    4.37994   4.39763   4.40297   4.41535   4.42723
 Alpha virt. eigenvalues --    4.44736   4.45179   4.48016   4.48683   4.49191
 Alpha virt. eigenvalues --    4.50205   4.50775   4.51744   4.51983   4.53317
 Alpha virt. eigenvalues --    4.54469   4.55854   4.56292   4.57963   4.59853
 Alpha virt. eigenvalues --    4.60543   4.60868   4.63034   4.63820   4.65826
 Alpha virt. eigenvalues --    4.66742   4.67580   4.67710   4.68642   4.69547
 Alpha virt. eigenvalues --    4.70562   4.71125   4.73041   4.74392   4.76152
 Alpha virt. eigenvalues --    4.76730   4.77431   4.78319   4.78823   4.79695
 Alpha virt. eigenvalues --    4.80476   4.80733   4.82500   4.83673   4.85206
 Alpha virt. eigenvalues --    4.86944   4.87981   4.88561   4.89778   4.90367
 Alpha virt. eigenvalues --    4.91813   4.92088   4.94614   4.97316   4.98252
 Alpha virt. eigenvalues --    4.99925   5.02025   5.03677   5.06370   5.07583
 Alpha virt. eigenvalues --    5.08499   5.12208   5.16023   5.17160   5.19699
 Alpha virt. eigenvalues --    5.21489   5.25428   5.26298   5.27492   5.30983
 Alpha virt. eigenvalues --    5.32970   5.37943   5.39670   5.40687   5.43863
 Alpha virt. eigenvalues --    5.44775   5.45404   5.48670   5.53338   5.55273
 Alpha virt. eigenvalues --    5.56155   5.56757   5.59410   5.63817   5.65526
 Alpha virt. eigenvalues --    5.67493   5.70224   5.79658   5.93427   5.97627
 Alpha virt. eigenvalues --    6.05067   6.06653   6.11110   6.24458   6.29549
 Alpha virt. eigenvalues --    6.86314   6.97782   7.27021  10.53931  10.72929
 Alpha virt. eigenvalues --   10.92245  11.05182  11.39202  11.45980  11.60767
 Alpha virt. eigenvalues --   11.78582  11.94283  12.08495  12.22083  12.32267
 Alpha virt. eigenvalues --   12.45528  13.22610  13.67104
          Condensed to atoms (all electrons):
               1          2          3          4          5          6
     1  C    4.983137   0.421064  -0.020368  -0.028599   0.002138  -0.000006
     2  C    0.421064   4.609503   0.358600   0.366788  -0.013511   0.000378
     3  C   -0.020368   0.358600   5.038366   0.285196  -0.007692   0.001100
     4  C   -0.028599   0.366788   0.285196   4.796964   0.381478  -0.014896
     5  C    0.002138  -0.013511  -0.007692   0.381478   5.094515   0.284132
     6  C   -0.000006   0.000378   0.001100  -0.014896   0.284132   5.104981
     7  O    0.000000  -0.000010  -0.000006   0.000482  -0.014962   0.296590
     8  C   -0.000000   0.000000   0.000000  -0.000134   0.003087  -0.097670
     9  C    0.000000  -0.000000  -0.000000   0.000002  -0.000465   0.007436
    10  C   -0.000000   0.000000  -0.000000   0.000000  -0.000004   0.000144
    11  C   -0.000000   0.000000   0.000000   0.000000   0.000000   0.000001
    12  C   -0.000000   0.000000  -0.000000   0.000000   0.000000  -0.000051
    13  C   -0.000000   0.000000   0.000000  -0.000000  -0.000008  -0.001195
    14  C   -0.000000  -0.000002  -0.000003   0.000157  -0.009746   0.264027
    15  O   -0.000004  -0.000010   0.000002   0.000028   0.000083  -0.047864
    16  H    0.366392  -0.020935   0.001285   0.004350  -0.000132  -0.000001
    17  H    0.370921  -0.021379  -0.013755  -0.000744   0.000013   0.000001
    18  H    0.373628  -0.033169   0.005120  -0.008105   0.000353  -0.000038
    19  H   -0.058343   0.386470  -0.037163  -0.031890  -0.003834   0.000085
    20  H   -0.011167  -0.019126   0.367344  -0.010049   0.001249  -0.000015
    21  H    0.003156  -0.021200   0.370430  -0.014863  -0.003705   0.000001
    22  H   -0.004084  -0.037629  -0.032205   0.375618  -0.053164  -0.004333
    23  H   -0.000107   0.003208  -0.005640  -0.037561   0.338900  -0.009733
    24  H    0.000092  -0.008888  -0.000806  -0.025946   0.352069  -0.025418
    25  H    0.000008  -0.000047  -0.000119   0.000122  -0.049779   0.334675
    26  H    0.000000  -0.000000   0.000000  -0.000000   0.001186  -0.021838
    27  H   -0.000000   0.000000  -0.000000   0.000026  -0.000471   0.007215
    28  H    0.000000  -0.000000   0.000000   0.000000   0.000017   0.000390
    29  H   -0.000000   0.000000   0.000000   0.000000  -0.000022   0.002066
    30  H   -0.000000   0.000000   0.000000  -0.000000   0.000001   0.000153
    31  H   -0.000000   0.000000  -0.000000  -0.000000  -0.000000   0.000003
    32  H   -0.000000   0.000000   0.000000   0.000000  -0.000000  -0.000001
    33  H    0.000000  -0.000000  -0.000000  -0.000000   0.000000   0.000150
    34  H    0.000000  -0.000001   0.000000  -0.000026   0.000628  -0.018234
    35  H   -0.000018   0.000223  -0.000022   0.002972   0.000375  -0.011613
               7          8          9         10         11         12
     1  C    0.000000  -0.000000   0.000000  -0.000000  -0.000000  -0.000000
     2  C   -0.000010   0.000000  -0.000000   0.000000   0.000000   0.000000
     3  C   -0.000006   0.000000  -0.000000  -0.000000   0.000000  -0.000000
     4  C    0.000482  -0.000134   0.000002   0.000000   0.000000   0.000000
     5  C   -0.014962   0.003087  -0.000465  -0.000004   0.000000   0.000000
     6  C    0.296590  -0.097670   0.007436   0.000144   0.000001  -0.000051
     7  O    7.737121   0.346274  -0.035226   0.002845  -0.000126   0.000118
     8  C    0.346274   4.881862   0.399493  -0.026091   0.000529  -0.005134
     9  C   -0.035226   0.399493   5.082955   0.334257  -0.079321   0.008189
    10  C    0.002845  -0.026091   0.334257   5.046211   0.567531  -0.085994
    11  C   -0.000126   0.000529  -0.079321   0.567531   5.198516   0.282785
    12  C    0.000118  -0.005134   0.008189  -0.085994   0.282785   5.315812
    13  C    0.000436  -0.035169   0.013361  -0.064631  -0.022706   0.345630
    14  C   -0.059535  -0.056410  -0.000492  -0.009058   0.000519  -0.001176
    15  O    0.003224  -0.007326   0.000184  -0.000009   0.000002   0.000068
    16  H   -0.000000   0.000000  -0.000000   0.000000   0.000000   0.000000
    17  H   -0.000000   0.000000  -0.000000  -0.000000   0.000000  -0.000000
    18  H    0.000000  -0.000000  -0.000000  -0.000000  -0.000000  -0.000000
    19  H   -0.000001   0.000000  -0.000000  -0.000000   0.000000   0.000000
    20  H    0.000000  -0.000000   0.000000   0.000000   0.000000   0.000000
    21  H   -0.000000   0.000000   0.000000   0.000000  -0.000000  -0.000000
    22  H   -0.000018  -0.000006   0.000000   0.000000   0.000000  -0.000000
    23  H    0.000539   0.000765  -0.000018   0.000002  -0.000000  -0.000000
    24  H    0.001510  -0.000061   0.000030   0.000000   0.000000  -0.000000
    25  H   -0.039255  -0.027538   0.001310   0.000233   0.000005   0.000009
    26  H   -0.013996   0.376204  -0.085075   0.015691  -0.003036  -0.003550
    27  H   -0.031402   0.331277  -0.019242   0.004228   0.001438   0.000662
    28  H   -0.000976  -0.013816   0.338784  -0.021473   0.002211  -0.000174
    29  H    0.003073  -0.039678   0.375876  -0.046719  -0.017392   0.006532
    30  H    0.000252  -0.003202  -0.070055   0.386299  -0.057202  -0.027863
    31  H   -0.000008   0.001054  -0.019962  -0.031568   0.362662  -0.052361
    32  H   -0.000000  -0.000069  -0.000505   0.003600  -0.077603   0.337777
    33  H   -0.000128   0.002182  -0.005984   0.012491   0.014446  -0.022242
    34  H    0.001281   0.003434   0.000126   0.000173  -0.000048   0.000130
    35  H    0.000371   0.000541  -0.000060  -0.000003   0.000000  -0.000005
              13         14         15         16         17         18
     1  C   -0.000000  -0.000000  -0.000004   0.366392   0.370921   0.373628
     2  C    0.000000  -0.000002  -0.000010  -0.020935  -0.021379  -0.033169
     3  C    0.000000  -0.000003   0.000002   0.001285  -0.013755   0.005120
     4  C   -0.000000   0.000157   0.000028   0.004350  -0.000744  -0.008105
     5  C   -0.000008  -0.009746   0.000083  -0.000132   0.000013   0.000353
     6  C   -0.001195   0.264027  -0.047864  -0.000001   0.000001  -0.000038
     7  O    0.000436  -0.059535   0.003224  -0.000000  -0.000000   0.000000
     8  C   -0.035169  -0.056410  -0.007326   0.000000   0.000000  -0.000000
     9  C    0.013361  -0.000492   0.000184  -0.000000  -0.000000  -0.000000
    10  C   -0.064631  -0.009058  -0.000009   0.000000  -0.000000  -0.000000
    11  C   -0.022706   0.000519   0.000002   0.000000   0.000000  -0.000000
    12  C    0.345630  -0.001176   0.000068   0.000000  -0.000000  -0.000000
    13  C    5.736867   0.135083  -0.001662  -0.000000   0.000000   0.000000
    14  C    0.135083   5.332887   0.208977   0.000000  -0.000000  -0.000000
    15  O   -0.001662   0.208977   8.080351   0.000000   0.000000   0.000004
    16  H   -0.000000   0.000000   0.000000   0.610543  -0.031788  -0.032451
    17  H    0.000000  -0.000000   0.000000  -0.031788   0.603017  -0.031386
    18  H    0.000000  -0.000000   0.000004  -0.032451  -0.031386   0.605201
    19  H    0.000000  -0.000004   0.000000  -0.009528   0.006310   0.002473
    20  H   -0.000000   0.000000  -0.000000   0.000339   0.007463   0.000051
    21  H   -0.000000   0.000000  -0.000000   0.000048   0.000013  -0.000145
    22  H   -0.000000  -0.000025  -0.000050   0.000028   0.000591   0.001963
    23  H   -0.000001   0.000765  -0.000022   0.000003   0.000007  -0.000015
    24  H    0.000000  -0.000395  -0.000032  -0.000004   0.000001   0.000032
    25  H   -0.000120  -0.035910   0.002722   0.000000  -0.000001   0.000002
    26  H   -0.037899  -0.028648   0.009686  -0.000000   0.000000  -0.000000
    27  H    0.003724  -0.000831   0.001107   0.000000   0.000000  -0.000000
    28  H   -0.000940   0.000388  -0.000007  -0.000000  -0.000000   0.000000
    29  H    0.021275   0.013559   0.000011   0.000000   0.000000  -0.000000
    30  H   -0.023807  -0.001907  -0.000042  -0.000000   0.000000  -0.000000
    31  H   -0.002776   0.000013  -0.000000   0.000000  -0.000000   0.000000
    32  H   -0.035576   0.000345  -0.000001  -0.000000   0.000000   0.000000
    33  H    0.198205  -0.005810   0.000045  -0.000000  -0.000000  -0.000000
    34  H   -0.011903   0.314346  -0.021999  -0.000000   0.000000  -0.000000
    35  H    0.000347  -0.037005   0.283724   0.000001  -0.000003   0.000311
              19         20         21         22         23         24
     1  C   -0.058343  -0.011167   0.003156  -0.004084  -0.000107   0.000092
     2  C    0.386470  -0.019126  -0.021200  -0.037629   0.003208  -0.008888
     3  C   -0.037163   0.367344   0.370430  -0.032205  -0.005640  -0.000806
     4  C   -0.031890  -0.010049  -0.014863   0.375618  -0.037561  -0.025946
     5  C   -0.003834   0.001249  -0.003705  -0.053164   0.338900   0.352069
     6  C    0.000085  -0.000015   0.000001  -0.004333  -0.009733  -0.025418
     7  O   -0.000001   0.000000  -0.000000  -0.000018   0.000539   0.001510
     8  C    0.000000  -0.000000   0.000000  -0.000006   0.000765  -0.000061
     9  C   -0.000000   0.000000   0.000000   0.000000  -0.000018   0.000030
    10  C   -0.000000   0.000000   0.000000   0.000000   0.000002   0.000000
    11  C    0.000000   0.000000  -0.000000   0.000000  -0.000000   0.000000
    12  C    0.000000   0.000000  -0.000000  -0.000000  -0.000000  -0.000000
    13  C    0.000000  -0.000000  -0.000000  -0.000000  -0.000001   0.000000
    14  C   -0.000004   0.000000   0.000000  -0.000025   0.000765  -0.000395
    15  O    0.000000  -0.000000  -0.000000  -0.000050  -0.000022  -0.000032
    16  H   -0.009528   0.000339   0.000048   0.000028   0.000003  -0.000004
    17  H    0.006310   0.007463   0.000013   0.000591   0.000007   0.000001
    18  H    0.002473   0.000051  -0.000145   0.001963  -0.000015   0.000032
    19  H    0.654560   0.003628  -0.005975   0.002995   0.000008   0.003925
    20  H    0.003628   0.597970  -0.049020  -0.004758   0.000166  -0.000084
    21  H   -0.005975  -0.049020   0.604933   0.002230   0.001706   0.000844
    22  H    0.002995  -0.004758   0.002230   0.649155   0.000590   0.005650
    23  H    0.000008   0.000166   0.001706   0.000590   0.609850  -0.035360
    24  H    0.003925  -0.000084   0.000844   0.005650  -0.035360   0.619196
    25  H    0.000002   0.000001   0.000004   0.005657  -0.001001   0.003800
    26  H    0.000000  -0.000000  -0.000000  -0.000002  -0.000006  -0.000010
    27  H   -0.000000   0.000000   0.000000   0.000008   0.000001   0.000011
    28  H    0.000000  -0.000000  -0.000000  -0.000000  -0.000001  -0.000000
    29  H   -0.000000   0.000000  -0.000000   0.000000  -0.000002   0.000001
    30  H    0.000000  -0.000000  -0.000000  -0.000000  -0.000000  -0.000000
    31  H   -0.000000   0.000000   0.000000   0.000000  -0.000000   0.000000
    32  H    0.000000   0.000000  -0.000000   0.000000  -0.000000   0.000000
    33  H   -0.000000   0.000000   0.000000  -0.000000   0.000000  -0.000000
    34  H    0.000001  -0.000000  -0.000000   0.000000  -0.000018   0.000085
    35  H   -0.000014   0.000001   0.000001   0.000657  -0.000081   0.000007
              25         26         27         28         29         30
     1  C    0.000008   0.000000  -0.000000   0.000000  -0.000000  -0.000000
     2  C   -0.000047  -0.000000   0.000000  -0.000000   0.000000   0.000000
     3  C   -0.000119   0.000000  -0.000000   0.000000   0.000000   0.000000
     4  C    0.000122  -0.000000   0.000026   0.000000   0.000000  -0.000000
     5  C   -0.049779   0.001186  -0.000471   0.000017  -0.000022   0.000001
     6  C    0.334675  -0.021838   0.007215   0.000390   0.002066   0.000153
     7  O   -0.039255  -0.013996  -0.031402  -0.000976   0.003073   0.000252
     8  C   -0.027538   0.376204   0.331277  -0.013816  -0.039678  -0.003202
     9  C    0.001310  -0.085075  -0.019242   0.338784   0.375876  -0.070055
    10  C    0.000233   0.015691   0.004228  -0.021473  -0.046719   0.386299
    11  C    0.000005  -0.003036   0.001438   0.002211  -0.017392  -0.057202
    12  C    0.000009  -0.003550   0.000662  -0.000174   0.006532  -0.027863
    13  C   -0.000120  -0.037899   0.003724  -0.000940   0.021275  -0.023807
    14  C   -0.035910  -0.028648  -0.000831   0.000388   0.013559  -0.001907
    15  O    0.002722   0.009686   0.001107  -0.000007   0.000011  -0.000042
    16  H    0.000000  -0.000000   0.000000  -0.000000   0.000000  -0.000000
    17  H   -0.000001   0.000000   0.000000  -0.000000   0.000000   0.000000
    18  H    0.000002  -0.000000  -0.000000   0.000000  -0.000000  -0.000000
    19  H    0.000002   0.000000  -0.000000   0.000000  -0.000000   0.000000
    20  H    0.000001  -0.000000   0.000000  -0.000000   0.000000  -0.000000
    21  H    0.000004  -0.000000   0.000000  -0.000000  -0.000000  -0.000000
    22  H    0.005657  -0.000002   0.000008  -0.000000   0.000000  -0.000000
    23  H   -0.001001  -0.000006   0.000001  -0.000001  -0.000002  -0.000000
    24  H    0.003800  -0.000010   0.000011  -0.000000   0.000001  -0.000000
    25  H    0.691700  -0.002313   0.018933  -0.000073   0.000117  -0.000045
    26  H   -0.002313   0.708212  -0.097056   0.010182  -0.021959   0.011736
    27  H    0.018933  -0.097056   0.664673  -0.003575   0.006028   0.000489
    28  H   -0.000073   0.010182  -0.003575   0.604824  -0.044061   0.004377
    29  H    0.000117  -0.021959   0.006028  -0.044061   0.638551   0.001000
    30  H   -0.000045   0.011736   0.000489   0.004377   0.001000   0.649314
    31  H   -0.000000   0.000050   0.000011   0.003000  -0.002158   0.008959
    32  H   -0.000000  -0.000425   0.000040  -0.000004   0.000103   0.006814
    33  H   -0.000008   0.000801  -0.000108   0.000368  -0.003806   0.003895
    34  H    0.001698   0.003130  -0.000350  -0.000001  -0.001374   0.000019
    35  H   -0.002293  -0.000280   0.000031   0.000002   0.000003   0.000001
              31         32         33         34         35
     1  C   -0.000000  -0.000000   0.000000   0.000000  -0.000018
     2  C    0.000000   0.000000  -0.000000  -0.000001   0.000223
     3  C   -0.000000   0.000000  -0.000000   0.000000  -0.000022
     4  C   -0.000000   0.000000  -0.000000  -0.000026   0.002972
     5  C   -0.000000  -0.000000   0.000000   0.000628   0.000375
     6  C    0.000003  -0.000001   0.000150  -0.018234  -0.011613
     7  O   -0.000008  -0.000000  -0.000128   0.001281   0.000371
     8  C    0.001054  -0.000069   0.002182   0.003434   0.000541
     9  C   -0.019962  -0.000505  -0.005984   0.000126  -0.000060
    10  C   -0.031568   0.003600   0.012491   0.000173  -0.000003
    11  C    0.362662  -0.077603   0.014446  -0.000048   0.000000
    12  C   -0.052361   0.337777  -0.022242   0.000130  -0.000005
    13  C   -0.002776  -0.035576   0.198205  -0.011903   0.000347
    14  C    0.000013   0.000345  -0.005810   0.314346  -0.037005
    15  O   -0.000000  -0.000001   0.000045  -0.021999   0.283724
    16  H    0.000000  -0.000000  -0.000000  -0.000000   0.000001
    17  H   -0.000000   0.000000  -0.000000   0.000000  -0.000003
    18  H    0.000000   0.000000  -0.000000  -0.000000   0.000311
    19  H   -0.000000   0.000000  -0.000000   0.000001  -0.000014
    20  H    0.000000   0.000000   0.000000  -0.000000   0.000001
    21  H    0.000000  -0.000000   0.000000  -0.000000   0.000001
    22  H    0.000000   0.000000  -0.000000   0.000000   0.000657
    23  H   -0.000000  -0.000000   0.000000  -0.000018  -0.000081
    24  H    0.000000   0.000000  -0.000000   0.000085   0.000007
    25  H   -0.000000  -0.000000  -0.000008   0.001698  -0.002293
    26  H    0.000050  -0.000425   0.000801   0.003130  -0.000280
    27  H    0.000011   0.000040  -0.000108  -0.000350   0.000031
    28  H    0.003000  -0.000004   0.000368  -0.000001   0.000002
    29  H   -0.002158   0.000103  -0.003806  -0.001374   0.000003
    30  H    0.008959   0.006814   0.003895   0.000019   0.000001
    31  H    0.607103   0.005291   0.002526  -0.000002   0.000000
    32  H    0.005291   0.553905   0.009400  -0.000014   0.000000
    33  H    0.002526   0.009400   0.616009   0.000125  -0.000007
    34  H   -0.000002  -0.000014   0.000125   0.591352   0.002155
    35  H    0.000000   0.000000  -0.000007   0.002155   0.440839
 Mulliken charges:
               1
     1  C   -0.397838
     2  C    0.029672
     3  C   -0.309664
     4  C   -0.041367
     5  C   -0.302729
     6  C   -0.050622
     7  O   -0.198466
     8  C   -0.034400
     9  C   -0.245598
    10  C   -0.088156
    11  C   -0.173213
    12  C   -0.099164
    13  C   -0.216533
    14  C   -0.024109
    15  O   -0.511190
    16  H    0.111848
    17  H    0.110716
    18  H    0.116171
    19  H    0.086294
    20  H    0.116006
    21  H    0.111543
    22  H    0.091129
    23  H    0.133056
    24  H    0.109752
    25  H    0.097503
    26  H    0.179215
    27  H    0.113131
    28  H    0.120562
    29  H    0.108976
    30  H    0.110813
    31  H    0.118161
    32  H    0.196924
    33  H    0.177450
    34  H    0.135286
    35  H    0.318842
 Sum of Mulliken charges =  -0.00000
 Mulliken charges with hydrogens summed into heavy atoms:
               1
     1  C   -0.059103
     2  C    0.115966
     3  C   -0.082116
     4  C    0.049762
     5  C   -0.059921
     6  C    0.046881
     7  O   -0.198466
     8  C    0.257946
     9  C   -0.016060
    10  C    0.022656
    11  C   -0.055052
    12  C    0.097760
    13  C   -0.039082
    14  C    0.111177
    15  O   -0.192348
 Electronic spatial extent (au):  <R**2>=           5352.6099
 Charge=             -0.0000 electrons
 Dipole moment (field-independent basis, Debye):
    X=              1.7090    Y=             -0.8159    Z=              0.9061  Tot=              2.0994
 Quadrupole moment (field-independent basis, Debye-Ang):
   XX=            -73.0475   YY=           -103.4377   ZZ=            -91.0391
   XY=              2.2180   XZ=              3.0885   YZ=              0.6763
 Traceless Quadrupole moment (field-independent basis, Debye-Ang):
   XX=             16.1273   YY=            -14.2629   ZZ=             -1.8643
   XY=              2.2180   XZ=              3.0885   YZ=              0.6763
 Octapole moment (field-independent basis, Debye-Ang**2):
  XXX=             48.8987  YYY=            -24.2573  ZZZ=              1.5351  XYY=            -12.5383
  XXY=             19.8912  XXZ=             11.6643  XZZ=             -3.9096  YZZ=              1.3007
  YYZ=              6.4787  XYZ=             -8.5211
 Hexadecapole moment (field-independent basis, Debye-Ang**3):
 XXXX=          -5928.0090 YYYY=           -893.3483 ZZZZ=           -254.9241 XXXY=            157.7237
 XXXZ=             67.2374 YYYX=            -41.6990 YYYZ=             -6.3131 ZZZX=              5.4062
 ZZZY=             -7.9039 XXYY=          -1203.3787 XXZZ=          -1071.0880 YYZZ=           -187.8987
 XXYZ=            -37.7242 YYXZ=             -3.4233 ZZXY=             -0.6185
 N-N= 9.736513395942D+02 E-N=-3.475002146923D+03  KE= 6.518548502087D+02
 PrsmSu:  requested number of processors reduced to:  13 ShMem   1 Linda.
 Calling FoFJK, ICntrl=      2127 FMM=F ISym2X=0 I1Cent= 0 IOpClX= 0 NMat=1 NMatS=1 NMatT=0.
 ***** Axes restored to original set *****
 -------------------------------------------------------------------
 Center     Atomic                   Forces (Hartrees/Bohr)
 Number     Number              X              Y              Z
 -------------------------------------------------------------------
      1        6          -0.014717744   -0.000341654    0.001819486
      2        6           0.001755075    0.007979220   -0.016201229
      3        6           0.009547266    0.003479688    0.010687948
      4        6           0.008919167   -0.006939488    0.019743713
      5        6           0.003074840   -0.012854686   -0.010474773
      6        6           0.021867845   -0.056532339   -0.014538434
      7        8          -0.022552332   -0.010666463   -0.008113130
      8        6           0.012186247   -0.015342664   -0.008817673
      9        6           0.023492771   -0.008831556   -0.047989783
     10        6          -0.010274150    0.009085014   -0.024499963
     11        6           0.019849369    0.014914156    0.036428638
     12        6           0.013797661    0.014040363   -0.051649275
     13        6           0.002116475    0.058205734    0.052303759
     14        6          -0.061463869   -0.092583203   -0.065181349
     15        8          -0.002278001    0.015384529    0.018287685
     16        1          -0.001709565   -0.000068297   -0.002710956
     17        1          -0.001171869    0.002898792   -0.000986681
     18        1          -0.005914886    0.000494354   -0.000327279
     19        1           0.015635893    0.002859184   -0.001149586
     20        1           0.001041463    0.019353558   -0.001113856
     21        1           0.005268768    0.012167776    0.007733067
     22        1          -0.012905121    0.001668207    0.002777089
     23        1          -0.002289833    0.026001212    0.012673409
     24        1          -0.001915995    0.003275963    0.008135668
     25        1          -0.001290480    0.017028889    0.027149460
     26        1          -0.018664046   -0.021254287    0.026644134
     27        1           0.038774077   -0.009034473   -0.041189823
     28        1           0.026730594   -0.010748529   -0.000007078
     29        1          -0.004822529    0.011727047   -0.031324378
     30        1           0.026462404   -0.013898814   -0.013057096
     31        1          -0.013942382   -0.000457457    0.003161415
     32        1          -0.040436795   -0.031092996    0.041396866
     33        1          -0.034136452    0.002502563    0.027931685
     34        1           0.007230113    0.009360097    0.026860593
     35        1           0.012736020    0.058220561    0.015597729
 -------------------------------------------------------------------
 Cartesian Forces:  Max     0.092583203 RMS     0.024030455

 GradGradGradGradGradGradGradGradGradGradGradGradGradGradGradGradGradGrad
 Berny optimization.
 FormGI is forming the generalized inverse of G from B-inverse, IUseBI=4.
 Internal  Forces:  Max     0.195766685 RMS     0.028258336
 Search for a local minimum.
 Step number   1 out of a maximum of  210
 All quantities printed in internal units (Hartrees-Bohrs-Radians)
 Mixed Optimization -- RFO/linear search
 Second derivative matrix not updated -- first step.
 ITU=  0
     Eigenvalues ---    0.00230   0.00230   0.00287   0.00523   0.00792
     Eigenvalues ---    0.00821   0.00874   0.00889   0.01070   0.01366
     Eigenvalues ---    0.01429   0.01577   0.01791   0.01870   0.02019
     Eigenvalues ---    0.02445   0.02590   0.02822   0.03152   0.03168
     Eigenvalues ---    0.03543   0.03548   0.03744   0.03815   0.03920
     Eigenvalues ---    0.04070   0.04174   0.04990   0.05705   0.05780
     Eigenvalues ---    0.05784   0.06103   0.06436   0.06786   0.07285
     Eigenvalues ---    0.07330   0.08347   0.09673   0.09877   0.10022
     Eigenvalues ---    0.10546   0.10654   0.11221   0.11233   0.11724
     Eigenvalues ---    0.12014   0.12039   0.13079   0.13445   0.13670
     Eigenvalues ---    0.13916   0.14175   0.15389   0.15643   0.16000
     Eigenvalues ---    0.16000   0.16000   0.16000   0.16060   0.17782
     Eigenvalues ---    0.17814   0.19895   0.21645   0.22010   0.22029
     Eigenvalues ---    0.22459   0.23043   0.23089   0.23320   0.23960
     Eigenvalues ---    0.25676   0.26066   0.27049   0.28463   0.28856
     Eigenvalues ---    0.29123   0.29288   0.30524   0.30775   0.32524
     Eigenvalues ---    0.32870   0.33246   0.33318   0.33375   0.33887
     Eigenvalues ---    0.34329   0.34507   0.34537   0.34631   0.35111
     Eigenvalues ---    0.35585   0.35603   0.37641   0.37678   0.37855
     Eigenvalues ---    0.38513   0.42948   0.46939   0.62016
 RFO step:  Lambda=-3.28972771D-01 EMin= 2.30000000D-03
 Linear search not attempted -- first point.
 Maximum step size (   0.300) exceeded in Quadratic search.
    -- Step size scaled by   0.453
 Iteration  1 RMS(Cart)=  0.12110848 RMS(Int)=  0.00461835
 Iteration  2 RMS(Cart)=  0.00609479 RMS(Int)=  0.00042294
 Iteration  3 RMS(Cart)=  0.00003800 RMS(Int)=  0.00042273
 Iteration  4 RMS(Cart)=  0.00000005 RMS(Int)=  0.00042273
 Variable       Old X    -DE/DX   Delta X   Delta X   Delta X     New X
                                 (Linear)    (Quad)   (Total)
    R1        2.81921   0.02346   0.00000   0.01608   0.01608   2.83529
    R2        2.07521  -0.00145   0.00000  -0.00098  -0.00098   2.07422
    R3        2.06778   0.00011   0.00000   0.00007   0.00007   2.06785
    R4        2.06433   0.00253   0.00000   0.00170   0.00170   2.06603
    R5        2.84860  -0.00349   0.00000  -0.00180  -0.00177   2.84683
    R6        2.90405  -0.01628   0.00000  -0.01213  -0.01215   2.89190
    R7        2.04708   0.00326   0.00000   0.00216   0.00216   2.04923
    R8        3.01839  -0.03390   0.00000  -0.02753  -0.02755   2.99085
    R9        2.08497  -0.00908   0.00000  -0.00622  -0.00622   2.07875
   R10        2.06482  -0.00198   0.00000  -0.00133  -0.00133   2.06349
   R11        3.01929  -0.03492   0.00000  -0.02784  -0.02784   2.99145
   R12        2.04736   0.00369   0.00000   0.00244   0.00244   2.04980
   R13        3.45180  -0.06063   0.00000  -0.05978  -0.05978   3.39203
   R14        2.13145  -0.01729   0.00000  -0.01231  -0.01231   2.11914
   R15        2.05495   0.00474   0.00000   0.00316   0.00316   2.05811
   R16        2.59746   0.02629   0.00000   0.01573   0.01566   2.61312
   R17        3.62680  -0.04440   0.00000  -0.04722  -0.04699   3.57981
   R18        2.16198  -0.02143   0.00000  -0.01588  -0.01588   2.14610
   R19        3.72780   0.01714   0.00000   0.02298   0.02274   3.75054
   R20        2.62745   0.01323   0.00000   0.00843   0.00840   2.63585
   R21        2.74891   0.02451   0.00000   0.01575   0.01575   2.76466
   R22        2.03678   0.01294   0.00000   0.00913   0.00912   2.04590
   R23        2.06279   0.01191   0.00000   0.00800   0.00800   2.07079
   R24        2.81699   0.02356   0.00000   0.01611   0.01611   2.83310
   R25        2.00326   0.02680   0.00000   0.01701   0.01701   2.02027
   R26        2.17838  -0.03229   0.00000  -0.02385  -0.02385   2.15452
   R27        2.49380   0.09451   0.00000   0.04514   0.04514   2.53893
   R28        2.16105  -0.02416   0.00000  -0.01761  -0.01761   2.14344
   R29        2.86931   0.08796   0.00000   0.06287   0.06287   2.93218
   R30        2.09280  -0.01017   0.00000  -0.00701  -0.00701   2.08580
   R31        2.90305  -0.00230   0.00000  -0.00169  -0.00169   2.90136
   R32        2.23273  -0.03965   0.00000  -0.03049  -0.03049   2.20224
[...]
 016919,-0.00017247,0.00003898,-0.00036048,-0.00009902,-0.00004029,-0.0
 0053032,-0.00185297,0.00155349,-0.06576929,0.09556625,-0.25340591,-0.0
 0893800,0.01322543,-0.02200528,0.00127779,0.00163371,0.00082349,0.0003
 4804,-0.00055689,0.00033883,0.00012229,0.00001136,0.00002630,-0.000156
 84,0.00000192,-0.00000151,-0.00000112,-0.00000341,0.00000049,-0.000000
 11,0.00000006,-0.00000027,0.00000423,0.00000067,-0.00000240,-0.0000024
 1,0.00000438,-0.00000311,0.00000012,-0.00000218,-0.00000066,0.00000165
 ,-0.00000132,-0.00000039,0.00000109,-0.00000037,0.00000285,0.00000204,
 -0.00001344,-0.00001096,-0.00000156,-0.00000390,0.00000480,0.00001993,
 0.00001871,0.00000146,0.00001975,0.00001837,-0.00001000,0.00034571,0.0
 0026940,0.00023980,-0.00000148,0.00074745,0.00055667,-0.00026066,-0.00
 066505,0.00114042,0.07663852,-0.10506931,0.27267759,-0.00000027,0.0000
 1051,0.00000776,0.00002268,0.00001956,-0.00002454,-0.00000631,-0.00001
 464,-0.00002186,-0.00000072,0.00000228,0.00005477,0.00020930,0.0001759
 3,-0.00007475,-0.00086061,-0.00033610,0.00071866,0.00013346,0.00060459
 ,-0.00007793,0.00056572,-0.00077492,-0.00045998,-0.00601925,-0.0009841
 6,0.00218752,0.00374531,0.00531344,-0.00490939,-0.06655364,0.03060590,
 -0.07465402,0.00321319,0.00502978,-0.00345045,0.00029004,-0.00108879,0
 .00161349,0.00103401,-0.00021888,-0.00033068,-0.00113878,0.00019276,0.
 00001545,-0.00000528,-0.00001307,0.00000110,-0.00000296,-0.00000405,-0
 .00000602,0.00002342,0.00000663,-0.00000656,-0.00000715,0.00003190,-0.
 00001860,0.00000242,-0.00001292,-0.00000818,0.00000452,-0.00000525,0.0
 0000066,-0.00000415,0.00000155,0.00000535,0.00001382,-0.00009828,-0.00
 005087,-0.00001216,-0.00000783,0.00000839,-0.00004193,-0.00003250,-0.0
 0003436,-0.00016227,-0.00011158,-0.00002335,-0.00002751,0.00005489,-0.
 00004500,0.00038177,0.00094842,0.00075402,0.00014208,-0.00025358,-0.00
 015879,0.00997370,0.00017707,-0.00331404,0.05450998,-0.00000068,-0.000
 02446,-0.00002018,-0.00003688,-0.00002951,0.00001793,0.00004068,0.0000
 2876,0.00004839,-0.00005274,0.00001836,-0.00009117,-0.00025892,-0.0004
 0740,0.00023522,0.00077956,0.00064437,-0.00073622,-0.00074602,-0.00079
 607,0.00025685,-0.00006495,0.00048778,-0.00015798,-0.00121783,0.001934
 88,-0.00164095,-0.00523615,0.00733021,-0.01724044,0.03343802,-0.098925
 38,0.09838504,0.01089466,-0.01421055,0.02568072,-0.00005494,-0.0032480
 5,-0.00160724,-0.00190848,-0.00024884,0.00008564,0.00227411,-0.0001556
 6,0.00002469,0.00001468,0.00003126,-0.00000536,0.00000685,0.00000850,0
 .00001638,-0.00005064,-0.00001176,0.00001452,0.00002938,-0.00005476,0.
 00004506,0.00000404,0.00003150,0.00001041,-0.00001214,0.00000668,0.000
 00307,0.00001899,-0.00000062,-0.00001085,-0.00004500,0.00021271,0.0001
 1997,0.00002060,0.00000548,-0.00002858,0.00003413,0.00002209,0.0000888
 7,0.00002832,0.00007169,0.00008981,0.00003281,-0.00007355,0.00014836,0
 .00002298,-0.00010212,0.00008928,0.00023210,0.00009573,0.00040266,0.00
 073926,-0.00153087,-0.00323542,-0.03925006,0.10759096,-0.00000045,0.00
 000366,0.00000384,0.00000313,0.00000282,0.00000035,-0.00001053,-0.0000
 0317,-0.00000815,0.00001418,-0.00000635,0.00001093,0.00002231,0.000068
 97,-0.00006783,0.00000916,-0.00010672,-0.00002982,0.00014791,-0.000097
 28,0.00004058,-0.00010184,-0.00003849,0.00021133,0.00199775,0.00246455
 ,0.00008958,-0.00947485,0.01325650,-0.02179135,-0.07082849,0.09273773,
 -0.24028427,-0.00128950,-0.00489671,0.00128194,0.00067463,0.00086384,0
 .00088470,0.00029364,0.00018760,0.00004292,-0.00038938,-0.00001915,0.0
 0000574,-0.00000287,-0.00000594,0.00000106,-0.00000045,-0.00000064,-0.
 00000140,0.00000791,0.00000214,-0.00000336,-0.00000597,0.00000717,-0.0
 0000623,-0.00000059,-0.00000483,-0.00000049,0.00000275,-0.00000143,-0.
 00000158,-0.00000021,0.00000006,0.00000324,0.00000602,-0.00003857,-0.0
 0002264,-0.00000285,-0.00000519,0.00001042,0.00000951,-0.00000097,-0.0
 0000975,-0.00007715,-0.00003074,0.00000216,0.00021958,0.00011925,0.000
 13627,0.00002372,-0.00029726,0.00013344,0.00027576,-0.00140340,0.00067
 596,-0.00414938,-0.00337102,-0.00238469,0.08233562,-0.10009687,0.26074
 232,0.00000318,0.00000175,0.00000488,0.00000268,0.00000730,0.00000191,
 -0.00001704,-0.00000601,-0.00001530,0.00003262,-0.00002607,0.00000956,
 -0.00005317,0.00004754,-0.00004765,0.00028684,-0.00007334,-0.00010362,
 -0.00020289,-0.00028161,-0.00007061,0.00005308,-0.00019810,0.00001896,
 -0.00086506,0.00062993,0.00021629,0.00111977,-0.00058465,0.00019095,0.
 00530268,0.00393440,-0.00289013,-0.12560657,-0.07178250,-0.10209120,-0
 .01779814,-0.00163979,-0.01561732,0.00026049,0.00017564,0.00012604,-0.
 00036260,-0.00003811,0.00000459,-0.00000586,-0.00000830,0.00000241,-0.
 00000121,-0.00000057,-0.00000294,0.00000740,0.00000357,-0.00000307,-0.
 00000785,0.00000666,-0.00000714,-0.00000385,-0.00000912,0.00000090,0.0
 0000323,0.00000040,-0.00000167,-0.00000566,-0.00000161,0.00000273,0.00
 000589,-0.00002412,-0.00001482,-0.00000090,0.00000074,0.00000651,0.000
 00925,0.00002171,-0.00001712,0.00003742,-0.00003122,-0.00000215,-0.000
 01443,0.00002445,0.00000487,0.00002242,-0.00004302,-0.00003797,0.00003
 883,-0.00002314,0.00001623,0.00011087,0.00005413,-0.00013171,-0.000171
 20,0.00038111,0.00016929,0.13560068,0.00000366,-0.00000859,-0.00000134
 ,-0.00000959,0.00000574,-0.00000533,0.00000463,0.00000346,-0.00000124,
 0.00000126,-0.00001250,-0.00001033,-0.00005554,-0.00007092,0.00006790,
 0.00017211,0.00015323,-0.00009730,-0.00022777,-0.00038595,0.00008468,0
 .00048381,0.00039943,-0.00001399,0.00070755,-0.00031579,-0.00151614,0.
 00057962,-0.00444555,0.00232169,-0.01768509,-0.01864037,-0.02447565,-0
 .06649140,-0.09584401,-0.07397498,0.01048234,0.00923411,0.01161219,-0.
 00038197,-0.00007907,-0.00013502,0.00047671,0.00001609,0.00005097,-0.0
 0000134,0.00000261,0.00000058,0.00000150,0.00000251,0.00000290,-0.0000
 1034,-0.00000047,0.00000211,0.00000629,-0.00000895,0.00001052,-0.00000
 133,0.00000042,0.00000316,-0.00000105,0.00000167,0.00000049,0.00000089
 ,-0.00000158,0.00000055,-0.00001192,0.00005095,0.00003665,0.00000794,-
 0.00000446,-0.00000771,-0.00003545,-0.00000801,0.00002630,-0.00004275,
 -0.00000529,0.00004462,-0.00001434,-0.00002678,-0.00000706,-0.00003063
 ,-0.00063025,-0.00005989,0.00000245,-0.00004021,0.00007723,-0.00041124
 ,0.00006912,0.00002312,0.00035344,0.00147026,0.00059703,0.06842589,0.1
 0996904,-0.00000129,0.00001805,0.00001375,0.00002831,0.00002521,-0.000
 02171,-0.00001859,-0.00002064,-0.00003228,0.00001563,-0.00000222,0.000
 06912,0.00023795,0.00027892,-0.00013067,-0.00082027,-0.00035578,0.0007
 3699,0.00063051,0.00072999,-0.00013436,-0.00001375,-0.00017026,-0.0000
 5412,0.00060048,-0.00064147,-0.00044155,-0.00091094,0.00038922,0.00197
 286,-0.00466413,-0.00220944,0.00140576,-0.10361305,-0.07934994,-0.1549
 0671,-0.01283597,-0.00021561,-0.01401219,0.00128317,-0.00006531,-0.000
 20812,-0.00147590,0.00015572,-0.00001779,-0.00000865,-0.00002099,0.000
 00369,-0.00000444,-0.00000532,-0.00001129,0.00003554,0.00000705,-0.000
 01036,-0.00001628,0.00004113,-0.00002970,-0.00000049,-0.00002065,-0.00
 000983,0.00000860,-0.00000630,-0.00000040,-0.00000954,0.00000091,0.000
 00877,0.00002511,-0.00013997,-0.00007822,-0.00001570,-0.00000599,0.000
 01570,-0.00003558,-0.00001738,-0.00005924,-0.00006662,-0.00001633,-0.0
 0002050,0.00003121,0.00001834,-0.00000937,-0.00003543,0.00009898,0.000
 03066,-0.00003222,0.00002731,-0.00000160,-0.00036190,0.00021559,0.0001
 8159,0.00076572,-0.00085859,0.00044711,0.12738790,0.08363577,0.1623429
 4,0.00000329,0.00001003,0.00001104,0.00001095,0.00000339,0.00001722,-0
 .00004381,-0.00001287,-0.00002560,0.00007527,-0.00003982,0.00002293,-0
 .00007443,0.00018628,-0.00018638,0.00045943,-0.00041556,-0.00025635,0.
 00003079,-0.00013749,-0.00022121,-0.00015088,-0.00045238,0.00018798,-0
 .00072228,0.00033802,0.00090556,0.00072894,0.00135223,0.00024559,-0.00
 098103,-0.00217498,0.00138334,-0.00908781,-0.01468390,-0.01022587,-0.1
 6013875,-0.04090732,-0.14092273,0.00089534,0.00064493,0.00045832,-0.00
 117468,-0.00009525,-0.00004494,-0.00001049,-0.00001734,0.00000386,-0.0
 0000371,-0.00000439,-0.00000919,0.00002307,0.00000725,-0.00000653,-0.0
 0002437,0.00001667,-0.00002452,-0.00000762,-0.00001750,0.00000115,0.00
 000670,0.00000064,-0.00000537,-0.00001431,-0.00000188,0.00000289,0.000
 03089,-0.00010065,-0.00006674,-0.00000842,0.00000722,0.00002278,0.0000
 4280,0.00004921,-0.00006203,0.00012986,-0.00010032,-0.00004781,-0.0000
 8252,0.00006608,-0.00001668,-0.00006446,0.00006642,-0.00010482,-0.0000
 0760,-0.00007887,0.00001697,0.00010316,0.00035344,0.00043298,0.0006905
 2,0.00009063,0.00010579,0.00218214,0.00370919,-0.00620299,0.16709852,-
 0.00000484,-0.00010301,-0.00008374,-0.00016081,-0.00011730,0.00006585,
 0.00017278,0.00012326,0.00019896,-0.00022716,0.00008656,-0.00038001,-0
 .00097465,-0.00164548,0.00095918,0.00280200,0.00251500,-0.00309090,-0.
 00259014,-0.00306870,0.00122367,0.00043176,0.00211806,-0.00014201,-0.0
 0001947,0.00026844,-0.00009587,-0.00026183,-0.00042178,-0.00124148,-0.
 00240691,0.00507108,0.00064469,0.02197848,-0.00231999,0.01875233,-0.07
 338500,-0.03975036,-0.07057434,-0.00796239,-0.00078438,0.00012355,0.00
 944070,-0.00065691,0.00017666,0.00006049,0.00012729,-0.00002259,0.0000
 3057,0.00003873,0.00007530,-0.00021237,-0.00004901,0.00005569,0.000127
 57,-0.00022885,0.00019402,0.00001817,0.00013170,0.00004492,-0.00004845
 ,0.00002595,0.00001181,0.00008442,-0.00000151,-0.00003702,-0.00018620,
 0.00086060,0.00049917,0.00009457,0.00000553,-0.00011051,0.00007110,-0.
 00001509,0.00041533,0.00003306,0.00030113,0.00012259,0.00001433,-0.000
 16348,0.00021451,-0.00006287,-0.00030849,-0.00006765,-0.00001197,-0.00
 009394,0.00012397,0.00057798,-0.00054151,0.00005425,-0.00018061,-0.000
 30745,0.00013122,0.00103937,-0.00086908,-0.00143438,0.05235139,0.03929
 499,-0.00000408,0.00000930,0.00000348,0.00001668,0.00001589,-0.0000290
 2,0.00001491,-0.00000842,-0.00000795,-0.00004049,0.00002558,0.00004090
 ,0.00023120,0.00009581,0.00001589,-0.00094348,0.00002783,0.00079146,0.
 00044445,0.00072251,0.00002695,-0.00011229,0.00010038,-0.00021225,0.00
 115936,-0.00001558,-0.00040481,-0.00034139,-0.00147941,-0.00059650,0.0
 0275634,0.00044199,-0.00046041,-0.00060148,-0.01527443,-0.00514497,-0.
 14874596,-0.03961524,-0.16750793,0.00043092,-0.00055587,-0.00044800,-0
 .00041148,0.00018447,0.00000289,0.00000066,-0.00000533,0.00000004,-0.0
 0000120,-0.00000149,-0.00000273,0.00001409,0.00000045,-0.00000444,0.00
 000293,0.00002342,-0.00000868,0.00000535,-0.00000446,-0.00000941,0.000
 00254,-0.00000606,0.00000338,0.00000266,0.00000214,0.00000532,0.000000
 05,-0.00004348,-0.00002229,-0.00000919,-0.00000660,-0.00000236,-0.0000
 4062,-0.00003001,-0.00001054,-0.00015418,0.00007383,-0.00003239,0.0000
 9481,0.00000133,0.00004946,0.00008059,0.00007090,0.00013444,0.00001723
 ,-0.00007215,-0.00000983,-0.00049006,-0.00004440,0.00031436,-0.0008593
 0,0.00006439,-0.00013075,-0.00711370,0.00173663,0.00289287,0.15457912,
 0.05360504,0.17072594,-0.00007234,0.00005046,0.00009152,-0.00007924,0.
 00001987,-0.00016211,0.00008313,0.00001476,0.00006691,-0.00008765,-0.0
 0006625,-0.00003687,0.00019134,-0.00057826,0.00014165,0.00900889,-0.00
 173199,0.01165639,0.00160359,0.00099055,-0.00221427,0.00014643,-0.0001
 4719,-0.00001630,0.00004469,-0.00010393,0.00006929,-0.00003728,0.00002
 204,-0.00001923,-0.00000124,-0.00002385,0.00001065,0.00001014,0.000021
 76,-0.00001337,-0.00000939,-0.00001339,0.00001567,-0.11155729,0.015317
 93,-0.11221661,-0.02507418,0.00388632,-0.03218364,0.00003384,-0.000037
 13,-0.00001920,0.00002100,0.00001286,0.00001807,0.00006631,0.00002744,
 -0.00006979,0.00006015,-0.00006637,0.00005630,0.00000355,0.00002330,0.
 00000680,0.00000344,-0.00000522,-0.00000477,-0.00002020,0.00001615,0.0
 0002277,-0.00011991,0.00016217,-0.00008403,-0.00003733,0.00013270,-0.0
 0024571,-0.00117772,0.00011924,0.00314277,-0.00000323,-0.00005590,0.00
 015777,-0.00002110,0.00007863,-0.00005201,-0.00000597,0.00001059,-0.00
 001251,-0.00005181,-0.00001117,-0.00003319,-0.00000145,0.00000756,-0.0
 0000271,-0.00001276,0.00000275,-0.00000797,0.00000079,-0.00000149,-0.0
 0000360,0.00000366,0.00000506,-0.00000395,0.13233746,-0.00005970,-0.00
 003276,0.00007793,-0.00009727,0.00009991,-0.00009861,0.00001586,0.0000
 5790,-0.00000911,0.00008625,-0.00009163,-0.00016059,-0.00054968,0.0007
 3099,0.00137798,-0.00402237,0.00327253,-0.00405652,0.00208956,0.000715
 38,-0.00114342,0.00004894,-0.00025316,0.00036682,0.00013965,-0.0004083
 4,-0.00001384,-0.00004443,0.00012636,0.00003238,-0.00008051,-0.0004197
 0,-0.00009116,0.00004949,0.00084287,-0.00007111,0.00009665,-0.00114818
 ,0.00027650,0.01718145,-0.01676704,0.02140331,0.00127859,-0.00297527,0
 .00279736,-0.00000823,-0.00000463,-0.00000617,0.00004049,0.00000635,0.
 00001774,0.00001220,0.00004529,-0.00001956,-0.00004250,-0.00027595,0.0
 0006688,-0.00002626,-0.00001471,0.00006105,0.00000816,0.00000637,-0.00
 001656,0.00000999,-0.00002528,0.00004695,0.00023725,0.00002374,0.00022
 888,0.00036871,-0.00037517,0.00002634,0.00129137,0.00059860,0.00074572
 ,-0.00021209,-0.00063534,0.00026400,0.00002893,0.00003275,-0.00013002,
 0.00010360,0.00011326,-0.00000476,-0.00004128,0.00003764,-0.00005688,-
 0.00001847,-0.00001686,0.00000005,-0.00013863,0.00013128,-0.00002266,0
 .00001370,0.00001979,-0.00010002,0.00000800,0.00044276,-0.00007050,-0.
 01918165,0.01163014,-0.00001054,-0.00001959,0.00008235,-0.00012052,0.0
 0017422,-0.00021445,0.00006263,-0.00000644,-0.00003442,0.00014287,-0.0
 0010072,0.00001788,-0.00021657,0.00102293,-0.00016157,-0.01656567,0.00
 334784,-0.01144144,0.00080425,0.00047182,0.00265747,0.00019526,-0.0005
 9423,-0.00034436,0.00000201,0.00011723,0.00005822,0.00001061,0.0000924
 2,-0.00000499,-0.00007963,-0.00022972,-0.00003289,-0.00000931,0.000684
 24,0.00006861,0.00024105,-0.00120815,0.00008374,-0.12394662,0.01994449
 ,-0.28944349,0.00340543,-0.00044624,0.00840967,-0.00002093,-0.00000891
 ,0.00000696,0.00003277,0.00000703,0.00000263,0.00000230,0.00000772,-0.
 00000053,0.00003459,-0.00010903,0.00016845,-0.00002976,-0.00003662,0.0
 0004211,0.00000145,-0.00001420,-0.00000227,0.00006714,0.00005351,0.000
 09680,0.00018982,-0.00034956,0.00011344,0.00029408,-0.00060515,0.00016
 068,0.00216786,-0.00060156,-0.00367690,-0.00014098,0.00031661,0.000035
 22,-0.00007631,-0.00005511,0.00011291,-0.00005012,0.00002168,0.0000186
 0,0.00006137,0.00002030,0.00001655,0.00000300,-0.00002320,-0.00000924,
 -0.00004322,0.00011421,-0.00001510,-0.00002245,0.00002550,-0.00007126,
 -0.00007286,0.00048232,-0.00001131,0.13103028,-0.02234133,0.29167512,0
 .00043998,-0.00030609,-0.00037851,0.00027829,0.00040457,-0.00016628,-0
 .00008938,-0.00005179,-0.00030918,0.00011661,-0.00050238,0.00024289,-0
 .00001082,0.00074999,0.00045777,0.00083723,0.00009248,-0.00194889,0.00
 183077,0.00008375,0.00022281,-0.00003138,-0.00073091,-0.00004748,-0.00
 018239,0.00014382,-0.00006775,0.00015030,-0.00019657,0.00010111,0.0001
 1474,0.00030794,0.00001141,-0.00007707,-0.00089110,-0.00008332,-0.0002
 6020,0.00160668,-0.00010986,-0.03326098,0.00522052,-0.04714867,-0.1100
 6411,0.01596766,-0.13845479,-0.00022929,0.00018183,0.00007451,-0.00003
 393,-0.00008777,-0.00006012,-0.00008081,0.00011172,0.00042235,-0.00012
 614,0.00003307,-0.00001777,0.00000206,-0.00011435,-0.00000278,-0.00004
 624,-0.00004149,0.00004292,0.00002144,0.00001973,0.00007475,-0.0000054
 3,-0.00013660,-0.00000776,0.00012283,-0.00036544,-0.00004487,0.0002995
 1,-0.00040736,0.00279273,-0.00000868,0.00013741,-0.00007385,-0.0000615
 8,0.00006137,0.00002361,0.00000960,-0.00006277,-0.00001371,0.00003104,
 -0.00000785,0.00002155,-0.00001630,0.00004272,0.00000923,0.00007098,-0
 .00015023,0.00002380,0.00003617,-0.00000603,0.00009723,0.00008186,-0.0
 0063812,0.00001895,-0.00524831,0.00141426,0.00265673,0.14538961,0.0003
 2989,-0.00048681,-0.00064744,0.00017513,-0.00063791,0.00075247,-0.0006
 3899,0.00016977,0.00002192,0.00055358,0.00061396,-0.00019742,0.0013417
 6,0.00082799,-0.00037284,-0.00057054,-0.00309720,-0.00102611,-0.000386
 54,-0.00051808,0.00039160,-0.00044255,0.00109419,0.00019558,0.00003358
 ,-0.00018511,-0.00005152,0.00002410,0.00001271,-0.00001981,0.00001445,
 -0.00007311,-0.00001802,-0.00005635,0.00006399,-0.00002894,0.00007825,
 -0.00007630,-0.00002405,0.00328353,-0.00106212,0.00427672,0.01762747,-
 0.01280118,0.03173527,-0.00016618,0.00039601,0.00011702,-0.00006358,-0
 .00002512,0.00002316,-0.00065364,-0.00007064,0.00067971,-0.00004687,-0
 .00000214,-0.00003078,-0.00002659,0.00005703,0.00003848,-0.00005588,0.
 00021805,0.00001893,-0.00006915,-0.00014890,-0.00057789,-0.00012041,-0
 .00031282,-0.00000514,-0.00005784,-0.00014526,-0.00000780,0.00043186,0
 .00001260,0.00060566,0.00012040,-0.00004556,-0.00037764,0.00002861,-0.
 00008794,0.00017272,0.00008707,0.00002709,-0.00002315,0.00004050,0.000
 00848,0.00003838,-0.00001379,-0.00000486,0.00001115,-0.00000281,0.0000
 0456,0.00000481,0.00000301,-0.00000059,0.00001439,-0.00002047,0.000035
 25,0.00003157,0.00110167,0.00451014,-0.00015429,-0.02188265,0.01172979
 ,-0.00020251,0.00020712,0.00021302,-0.00006584,-0.00026819,-0.00004952
 ,-0.00017862,-0.00006356,0.00008428,0.00013178,-0.00001850,0.00042120,
 0.00001991,0.00040561,-0.00068252,0.00761573,-0.00242452,0.00573941,-0
 .00120438,-0.00113060,-0.00202638,0.00020938,0.00076330,0.00042873,-0.
 00010187,0.00009239,-0.00007580,0.00003531,-0.00013514,0.00006147,0.00
 014647,0.00047765,0.00005521,-0.00000099,-0.00131116,-0.00007575,-0.00
 039694,0.00224490,-0.00022638,-0.00108030,-0.00001814,0.00243935,-0.18
 550550,0.03622217,-0.42121345,0.00006004,-0.00005102,-0.00010565,-0.00
 000599,-0.00014632,-0.00008110,0.00023933,0.00005353,-0.00005964,-0.00
 002174,0.00006885,-0.00006929,0.00001558,0.00001786,0.00000648,0.00002
 981,0.00006031,-0.00007651,-0.00008238,-0.00010139,-0.00032319,0.00010
 992,-0.00013810,-0.00004204,-0.00008876,0.00019581,-0.00014259,-0.0025
 7240,0.00128866,-0.00059973,0.00005936,-0.00005079,-0.00004712,0.00005
 567,-0.00004785,-0.00003825,0.00001040,-0.00010077,-0.00002570,-0.0000
 1986,-0.00000717,0.00001158,-0.00000191,0.00001963,0.00001574,0.000103
 34,-0.00021163,0.00003351,0.00002653,-0.00005462,0.00013946,0.00010509
 ,-0.00089455,0.00004918,0.00091501,0.00062291,0.00163679,0.18164128,-0
 .03556670,0.41462522\\-0.00000267,0.00000116,-0.00000163,0.00000361,-0
 .00000207,-0.00000190,0.00000061,0.00000850,0.00000725,-0.00000119,-0.
 00000316,0.00000254,0.00000237,-0.00000274,-0.00000332,-0.00000589,0.0
 0000297,0.00000415,-0.00000048,0.00001195,-0.00000526,0.00002171,-0.00
 001192,0.00000153,-0.00002589,-0.00000624,0.00000879,0.00000014,0.0000
 0307,-0.00000973,0.00001022,-0.00001155,0.00001346,-0.00000449,-0.0000
 1269,-0.00001093,0.00000850,0.00000922,0.00000753,0.00000776,-0.000001
 65,0.00000497,-0.00000672,-0.00000022,-0.00000497,-0.00000084,0.000000
 64,0.00000110,0.00000073,-0.00000117,-0.00000030,-0.00000009,-0.000000
 17,-0.00000055,-0.00000104,0.00000018,0.00000121,0.00000062,0.00000060
 ,-0.00000145,-0.00000101,-0.00000321,-0.00000136,0.00000161,0.00000081
 ,-0.00000057,-0.00000092,-0.00000136,0.00000067,-0.00000021,-0.0000015
 1,0.00000046,-0.00000523,0.00000219,0.00000594,-0.00000064,0.00000014,
 -0.00000359,-0.00000068,0.00000300,-0.00000233,0.00000456,-0.00000157,
 -0.00000256,0.00000248,0.00000275,-0.00000017,0.00000221,0.00000216,0.
 00000251,-0.00000133,0.00000433,-0.00000251,-0.00000421,0.00000788,-0.
 00000091,-0.00000482,-0.00000010,-0.00000526,-0.00000153,0.00000016,0.
 00000074,0.00000274,-0.00000042,-0.00000352\\\@


 THE REAL VOYAGE OF DISCOVERY CONSISTS NOT IN SEEKING NEW LANDSCAPES 
 BUT IN HAVING NEW EYES.
                                                    -- MARCEL PROUST
 Job cpu time:       0 days  8 hours 11 minutes 18.8 seconds.
 Elapsed time:       0 days  2 hours 17 minutes 33.1 seconds.
 File lengths (MBytes):  RWF=    688 Int=      0 D2E=      0 Chk=     23 Scr=      1
 Normal termination of Gaussian 16 at Mon May 22 16:32:05 2023.
### All Done ###
