### Starting Gaussian ###
 Entering Gaussian System, Link 0=g16
 Initial command:
 /cluster/software/gaussian/gaussian-16-A.03/avx2/g16/l1.exe "/local/scratch/cz9n3/Gau-29933.inp" -scrdir="/local/scratch/cz9n3/"
 Entering Link 1 = /cluster/software/gaussian/gaussian-16-A.03/avx2/g16/l1.exe PID=     29934.
  
 Copyright (c) 1988,1990,1992,1993,1995,1998,2003,2009,2016,
            Gaussian, Inc.  All Rights Reserved.
  
 This is part of the Gaussian(R) 16 program.  It is based on
 the Gaussian(R) 09 system (copyright 2009, Gaussian, Inc.),
 the Gaussian(R) 03 system (copyright 2003, Gaussian, Inc.),
 the Gaussian(R) 98 system (copyright 1998, Gaussian, Inc.),
 the Gaussian(R) 94 system (copyright 1995, Gaussian, Inc.),
 the Gaussian 92(TM) system (copyright 1992, Gaussian, Inc.),
 the Gaussian 90(TM) system (copyright 1990, Gaussian, Inc.),
 the Gaussian 88(TM) system (copyright 1988, Gaussian, Inc.),
 the Gaussian 86(TM) system (copyright 1986, Carnegie Mellon
 University), and the Gaussian 82(TM) system (copyright 1983,
 Carnegie Mellon University). Gaussian is a federally registered
 trademark of Gaussian, Inc.
  
 This software contains proprietary and confidential information,
 including trade secrets, belonging to Gaussian, Inc.
  
 This software is provided under written license and may be
 used, copied, transmitted, or stored only in accord with that
 written license.
  
 The following legend is applicable only to US Government
 contracts under FAR:
  
                    RESTRICTED RIGHTS LEGEND
  
 Use, reproduction and disclosure by the US Government is
 subject to restrictions as set forth in subparagraphs (a)
 and (c) of the Commercial Computer Software - Restricted
 Rights clause in FAR 52.227-19.
  
 Gaussian, Inc.
 340 Quinnipiac St., Bldg. 40, Wallingford CT 06492
  
  
 ---------------------------------------------------------------
 Warning -- This program may not be used in any manner that
 competes with the business of Gaussian, Inc. or will provide
 assistance to any competitor of Gaussian, Inc.  The licensee
 of this program is prohibited from giving any competitor of
 Gaussian, Inc. access to this program.  By using this program,
 the user acknowledges that Gaussian, Inc. is engaged in the
 business of creating and licensing software in the field of
 computational chemistry and represents and warrants to the
 licensee that it is not a competitor of Gaussian, Inc. and that
 it will not use this program in any manner prohibited above.
 ---------------------------------------------------------------
  

 Cite this work as:
 Gaussian 16, Revision A.03,
 M. J. Frisch, G. W. Trucks, H. B. Schlegel, G. E. Scuseria, 
 M. A. Robb, J. R. Cheeseman, G. Scalmani, V. Barone, 
 G. A. Petersson, H. Nakatsuji, X. Li, M. Caricato, A. V. Marenich, 
 J. Bloino, B. G. Janesko, R. Gomperts, B. Mennucci, H. P. Hratchian, 
 J. V. Ortiz, A. F. Izmaylov, J. L. Sonnenberg, D. Williams-Young, 
 F. Ding, F. Lipparini, F. Egidi, J. Goings, B. Peng, A. Petrone, 
 T. Henderson, D. Ranasinghe, V. G. Zakrzewski, J. Gao, N. Rega, 
 G. Zheng, W. Liang, M. Hada, M. Ehara, K. Toyota, R. Fukuda, 
 J. Hasegawa, M. Ishida, T. Nakajima, Y. Honda, O. Kitao, H. Nakai, 
 T. Vreven, K. Throssell, J. A. Montgomery, Jr., J. E. Peralta, 
 F. Ogliaro, M. J. Bearpark, J. J. Heyd, E. N. Brothers, K. N. Kudin, 
 V. N. Staroverov, T. A. Keith, R. Kobayashi, J. Normand, 
 K. Raghavachari, A. P. Rendell, J. C. Burant, S. S. Iyengar, 
 J. Tomasi, M. Cossi, J. M. Millam, M. Klene, C. Adamo, R. Cammi, 
 J. W. Ochterski, R. L. Martin, K. Morokuma, O. Farkas, 
 J. B. Foresman, and D. J. Fox, Gaussian, Inc., Wallingford CT, 2016.
 
 ******************************************
 Gaussian 16:  ES64L-G16RevA.03 25-Dec-2016
                27-May-2023 
 ******************************************
 %chk=CC1CCCqdOrCCCqOrCC1.chk
 %NProcShared=20
 Will use up to   20 processors via shared memory.
 -----------------------------
 # opt freq b3lyp/6-31g(2df,p)
 -----------------------------
 1/18=20,19=15,26=3,38=1/1,3;
 2/9=110,12=2,17=6,18=5,40=1/2;
 3/5=1,6=6,7=104,11=2,25=1,30=1,71=1,74=-5/1,2,3;
 4//1;
 5/5=2,38=5/2;
 6/7=2,8=2,9=2,10=2,28=1/1;
 7//1,2,3,16;
 1/18=20,19=15,26=3/3(2);
 2/9=110/2;
 99//99;
 2/9=110/2;
 3/5=1,6=6,7=104,11=2,25=1,30=1,71=1,74=-5/1,2,3;
 4/5=5,16=3,69=1/1;
 5/5=2,38=5/2;
 7//1,2,3,16;
 1/18=20,19=15,26=3/3(-5);
 2/9=110/2;
 6/7=2,8=2,9=2,10=2,19=2,28=1/1;
 99/9=1/99;
 -------------------
 Title Card Required
 -------------------
 Symbolic Z-matrix:
 Charge =  0 Multiplicity = 1
 C                     1.03907  -0.07172  -0.45219 
 C                     2.522    -0.09747  -0.09994 
 C                     3.0402    1.34804   0.09741 
 C                     2.68508   2.05142   1.41575 
 C                     1.20257   2.09241   1.74097 
 O                     0.41337   2.65992   0.99489 
 C                     0.73284   1.47781   3.05921 
 C                     1.14086   0.02834   3.36475 
 C                     0.60698  -1.02231   2.38092 
 O                    -0.32614  -1.90309   3.01093 
 C                     1.75009  -1.83557   1.72543 
 C                     2.89851  -1.03194   1.07582 
 H                     0.81011   0.50742  -1.34572 
 H                     0.4935    0.44862   0.31463 
 H                     0.60686  -1.07053  -0.5461 
 H                     3.02627  -0.49685  -0.99228 
 H                     2.67878   1.95837  -0.74073 
 H                     4.13524   1.33866   0.01157 
 H                     3.0249    3.0939    1.37115 
 H                     3.22613   1.60783   2.25291 
 H                    -0.3589    1.5632    3.09947 
 H                     1.14078   2.12584   3.84249 
 H                     0.79608  -0.22075   4.37321 
 H                     2.23069  -0.01284   3.41779 
 H                    -0.04925  -0.55469   1.66121 
 H                     0.13225  -2.45873   3.65615 
 H                     1.34002  -2.53229   0.98316 
 H                     2.18666  -2.48672   2.49444 
 H                     3.64465  -1.75208   0.70574 
 H                     3.46616  -0.49283   1.84185 
 

 GradGradGradGradGradGradGradGradGradGradGradGradGradGradGradGradGradGrad
 Berny optimization.
 Initialization pass.
                           ----------------------------
                           !    Initial Parameters    !
                           ! (Angstroms and Degrees)  !
 --------------------------                            --------------------------
 ! Name  Definition              Value          Derivative Info.                !
 --------------------------------------------------------------------------------
 ! R1    R(1,2)                  1.5244         estimate D2E/DX2                !
 ! R2    R(1,13)                 1.0891         estimate D2E/DX2                !
 ! R3    R(1,14)                 1.0754         estimate D2E/DX2                !
 ! R4    R(1,15)                 1.0924         estimate D2E/DX2                !
 ! R5    R(2,3)                  1.5482         estimate D2E/DX2                !
 ! R6    R(2,12)                 1.5484         estimate D2E/DX2                !
 ! R7    R(2,16)                 1.1            estimate D2E/DX2                !
 ! R8    R(3,4)                  1.5359         estimate D2E/DX2                !
 ! R9    R(3,17)                 1.098          estimate D2E/DX2                !
 ! R10   R(3,18)                 1.0984         estimate D2E/DX2                !
 ! R11   R(4,5)                  1.5183         estimate D2E/DX2                !
 ! R12   R(4,19)                 1.0974         estimate D2E/DX2                !
 ! R13   R(4,20)                 1.091          estimate D2E/DX2                !
 ! R14   R(5,6)                  1.2254         estimate D2E/DX2                !
 ! R15   R(5,7)                  1.5284         estimate D2E/DX2                !
 ! R16   R(7,8)                  1.5365         estimate D2E/DX2                !
 ! R17   R(7,21)                 1.0958         estimate D2E/DX2                !
 ! R18   R(7,22)                 1.0954         estimate D2E/DX2                !
 ! R19   R(8,9)                  1.5352         estimate D2E/DX2                !
 ! R20   R(8,23)                 1.0945         estimate D2E/DX2                !
 ! R21   R(8,24)                 1.0919         estimate D2E/DX2                !
 ! R22   R(9,10)                 1.4295         estimate D2E/DX2                !
 ! R23   R(9,11)                 1.5485         estimate D2E/DX2                !
 ! R24   R(9,25)                 1.0804         estimate D2E/DX2                !
 ! R25   R(10,26)                0.967          estimate D2E/DX2                !
 ! R26   R(11,12)                1.5449         estimate D2E/DX2                !
 ! R27   R(11,27)                1.0975         estimate D2E/DX2                !
 ! R28   R(11,28)                1.0982         estimate D2E/DX2                !
 ! R29   R(12,29)                1.101          estimate D2E/DX2                !
 ! R30   R(12,30)                1.0953         estimate D2E/DX2                !
 ! A1    A(2,1,13)             113.7693         estimate D2E/DX2                !
 ! A2    A(2,1,14)             109.6899         estimate D2E/DX2                !
 ! A3    A(2,1,15)             112.9123         estimate D2E/DX2                !
 ! A4    A(13,1,14)            102.7714         estimate D2E/DX2                !
 ! A5    A(13,1,15)            109.4204         estimate D2E/DX2                !
 ! A6    A(14,1,15)            107.638          estimate D2E/DX2                !
 ! A7    A(1,2,3)              109.8332         estimate D2E/DX2                !
 ! A8    A(1,2,12)             114.9744         estimate D2E/DX2                !
 ! A9    A(1,2,16)             105.3449         estimate D2E/DX2                !
 ! A10   A(3,2,12)             112.6625         estimate D2E/DX2                !
 ! A11   A(3,2,16)             106.7948         estimate D2E/DX2                !
 ! A12   A(12,2,16)            106.5829         estimate D2E/DX2                !
 ! A13   A(2,3,4)              117.3622         estimate D2E/DX2                !
 ! A14   A(2,3,17)             108.15           estimate D2E/DX2                !
 ! A15   A(2,3,18)             108.4053         estimate D2E/DX2                !
 ! A16   A(4,3,17)             108.9382         estimate D2E/DX2                !
 ! A17   A(4,3,18)             107.5473         estimate D2E/DX2                !
 ! A18   A(17,3,18)            105.857          estimate D2E/DX2                !
 ! A19   A(3,4,5)              114.9603         estimate D2E/DX2                !
 ! A20   A(3,4,19)             109.1823         estimate D2E/DX2                !
 ! A21   A(3,4,20)             110.9636         estimate D2E/DX2                !
 ! A22   A(5,4,19)             106.5841         estimate D2E/DX2                !
 ! A23   A(5,4,20)             109.3193         estimate D2E/DX2                !
 ! A24   A(19,4,20)            105.2992         estimate D2E/DX2                !
 ! A25   A(4,5,6)              120.7269         estimate D2E/DX2                !
 ! A26   A(4,5,7)              118.2918         estimate D2E/DX2                !
 ! A27   A(6,5,7)              120.892          estimate D2E/DX2                !
 ! A28   A(5,7,8)              117.9844         estimate D2E/DX2                !
 ! A29   A(5,7,21)             107.8506         estimate D2E/DX2                !
 ! A30   A(5,7,22)             105.3306         estimate D2E/DX2                !
 ! A31   A(8,7,21)             109.3156         estimate D2E/DX2                !
 ! A32   A(8,7,22)             108.4816         estimate D2E/DX2                !
 ! A33   A(21,7,22)            107.3771         estimate D2E/DX2                !
 ! A34   A(7,8,9)              115.2033         estimate D2E/DX2                !
 ! A35   A(7,8,23)             108.3166         estimate D2E/DX2                !
 ! A36   A(7,8,24)             108.0766         estimate D2E/DX2                !
 ! A37   A(9,8,23)             108.9761         estimate D2E/DX2                !
 ! A38   A(9,8,24)             110.6355         estimate D2E/DX2                !
 ! A39   A(23,8,24)            105.134          estimate D2E/DX2                !
 ! A40   A(8,9,10)             111.4845         estimate D2E/DX2                !
 ! A41   A(8,9,11)             111.9622         estimate D2E/DX2                !
 ! A42   A(8,9,25)             109.9937         estimate D2E/DX2                !
 ! A43   A(10,9,11)            110.1725         estimate D2E/DX2                !
 ! A44   A(10,9,25)             99.4267         estimate D2E/DX2                !
 ! A45   A(11,9,25)            113.1858         estimate D2E/DX2                !
 ! A46   A(9,10,26)            109.7956         estimate D2E/DX2                !
 ! A47   A(9,11,12)            116.9726         estimate D2E/DX2                !
 ! A48   A(9,11,27)            110.1133         estimate D2E/DX2                !
 ! A49   A(9,11,28)            107.9663         estimate D2E/DX2                !
 ! A50   A(12,11,27)           108.8799         estimate D2E/DX2                !
 ! A51   A(12,11,28)           107.9011         estimate D2E/DX2                !
 ! A52   A(27,11,28)           104.225          estimate D2E/DX2                !
 ! A53   A(2,12,11)            116.9032         estimate D2E/DX2                !
 ! A54   A(2,12,29)            107.7154         estimate D2E/DX2                !
 ! A55   A(2,12,30)            111.1033         estimate D2E/DX2                !
 ! A56   A(11,12,29)           107.7498         estimate D2E/DX2                !
 ! A57   A(11,12,30)           110.3171         estimate D2E/DX2                !
 ! A58   A(29,12,30)           101.876          estimate D2E/DX2                !
 ! D1    D(13,1,2,3)            57.837          estimate D2E/DX2                !
 ! D2    D(13,1,2,12)         -173.8588         estimate D2E/DX2                !
 ! D3    D(13,1,2,16)          -56.8395         estimate D2E/DX2                !
 ! D4    D(14,1,2,3)           -56.6292         estimate D2E/DX2                !
 ! D5    D(14,1,2,12)           71.675          estimate D2E/DX2                !
 ! D6    D(14,1,2,16)         -171.3057         estimate D2E/DX2                !
 ! D7    D(15,1,2,3)          -176.6714         estimate D2E/DX2                !
 ! D8    D(15,1,2,12)          -48.3672         estimate D2E/DX2                !
 ! D9    D(15,1,2,16)           68.6521         estimate D2E/DX2                !
 ! D10   D(1,2,3,4)             76.8364         estimate D2E/DX2                !
 ! D11   D(1,2,3,17)           -46.8205         estimate D2E/DX2                !
 ! D12   D(1,2,3,18)          -161.1593         estimate D2E/DX2                !
 ! D13   D(12,2,3,4)           -52.7311         estimate D2E/DX2                !
 ! D14   D(12,2,3,17)         -176.3881         estimate D2E/DX2                !
 ! D15   D(12,2,3,18)           69.2732         estimate D2E/DX2                !
 ! D16   D(16,2,3,4)          -169.416          estimate D2E/DX2                !
 ! D17   D(16,2,3,17)           66.9271         estimate D2E/DX2                !
 ! D18   D(16,2,3,18)          -47.4116         estimate D2E/DX2                !
 ! D19   D(1,2,12,11)            1.1167         estimate D2E/DX2                !
 ! D20   D(1,2,12,29)          122.5135         estimate D2E/DX2                !
 ! D21   D(1,2,12,30)         -126.7021         estimate D2E/DX2                !
 ! D22   D(3,2,12,11)          127.9917         estimate D2E/DX2                !
 ! D23   D(3,2,12,29)         -110.6116         estimate D2E/DX2                !
 ! D24   D(3,2,12,30)            0.1728         estimate D2E/DX2                !
 ! D25   D(16,2,12,11)        -115.1974         estimate D2E/DX2                !
 ! D26   D(16,2,12,29)           6.1994         estimate D2E/DX2                !
 ! D27   D(16,2,12,30)         116.9838         estimate D2E/DX2                !
 ! D28   D(2,3,4,5)            -54.4393         estimate D2E/DX2                !
 ! D29   D(2,3,4,19)          -174.1266         estimate D2E/DX2                !
 ! D30   D(2,3,4,20)            70.2495         estimate D2E/DX2                !
 ! D31   D(17,3,4,5)            68.8175         estimate D2E/DX2                !
 ! D32   D(17,3,4,19)          -50.8698         estimate D2E/DX2                !
 ! D33   D(17,3,4,20)         -166.4937         estimate D2E/DX2                !
 ! D34   D(18,3,4,5)          -176.8853         estimate D2E/DX2                !
 ! D35   D(18,3,4,19)           63.4274         estimate D2E/DX2                !
 ! D36   D(18,3,4,20)          -52.1965         estimate D2E/DX2                !
 ! D37   D(3,4,5,6)            -61.0503         estimate D2E/DX2                !
 ! D38   D(3,4,5,7)            122.3548         estimate D2E/DX2                !
 ! D39   D(19,4,5,6)            60.0659         estimate D2E/DX2                !
 ! D40   D(19,4,5,7)          -116.529          estimate D2E/DX2                !
 ! D41   D(20,4,5,6)           173.4034         estimate D2E/DX2                !
 ! D42   D(20,4,5,7)            -3.1916         estimate D2E/DX2                !
 ! D43   D(4,5,7,8)            -53.3132         estimate D2E/DX2                !
 ! D44   D(4,5,7,21)          -177.6898         estimate D2E/DX2                !
 ! D45   D(4,5,7,22)            67.8774         estimate D2E/DX2                !
 ! D46   D(6,5,7,8)            130.0978         estimate D2E/DX2                !
 ! D47   D(6,5,7,21)             5.7211         estimate D2E/DX2                !
 ! D48   D(6,5,7,22)          -108.7116         estimate D2E/DX2                !
 ! D49   D(5,7,8,9)            -62.3771         estimate D2E/DX2                !
 ! D50   D(5,7,8,23)           175.3219         estimate D2E/DX2                !
 ! D51   D(5,7,8,24)            61.9099         estimate D2E/DX2                !
 ! D52   D(21,7,8,9)            61.2696         estimate D2E/DX2                !
 ! D53   D(21,7,8,23)          -61.0313         estimate D2E/DX2                !
 ! D54   D(21,7,8,24)         -174.4433         estimate D2E/DX2                !
 ! D55   D(22,7,8,9)           178.0667         estimate D2E/DX2                !
 ! D56   D(22,7,8,23)           55.7658         estimate D2E/DX2                !
 ! D57   D(22,7,8,24)          -57.6462         estimate D2E/DX2                !
 ! D58   D(7,8,9,10)          -113.7879         estimate D2E/DX2                !
 ! D59   D(7,8,9,11)           122.2725         estimate D2E/DX2                !
 ! D60   D(7,8,9,25)            -4.488          estimate D2E/DX2                !
 ! D61   D(23,8,9,10)            8.1586         estimate D2E/DX2                !
 ! D62   D(23,8,9,11)         -115.781          estimate D2E/DX2                !
 ! D63   D(23,8,9,25)          117.4586         estimate D2E/DX2                !
 ! D64   D(24,8,9,10)          123.2777         estimate D2E/DX2                !
 ! D65   D(24,8,9,11)           -0.6619         estimate D2E/DX2                !
 ! D66   D(24,8,9,25)         -127.4224         estimate D2E/DX2                !
 ! D67   D(8,9,10,26)          -68.3344         estimate D2E/DX2                !
 ! D68   D(11,9,10,26)          56.6105         estimate D2E/DX2                !
 ! D69   D(25,9,10,26)         175.7004         estimate D2E/DX2                !
 ! D70   D(8,9,11,12)          -51.4878         estimate D2E/DX2                !
 ! D71   D(8,9,11,27)         -176.4498         estimate D2E/DX2                !
 ! D72   D(8,9,11,28)           70.3556         estimate D2E/DX2                !
 ! D73   D(10,9,11,12)        -176.159          estimate D2E/DX2                !
 ! D74   D(10,9,11,27)          58.879          estimate D2E/DX2                !
 ! D75   D(10,9,11,28)         -54.3156         estimate D2E/DX2                !
 ! D76   D(25,9,11,12)          73.5265         estimate D2E/DX2                !
 ! D77   D(25,9,11,27)         -51.4355         estimate D2E/DX2                !
 ! D78   D(25,9,11,28)        -164.6301         estimate D2E/DX2                !
 ! D79   D(9,11,12,2)          -61.415          estimate D2E/DX2                !
 ! D80   D(9,11,12,29)         177.2062         estimate D2E/DX2                !
 ! D81   D(9,11,12,30)          66.7842         estimate D2E/DX2                !
 ! D82   D(27,11,12,2)          64.1645         estimate D2E/DX2                !
 ! D83   D(27,11,12,29)        -57.2143         estimate D2E/DX2                !
 ! D84   D(27,11,12,30)       -167.6363         estimate D2E/DX2                !
 ! D85   D(28,11,12,2)         176.7077         estimate D2E/DX2                !
 ! D86   D(28,11,12,29)         55.329          estimate D2E/DX2                !
 ! D87   D(28,11,12,30)        -55.0931         estimate D2E/DX2                !
 --------------------------------------------------------------------------------
 Trust Radius=3.00D-01 FncErr=1.00D-07 GrdErr=1.00D-06 EigMax=2.50D+02 EigMin=1.00D-04
 Number of steps in this run=    180 maximum allowed number of steps=    180.
 GradGradGradGradGradGradGradGradGradGradGradGradGradGradGradGradGradGrad

                          Input orientation:                          
 ---------------------------------------------------------------------
 Center     Atomic      Atomic             Coordinates (Angstroms)
 Number     Number       Type             X           Y           Z
 ---------------------------------------------------------------------
      1          6           0        1.039070   -0.071720   -0.452190
      2          6           0        2.522000   -0.097470   -0.099940
      3          6           0        3.040200    1.348040    0.097410
      4          6           0        2.685080    2.051420    1.415750
      5          6           0        1.202570    2.092410    1.740970
      6          8           0        0.413370    2.659920    0.994890
      7          6           0        0.732840    1.477810    3.059210
      8          6           0        1.140860    0.028340    3.364750
      9          6           0        0.606980   -1.022310    2.380920
     10          8           0       -0.326140   -1.903090    3.010930
     11          6           0        1.750090   -1.835570    1.725430
     12          6           0        2.898510   -1.031940    1.075820
     13          1           0        0.810110    0.507420   -1.345720
     14          1           0        0.493500    0.448620    0.314630
     15          1           0        0.606860   -1.070530   -0.546100
     16          1           0        3.026270   -0.496850   -0.992280
     17          1           0        2.678780    1.958370   -0.740730
     18          1           0        4.135240    1.338660    0.011570
     19          1           0        3.024900    3.093900    1.371150
     20          1           0        3.226130    1.607830    2.252910
     21          1           0       -0.358900    1.563200    3.099470
     22          1           0        1.140780    2.125840    3.842490
     23          1           0        0.796080   -0.220750    4.373210
     24          1           0        2.230690   -0.012840    3.417790
     25          1           0       -0.049250   -0.554690    1.661210
     26          1           0        0.132250   -2.458730    3.656150
     27          1           0        1.340020   -2.532290    0.983160
     28          1           0        2.186660   -2.486720    2.494440
     29          1           0        3.644650   -1.752080    0.705740
     30          1           0        3.466160   -0.492830    1.841850
 ---------------------------------------------------------------------
                    Distance matrix (angstroms):
                    1          2          3          4          5
     1  C    0.000000
     2  C    1.524410   0.000000
     3  C    2.514418   1.548217   0.000000
     4  C    3.272044   2.634699   1.535863   0.000000
     5  C    3.085473   3.150463   2.575317   1.518316   0.000000
     6  O    3.153950   3.639804   3.070299   2.389155   1.225373
     7  C    3.850292   3.957629   3.756729   2.615575   1.528442
     8  C    3.819608   3.731950   4.003075   3.205631   2.626948
     9  C    3.019410   3.267613   4.093108   3.833780   3.235080
    10  O    4.148604   4.587993   5.512775   5.220172   4.462485
    11  C    2.891149   2.636060   3.801343   4.009838   3.965986
    12  C    2.591207   1.548356   2.577143   3.109375   3.616656
    13  H    1.089138   2.201914   2.786138   3.677658   3.491973
    14  H    1.075367   2.141237   2.709580   2.929924   2.288946
    15  H    1.092358   2.194007   3.490663   4.232544   3.948386
    16  H    2.102712   1.100029   2.142717   3.522598   4.183396
    17  H    2.625485   2.159090   1.098001   2.158496   2.890674
    18  H    3.433732   2.162741   1.098439   2.140727   3.487050
    19  H    4.158033   3.549909   2.161174   1.097375   2.112022
    20  H    3.862860   2.989942   2.179046   1.091029   2.142824
    21  H    4.152297   4.614503   4.540103   3.512704   2.136299
    22  H    4.825338   4.732191   4.270643   2.877406   2.102694
    23  H    4.833812   4.796151   5.077366   4.180628   3.527695
    24  H    4.049712   3.530786   3.678617   2.911323   2.881117
    25  H    2.425729   3.149925   3.951019   3.785316   2.929258
    26  H    4.837210   5.039312   5.967604   5.646042   5.052363
    27  H    2.864473   2.915224   4.328063   4.796532   4.688392
    28  H    3.978921   3.542849   4.602137   4.691131   4.743899
    29  H    3.309601   2.155736   3.216546   3.986415   4.670713
    30  H    3.366113   2.195062   2.571637   2.695340   3.437657
                    6          7          8          9         10
     6  O    0.000000
     7  C    2.400180   0.000000
     8  C    3.615341   1.536489   0.000000
     9  C    3.939211   2.593553   1.535192   0.000000
    10  O    5.043050   3.543198   2.451061   1.429475   0.000000
    11  C    4.746571   3.713792   2.555913   1.548470   2.442908
    12  C    4.451101   3.863005   3.074529   2.637136   3.860301
    13  H    3.204546   4.511212   4.746308   4.033507   5.107056
    14  H    2.314956   2.940958   3.146258   2.538911   3.670475
    15  H    4.040835   4.416805   4.097245   2.927417   3.770425
    16  H    4.554260   5.057042   4.776432   4.184202   5.407574
    17  H    2.938815   4.296180   4.790113   4.787641   6.165661
    18  H    4.070008   4.569879   4.682635   4.861750   6.277660
    19  H    2.673948   3.273352   4.113600   4.879463   6.236045
    20  H    3.255937   2.623646   2.842416   3.714023   5.051710
    21  H    2.495687   1.095814   2.162279   2.852034   3.467575
    22  H    2.987171   1.095393   2.151219   3.511692   4.367565
    23  H    4.456206   2.148418   1.094491   2.155801   2.438330
    24  H    4.039399   2.143402   1.091897   2.174986   3.205614
    25  H    3.315376   2.587880   2.158317   1.080411   1.927847
    26  H    5.775977   4.026586   2.699579   1.978606   0.967040
    27  H    5.274264   4.556265   3.502636   2.184289   2.698858
    28  H    5.646336   4.260288   2.859487   2.157029   2.630884
    29  H    5.476360   4.944659   4.063151   3.544888   4.593896
    30  H    4.469530   3.582796   2.828049   2.957339   4.211546
                   11         12         13         14         15
    11  C    0.000000
    12  C    1.544889   0.000000
    13  H    3.975566   3.548929   0.000000
    14  H    2.964270   2.924986   1.691290   0.000000
    15  H    2.655581   2.807806   1.780626   1.749721   0.000000
    16  H    3.287363   2.140019   2.458626   3.002807   2.526209
    17  H    4.619350   3.505722   2.441966   2.858073   3.674911
    18  H    4.324580   2.877824   3.686419   3.761155   4.308672
    19  H    5.103952   4.138327   4.356209   3.810738   5.183169
    20  H    3.783376   2.908825   4.471934   3.545132   4.676392
    21  H    4.229357   4.630403   4.716033   3.118366   4.599936
    22  H    4.532766   4.551445   5.444828   3.959525   5.455417
    23  H    3.244768   3.993873   5.765118   4.124522   4.995752
    24  H    2.533259   2.639957   4.997974   3.586137   4.412251
    25  H    2.209616   3.042982   3.302757   1.764791   2.359828
    26  H    2.594882   4.043022   5.854592   4.443978   4.450984
    27  H    1.097516   2.165301   3.865789   3.170071   2.238951
    28  H    1.098165   2.153044   5.060296   4.029216   3.707593
    29  H    2.153160   1.101038   4.165147   3.863391   3.355560
    30  H    2.182063   1.095294   4.267986   3.472094   3.769833
                   16         17         18         19         20
    16  H    0.000000
    17  H    2.492415   0.000000
    18  H    2.367832   1.752504   0.000000
    19  H    4.298754   2.422657   2.482374   0.000000
    20  H    3.873097   3.063389   2.433627   1.739655   0.000000
    21  H    5.696104   4.912311   5.457366   4.096369   3.683897
    22  H    5.814514   4.837292   4.925687   3.254930   2.672786
    23  H    5.817084   5.869029   5.710136   4.996690   3.707360
    24  H    4.507320   4.623823   4.129915   3.804121   2.230340
    25  H    4.062410   4.418929   4.880168   4.779827   3.969221
    26  H    5.816548   6.732618   6.612644   6.664859   5.298876
    27  H    3.299821   4.993005   4.872525   5.885862   4.723375
    28  H    4.101432   5.519722   4.959349   5.753933   4.231332
    29  H    2.200288   4.097880   3.205499   4.930556   3.722619
    30  H    2.868068   3.646652   2.674313   3.644297   2.153917
                   21         22         23         24         25
    21  H    0.000000
    22  H    1.765696   0.000000
    23  H    2.477674   2.430425   0.000000
    24  H    3.048148   2.437668   1.736134   0.000000
    25  H    2.578746   3.655051   2.860252   2.928703   0.000000
    26  H    4.089871   4.697886   2.442007   3.231508   2.763711
    27  H    4.913058   5.469336   4.139025   3.615017   2.510124
    28  H    4.821596   4.918009   3.255474   2.640946   3.070229
    29  H    5.722712   5.580934   4.889750   3.518445   3.998945
    30  H    4.521056   4.033285   3.689328   2.059214   3.520592
                   26         27         28         29         30
    26  H    0.000000
    27  H    2.934109   0.000000
    28  H    2.360287   1.732871   0.000000
    29  H    4.641253   2.448879   2.421751   0.000000
    30  H    4.274506   3.068748   2.457355   1.705378   0.000000
 Stoichiometry    C10H18O2
 Framework group  C1[X(C10H18O2)]
 Deg. of freedom    84
 Full point group                 C1      NOp   1
 Largest Abelian subgroup         C1      NOp   1
 Largest concise Abelian subgroup C1      NOp   1
                         Standard orientation:                         
 ---------------------------------------------------------------------
 Center     Atomic      Atomic             Coordinates (Angstroms)
 Number     Number       Type             X           Y           Z
 ---------------------------------------------------------------------
      1          6           0        0.586590    1.234419    1.543619
      2          6           0        0.915598    1.740803    0.143921
      3          6           0        2.137916    0.974581   -0.418058
      4          6           0        1.900555   -0.452834   -0.932861
      5          6           0        1.242069   -1.391636    0.062293
      6          8           0        1.784546   -1.653606    1.129359
      7          6           0       -0.073302   -2.061297   -0.334558
      8          6           0       -1.223229   -1.162986   -0.815705
      9          6           0       -1.743745   -0.156407    0.219996
     10          8           0       -3.086215   -0.454047    0.610615
     11          6           0       -1.647136    1.302238   -0.290669
     12          6           0       -0.279006    1.762853   -0.840884
     13          1           0        1.411634    1.325837    2.248720
     14          1           0        0.415607    0.173143    1.514084
     15          1           0       -0.305753    1.701808    1.966130
     16          1           0        1.230405    2.786124    0.279060
     17          1           0        2.912512    0.948696    0.359719
     18          1           0        2.562898    1.558690   -1.245569
     19          1           0        2.864287   -0.904889   -1.199499
     20          1           0        1.321512   -0.443069   -1.857500
     21          1           0       -0.414303   -2.662215    0.515985
     22          1           0        0.186707   -2.754699   -1.141699
     23          1           0       -2.050312   -1.804610   -1.135334
     24          1           0       -0.895159   -0.648527   -1.721210
     25          1           0       -1.245940   -0.309550    1.166583
     26          1           0       -3.686031   -0.294898   -0.131045
     27          1           0       -1.966904    1.999020    0.494688
     28          1           0       -2.392300    1.432486   -1.086743
     29          1           0       -0.394075    2.795574   -1.204935
     30          1           0       -0.039279    1.223910   -1.763782
 ---------------------------------------------------------------------
 Rotational constants (GHZ):           1.1672143           0.8423517           0.6345003
 Standard basis: 6-31G(2df,p) (6D, 7F)
 There are   462 symmetry adapted cartesian basis functions of A   symmetry.
 There are   426 symmetry adapted basis functions of A   symmetry.
   426 basis functions,   654 primitive gaussians,   462 cartesian basis functions
    47 alpha electrons       47 beta electrons
       nuclear repulsion energy       791.3722217874 Hartrees.
 NAtoms=   30 NActive=   30 NUniq=   30 SFac= 1.00D+00 NAtFMM=   60 NAOKFM=F Big=F
 Integral buffers will be    131072 words long.
 Raffenetti 2 integral format.
 Two-electron integral symmetry is turned on.
 One-electron integrals computed using PRISM.
 PrsmSu:  requested number of processors reduced to:  12 ShMem   1 Linda.
 NBasis=   426 RedAO= T EigKep=  5.25D-04  NBF=   426
 NBsUse=   426 1.00D-06 EigRej= -1.00D+00 NBFU=   426
 ExpMin= 1.61D-01 ExpMax= 5.48D+03 ExpMxC= 8.25D+02 IAcc=3 IRadAn=         5 AccDes= 0.00D+00
 Harris functional with IExCor=  402 and IRadAn=       5 diagonalized for initial guess.
 HarFok:  IExCor=  402 AccDes= 0.00D+00 IRadAn=         5 IDoV= 1 UseB2=F ITyADJ=14
 ICtDFT=  3500011 ScaDFX=  1.000000  1.000000  1.000000  1.000000
 FoFCou: FMM=F IPFlag=           0 FMFlag=      100000 FMFlg1=           0
         NFxFlg=           0 DoJE=T BraDBF=F KetDBF=T FulRan=T
         wScrn=  0.000000 ICntrl=       500 IOpCl=  0 I1Cent=   200000004 NGrid=           0
         NMat0=    1 NMatS0=      1 NMatT0=    0 NMatD0=    1 NMtDS0=    0 NMtDT0=    0
 Petite list used in FoFCou.
 Requested convergence on RMS density matrix=1.00D-08 within 128 cycles.
 Requested convergence on MAX density matrix=1.00D-06.
 Requested convergence on             energy=1.00D-06.
 No special actions if energy rises.
 Integral accuracy reduced to 1.0D-05 until final iterations.
 Initial convergence to 1.0D-05 achieved.  Increase integral accuracy.
 SCF Done:  E(RB3LYP) =  -542.362323962     A.U. after   13 cycles
            NFock= 13  Conv=0.41D-08     -V/T= 2.0077

 **********************************************************************

            Population analysis using the SCF density.

 **********************************************************************

 Orbital symmetries:
       Occupied  (A) (A) (A) (A) (A) (A) (A) (A) (A) (A) (A) (A)
                 (A) (A) (A) (A) (A) (A) (A) (A) (A) (A) (A) (A)
                 (A) (A) (A) (A) (A) (A) (A) (A) (A) (A) (A) (A)
                 (A) (A) (A) (A) (A) (A) (A) (A) (A) (A) (A)
       Virtual   (A) (A) (A) (A) (A) (A) (A) (A) (A) (A) (A) (A)
                 (A) (A) (A) (A) (A) (A) (A) (A) (A) (A) (A) (A)
                 (A) (A) (A) (A) (A) (A) (A) (A) (A) (A) (A) (A)
                 (A) (A) (A) (A) (A) (A) (A) (A) (A) (A) (A) (A)
                 (A) (A) (A) (A) (A) (A) (A) (A) (A) (A) (A) (A)
                 (A) (A) (A) (A) (A) (A) (A) (A) (A) (A) (A) (A)
                 (A) (A) (A) (A) (A) (A) (A) (A) (A) (A) (A) (A)
                 (A) (A) (A) (A) (A) (A) (A) (A) (A) (A) (A) (A)
                 (A) (A) (A) (A) (A) (A) (A) (A) (A) (A) (A) (A)
                 (A) (A) (A) (A) (A) (A) (A) (A) (A) (A) (A) (A)
                 (A) (A) (A) (A) (A) (A) (A) (A) (A) (A) (A) (A)
                 (A) (A) (A) (A) (A) (A) (A) (A) (A) (A) (A) (A)
                 (A) (A) (A) (A) (A) (A) (A) (A) (A) (A) (A) (A)
                 (A) (A) (A) (A) (A) (A) (A) (A) (A) (A) (A) (A)
                 (A) (A) (A) (A) (A) (A) (A) (A) (A) (A) (A) (A)
                 (A) (A) (A) (A) (A) (A) (A) (A) (A) (A) (A) (A)
                 (A) (A) (A) (A) (A) (A) (A) (A) (A) (A) (A) (A)
                 (A) (A) (A) (A) (A) (A) (A) (A) (A) (A) (A) (A)
                 (A) (A) (A) (A) (A) (A) (A) (A) (A) (A) (A) (A)
                 (A) (A) (A) (A) (A) (A) (A) (A) (A) (A) (A) (A)
                 (A) (A) (A) (A) (A) (A) (A) (A) (A) (A) (A) (A)
                 (A) (A) (A) (A) (A) (A) (A) (A) (A) (A) (A) (A)
                 (A) (A) (A) (A) (A) (A) (A) (A) (A) (A) (A) (A)
                 (A) (A) (A) (A) (A) (A) (A) (A) (A) (A) (A) (A)
                 (A) (A) (A) (A) (A) (A) (A) (A) (A) (A) (A) (A)
                 (A) (A) (A) (A) (A) (A) (A) (A) (A) (A) (A) (A)
                 (A) (A) (A) (A) (A) (A) (A) (A) (A) (A) (A) (A)
                 (A) (A) (A) (A) (A) (A) (A) (A) (A) (A) (A) (A)
                 (A) (A) (A) (A) (A) (A) (A) (A) (A) (A) (A) (A)
                 (A) (A) (A) (A) (A) (A) (A) (A) (A) (A) (A) (A)
                 (A) (A) (A) (A) (A) (A) (A) (A) (A) (A) (A) (A)
                 (A) (A) (A) (A) (A) (A) (A)
 The electronic state is 1-A.
 Alpha  occ. eigenvalues --  -19.12906 -19.12290 -10.26718 -10.22763 -10.19119
 Alpha  occ. eigenvalues --  -10.19049 -10.18822 -10.18734 -10.18703 -10.18509
 Alpha  occ. eigenvalues --  -10.18429 -10.15947  -1.02765  -1.01022  -0.82759
 Alpha  occ. eigenvalues --   -0.79254  -0.77517  -0.72424  -0.69041  -0.66976
 Alpha  occ. eigenvalues --   -0.62310  -0.60022  -0.55309  -0.52367  -0.49344
 Alpha  occ. eigenvalues --   -0.47793  -0.47211  -0.45842  -0.45286  -0.44200
 Alpha  occ. eigenvalues --   -0.42199  -0.41226  -0.40231  -0.39529  -0.38275
 Alpha  occ. eigenvalues --   -0.37745  -0.36774  -0.36454  -0.35894  -0.34575
 Alpha  occ. eigenvalues --   -0.33575  -0.32331  -0.31178  -0.30767  -0.29556
 Alpha  occ. eigenvalues --   -0.26135  -0.23789
 Alpha virt. eigenvalues --   -0.02001   0.07290   0.07888   0.08554   0.10869
 Alpha virt. eigenvalues --    0.10931   0.12274   0.13831   0.14359   0.14880
 Alpha virt. eigenvalues --    0.15636   0.16661   0.16935   0.17663   0.18949
 Alpha virt. eigenvalues --    0.19221   0.19637   0.20194   0.20924   0.21468
 Alpha virt. eigenvalues --    0.21959   0.23655   0.24458   0.25713   0.27532
 Alpha virt. eigenvalues --    0.28399   0.29310   0.32037   0.32882   0.34351
 Alpha virt. eigenvalues --    0.35833   0.42319   0.45355   0.46085   0.47292
 Alpha virt. eigenvalues --    0.48814   0.49750   0.50892   0.51414   0.52352
 Alpha virt. eigenvalues --    0.53168   0.54224   0.55040   0.55695   0.56368
 Alpha virt. eigenvalues --    0.56816   0.57803   0.59246   0.61309   0.63045
 Alpha virt. eigenvalues --    0.64322   0.65077   0.65545   0.67024   0.67673
 Alpha virt. eigenvalues --    0.68929   0.69790   0.70897   0.71444   0.72772
 Alpha virt. eigenvalues --    0.72958   0.74111   0.74358   0.74798   0.76010
 Alpha virt. eigenvalues --    0.76873   0.77596   0.78441   0.78853   0.80362
 Alpha virt. eigenvalues --    0.81044   0.81462   0.83418   0.84536   0.85132
 Alpha virt. eigenvalues --    0.86589   0.86856   0.87392   0.88314   0.89475
 Alpha virt. eigenvalues --    0.90274   0.91986   0.93346   0.94494   0.96253
 Alpha virt. eigenvalues --    0.98617   1.00111   1.00397   1.00836   1.01089
 Alpha virt. eigenvalues --    1.03426   1.05181   1.09199   1.10307   1.11087
 Alpha virt. eigenvalues --    1.12598   1.15151   1.17552   1.18345   1.19667
 Alpha virt. eigenvalues --    1.22078   1.24401   1.26073   1.28638   1.30371
 Alpha virt. eigenvalues --    1.31455   1.33077   1.34476   1.35990   1.36701
 Alpha virt. eigenvalues --    1.39528   1.40324   1.41277   1.43142   1.43681
 Alpha virt. eigenvalues --    1.45550   1.46523   1.47400   1.49285   1.50465
 Alpha virt. eigenvalues --    1.51853   1.53130   1.54601   1.56464   1.57726
 Alpha virt. eigenvalues --    1.58834   1.60413   1.60528   1.63021   1.64668
 Alpha virt. eigenvalues --    1.66017   1.66862   1.68635   1.69940   1.71007
 Alpha virt. eigenvalues --    1.71977   1.74096   1.75945   1.76710   1.78037
 Alpha virt. eigenvalues --    1.78744   1.79996   1.82737   1.85441   1.87656
 Alpha virt. eigenvalues --    1.88729   1.90145   1.90960   1.93744   1.97972
 Alpha virt. eigenvalues --    1.99657   2.00130   2.05327   2.06413   2.07970
 Alpha virt. eigenvalues --    2.09359   2.12659   2.16925   2.18868   2.21256
 Alpha virt. eigenvalues --    2.22801   2.27019   2.27757   2.29872   2.30065
 Alpha virt. eigenvalues --    2.33886   2.35316   2.37510   2.38906   2.40828
 Alpha virt. eigenvalues --    2.41762   2.43908   2.44479   2.46823   2.47939
 Alpha virt. eigenvalues --    2.49602   2.50855   2.52828   2.54616   2.56896
 Alpha virt. eigenvalues --    2.58646   2.60115   2.61015   2.63664   2.67611
 Alpha virt. eigenvalues --    2.69149   2.70302   2.72728   2.75689   2.76297
 Alpha virt. eigenvalues --    2.78273   2.79390   2.81235   2.82308   2.82761
 Alpha virt. eigenvalues --    2.85484   2.86117   2.87979   2.89078   2.89321
 Alpha virt. eigenvalues --    2.91079   2.92038   2.92386   2.94184   2.95974
 Alpha virt. eigenvalues --    2.97022   2.98104   2.99566   3.01369   3.02489
 Alpha virt. eigenvalues --    3.04243   3.05555   3.06534   3.09043   3.11168
 Alpha virt. eigenvalues --    3.13565   3.16499   3.16797   3.19386   3.20498
 Alpha virt. eigenvalues --    3.21399   3.23375   3.28713   3.30302   3.32798
 Alpha virt. eigenvalues --    3.33918   3.34886   3.35448   3.38013   3.38340
 Alpha virt. eigenvalues --    3.40674   3.41461   3.42456   3.42962   3.45002
 Alpha virt. eigenvalues --    3.46199   3.47898   3.48643   3.51754   3.52195
 Alpha virt. eigenvalues --    3.55233   3.59249   3.59937   3.61245   3.62992
 Alpha virt. eigenvalues --    3.64791   3.67248   3.68220   3.70762   3.71382
 Alpha virt. eigenvalues --    3.74376   3.75335   3.76538   3.78294   3.79407
 Alpha virt. eigenvalues --    3.81234   3.84659   3.85210   3.88998   3.90332
 Alpha virt. eigenvalues --    3.92923   3.94557   3.95181   3.98171   4.00940
 Alpha virt. eigenvalues --    4.02821   4.07909   4.09429   4.11945   4.13048
 Alpha virt. eigenvalues --    4.16815   4.17566   4.21892   4.22847   4.25147
 Alpha virt. eigenvalues --    4.25426   4.27401   4.34315   4.35786   4.36950
 Alpha virt. eigenvalues --    4.41411   4.42333   4.43913   4.46452   4.47662
 Alpha virt. eigenvalues --    4.49575   4.50391   4.51139   4.54173   4.54602
 Alpha virt. eigenvalues --    4.57156   4.58081   4.58697   4.60192   4.60773
 Alpha virt. eigenvalues --    4.62288   4.62956   4.64118   4.64681   4.65128
 Alpha virt. eigenvalues --    4.67414   4.67521   4.69415   4.70115   4.71723
 Alpha virt. eigenvalues --    4.73103   4.74711   4.75639   4.77664   4.78707
 Alpha virt. eigenvalues --    4.78932   4.80105   4.80985   4.82493   4.83012
 Alpha virt. eigenvalues --    4.86165   4.86776   4.87453   4.88703   4.90017
 Alpha virt. eigenvalues --    4.90762   4.91726   4.92909   4.94550   4.96415
 Alpha virt. eigenvalues --    4.97000   4.98676   4.99828   5.02452   5.03982
 Alpha virt. eigenvalues --    5.07652   5.08398   5.12529   5.13393   5.15515
 Alpha virt. eigenvalues --    5.23163   5.27088   5.30091   5.32136   5.32748
 Alpha virt. eigenvalues --    5.37831   5.39029   5.41514   5.43721   5.46613
 Alpha virt. eigenvalues --    5.47978   5.48121   5.51727   5.53465   5.55438
 Alpha virt. eigenvalues --    5.56421   5.60909   5.68538   5.69365   5.88503
 Alpha virt. eigenvalues --    5.89739   5.96327   6.01542   6.06921   6.11997
 Alpha virt. eigenvalues --    6.18317   6.38633   6.42957   6.64996   6.90370
 Alpha virt. eigenvalues --    6.92693   7.18195  11.01141  11.52277  11.67332
 Alpha virt. eigenvalues --   12.08770  12.33918  12.39757  12.42323  12.56116
 Alpha virt. eigenvalues --   12.75520  12.95364  13.17916  13.42348
          Condensed to atoms (all electrons):
               1          2          3          4          5          6
     1  C    5.041067   0.427457  -0.038916  -0.010785   0.003004  -0.009265
     2  C    0.427457   4.599473   0.411788  -0.021636  -0.005208  -0.001928
     3  C   -0.038916   0.411788   4.882470   0.380234  -0.011296  -0.000609
     4  C   -0.010785  -0.021636   0.380234   5.171886   0.318827  -0.074718
     5  C    0.003004  -0.005208  -0.011296   0.318827   4.289339   0.727030
     6  O   -0.009265  -0.001928  -0.000609  -0.074718   0.727030   7.742204
     7  C   -0.000656   0.000319   0.003944  -0.117188   0.367679  -0.070889
     8  C    0.000917  -0.001258  -0.000026   0.005026  -0.014941   0.000962
     9  C   -0.009174  -0.002928   0.000681  -0.000585  -0.005002   0.000290
    10  O    0.000318  -0.000005  -0.000002   0.000004  -0.000096  -0.000001
    11  C   -0.008596  -0.025852   0.001968   0.000680   0.001416  -0.000002
    12  C   -0.043257   0.408863  -0.036837  -0.006701  -0.001806   0.000018
    13  H    0.366225  -0.018899  -0.004348  -0.000106  -0.000388   0.001045
    14  H    0.366319  -0.026900  -0.009682   0.002326   0.014927   0.009218
    15  H    0.365587  -0.021082   0.005157   0.000116  -0.000220   0.000285
    16  H   -0.047927   0.365010  -0.038515   0.005038  -0.000029  -0.000044
    17  H   -0.006049  -0.029204   0.364888  -0.033860  -0.005123   0.004984
    18  H    0.005077  -0.028488   0.357393  -0.032088   0.003182   0.000091
    19  H   -0.000020   0.003223  -0.017657   0.347760  -0.014194  -0.001971
    20  H    0.000389  -0.006367  -0.029405   0.337737  -0.018329   0.003635
    21  H   -0.000101   0.000044  -0.000209   0.006583  -0.016665   0.003158
    22  H   -0.000034  -0.000023   0.000161   0.001476  -0.018988   0.002065
    23  H   -0.000011   0.000015   0.000009  -0.000179   0.002178  -0.000064
    24  H   -0.000106   0.000449  -0.000873   0.002498  -0.009194  -0.000031
    25  H   -0.003363   0.001191  -0.000043   0.000386  -0.003994  -0.000324
    26  H   -0.000033   0.000002  -0.000000   0.000001  -0.000023  -0.000000
    27  H   -0.000045  -0.006629  -0.000035  -0.000007  -0.000021   0.000001
    28  H    0.000023   0.004249  -0.000098  -0.000009  -0.000022   0.000000
    29  H    0.004160  -0.024039   0.004506  -0.000207   0.000062   0.000000
    30  H    0.003612  -0.038438  -0.016095   0.002038   0.000361  -0.000013
               7          8          9         10         11         12
     1  C   -0.000656   0.000917  -0.009174   0.000318  -0.008596  -0.043257
     2  C    0.000319  -0.001258  -0.002928  -0.000005  -0.025852   0.408863
     3  C    0.003944  -0.000026   0.000681  -0.000002   0.001968  -0.036837
     4  C   -0.117188   0.005026  -0.000585   0.000004   0.000680  -0.006701
     5  C    0.367679  -0.014941  -0.005002  -0.000096   0.001416  -0.001806
     6  O   -0.070889   0.000962   0.000290  -0.000001  -0.000002   0.000018
     7  C    5.176284   0.323705  -0.015147   0.002018   0.001884  -0.000337
     8  C    0.323705   5.081358   0.362974  -0.046684  -0.035975   0.000634
     9  C   -0.015147   0.362974   4.611014   0.368017   0.395004  -0.023640
    10  O    0.002018  -0.046684   0.368017   7.862176  -0.041901   0.003189
    11  C    0.001884  -0.035975   0.395004  -0.041901   5.024457   0.320605
    12  C   -0.000337   0.000634  -0.023640   0.003189   0.320605   4.995052
    13  H    0.000078  -0.000041   0.000354  -0.000006   0.000154   0.005099
    14  H   -0.003225   0.000739  -0.007464   0.000245  -0.001021  -0.003073
    15  H    0.000119   0.000154  -0.001594   0.000024   0.002544  -0.008627
    16  H   -0.000009   0.000035  -0.000171   0.000001   0.003552  -0.041028
    17  H    0.000281  -0.000035  -0.000023  -0.000000  -0.000161   0.004542
    18  H   -0.000184  -0.000001   0.000003  -0.000000   0.000011  -0.002084
    19  H    0.005403  -0.000030   0.000006   0.000000   0.000005   0.000142
    20  H   -0.001798  -0.002420   0.000141  -0.000001  -0.000661   0.001374
    21  H    0.341736  -0.032796  -0.005174   0.000832   0.000174  -0.000068
    22  H    0.333622  -0.020364   0.003342  -0.000080  -0.000215   0.000041
    23  H   -0.013511   0.339271  -0.029439   0.001563   0.004914  -0.000294
    24  H   -0.030055   0.335892  -0.027717   0.002926  -0.011167  -0.002722
    25  H   -0.002232  -0.063462   0.358399  -0.010735  -0.042644  -0.001677
    26  H    0.000085  -0.003108  -0.076004   0.309422  -0.003699  -0.000023
    27  H   -0.000216   0.005313  -0.025800   0.002368   0.358288  -0.026546
    28  H    0.000175  -0.007771  -0.030029  -0.001379   0.344027  -0.022782
    29  H    0.000010   0.000165   0.003182  -0.000053  -0.018924   0.348560
    30  H   -0.000920   0.000504  -0.006288   0.000048  -0.037225   0.367328
              13         14         15         16         17         18
     1  C    0.366225   0.366319   0.365587  -0.047927  -0.006049   0.005077
     2  C   -0.018899  -0.026900  -0.021082   0.365010  -0.029204  -0.028488
     3  C   -0.004348  -0.009682   0.005157  -0.038515   0.364888   0.357393
     4  C   -0.000106   0.002326   0.000116   0.005038  -0.033860  -0.032088
     5  C   -0.000388   0.014927  -0.000220  -0.000029  -0.005123   0.003182
     6  O    0.001045   0.009218   0.000285  -0.000044   0.004984   0.000091
     7  C    0.000078  -0.003225   0.000119  -0.000009   0.000281  -0.000184
     8  C   -0.000041   0.000739   0.000154   0.000035  -0.000035  -0.000001
     9  C    0.000354  -0.007464  -0.001594  -0.000171  -0.000023   0.000003
    10  O   -0.000006   0.000245   0.000024   0.000001  -0.000000  -0.000000
    11  C    0.000154  -0.001021   0.002544   0.003552  -0.000161   0.000011
    12  C    0.005099  -0.003073  -0.008627  -0.041028   0.004542  -0.002084
    13  H    0.604440  -0.030226  -0.030946  -0.005772   0.004419   0.000017
    14  H   -0.030226   0.546229  -0.033663   0.006297  -0.000173   0.000166
    15  H   -0.030946  -0.033663   0.614955  -0.002591   0.000053  -0.000209
    16  H   -0.005772   0.006297  -0.002591   0.700886  -0.001141  -0.006836
    17  H    0.004419  -0.000173   0.000053  -0.001141   0.617201  -0.036901
    18  H    0.000017   0.000166  -0.000209  -0.006836  -0.036901   0.652390
    19  H   -0.000009   0.000069   0.000006  -0.000146  -0.004621  -0.002094
    20  H    0.000005  -0.000183   0.000011  -0.000086   0.005991  -0.005392
    21  H    0.000002   0.000200  -0.000012  -0.000000  -0.000001   0.000003
    22  H   -0.000000   0.000229   0.000000  -0.000000  -0.000006   0.000004
    23  H    0.000001  -0.000024  -0.000001   0.000000   0.000000  -0.000000
    24  H    0.000001  -0.000002  -0.000003   0.000012   0.000008  -0.000006
    25  H   -0.000080   0.006102   0.001344   0.000059   0.000009  -0.000012
    26  H    0.000000  -0.000002  -0.000008  -0.000000   0.000000   0.000000
    27  H   -0.000062   0.000628   0.002783   0.000462   0.000003   0.000003
    28  H   -0.000003  -0.000054  -0.000026  -0.000221   0.000003   0.000002
    29  H   -0.000132  -0.000231   0.000221  -0.016851  -0.000195   0.000423
    30  H   -0.000132   0.000399  -0.000142   0.005717   0.000179   0.001987
              19         20         21         22         23         24
     1  C   -0.000020   0.000389  -0.000101  -0.000034  -0.000011  -0.000106
     2  C    0.003223  -0.006367   0.000044  -0.000023   0.000015   0.000449
     3  C   -0.017657  -0.029405  -0.000209   0.000161   0.000009  -0.000873
     4  C    0.347760   0.337737   0.006583   0.001476  -0.000179   0.002498
     5  C   -0.014194  -0.018329  -0.016665  -0.018988   0.002178  -0.009194
     6  O   -0.001971   0.003635   0.003158   0.002065  -0.000064  -0.000031
     7  C    0.005403  -0.001798   0.341736   0.333622  -0.013511  -0.030055
     8  C   -0.000030  -0.002420  -0.032796  -0.020364   0.339271   0.335892
     9  C    0.000006   0.000141  -0.005174   0.003342  -0.029439  -0.027717
    10  O    0.000000  -0.000001   0.000832  -0.000080   0.001563   0.002926
    11  C    0.000005  -0.000661   0.000174  -0.000215   0.004914  -0.011167
    12  C    0.000142   0.001374  -0.000068   0.000041  -0.000294  -0.002722
    13  H   -0.000009   0.000005   0.000002  -0.000000   0.000001   0.000001
    14  H    0.000069  -0.000183   0.000200   0.000229  -0.000024  -0.000002
    15  H    0.000006   0.000011  -0.000012   0.000000  -0.000001  -0.000003
    16  H   -0.000146  -0.000086  -0.000000  -0.000000   0.000000   0.000012
    17  H   -0.004621   0.005991  -0.000001  -0.000006   0.000000   0.000008
    18  H   -0.002094  -0.005392   0.000003   0.000004  -0.000000  -0.000006
    19  H    0.591731  -0.036257  -0.000173  -0.000479  -0.000004   0.000001
    20  H   -0.036257   0.645726  -0.000119   0.000457  -0.000035   0.003276
    21  H   -0.000173  -0.000119   0.599824  -0.030352  -0.003159   0.006136
    22  H   -0.000479   0.000457  -0.030352   0.622646  -0.005312  -0.003654
    23  H   -0.000004  -0.000035  -0.003159  -0.005312   0.623768  -0.031116
    24  H    0.000001   0.003276   0.006136  -0.003654  -0.031116   0.656065
    25  H    0.000001   0.000011   0.003425   0.000033   0.003671   0.006533
    26  H    0.000000   0.000000   0.000009   0.000009   0.003226   0.000393
    27  H    0.000000   0.000000   0.000001   0.000004  -0.000215   0.000063
    28  H   -0.000000   0.000012   0.000006   0.000005   0.000075   0.003530
    29  H   -0.000007   0.000039   0.000000  -0.000001  -0.000010  -0.000231
    30  H   -0.000199   0.002815   0.000001   0.000021   0.000016   0.004139
              25         26         27         28         29         30
     1  C   -0.003363  -0.000033  -0.000045   0.000023   0.004160   0.003612
     2  C    0.001191   0.000002  -0.006629   0.004249  -0.024039  -0.038438
     3  C   -0.000043  -0.000000  -0.000035  -0.000098   0.004506  -0.016095
     4  C    0.000386   0.000001  -0.000007  -0.000009  -0.000207   0.002038
     5  C   -0.003994  -0.000023  -0.000021  -0.000022   0.000062   0.000361
     6  O   -0.000324  -0.000000   0.000001   0.000000   0.000000  -0.000013
     7  C   -0.002232   0.000085  -0.000216   0.000175   0.000010  -0.000920
     8  C   -0.063462  -0.003108   0.005313  -0.007771   0.000165   0.000504
     9  C    0.358399  -0.076004  -0.025800  -0.030029   0.003182  -0.006288
    10  O   -0.010735   0.309422   0.002368  -0.001379  -0.000053   0.000048
    11  C   -0.042644  -0.003699   0.358288   0.344027  -0.018924  -0.037225
    12  C   -0.001677  -0.000023  -0.026546  -0.022782   0.348560   0.367328
    13  H   -0.000080   0.000000  -0.000062  -0.000003  -0.000132  -0.000132
    14  H    0.006102  -0.000002   0.000628  -0.000054  -0.000231   0.000399
    15  H    0.001344  -0.000008   0.002783  -0.000026   0.000221  -0.000142
    16  H    0.000059  -0.000000   0.000462  -0.000221  -0.016851   0.005717
    17  H    0.000009   0.000000   0.000003   0.000003  -0.000195   0.000179
    18  H   -0.000012   0.000000   0.000003   0.000002   0.000423   0.001987
    19  H    0.000001   0.000000   0.000000  -0.000000  -0.000007  -0.000199
    20  H    0.000011   0.000000   0.000000   0.000012   0.000039   0.002815
    21  H    0.003425   0.000009   0.000001   0.000006   0.000000   0.000001
    22  H    0.000033   0.000009   0.000004   0.000005  -0.000001   0.000021
    23  H    0.003671   0.003226  -0.000215   0.000075  -0.000010   0.000016
    24  H    0.006533   0.000393   0.000063   0.003530  -0.000231   0.004139
    25  H    0.640771   0.008425  -0.006125   0.006079  -0.000148  -0.000219
    26  H    0.008425   0.484304  -0.000423   0.008087  -0.000010   0.000018
    27  H   -0.006125  -0.000423   0.623979  -0.040686  -0.004049   0.005936
    28  H    0.006079   0.008087  -0.040686   0.663312  -0.003077  -0.004300
    29  H   -0.000148  -0.000010  -0.004049  -0.003077   0.649337  -0.040585
    30  H   -0.000219   0.000018   0.005936  -0.004300  -0.040585   0.653268
 Mulliken charges:
               1
     1  C   -0.405816
     2  C    0.036799
     3  C   -0.208554
     4  C   -0.284547
     5  C    0.397533
     6  O   -0.335126
     7  C   -0.300976
     8  C   -0.228738
     9  C    0.162773
    10  O   -0.452209
    11  C   -0.231642
    12  C   -0.233946
    13  H    0.109310
    14  H    0.161830
    15  H    0.105761
    16  H    0.074297
    17  H    0.114931
    18  H    0.093542
    19  H    0.129515
    20  H    0.099431
    21  H    0.126694
    22  H    0.115395
    23  H    0.104667
    24  H    0.094955
    25  H    0.098617
    26  H    0.269351
    27  H    0.111028
    28  H    0.080875
    29  H    0.098086
    30  H    0.096166
 Sum of Mulliken charges =  -0.00000
 Mulliken charges with hydrogens summed into heavy atoms:
               1
     1  C   -0.028914
     2  C    0.111097
     3  C   -0.000082
     4  C   -0.055602
     5  C    0.397533
     6  O   -0.335126
     7  C   -0.058888
     8  C   -0.029116
     9  C    0.261390
    10  O   -0.182858
    11  C   -0.039740
    12  C   -0.039693
 Electronic spatial extent (au):  <R**2>=           2052.1524
 Charge=             -0.0000 electrons
 Dipole moment (field-independent basis, Debye):
    X=             -0.6668    Y=              1.3050    Z=             -3.5377  Tot=              3.8293
 Quadrupole moment (field-independent basis, Debye-Ang):
   XX=            -76.1842   YY=            -74.5867   ZZ=            -76.6488
   XY=              1.7088   XZ=              0.9671   YZ=              4.7384
 Traceless Quadrupole moment (field-independent basis, Debye-Ang):
   XX=             -0.3776   YY=              1.2198   ZZ=             -0.8422
   XY=              1.7088   XZ=              0.9671   YZ=              4.7384
 Octapole moment (field-independent basis, Debye-Ang**2):
  XXX=            -15.9271  YYY=             -6.5060  ZZZ=              2.7302  XYY=             -6.7602
  XXY=              7.2158  XXZ=            -24.3315  XZZ=             -3.1721  YZZ=              0.7618
  YYZ=             -5.8209  XYZ=              4.8550
 Hexadecapole moment (field-independent basis, Debye-Ang**3):
 XXXX=          -1216.8124 YYYY=           -930.8243 ZZZZ=           -427.8453 XXXY=             -5.0998
 XXXZ=             49.2724 YYYX=              2.7442 YYYZ=              4.9152 ZZZX=             -2.6411
 ZZZY=             -1.7564 XXYY=           -383.4233 XXZZ=           -298.1360 YYZZ=           -232.8003
 XXYZ=             21.8475 YYXZ=            -12.2431 ZZXY=              4.9004
 N-N= 7.913722217874D+02 E-N=-2.844692171353D+03  KE= 5.382441524425D+02
 PrsmSu:  requested number of processors reduced to:  13 ShMem   1 Linda.
 Calling FoFJK, ICntrl=      2127 FMM=F ISym2X=0 I1Cent= 0 IOpClX= 0 NMat=1 NMatS=1 NMatT=0.
 ***** Axes restored to original set *****
 -------------------------------------------------------------------
 Center     Atomic                   Forces (Hartrees/Bohr)
 Number     Number              X              Y              Z
 -------------------------------------------------------------------
      1        6          -0.007552643   -0.000593649    0.000084601
      2        6           0.002363774    0.004508253   -0.009085016
      3        6           0.005912308   -0.000765656   -0.008649404
      4        6           0.002139304    0.000662316    0.006052175
      5        6          -0.017073330    0.012122497   -0.009418120
      6        8           0.012834941   -0.006844699    0.013623874
      7        6          -0.007211070    0.001055453   -0.000706798
      8        6           0.008964747    0.006562426    0.003790606
      9        6          -0.002276069   -0.014986731    0.011084711
     10        8           0.000029043   -0.006678870    0.005045183
     11        6           0.000625505    0.001036997   -0.005529982
     12        6           0.005345275   -0.009630380    0.000723006
     13        1           0.006016863   -0.001848875   -0.007196068
     14        1          -0.006769657    0.000251344    0.000182407
     15        1           0.000702727   -0.000010021   -0.003647886
     16        1           0.002170124    0.003376225    0.001777445
     17        1          -0.000369329   -0.000298645    0.002095262
     18        1          -0.000575740    0.001099025    0.001199996
     19        1          -0.000877458   -0.000233119   -0.002400597
     20        1           0.001883436   -0.001956268    0.000734447
     21        1           0.001099470    0.002570467   -0.001524898
     22        1           0.000679493    0.001386152    0.002966515
     23        1          -0.002986853    0.000124555   -0.001024670
     24        1           0.001932614   -0.001955055    0.001071031
     25        1           0.003327308    0.002577103   -0.004931130
     26        1           0.000805931    0.003087247   -0.002598094
     27        1          -0.003300644    0.002426518    0.001559730
     28        1           0.000261217    0.001745740    0.003405963
     29        1          -0.004351334   -0.001151718    0.000881623
     30        1          -0.003749956    0.002361371    0.000434089
 -------------------------------------------------------------------
 Cartesian Forces:  Max     0.017073330 RMS     0.005138611

 GradGradGradGradGradGradGradGradGradGradGradGradGradGradGradGradGradGrad
 Berny optimization.
 FormGI is forming the generalized inverse of G from B-inverse, IUseBI=4.
 Internal  Forces:  Max     0.019976870 RMS     0.004656521
 Search for a local minimum.
 Step number   1 out of a maximum of  180
 All quantities printed in internal units (Hartrees-Bohrs-Radians)
 Mixed Optimization -- RFO/linear search
 Second derivative matrix not updated -- first step.
 ITU=  0
     Eigenvalues ---    0.00234   0.00263   0.00318   0.00443   0.00462
     Eigenvalues ---    0.00799   0.00899   0.01302   0.01570   0.01933
     Eigenvalues ---    0.01994   0.03002   0.03140   0.03425   0.03803
     Eigenvalues ---    0.04193   0.04367   0.04392   0.04503   0.04601
     Eigenvalues ---    0.04695   0.04909   0.05015   0.05102   0.05641
     Eigenvalues ---    0.05689   0.05842   0.06121   0.07012   0.07573
     Eigenvalues ---    0.08025   0.08776   0.09064   0.09083   0.09160
     Eigenvalues ---    0.09521   0.09821   0.10160   0.12845   0.12967
     Eigenvalues ---    0.13202   0.13823   0.14265   0.16000   0.16000
     Eigenvalues ---    0.16000   0.16000   0.16591   0.17629   0.19222
     Eigenvalues ---    0.20937   0.21578   0.23246   0.24949   0.26830
     Eigenvalues ---    0.27217   0.27469   0.27956   0.28404   0.28584
     Eigenvalues ---    0.28857   0.29368   0.29946   0.30157   0.33568
     Eigenvalues ---    0.33679   0.33855   0.33886   0.33904   0.33958
     Eigenvalues ---    0.33974   0.34149   0.34197   0.34208   0.34299
     Eigenvalues ---    0.34542   0.34594   0.34694   0.34912   0.35945
     Eigenvalues ---    0.36560   0.41065   0.53986   0.93042
 RFO step:  Lambda=-2.69526098D-02 EMin= 2.34205666D-03
 Linear search not attempted -- first point.
 Iteration  1 RMS(Cart)=  0.17405154 RMS(Int)=  0.00933459
 Iteration  2 RMS(Cart)=  0.01587600 RMS(Int)=  0.00090346
 Iteration  3 RMS(Cart)=  0.00021003 RMS(Int)=  0.00089458
 Iteration  4 RMS(Cart)=  0.00000035 RMS(Int)=  0.00089458
 Variable       Old X    -DE/DX   Delta X   Delta X   Delta X     New X
                                 (Linear)    (Quad)   (Total)
    R1        2.88072   0.00981   0.00000   0.03005   0.03005   2.91076
    R2        2.05817   0.00366   0.00000   0.00972   0.00972   2.06789
    R3        2.03215   0.00369   0.00000   0.00939   0.00939   2.04154
    R4        2.06426   0.00005   0.00000   0.00012   0.00012   2.06438
    R5        2.92571   0.00373   0.00000   0.01537   0.01653   2.94224
    R6        2.92597   0.01358   0.00000   0.04839   0.04919   2.97516
    R7        2.07875  -0.00167   0.00000  -0.00460  -0.00460   2.07415
    R8        2.90236   0.01083   0.00000   0.03407   0.03436   2.93672
    R9        2.07492  -0.00164   0.00000  -0.00449  -0.00449   2.07043
   R10        2.07575  -0.00068   0.00000  -0.00185  -0.00185   2.07390
   R11        2.86920   0.00599   0.00000   0.01766   0.01741   2.88661
   R12        2.07374  -0.00040   0.00000  -0.00108  -0.00108   2.07266
   R13        2.06175   0.00229   0.00000   0.00613   0.00613   2.06788
   R14        2.31562  -0.01973   0.00000  -0.02061  -0.02061   2.29501
   R15        2.88834   0.00313   0.00000   0.00651   0.00580   2.89414
   R16        2.90354   0.00823   0.00000   0.02238   0.02132   2.92486
   R17        2.07079  -0.00095   0.00000  -0.00259  -0.00259   2.06820
   R18        2.06999   0.00320   0.00000   0.00866   0.00866   2.07865
   R19        2.90109   0.01016   0.00000   0.03103   0.03018   2.93127
   R20        2.06829  -0.00003   0.00000  -0.00009  -0.00009   2.06820
   R21        2.06339   0.00206   0.00000   0.00551   0.00551   2.06890
   R22        2.70132   0.00275   0.00000   0.00628   0.00628   2.70759
   R23        2.92618  -0.00130   0.00000  -0.00521  -0.00551   2.92067
   R24        2.04168   0.00238   0.00000   0.00616   0.00616   2.04784
   R25        1.82744  -0.00312   0.00000  -0.00551  -0.00551   1.82193
   R26        2.91942   0.00208   0.00000   0.00957   0.01048   2.92990
   R27        2.07400  -0.00136   0.00000  -0.00372  -0.00372   2.07029
   R28        2.07523   0.00145   0.00000   0.00397   0.00397   2.07920
   R29        2.08066  -0.00249   0.00000  -0.00687  -0.00687   2.07379
   R30        2.06980  -0.00048   0.00000  -0.00130  -0.00130   2.06851
    A1        1.98565  -0.01096   0.00000  -0.06923  -0.06989   1.91576
    A2        1.91445   0.01100   0.00000   0.07679   0.07704   1.99149
    A3        1.97069  -0.00015   0.00000  -0.00849  -0.01056   1.96013
    A4        1.79370   0.00195   0.00000   0.02479   0.02643   1.82013
    A5        1.90975   0.00150   0.00000  -0.02073  -0.02359   1.88615
    A6        1.87864  -0.00268   0.00000   0.00483   0.00385   1.88249
    A7        1.91695   0.00254   0.00000   0.03679   0.03627   1.95322
    A8        2.00668   0.01028   0.00000   0.07699   0.07711   2.08379
    A9        1.83862  -0.00727   0.00000  -0.05869  -0.05738   1.78124
   A10        1.96633  -0.00982   0.00000  -0.04263  -0.04460   1.92174
   A11        1.86392   0.00249   0.00000  -0.01762  -0.01849   1.84543
   A12        1.86022   0.00141   0.00000  -0.00520  -0.00550   1.85472
   A13        2.04836   0.00215   0.00000   0.02679   0.03014   2.07850
   A14        1.88757  -0.00294   0.00000   0.00261   0.00108   1.88865
   A15        1.89203   0.00309   0.00000  -0.00475  -0.00596   1.88607
   A16        1.90133   0.00262   0.00000   0.01955   0.01749   1.91882
   A17        1.87705  -0.00569   0.00000  -0.04924  -0.04967   1.82739
   A18        1.84755   0.00069   0.00000   0.00273   0.00345   1.85101
   A19        2.00644   0.01255   0.00000   0.06482   0.06537   2.07181
   A20        1.90559  -0.00535   0.00000  -0.02709  -0.02742   1.87817
   A21        1.93668  -0.00382   0.00000  -0.02323  -0.02357   1.91311
   A22        1.86024  -0.00123   0.00000  -0.01113  -0.01135   1.84890
   A23        1.90798  -0.00551   0.00000  -0.01365  -0.01325   1.89473
   A24        1.83782   0.00268   0.00000   0.00581   0.00532   1.84314
   A25        2.10708   0.00404   0.00000   0.00785   0.00744   2.11452
   A26        2.06458  -0.00673   0.00000  -0.01306  -0.01254   2.05204
   A27        2.10996   0.00268   0.00000   0.00385   0.00344   2.11340
   A28        2.05922  -0.00105   0.00000  -0.00334  -0.00486   2.05435
   A29        1.88235  -0.00179   0.00000  -0.00411  -0.00413   1.87822
   A30        1.83837   0.00097   0.00000  -0.00511  -0.00461   1.83375
   A31        1.90792   0.00572   0.00000   0.03411   0.03456   1.94248
   A32        1.89336  -0.00348   0.00000  -0.01940  -0.01912   1.87424
   A33        1.87408  -0.00058   0.00000  -0.00406  -0.00407   1.87001
   A34        2.01068   0.01096   0.00000   0.02079   0.01882   2.02950
   A35        1.89048  -0.00211   0.00000  -0.00665  -0.00609   1.88439
   A36        1.88629  -0.00382   0.00000   0.00324   0.00387   1.89017
   A37        1.90199  -0.00485   0.00000  -0.02339  -0.02247   1.87953
   A38        1.93095  -0.00300   0.00000   0.00013   0.00021   1.93117
   A39        1.83493   0.00212   0.00000   0.00456   0.00425   1.83918
   A40        1.94577  -0.00081   0.00000   0.00044   0.00066   1.94643
   A41        1.95411   0.00110   0.00000   0.01587   0.01560   1.96971
   A42        1.91975   0.00039   0.00000  -0.00969  -0.00996   1.90979
   A43        1.92287   0.00009   0.00000  -0.00527  -0.00535   1.91752
   A44        1.73532   0.00339   0.00000   0.03990   0.03992   1.77524
   A45        1.97546  -0.00404   0.00000  -0.03979  -0.03960   1.93586
   A46        1.91630  -0.00489   0.00000  -0.02613  -0.02613   1.89016
   A47        2.04156  -0.00085   0.00000   0.02604   0.02806   2.06962
   A48        1.92184   0.00009   0.00000   0.00041  -0.00155   1.92029
   A49        1.88437  -0.00355   0.00000  -0.05068  -0.05138   1.83298
   A50        1.90031   0.00254   0.00000   0.02827   0.02702   1.92734
   A51        1.88323   0.00062   0.00000  -0.02256  -0.02321   1.86002
   A52        1.81907   0.00134   0.00000   0.01607   0.01654   1.83561
   A53        2.04035   0.01998   0.00000   0.11218   0.11504   2.15538
   A54        1.87999  -0.00650   0.00000  -0.02098  -0.02316   1.85683
   A55        1.93912  -0.00519   0.00000  -0.03621  -0.03531   1.90381
   A56        1.88059  -0.00330   0.00000  -0.01348  -0.01622   1.86437
   A57        1.92540  -0.01162   0.00000  -0.06921  -0.06869   1.85671
   A58        1.77807   0.00478   0.00000   0.01723   0.01650   1.79457
    D1        1.00945   0.00481   0.00000   0.03217   0.02899   1.03843
    D2       -3.03441   0.00200   0.00000   0.06941   0.07049  -2.96392
    D3       -0.99204   0.00453   0.00000   0.06612   0.06466  -0.92738
    D4       -0.98837   0.00177   0.00000  -0.00722  -0.00854  -0.99691
    D5        1.25097  -0.00104   0.00000   0.03002   0.03296   1.28393
    D6       -2.98985   0.00149   0.00000   0.02673   0.02713  -2.96272
    D7       -3.08350  -0.00239   0.00000  -0.06115  -0.06263   3.13706
    D8       -0.84417  -0.00520   0.00000  -0.02391  -0.02113  -0.86529
    D9        1.19821  -0.00267   0.00000  -0.02720  -0.02696   1.17124
   D10        1.34105   0.01009   0.00000   0.18205   0.18135   1.52240
   D11       -0.81717   0.00744   0.00000   0.13375   0.13288  -0.68429
   D12       -2.81276   0.00656   0.00000   0.13164   0.13134  -2.68142
   D13       -0.92033   0.00201   0.00000   0.08152   0.08160  -0.83874
   D14       -3.07855  -0.00063   0.00000   0.03322   0.03313  -3.04542
   D15        1.20905  -0.00151   0.00000   0.03111   0.03158   1.24063
   D16       -2.95687   0.00413   0.00000   0.12208   0.12151  -2.83535
   D17        1.16810   0.00149   0.00000   0.07378   0.07305   1.24115
   D18       -0.82749   0.00061   0.00000   0.07167   0.07150  -0.75599
   D19        0.01949  -0.00860   0.00000  -0.16104  -0.15984  -0.14035
   D20        2.13826  -0.00440   0.00000  -0.11859  -0.11788   2.02039
   D21       -2.21137  -0.00477   0.00000  -0.12717  -0.12681  -2.33818
   D22        2.23388  -0.00487   0.00000  -0.08041  -0.07952   2.15436
   D23       -1.93054  -0.00067   0.00000  -0.03796  -0.03756  -1.96809
   D24        0.00302  -0.00104   0.00000  -0.04654  -0.04649  -0.04348
   D25       -2.01057  -0.00632   0.00000  -0.12821  -0.12756  -2.13813
   D26        0.10820  -0.00212   0.00000  -0.08576  -0.08560   0.02260
   D27        2.04175  -0.00249   0.00000  -0.09434  -0.09453   1.94722
   D28       -0.95015   0.00366   0.00000  -0.00324  -0.00450  -0.95465
   D29       -3.03908   0.00081   0.00000  -0.01218  -0.01253  -3.05161
   D30        1.22608   0.00290   0.00000   0.01003   0.00927   1.23535
   D31        1.20109   0.00350   0.00000   0.03687   0.03660   1.23769
   D32       -0.88784   0.00065   0.00000   0.02793   0.02857  -0.85927
   D33       -2.90586   0.00275   0.00000   0.05014   0.05037  -2.85550
   D34       -3.08723   0.00267   0.00000   0.02431   0.02333  -3.06390
   D35        1.10702  -0.00017   0.00000   0.01537   0.01530   1.12232
   D36       -0.91100   0.00192   0.00000   0.03758   0.03710  -0.87391
   D37       -1.06553   0.00086   0.00000  -0.00445  -0.00414  -1.06967
   D38        2.13549   0.00097   0.00000   0.02144   0.02172   2.15722
   D39        1.04835   0.00107   0.00000  -0.00612  -0.00612   1.04223
   D40       -2.03381   0.00118   0.00000   0.01977   0.01974  -2.01407
   D41        3.02646   0.00093   0.00000  -0.01155  -0.01178   3.01467
   D42       -0.05570   0.00105   0.00000   0.01434   0.01408  -0.04162
   D43       -0.93049   0.00608   0.00000   0.05098   0.05089  -0.87960
   D44       -3.10127   0.00064   0.00000   0.01064   0.01097  -3.09030
   D45        1.18468   0.00163   0.00000   0.01956   0.01961   1.20429
   D46        2.27063   0.00614   0.00000   0.07677   0.07659   2.34723
   D47        0.09985   0.00070   0.00000   0.03643   0.03668   0.13653
   D48       -1.89738   0.00170   0.00000   0.04535   0.04531  -1.85206
   D49       -1.08869  -0.00213   0.00000  -0.04388  -0.04321  -1.13190
   D50        3.05994  -0.00175   0.00000  -0.02265  -0.02210   3.03785
   D51        1.08053  -0.00126   0.00000  -0.02627  -0.02594   1.05459
   D52        1.06936  -0.00042   0.00000  -0.02237  -0.02208   1.04727
   D53       -1.06520  -0.00004   0.00000  -0.00113  -0.00097  -1.06617
   D54       -3.04461   0.00045   0.00000  -0.00475  -0.00481  -3.04942
   D55        3.10785   0.00009   0.00000  -0.01930  -0.01901   3.08884
   D56        0.97330   0.00047   0.00000   0.00194   0.00210   0.97540
   D57       -1.00612   0.00096   0.00000  -0.00168  -0.00174  -1.00785
   D58       -1.98597  -0.00321   0.00000  -0.04415  -0.04404  -2.03002
   D59        2.13406  -0.00355   0.00000  -0.04940  -0.04927   2.08479
   D60       -0.07833   0.00063   0.00000  -0.00149  -0.00138  -0.07971
   D61        0.14240  -0.00204   0.00000  -0.05631  -0.05638   0.08601
   D62       -2.02076  -0.00238   0.00000  -0.06157  -0.06161  -2.08237
   D63        2.05004   0.00180   0.00000  -0.01366  -0.01372   2.03632
   D64        2.15160  -0.00395   0.00000  -0.06425  -0.06397   2.08763
   D65       -0.01155  -0.00429   0.00000  -0.06950  -0.06919  -0.08075
   D66       -2.22394  -0.00010   0.00000  -0.02159  -0.02131  -2.24525
   D67       -1.19266   0.00041   0.00000  -0.00039  -0.00025  -1.19291
   D68        0.98804   0.00132   0.00000   0.01659   0.01651   1.00455
   D69        3.06655  -0.00149   0.00000  -0.01023  -0.01029   3.05626
   D70       -0.89863   0.00217   0.00000   0.05904   0.05933  -0.83930
   D71       -3.07963  -0.00072   0.00000  -0.00122  -0.00123  -3.08086
   D72        1.22794  -0.00044   0.00000   0.00683   0.00704   1.23498
   D73       -3.07455   0.00235   0.00000   0.05088   0.05110  -3.02345
   D74        1.02763  -0.00054   0.00000  -0.00938  -0.00946   1.01817
   D75       -0.94799  -0.00026   0.00000  -0.00133  -0.00119  -0.94918
   D76        1.28328   0.00039   0.00000   0.02725   0.02751   1.31079
   D77       -0.89772  -0.00251   0.00000  -0.03301  -0.03306  -0.93077
   D78       -2.87334  -0.00223   0.00000  -0.02496  -0.02478  -2.89812
   D79       -1.07189  -0.00319   0.00000  -0.08299  -0.08301  -1.15490
   D80        3.09283  -0.00573   0.00000  -0.12156  -0.12191   2.97092
   D81        1.16560  -0.00405   0.00000  -0.10160  -0.10233   1.06328
   D82        1.11988  -0.00153   0.00000  -0.03740  -0.03650   1.08338
   D83       -0.99858  -0.00407   0.00000  -0.07597  -0.07541  -1.07399
   D84       -2.92581  -0.00239   0.00000  -0.05601  -0.05582  -2.98163
   D85        3.08413   0.00159   0.00000  -0.01614  -0.01600   3.06813
   D86        0.96567  -0.00094   0.00000  -0.05471  -0.05491   0.91076
   D87       -0.96156   0.00073   0.00000  -0.03475  -0.03532  -0.99688
         Item               Value     Threshold  Converged?
 Maximum Force            0.019977     0.000450     NO 
 RMS     Force            0.004657     0.000300     NO 
 Maximum Displacement     1.075955     0.001800     NO 
 RMS     Displacement     0.180607     0.001200     NO 
 Predicted change in Energy=-1.858005D-02
 GradGradGradGradGradGradGradGradGradGradGradGradGradGradGradGradGradGrad

                          Input orientation:                          
 ---------------------------------------------------------------------
 Center     Atomic      Atomic             Coordinates (Angstroms)
 Number     Number       Type             X           Y           Z
 ---------------------------------------------------------------------
      1          6           0        1.101011   -0.081903   -0.842366
      2          6           0        2.500085   -0.090733   -0.198108
      3          6           0        3.011330    1.349268    0.100502
      4          6           0        2.636582    2.018997    1.451825
      5          6           0        1.161979    2.116501    1.838320
      6          8           0        0.373153    2.737697    1.155093
      7          6           0        0.737253    1.501090    3.174885
      8          6           0        1.175039    0.045853    3.468516
      9          6           0        0.583800   -1.049326    2.542704
     10          8           0       -0.245245   -1.962581    3.271782
     11          6           0        1.669125   -1.829808    1.767039
     12          6           0        2.777161   -1.029951    1.034688
     13          1           0        1.129955    0.477756   -1.782257
     14          1           0        0.347862    0.422667   -0.254741
     15          1           0        0.737829   -1.089185   -1.058859
     16          1           0        3.127326   -0.465413   -1.017193
     17          1           0        2.715837    1.997083   -0.732212
     18          1           0        4.108583    1.328868    0.094602
     19          1           0        3.009899    3.049990    1.426010
     20          1           0        3.178693    1.529977    2.266938
     21          1           0       -0.347751    1.615028    3.262044
     22          1           0        1.193416    2.142882    3.942977
     23          1           0        0.883016   -0.193819    4.495693
     24          1           0        2.269174    0.007977    3.461407
     25          1           0       -0.129778   -0.599438    1.862449
     26          1           0        0.317410   -2.477311    3.861701
     27          1           0        1.199875   -2.546376    1.083985
     28          1           0        2.175533   -2.444663    2.526048
     29          1           0        3.529951   -1.757832    0.706376
     30          1           0        3.308258   -0.461924    1.805043
 ---------------------------------------------------------------------
                    Distance matrix (angstroms):
                    1          2          3          4          5
     1  C    0.000000
     2  C    1.540309   0.000000
     3  C    2.566431   1.556966   0.000000
     4  C    3.469160   2.681767   1.554043   0.000000
[...]
 6163,-0.00045618,0.00056503,0.00103237,-0.00612094,0.00182677,-0.00034
 581,0.00165736,-0.00046445,-0.00905848,0.00108884,-0.00085880,-0.02368
 326,0.05757336,-0.00017486,0.00005484,0.00001902,-0.00004529,0.0001573
 4,-0.00016176,0.00016183,-0.00005086,-0.00001852,-0.00010347,0.0005039
 4,-0.00062825,-0.00144441,-0.00036735,0.00063606,0.00045908,0.00006887
 ,-0.00024275,-0.00554380,0.00034602,-0.00062798,-0.00685506,0.00035231
 ,-0.04797763,-0.02142117,0.00339111,-0.00180721,-0.00158311,-0.0017520
 9,-0.00016851,-0.00024546,0.00001492,0.00109884,-0.00063237,-0.0004144
 7,-0.00092740,0.00009986,-0.00003553,-0.00002425,0.00009374,-0.0000920
 2,0.00002561,0.00000323,0.00001232,0.00000400,0.00003428,-0.00000474,0
 .00007913,-0.00002053,-0.00002327,0.00009209,-0.00001234,0.00001030,-0
 .00000557,0.00005520,-0.00012862,0.00014161,0.00076911,0.00087696,-0.0
 0032639,-0.00028988,0.00089089,0.00057671,0.00054037,-0.00032144,0.000
 39902,0.02913488,-0.00351200,0.00162455,0.00655071,0.00183160,0.050545
 96,-0.00069600,0.00063305,-0.00011370,-0.00066968,-0.00018931,0.000168
 55,-0.00003658,-0.00016554,0.00022321,-0.00021427,0.00000645,-0.000042
 73,-0.00115389,-0.00104995,-0.00113358,0.00063045,0.00043258,0.0007724
 6,0.00078898,0.00079838,0.00006152,-0.00503595,0.00421039,-0.00867685,
 -0.13087439,0.08159675,-0.09927042,0.01063893,-0.02073354,0.02069260,-
 0.01264230,0.01379193,-0.01476283,0.00069521,0.00000885,-0.00039849,0.
 00038601,-0.00017239,-0.00029966,0.00106892,-0.00049406,0.00051249,0.0
 0004860,-0.00010910,-0.00009501,0.00016461,-0.00005022,0.00005490,-0.0
 0004232,-0.00008256,0.00003852,0.00006358,0.00003956,-0.00001190,0.000
 08716,-0.00001901,0.00003086,0.00012834,0.00000987,0.00004449,0.000219
 88,-0.00047244,0.00006368,0.00007828,0.00010285,0.00016603,-0.00107608
 ,-0.00066098,-0.00070328,-0.00031134,-0.00058886,-0.00118659,0.1409227
 2,0.00025984,-0.00052429,0.00063141,0.00051866,0.00013653,-0.00004833,
 -0.00000682,0.00006308,-0.00001714,0.00002714,-0.00009220,-0.00008909,
 -0.00185568,-0.00120827,-0.00088250,0.00046802,-0.00080665,0.00064245,
 -0.00122436,0.00071774,-0.00075362,-0.01031819,0.00707843,-0.01492606,
 0.07454899,-0.11497847,0.08435071,0.00447711,-0.02048301,0.02104885,0.
 01145456,-0.00941017,0.00954283,-0.00023362,0.00003025,-0.00011136,-0.
 00032944,0.00009081,0.00022918,-0.00054346,0.00091762,0.00061844,0.000
 08281,-0.00006883,-0.00009972,-0.00008336,0.00001586,-0.00007241,-0.00
 000350,0.00006035,0.00002751,-0.00000360,-0.00005072,-0.00004078,0.000
 03820,-0.00003180,0.00000788,0.00010020,0.00001395,-0.00006815,0.00020
 389,0.00013773,-0.00012738,-0.00005785,0.00012616,0.00005947,-0.001085
 32,-0.00100332,-0.00185956,-0.00106937,-0.00085510,-0.00173699,-0.0742
 2143,0.14293859,0.00062326,-0.00006699,-0.00156092,-0.00007760,0.00027
 032,0.00034235,0.00003617,0.00005670,0.00005983,-0.00009990,-0.0000058
 6,-0.00009671,-0.00088792,-0.00051377,0.00007379,0.00088010,0.00077429
 ,0.00034104,-0.00041119,0.00161494,0.00111134,-0.01494126,0.00686204,-
 0.01466972,-0.09215917,0.08504747,-0.15629391,-0.00259147,0.01677384,-
 0.01311427,0.00910054,-0.01034973,0.01122669,-0.00079595,0.00050782,0.
 00048238,-0.00005196,-0.00005793,-0.00013031,0.00062853,0.00053110,-0.
 00177103,-0.00007260,-0.00000400,0.00001446,-0.00011844,-0.00000297,-0
 .00011646,0.00000229,0.00002760,0.00000719,0.00000207,-0.00002969,-0.0
 0004243,0.00003730,-0.00002858,0.00001412,0.00010876,-0.00000904,0.000
 00541,0.00050472,-0.00054823,-0.00020220,0.00025829,0.00042304,0.00015
 725,-0.00090706,-0.00086757,-0.00129264,-0.00060628,-0.00132312,-0.002
 39714,0.09644492,-0.09774803,0.17829773,0.00009051,-0.00005275,0.00002
 893,0.00029020,-0.00002104,0.00007704,-0.00003751,-0.00002818,-0.00011
 986,0.00002596,-0.00000803,0.00002005,0.00015993,0.00005520,0.00017813
 ,-0.00014534,-0.00002822,-0.00014418,-0.00003394,-0.00011547,-0.000217
 93,0.00023132,-0.00010010,0.00091709,0.00871242,-0.02451938,0.02154354
 ,-0.16603766,0.16735682,-0.15846689,0.00251122,-0.00280814,0.00222254,
 -0.00063546,0.00033775,-0.00031055,-0.00005076,0.00004175,-0.00001355,
 -0.00009001,0.00000535,0.00001868,0.00000581,0.00002347,0.00004695,0.0
 0000338,0.00007859,-0.00009912,0.00000760,0.00005893,-0.00000663,0.000
 00787,0.00000762,0.00001206,-0.00001420,0.00002418,-0.00000030,-0.0000
 2719,-0.00001654,-0.00001301,-0.00002970,0.00004482,-0.00003774,0.0000
 5497,-0.00002131,-0.00003664,0.00046797,0.00029866,-0.00032753,-0.0002
 4159,-0.00011535,0.00015710,-0.00199236,-0.00297056,0.00264421,0.15787
 545,0.00009317,-0.00003142,0.00000907,0.00006804,-0.00001440,-0.000037
 57,0.00001082,0.00005741,0.00006227,0.00010929,-0.00002398,-0.00005226
 ,-0.00001226,0.00010163,0.00105748,-0.00029647,0.00003419,-0.00072607,
 0.00057802,0.00013137,-0.00073954,0.00080020,0.00072359,0.00079668,0.0
 1395570,-0.02225039,0.02014683,0.12842864,-0.21023361,0.18608695,0.000
 23782,0.00318831,-0.00220426,0.00028476,-0.00049728,-0.00034901,-0.000
 03791,0.00001976,0.00002550,-0.00005397,0.00006052,0.00000652,-0.00001
 107,-0.00002373,-0.00000693,-0.00002297,-0.00000416,-0.00003366,-0.000
 01420,-0.00000686,-0.00001719,0.00001278,-0.00002997,-0.00003483,-0.00
 001505,0.00001268,-0.00003911,-0.00008276,-0.00000615,-0.00001885,-0.0
 0006106,0.00009716,0.00000749,0.00000618,0.00000729,-0.00003942,-0.000
 44787,-0.00099697,-0.00169975,0.00039873,0.00025393,0.00001692,-0.0045
 7877,-0.00197024,0.00109773,-0.13879822,0.23056535,-0.00019802,0.00008
 296,0.00003140,-0.00040428,0.00014227,-0.00009210,0.00006493,0.0001027
 2,0.00019603,0.00005193,-0.00002014,-0.00008255,-0.00045944,-0.0000530
 9,0.00031218,0.00014118,0.00009305,-0.00023850,0.00003683,-0.00013977,
 -0.00060804,-0.00014450,-0.00082774,0.00224053,-0.01060619,0.01373569,
 -0.01435593,-0.12571567,0.19051964,-0.17466795,-0.00213098,-0.00046841
 ,0.00038544,0.00030889,-0.00000096,0.00055964,0.00007224,-0.00007761,0
 .00001376,0.00013422,-0.00002168,-0.00003289,-0.00000357,-0.00005934,-
 0.00009362,0.00002893,-0.00013150,0.00014250,-0.00001888,-0.00008515,0
 .00000261,0.00000030,-0.00002633,-0.00004363,0.00002289,-0.00003651,-0
 .00001853,0.00001610,0.00002119,0.00002293,0.00002464,0.00006202,0.000
 00689,0.00002855,-0.00014404,0.00002571,0.00018877,-0.00053667,-0.0003
 1437,0.00004899,0.00004537,0.00013861,0.00413977,0.00255880,-0.0006071
 4,0.13325905,-0.20384410,0.18752740,0.00009464,-0.00046762,-0.00035896
 ,0.00023895,0.00067039,-0.00086114,0.00013086,0.00009857,0.00004885,0.
 00000031,0.00003595,-0.00019129,-0.00032618,-0.00013517,0.00038522,0.0
 0012535,0.00005293,-0.00016232,0.00034120,0.00018993,0.00033566,-0.003
 15177,0.00108861,0.00232048,0.00833776,0.01404807,0.01640451,0.0015979
 1,0.00062935,-0.00135269,-0.11407333,-0.07569259,-0.08813428,-0.015294
 04,-0.01418604,-0.01463790,0.00017767,0.00029539,0.00008306,0.00003670
 ,0.00010923,0.00004316,0.00042189,0.00049277,0.00022561,-0.00004978,0.
 00001636,0.00001961,0.00003389,-0.00009592,0.00003564,0.00005662,0.000
 08340,-0.00005336,0.00005511,-0.00005324,0.00002681,0.00002978,0.00006
 115,0.00016356,0.00001243,-0.00001746,-0.00001114,-0.00000195,0.000234
 84,-0.00004893,0.00039762,0.00061899,0.00064298,0.00014502,0.00010820,
 -0.00005727,0.00122659,-0.00037405,-0.00038993,-0.00012851,-0.00014196
 ,0.00005982,0.12937306,-0.00010890,-0.00059296,-0.00043521,-0.00033304
 ,0.00028462,-0.00108486,0.00021082,-0.00007848,-0.00006268,-0.00000913
 ,0.00001377,-0.00003291,-0.00015666,0.00019501,-0.00061612,0.00024156,
 -0.00002264,0.00044944,-0.00039400,-0.00014575,-0.00034334,0.00370961,
 -0.00028696,-0.00138956,-0.01047041,-0.01534202,-0.01646259,-0.0005816
 7,0.00185041,0.00231377,-0.07360974,-0.12927928,-0.09432099,-0.0083702
 6,-0.00868856,-0.00888730,0.00026738,0.00040101,-0.00001522,0.00013388
 ,-0.00029271,0.00000244,0.00012308,0.00050065,0.00103126,0.00009529,0.
 00006906,-0.00001361,0.00001760,-0.00008529,0.00004382,0.00005897,0.00
 014373,0.00003396,-0.00000868,-0.00000999,0.00004587,0.00006043,0.0000
 6043,0.00011198,0.00001849,-0.00002720,0.00000590,-0.00000017,-0.00029
 297,0.00006977,-0.00014452,-0.00073341,-0.00076216,-0.00007561,0.00010
 859,0.00032162,-0.00057780,0.00031236,0.00054229,0.00023144,0.00003218
 ,-0.00001489,0.08113828,0.14026027,0.00000586,0.00050870,-0.00079871,-
 0.00053564,-0.00014379,0.00078259,-0.00010681,-0.00004665,0.00006261,-
 0.00004911,0.00000054,0.00012793,0.00019390,0.00015729,-0.00052949,-0.
 00001943,-0.00005016,0.00025518,-0.00017945,-0.00020627,-0.00059906,0.
 00240563,-0.00139580,0.00022887,-0.00783707,-0.01030935,-0.01169160,-0
 .00034794,0.00167246,0.00182433,-0.08647308,-0.09410074,-0.15504602,0.
 00990788,0.00945793,0.01067055,0.00017680,0.00002075,0.00003603,-0.000
 08134,-0.00015632,-0.00007050,-0.00021031,0.00085502,-0.00097486,0.000
 03081,-0.00014506,0.00015683,-0.00001854,0.00001431,-0.00002066,-0.000
 03878,-0.00006552,0.00003047,-0.00001793,0.00001345,-0.00000146,0.0000
 2411,-0.00003213,-0.00007728,0.00002792,-0.00011548,0.00003316,0.00002
 601,-0.00025629,0.00004012,-0.00002739,-0.00025932,-0.00033677,0.00034
 215,0.00023592,0.00031528,0.00033274,0.00040302,0.00079734,-0.00024868
 ,-0.00032894,-0.00064312,0.09125008,0.10411627,0.17032749,-0.00042541,
 0.00001688,-0.00042026,-0.00392514,-0.00121924,0.00073380,0.00023673,0
 .00005394,0.00078048,0.00007458,-0.00000789,-0.00006335,-0.00049494,-0
 .00014149,0.00002033,0.00027266,0.00014439,0.00001232,0.00005763,-0.00
 005303,-0.00010495,0.00040635,-0.00135827,-0.00012942,-0.01315320,0.01
 608079,-0.01384794,0.00237954,-0.00031686,-0.00111472,-0.08520417,0.06
 226504,-0.06940604,0.00670715,-0.01766817,0.02000022,0.00017467,0.0000
 9539,0.00000579,0.00014587,-0.00013128,0.00009326,0.00007832,0.0002127
 7,0.00013326,-0.00003174,-0.00050038,0.00087249,-0.00007869,-0.0003109
 1,-0.00003769,-0.00000203,-0.00004903,-0.00001610,0.00002067,-0.000027
 41,-0.00003515,0.00001156,-0.00003247,-0.00004475,0.00005864,-0.000088
 84,-0.00005254,0.00006732,0.00003547,0.00002901,0.00002060,0.00014511,
 0.00023658,0.00032540,0.00014736,0.00030957,-0.00255550,0.00213092,0.0
 0298802,-0.00101182,-0.00040643,0.00146166,-0.00701091,0.01046438,-0.0
 1087309,0.10047897,-0.00009449,0.00000212,-0.00074998,-0.00325776,0.00
 084527,0.00025579,0.00013663,0.00023765,0.00028071,0.00009893,-0.00008
 277,-0.00000152,0.00004633,0.00015347,0.00033373,-0.00012611,-0.000082
 08,-0.00023643,-0.00022095,0.00008804,0.00005745,0.00065421,0.00148922
 ,0.00070836,0.01194655,-0.01754687,0.01557350,-0.00289533,0.00216231,-
 0.00073563,0.06265103,-0.13888844,0.09891745,0.00490550,-0.01152635,0.
 01244525,0.00006115,0.00012633,0.00008346,-0.00002792,0.00004269,-0.00
 010137,0.00002566,0.00019558,0.00017739,-0.00001580,-0.00063626,0.0007
 5485,-0.00000455,-0.00013468,-0.00002800,-0.00002279,-0.00003355,-0.00
 000687,-0.00002421,-0.00001053,-0.00002064,-0.00003330,-0.00000016,-0.
 00005655,-0.00009184,0.00018538,-0.00000839,-0.00005608,-0.00004849,-0
 .00002247,0.00000973,-0.00016716,-0.00021608,-0.00073881,-0.00032619,-
 0.00024604,0.00268181,-0.00133596,-0.00297614,0.00101700,0.00085537,-0
 .00065837,-0.00710821,0.01105503,-0.01182932,-0.06978779,0.15239446,0.
 00047227,-0.00032594,0.00019175,0.00259148,0.00037235,0.00037533,-0.00
 009932,-0.00009278,-0.00066913,-0.00006246,0.00000950,0.00002748,0.000
 30563,0.00005977,-0.00025771,-0.00014407,0.00000444,0.00015968,0.00014
 720,0.00004565,0.00014001,0.00024799,0.00050115,0.00132449,0.00912849,
 -0.00976551,0.00801484,-0.00156882,-0.00265374,0.00245693,-0.06762823,
 0.09816562,-0.15493741,-0.00556912,0.01028581,-0.01203309,0.00007698,0
 .00016748,-0.00002211,-0.00003483,-0.00010467,0.00000493,0.00004995,0.
 00020436,0.00028932,0.00008693,0.00049254,-0.00061150,0.00008801,0.000
 21825,0.00006409,0.00004725,0.00011983,0.00003988,-0.00002046,0.000041
 85,0.00004437,-0.00000442,-0.00000437,0.00004691,-0.00010145,-0.000059
 12,0.00002038,-0.00005201,0.00003187,-0.00002037,0.00002000,0.00008257
 ,0.00017817,-0.00026100,0.00049627,0.00010645,0.00283627,-0.00138769,-
 0.00067468,-0.00109246,0.00094016,0.00009205,-0.00877047,0.01343470,-0
 .01493387,0.06913061,-0.11085059,0.16976746,0.00030676,0.00058924,-0.0
 0050002,-0.00336136,0.00521923,0.00355643,-0.00006968,-0.00057517,-0.0
 0096094,-0.00022366,-0.00033747,-0.00030118,-0.00031360,-0.00012144,0.
 00017650,0.00017483,0.00006479,-0.00003896,0.00017180,0.00003364,0.000
 04978,-0.00020222,0.00000530,-0.00041186,-0.00031177,-0.00508215,0.000
 51698,-0.00237391,-0.00006622,0.00175463,-0.02038052,0.02040614,0.0150
 8562,-0.11882049,0.10646539,0.04779445,-0.00013058,-0.00014813,-0.0003
 1375,0.00025449,-0.00014057,0.00009304,-0.00024661,-0.00016725,-0.0001
 4361,0.00193609,-0.00124767,0.00017354,0.00010302,0.00019227,0.0000970
 4,0.00003336,0.00006133,-0.00003343,0.00008965,-0.00007085,0.00011082,
 0.00013767,0.00000486,0.00026960,0.00001349,-0.00003210,-0.00001576,-0
 .00000617,0.00009612,0.00000885,0.00010020,0.00000729,0.00001100,0.000
 18336,0.00005406,0.00018550,0.00014135,0.00002580,-0.00021413,-0.00001
 914,0.00016122,-0.00017755,0.00062081,0.00047917,-0.00095439,0.0011982
 3,-0.00013629,-0.00010788,0.13028677,-0.00060610,-0.00080595,0.0004697
 4,0.00841576,-0.01609560,-0.00433143,0.00163818,-0.00100237,0.00262946
 ,-0.00007081,0.00031899,0.00017006,-0.00059309,0.00001306,0.00034727,0
 .00032083,0.00001789,-0.00011090,0.00012217,0.00009037,0.00005448,-0.0
 0035191,0.00007139,-0.00022728,-0.00143497,-0.00097630,0.00064407,-0.0
 0090706,-0.00010530,0.00067358,-0.01027741,0.00938360,0.00745373,0.106
 04072,-0.19408566,-0.07383686,0.00024055,0.00004096,0.00024217,-0.0000
 2757,-0.00001089,-0.00007626,0.00022705,0.00015124,0.00007183,-0.00035
 119,0.00081131,0.00066004,-0.00034527,-0.00107298,0.00010332,-0.000147
 50,-0.00015569,0.00002616,0.00006999,-0.00007578,0.00008025,0.00011108
 ,0.00014574,0.00017238,0.00003568,-0.00001488,-0.00002762,-0.00000263,
 0.00006481,-0.00000188,0.00010477,0.00002415,0.00001398,0.00022840,-0.
 00003897,0.00013425,-0.00015115,0.00013239,-0.00000729,0.00001016,-0.0
 0000870,-0.00007903,0.00046443,0.00081423,-0.00012211,0.00012483,0.001
 00774,-0.00039954,-0.11106274,0.21395637,0.00052768,0.00093118,-0.0003
 4394,-0.01202013,0.02253818,0.00329593,-0.00159893,0.00159757,-0.00261
 755,-0.00034963,-0.00026709,-0.00052217,-0.00001136,0.00013686,-0.0003
 3556,0.00006106,-0.00004373,0.00026527,-0.00007921,-0.00000167,0.00006
 440,-0.00008032,0.00038476,0.00005872,0.00043412,0.00212421,0.00004338
 ,0.00134701,0.00021067,-0.00077192,0.00987662,-0.01061649,-0.00770191,
 0.04852255,-0.07392839,-0.07751935,-0.00012822,-0.00015718,-0.00028549
 ,0.00002505,-0.00002892,0.00004681,-0.00005557,-0.00034412,-0.00007210
 ,-0.00101371,0.00174460,0.00132730,0.00037776,0.00104380,0.00002732,0.
 00008784,0.00004198,0.00003769,0.00009939,-0.00009685,0.00019919,0.000
 24083,-0.00004264,0.00040396,0.00000100,-0.00004940,0.00002752,-0.0000
 1260,-0.00005820,0.00000815,0.00018648,-0.00005463,0.00000936,0.000112
 81,0.00002698,0.00032835,0.00011833,-0.00012686,0.00006942,-0.00000265
 ,-0.00012090,0.00009747,-0.00030404,0.00044431,0.00091175,-0.00009379,
 -0.00035032,-0.00025838,-0.05799371,0.07218031,0.09262399,0.00071015,0
 .00118302,-0.00152183,-0.00490998,-0.00272246,-0.00510397,0.00117843,-
 0.00111779,-0.00019690,-0.00031871,-0.00019658,-0.00061741,-0.00078572
 ,0.00005758,-0.00010639,0.00056220,0.00003698,0.00030907,0.00026153,0.
 00014196,0.00013818,-0.00109258,0.00035067,-0.00022621,0.00046550,-0.0
 0107411,-0.00182804,0.00007074,0.00073293,0.00080935,-0.01682949,-0.01
 396774,-0.01792843,-0.13430668,-0.06737921,-0.09940279,-0.00054109,0.0
 0002361,-0.00035214,-0.00000399,-0.00010706,0.00008643,0.00006116,0.00
 000864,0.00022775,-0.00035415,0.00024108,-0.00047371,-0.00000290,-0.00
 018407,0.00011373,0.00001960,0.00044738,0.00002885,0.00020064,-0.00022
 899,0.00029341,0.00068089,0.00044350,0.00076483,0.00006946,-0.00015269
 ,0.00000696,-0.00003038,0.00007604,0.00000702,0.00042983,-0.00005664,0
 .00001715,0.00041801,0.00026659,0.00106115,0.00001106,0.00004448,0.000
 06568,0.00005061,-0.00016442,-0.00023062,-0.00341769,-0.00240978,0.003
 29509,0.00117868,0.00040771,0.00028796,0.01070782,0.00817480,0.0117253
 4,0.14551705,-0.00026653,-0.00244200,0.00304779,0.01356556,0.00848820,
 0.01419573,0.00055274,0.00040429,-0.00003323,0.00060135,-0.00174704,0.
 00046349,0.00050815,0.00003783,-0.00018463,-0.00027626,0.00000018,-0.0
 0004283,0.00014297,-0.00002746,0.00005875,-0.00042746,0.00013166,-0.00
 027866,0.00064219,-0.00009226,0.00002287,-0.00010037,0.00020520,0.0002
 9227,-0.00829888,-0.00756808,-0.00806996,-0.06866982,-0.09734272,-0.07
 713499,0.00118399,0.00008344,0.00057895,0.00005870,-0.00000685,-0.0000
 6888,-0.00003423,0.00009418,0.00005261,-0.00038690,-0.00011327,0.00038
 485,0.00003651,0.00032016,-0.00016835,-0.00013033,0.00008454,0.0000136
 3,-0.00019750,0.00015620,0.00007057,0.00040538,-0.00215208,-0.00059943
 ,0.00000033,-0.00006074,0.00003699,0.00000997,0.00003755,-0.00000438,0
 .00013722,0.00001174,0.00008825,0.00046263,0.00019947,-0.00029878,0.00
 000464,0.00004717,0.00000977,0.00001156,-0.00004290,-0.00013839,-0.002
 16458,-0.00022310,0.00210760,0.00018219,-0.00002116,-0.00003022,-0.014
 67780,-0.01259516,-0.01711802,0.07712459,0.11413301,0.00168328,0.00242
 783,-0.00295934,-0.01371970,-0.00825901,-0.01540962,-0.00078216,-0.001
 71043,0.00028154,0.00000655,-0.00028967,0.00003618,-0.00052120,-0.0001
 1536,0.00002850,0.00046905,0.00007636,0.00021746,-0.00009726,-0.000056
 25,0.00005031,0.00061024,0.00018221,-0.00052476,-0.00018788,-0.0006117
 9,0.00028567,-0.00032888,-0.00008893,0.00003040,0.00942674,0.00863860,
 0.01089430,-0.10075545,-0.07696881,-0.16074599,-0.00135317,-0.00001088
 ,-0.00046685,-0.00013876,0.00002823,0.00006737,0.00025877,-0.00009007,
 0.00014733,0.00000336,0.00064662,-0.00102070,0.00022223,-0.00010884,0.
 00007285,0.00034052,0.00039500,-0.00018945,0.00013480,-0.00013339,0.00
 031276,0.00024557,-0.00053705,0.00093736,0.00001713,0.00003410,-0.0000
 1483,-0.00000161,0.00000105,0.00002173,0.00009844,0.00008438,0.0000814
 4,0.00060848,-0.00036839,-0.00081794,-0.00000629,-0.00002488,-0.000030
 75,0.00001233,0.00003880,0.00000319,0.00328868,0.00147403,-0.00087714,
 -0.00056761,-0.00049321,0.00107374,-0.00771664,-0.00690690,-0.00941762
 ,0.10875045,0.08274664,0.17793285\\0.00000768,0.00000568,-0.00001058,0
 .00000559,-0.00000975,0.00000857,-0.00000158,0.00001816,0.00000432,0.0
 0002034,-0.00001532,-0.00001370,-0.00001194,-0.00001038,-0.00000229,0.
 00000118,0.00000224,0.00000020,-0.00000733,0.00000851,0.00001376,0.000
 00054,-0.00000936,-0.00000493,-0.00000113,-0.00000403,-0.00000230,0.00
 000858,0.00000648,-0.00000912,-0.00000995,-0.00001199,0.00001237,-0.00
 000557,0.00000590,-0.00000350,0.00000387,-0.00000284,0.00000175,-0.000
 00019,-0.00000166,0.00000196,-0.00000169,-0.00000442,0.00000118,0.0000
 0072,-0.00000318,0.00000638,0.00000014,0.00000069,0.00000308,-0.000001
 24,0.00000189,0.00000061,-0.00000481,0.00000800,-0.00000170,-0.0000014
 6,0.00000461,0.00000379,-0.00000167,0.00000205,-0.00000987,-0.00000369
 ,-0.00000200,0.00000013,0.00000198,0.00000113,0.00000406,-0.00000401,0
 .00000585,-0.00000074,-0.00000039,0.00000316,-0.00000483,-0.00000211,0
 .00000133,0.00000420,0.00000021,0.00000064,-0.00000293,0.00000553,-0.0
 0000214,-0.00000430,0.00000011,0.00000085,0.00000312,0.00000228,-0.000
 00009,0.00000133\\\@


 SOME PHYSICISTS WOULD PREFER TO COME BACK TO THE IDEA OF AN OBJECTIVE
 REAL WORLD WHOSE SMALLEST PARTS EXIST OBJECTIVELY IN THE SAME SENSE AS
 STONES OR TREES EXIST INDEPENDENTLY OF WHETHER WE OBSERVE THEM.
 THIS, HOWEVER, IS IMPOSSIBLE.  -- WERNER HEISENBERG
 Job cpu time:       0 days  6 hours 29 minutes 30.4 seconds.
 Elapsed time:       0 days  1 hours 37 minutes 22.8 seconds.
 File lengths (MBytes):  RWF=    392 Int=      0 D2E=      0 Chk=     16 Scr=      1
 Normal termination of Gaussian 16 at Sun May 28 03:15:19 2023.
### All Done ###
