### Starting Gaussian ###
 Entering Gaussian System, Link 0=g16
 Initial command:
 /cluster/software/gaussian/gaussian-16-A.03/avx2/g16/l1.exe "/local/scratch/ks29c/Gau-30779.inp" -scrdir="/local/scratch/ks29c/"
 Entering Link 1 = /cluster/software/gaussian/gaussian-16-A.03/avx2/g16/l1.exe PID=     30780.
  
 Copyright (c) 1988,1990,1992,1993,1995,1998,2003,2009,2016,
            Gaussian, Inc.  All Rights Reserved.
  
 This is part of the Gaussian(R) 16 program.  It is based on
 the Gaussian(R) 09 system (copyright 2009, Gaussian, Inc.),
 the Gaussian(R) 03 system (copyright 2003, Gaussian, Inc.),
 the Gaussian(R) 98 system (copyright 1998, Gaussian, Inc.),
 the Gaussian(R) 94 system (copyright 1995, Gaussian, Inc.),
 the Gaussian 92(TM) system (copyright 1992, Gaussian, Inc.),
 the Gaussian 90(TM) system (copyright 1990, Gaussian, Inc.),
 the Gaussian 88(TM) system (copyright 1988, Gaussian, Inc.),
 the Gaussian 86(TM) system (copyright 1986, Carnegie Mellon
 University), and the Gaussian 82(TM) system (copyright 1983,
 Carnegie Mellon University). Gaussian is a federally registered
 trademark of Gaussian, Inc.
  
 This software contains proprietary and confidential information,
 including trade secrets, belonging to Gaussian, Inc.
  
 This software is provided under written license and may be
 used, copied, transmitted, or stored only in accord with that
 written license.
  
 The following legend is applicable only to US Government
 contracts under FAR:
  
                    RESTRICTED RIGHTS LEGEND
  
 Use, reproduction and disclosure by the US Government is
 subject to restrictions as set forth in subparagraphs (a)
 and (c) of the Commercial Computer Software - Restricted
 Rights clause in FAR 52.227-19.
  
 Gaussian, Inc.
 340 Quinnipiac St., Bldg. 40, Wallingford CT 06492
  
  
 ---------------------------------------------------------------
 Warning -- This program may not be used in any manner that
 competes with the business of Gaussian, Inc. or will provide
 assistance to any competitor of Gaussian, Inc.  The licensee
 of this program is prohibited from giving any competitor of
 Gaussian, Inc. access to this program.  By using this program,
 the user acknowledges that Gaussian, Inc. is engaged in the
 business of creating and licensing software in the field of
 computational chemistry and represents and warrants to the
 licensee that it is not a competitor of Gaussian, Inc. and that
 it will not use this program in any manner prohibited above.
 ---------------------------------------------------------------
  

 Cite this work as:
 Gaussian 16, Revision A.03,
 M. J. Frisch, G. W. Trucks, H. B. Schlegel, G. E. Scuseria, 
 M. A. Robb, J. R. Cheeseman, G. Scalmani, V. Barone, 
 G. A. Petersson, H. Nakatsuji, X. Li, M. Caricato, A. V. Marenich, 
 J. Bloino, B. G. Janesko, R. Gomperts, B. Mennucci, H. P. Hratchian, 
 J. V. Ortiz, A. F. Izmaylov, J. L. Sonnenberg, D. Williams-Young, 
 F. Ding, F. Lipparini, F. Egidi, J. Goings, B. Peng, A. Petrone, 
 T. Henderson, D. Ranasinghe, V. G. Zakrzewski, J. Gao, N. Rega, 
 G. Zheng, W. Liang, M. Hada, M. Ehara, K. Toyota, R. Fukuda, 
 J. Hasegawa, M. Ishida, T. Nakajima, Y. Honda, O. Kitao, H. Nakai, 
 T. Vreven, K. Throssell, J. A. Montgomery, Jr., J. E. Peralta, 
 F. Ogliaro, M. J. Bearpark, J. J. Heyd, E. N. Brothers, K. N. Kudin, 
 V. N. Staroverov, T. A. Keith, R. Kobayashi, J. Normand, 
 K. Raghavachari, A. P. Rendell, J. C. Burant, S. S. Iyengar, 
 J. Tomasi, M. Cossi, J. M. Millam, M. Klene, C. Adamo, R. Cammi, 
 J. W. Ochterski, R. L. Martin, K. Morokuma, O. Farkas, 
 J. B. Foresman, and D. J. Fox, Gaussian, Inc., Wallingford CT, 2016.
 
 ******************************************
 Gaussian 16:  ES64L-G16RevA.03 25-Dec-2016
                22-May-2023 
 ******************************************
 %chk=CC1CCCqCrqCrCqCrqCrCqCOrC1.chk
 %NProcShared=20
 Will use up to   20 processors via shared memory.
 -----------------------------
 # opt freq b3lyp/6-31g(2df,p)
 -----------------------------
 1/18=20,19=15,26=3,38=1/1,3;
 2/9=110,12=2,17=6,18=5,40=1/2;
 3/5=1,6=6,7=104,11=2,25=1,30=1,71=1,74=-5/1,2,3;
 4//1;
 5/5=2,38=5/2;
 6/7=2,8=2,9=2,10=2,28=1/1;
 7//1,2,3,16;
 1/18=20,19=15,26=3/3(2);
 2/9=110/2;
 99//99;
 2/9=110/2;
 3/5=1,6=6,7=104,11=2,25=1,30=1,71=1,74=-5/1,2,3;
 4/5=5,16=3,69=1/1;
 5/5=2,38=5/2;
 7//1,2,3,16;
 1/18=20,19=15,26=3/3(-5);
 2/9=110/2;
 6/7=2,8=2,9=2,10=2,19=2,28=1/1;
 99/9=1/99;
 -------------------
 Title Card Required
 -------------------
 Symbolic Z-matrix:
 Charge =  0 Multiplicity = 1
 C                     0.77318   0.01435  -0.08413 
 C                     2.29969   0.00219  -0.00605 
 C                     2.84301  -1.35971  -0.46049 
 C                     4.35969  -1.50366  -0.64398 
 C                     4.97346  -0.69879  -1.82126 
 C                     4.01097  -0.78142  -3.0445 
 C                     6.23477  -1.48168  -2.28949 
 C                     5.36843   0.80369  -1.39224 
 C                     5.47777   1.68383  -2.67452 
 C                     6.78396   0.86278  -0.74302 
 C                     4.36133   1.51702  -0.3891 
 C                     4.6583    1.32162   1.12695 
 O                     3.71519   2.00835   1.94397 
 C                     2.87401   1.25498  -0.69548 
 H                     0.36221  -0.8147    0.50121 
 H                     0.41811  -0.07367  -1.11463 
 H                     0.37884   0.94333   0.34218 
 H                     2.50717   0.06766   1.06474 
 H                     2.33195  -1.67828  -1.37599 
 H                     2.53537  -2.10449   0.28612 
 H                     4.54122  -2.57431  -0.81477 
 H                     4.89938  -1.30772   0.28558 
 H                     3.77886  -1.82766  -3.27851 
 H                     4.44366  -0.34614  -3.94918 
 H                     3.05201  -0.28928  -2.88841 
 H                     5.97289  -2.50008  -2.60012 
 H                     6.97767  -1.587    -1.49323 
 H                     6.70821  -0.99636  -3.14965 
 H                     6.18263   1.25142  -3.39439 
 H                     5.83819   2.69286  -2.4452 
 H                     4.51279   1.80085  -3.17739 
 H                     7.57593   0.53973  -1.42553 
 H                     6.84432   0.23314   0.15099 
 H                     7.04049   1.88978  -0.4537 
 H                     4.49422   2.59967  -0.54741 
 H                     5.64617   1.68889   1.40907 
 H                     4.61826   0.27421   1.42692 
 H                     3.74517   2.95216   1.70064 
 H                     2.68232   1.26767  -1.77114 
 H                     2.3112    2.12992  -0.33888 
 

 GradGradGradGradGradGradGradGradGradGradGradGradGradGradGradGradGradGrad
 Berny optimization.
 Initialization pass.
                           ----------------------------
                           !    Initial Parameters    !
                           ! (Angstroms and Degrees)  !
 --------------------------                            --------------------------
 ! Name  Definition              Value          Derivative Info.                !
 --------------------------------------------------------------------------------
 ! R1    R(1,2)                  1.5286         estimate D2E/DX2                !
 ! R2    R(1,15)                 1.0949         estimate D2E/DX2                !
 ! R3    R(1,16)                 1.0935         estimate D2E/DX2                !
 ! R4    R(1,17)                 1.0956         estimate D2E/DX2                !
 ! R5    R(2,3)                  1.5351         estimate D2E/DX2                !
 ! R6    R(2,14)                 1.541          estimate D2E/DX2                !
 ! R7    R(2,18)                 1.0927         estimate D2E/DX2                !
 ! R8    R(3,4)                  1.5345         estimate D2E/DX2                !
 ! R9    R(3,19)                 1.0958         estimate D2E/DX2                !
 ! R10   R(3,20)                 1.0985         estimate D2E/DX2                !
 ! R11   R(4,5)                  1.5526         estimate D2E/DX2                !
 ! R12   R(4,21)                 1.0993         estimate D2E/DX2                !
 ! R13   R(4,22)                 1.0926         estimate D2E/DX2                !
 ! R14   R(5,6)                  1.5587         estimate D2E/DX2                !
 ! R15   R(5,7)                  1.5566         estimate D2E/DX2                !
 ! R16   R(5,8)                  1.6117         estimate D2E/DX2                !
 ! R17   R(6,23)                 1.0969         estimate D2E/DX2                !
 ! R18   R(6,24)                 1.0932         estimate D2E/DX2                !
 ! R19   R(6,25)                 1.0891         estimate D2E/DX2                !
 ! R20   R(7,26)                 1.0965         estimate D2E/DX2                !
 ! R21   R(7,27)                 1.0941         estimate D2E/DX2                !
 ! R22   R(7,28)                 1.0952         estimate D2E/DX2                !
 ! R23   R(8,9)                  1.5591         estimate D2E/DX2                !
 ! R24   R(8,10)                 1.5584         estimate D2E/DX2                !
 ! R25   R(8,11)                 1.5904         estimate D2E/DX2                !
 ! R26   R(9,29)                 1.0964         estimate D2E/DX2                !
 ! R27   R(9,30)                 1.0957         estimate D2E/DX2                !
 ! R28   R(9,31)                 1.0944         estimate D2E/DX2                !
 ! R29   R(10,32)                1.0943         estimate D2E/DX2                !
 ! R30   R(10,33)                1.0951         estimate D2E/DX2                !
 ! R31   R(10,34)                1.0974         estimate D2E/DX2                !
 ! R32   R(11,12)                1.5572         estimate D2E/DX2                !
 ! R33   R(11,14)                1.541          estimate D2E/DX2                !
 ! R34   R(11,35)                1.1022         estimate D2E/DX2                !
 ! R35   R(12,13)                1.4243         estimate D2E/DX2                !
 ! R36   R(12,36)                1.091          estimate D2E/DX2                !
 ! R37   R(12,37)                1.0903         estimate D2E/DX2                !
 ! R38   R(13,38)                0.9751         estimate D2E/DX2                !
 ! R39   R(14,39)                1.0927         estimate D2E/DX2                !
 ! R40   R(14,40)                1.0997         estimate D2E/DX2                !
 ! A1    A(2,1,15)             109.9689         estimate D2E/DX2                !
 ! A2    A(2,1,16)             111.8249         estimate D2E/DX2                !
 ! A3    A(2,1,17)             110.2631         estimate D2E/DX2                !
 ! A4    A(15,1,16)            108.7216         estimate D2E/DX2                !
 ! A5    A(15,1,17)            107.393          estimate D2E/DX2                !
 ! A6    A(16,1,17)            108.547          estimate D2E/DX2                !
 ! A7    A(1,2,3)              110.2061         estimate D2E/DX2                !
 ! A8    A(1,2,14)             110.0523         estimate D2E/DX2                !
 ! A9    A(1,2,18)             103.84           estimate D2E/DX2                !
 ! A10   A(3,2,14)             117.1876         estimate D2E/DX2                !
 ! A11   A(3,2,18)             106.0252         estimate D2E/DX2                !
 ! A12   A(14,2,18)            108.5998         estimate D2E/DX2                !
 ! A13   A(2,3,4)              117.9336         estimate D2E/DX2                !
 ! A14   A(2,3,19)             109.8875         estimate D2E/DX2                !
 ! A15   A(2,3,20)             107.5281         estimate D2E/DX2                !
 ! A16   A(4,3,19)             109.4987         estimate D2E/DX2                !
 ! A17   A(4,3,20)             107.1253         estimate D2E/DX2                !
 ! A18   A(19,3,20)            103.8927         estimate D2E/DX2                !
 ! A19   A(3,4,5)              115.6434         estimate D2E/DX2                !
 ! A20   A(3,4,21)             105.8524         estimate D2E/DX2                !
 ! A21   A(3,4,22)             111.6948         estimate D2E/DX2                !
 ! A22   A(5,4,21)             108.7727         estimate D2E/DX2                !
 ! A23   A(5,4,22)             110.9092         estimate D2E/DX2                !
 ! A24   A(21,4,22)            103.0193         estimate D2E/DX2                !
 ! A25   A(4,5,6)              108.874          estimate D2E/DX2                !
 ! A26   A(4,5,7)              106.7193         estimate D2E/DX2                !
 ! A27   A(4,5,8)              112.2294         estimate D2E/DX2                !
 ! A28   A(6,5,7)              103.7465         estimate D2E/DX2                !
 ! A29   A(6,5,8)              114.1831         estimate D2E/DX2                !
 ! A30   A(7,5,8)              110.5095         estimate D2E/DX2                !
 ! A31   A(5,6,23)             110.4044         estimate D2E/DX2                !
 ! A32   A(5,6,24)             112.5772         estimate D2E/DX2                !
 ! A33   A(5,6,25)             114.0337         estimate D2E/DX2                !
 ! A34   A(23,6,24)            106.6768         estimate D2E/DX2                !
 ! A35   A(23,6,25)            105.9771         estimate D2E/DX2                !
 ! A36   A(24,6,25)            106.689          estimate D2E/DX2                !
 ! A37   A(5,7,26)             111.0281         estimate D2E/DX2                !
 ! A38   A(5,7,27)             112.3148         estimate D2E/DX2                !
 ! A39   A(5,7,28)             111.3237         estimate D2E/DX2                !
 ! A40   A(26,7,27)            106.1977         estimate D2E/DX2                !
 ! A41   A(26,7,28)            106.9969         estimate D2E/DX2                !
 ! A42   A(27,7,28)            108.706          estimate D2E/DX2                !
 ! A43   A(5,8,9)              108.9366         estimate D2E/DX2                !
 ! A44   A(5,8,10)             111.6439         estimate D2E/DX2                !
 ! A45   A(5,8,11)             115.5214         estimate D2E/DX2                !
 ! A46   A(9,8,10)             104.9226         estimate D2E/DX2                !
 ! A47   A(9,8,11)             108.057          estimate D2E/DX2                !
 ! A48   A(10,8,11)            107.1818         estimate D2E/DX2                !
 ! A49   A(8,9,29)             111.2509         estimate D2E/DX2                !
 ! A50   A(8,9,30)             111.7642         estimate D2E/DX2                !
 ! A51   A(8,9,31)             112.1123         estimate D2E/DX2                !
 ! A52   A(29,9,30)            106.8064         estimate D2E/DX2                !
 ! A53   A(29,9,31)            107.8991         estimate D2E/DX2                !
 ! A54   A(30,9,31)            106.7219         estimate D2E/DX2                !
 ! A55   A(8,10,32)            112.7282         estimate D2E/DX2                !
 ! A56   A(8,10,33)            111.6132         estimate D2E/DX2                !
 ! A57   A(8,10,34)            110.9557         estimate D2E/DX2                !
 ! A58   A(32,10,33)           107.4301         estimate D2E/DX2                !
 ! A59   A(32,10,34)           105.7561         estimate D2E/DX2                !
 ! A60   A(33,10,34)           108.0565         estimate D2E/DX2                !
 ! A61   A(8,11,12)            115.9153         estimate D2E/DX2                !
 ! A62   A(8,11,14)            114.1738         estimate D2E/DX2                !
 ! A63   A(8,11,35)            105.88           estimate D2E/DX2                !
 ! A64   A(12,11,14)           110.8732         estimate D2E/DX2                !
 ! A65   A(12,11,35)           103.8926         estimate D2E/DX2                !
 ! A66   A(14,11,35)           104.7642         estimate D2E/DX2                !
 ! A67   A(11,12,13)           111.8207         estimate D2E/DX2                !
 ! A68   A(11,12,36)           112.4692         estimate D2E/DX2                !
 ! A69   A(11,12,37)           112.4217         estimate D2E/DX2                !
 ! A70   A(13,12,36)           106.793          estimate D2E/DX2                !
 ! A71   A(13,12,37)           106.3237         estimate D2E/DX2                !
 ! A72   A(36,12,37)           106.5889         estimate D2E/DX2                !
 ! A73   A(12,13,38)           107.6481         estimate D2E/DX2                !
 ! A74   A(2,14,11)            114.1426         estimate D2E/DX2                !
 ! A75   A(2,14,39)            112.6118         estimate D2E/DX2                !
 ! A76   A(2,14,40)            108.1189         estimate D2E/DX2                !
 ! A77   A(11,14,39)           111.2888         estimate D2E/DX2                !
 ! A78   A(11,14,40)           107.1087         estimate D2E/DX2                !
 ! A79   A(39,14,40)           102.72           estimate D2E/DX2                !
 ! D1    D(15,1,2,3)            55.5774         estimate D2E/DX2                !
 ! D2    D(15,1,2,14)         -173.6826         estimate D2E/DX2                !
 ! D3    D(15,1,2,18)          -57.6033         estimate D2E/DX2                !
 ! D4    D(16,1,2,3)           -65.3121         estimate D2E/DX2                !
 ! D5    D(16,1,2,14)           65.4278         estimate D2E/DX2                !
 ! D6    D(16,1,2,18)         -178.4929         estimate D2E/DX2                !
 ! D7    D(17,1,2,3)           173.8177         estimate D2E/DX2                !
 ! D8    D(17,1,2,14)          -55.4423         estimate D2E/DX2                !
 ! D9    D(17,1,2,18)           60.637          estimate D2E/DX2                !
 ! D10   D(1,2,3,4)            171.4479         estimate D2E/DX2                !
 ! D11   D(1,2,3,19)            45.0371         estimate D2E/DX2                !
 ! D12   D(1,2,3,20)           -67.4217         estimate D2E/DX2                !
 ! D13   D(14,2,3,4)            44.5927         estimate D2E/DX2                !
 ! D14   D(14,2,3,19)          -81.8181         estimate D2E/DX2                !
 ! D15   D(14,2,3,20)          165.7231         estimate D2E/DX2                !
 ! D16   D(18,2,3,4)           -76.78           estimate D2E/DX2                !
 ! D17   D(18,2,3,19)          156.8092         estimate D2E/DX2                !
 ! D18   D(18,2,3,20)           44.3504         estimate D2E/DX2                !
 ! D19   D(1,2,14,11)          166.1929         estimate D2E/DX2                !
 ! D20   D(1,2,14,39)          -65.66           estimate D2E/DX2                !
 ! D21   D(1,2,14,40)           47.1237         estimate D2E/DX2                !
 ! D22   D(3,2,14,11)          -66.8768         estimate D2E/DX2                !
 ! D23   D(3,2,14,39)           61.2703         estimate D2E/DX2                !
 ! D24   D(3,2,14,40)          174.054          estimate D2E/DX2                !
 ! D25   D(18,2,14,11)          53.144          estimate D2E/DX2                !
 ! D26   D(18,2,14,39)        -178.7089         estimate D2E/DX2                !
 ! D27   D(18,2,14,40)         -65.9253         estimate D2E/DX2                !
 ! D28   D(2,3,4,5)            -68.0082         estimate D2E/DX2                !
 ! D29   D(2,3,4,21)           171.5007         estimate D2E/DX2                !
 ! D30   D(2,3,4,22)            60.0925         estimate D2E/DX2                !
 ! D31   D(19,3,4,5)            58.5906         estimate D2E/DX2                !
 ! D32   D(19,3,4,21)          -61.9005         estimate D2E/DX2                !
 ! D33   D(19,3,4,22)         -173.3087         estimate D2E/DX2                !
 ! D34   D(20,3,4,5)           170.6541         estimate D2E/DX2                !
 ! D35   D(20,3,4,21)           50.1631         estimate D2E/DX2                !
 ! D36   D(20,3,4,22)          -61.2451         estimate D2E/DX2                !
 ! D37   D(3,4,5,6)            -40.204          estimate D2E/DX2                !
 ! D38   D(3,4,5,7)           -151.6057         estimate D2E/DX2                !
 ! D39   D(3,4,5,8)             87.1986         estimate D2E/DX2                !
 ! D40   D(21,4,5,6)            78.6905         estimate D2E/DX2                !
 ! D41   D(21,4,5,7)           -32.7112         estimate D2E/DX2                !
 ! D42   D(21,4,5,8)          -153.9069         estimate D2E/DX2                !
 ! D43   D(22,4,5,6)          -168.6926         estimate D2E/DX2                !
 ! D44   D(22,4,5,7)            79.9057         estimate D2E/DX2                !
 ! D45   D(22,4,5,8)           -41.29           estimate D2E/DX2                !
 ! D46   D(4,5,6,23)           -53.3717         estimate D2E/DX2                !
 ! D47   D(4,5,6,24)          -172.4672         estimate D2E/DX2                !
 ! D48   D(4,5,6,25)            65.8005         estimate D2E/DX2                !
 ! D49   D(7,5,6,23)            59.9958         estimate D2E/DX2                !
 ! D50   D(7,5,6,24)           -59.0997         estimate D2E/DX2                !
 ! D51   D(7,5,6,25)           179.1681         estimate D2E/DX2                !
 ! D52   D(8,5,6,23)          -179.6563         estimate D2E/DX2                !
 ! D53   D(8,5,6,24)            61.2482         estimate D2E/DX2                !
 ! D54   D(8,5,6,25)           -60.484          estimate D2E/DX2                !
 ! D55   D(4,5,7,26)            58.7069         estimate D2E/DX2                !
 ! D56   D(4,5,7,27)           -60.0326         estimate D2E/DX2                !
 ! D57   D(4,5,7,28)           177.8018         estimate D2E/DX2                !
 ! D58   D(6,5,7,26)           -56.2041         estimate D2E/DX2                !
 ! D59   D(6,5,7,27)          -174.9436         estimate D2E/DX2                !
 ! D60   D(6,5,7,28)            62.8908         estimate D2E/DX2                !
 ! D61   D(8,5,7,26)          -179.0094         estimate D2E/DX2                !
 ! D62   D(8,5,7,27)            62.2511         estimate D2E/DX2                !
 ! D63   D(8,5,7,28)           -59.9145         estimate D2E/DX2                !
 ! D64   D(4,5,8,9)           -159.7071         estimate D2E/DX2                !
 ! D65   D(4,5,8,10)            84.8861         estimate D2E/DX2                !
 ! D66   D(4,5,8,11)           -37.9085         estimate D2E/DX2                !
 ! D67   D(6,5,8,9)            -35.193          estimate D2E/DX2                !
 ! D68   D(6,5,8,10)          -150.5998         estimate D2E/DX2                !
 ! D69   D(6,5,8,11)            86.6055         estimate D2E/DX2                !
 ! D70   D(7,5,8,9)             81.3005         estimate D2E/DX2                !
 ! D71   D(7,5,8,10)           -34.1063         estimate D2E/DX2                !
 ! D72   D(7,5,8,11)          -156.9009         estimate D2E/DX2                !
 ! D73   D(5,8,9,29)           -55.2465         estimate D2E/DX2                !
 ! D74   D(5,8,9,30)          -174.5418         estimate D2E/DX2                !
 ! D75   D(5,8,9,31)            65.6813         estimate D2E/DX2                !
 ! D76   D(10,8,9,29)           64.4223         estimate D2E/DX2                !
 ! D77   D(10,8,9,30)          -54.873          estimate D2E/DX2                !
 ! D78   D(10,8,9,31)         -174.6499         estimate D2E/DX2                !
 ! D79   D(11,8,9,29)          178.529          estimate D2E/DX2                !
 ! D80   D(11,8,9,30)           59.2337         estimate D2E/DX2                !
 ! D81   D(11,8,9,31)          -60.5432         estimate D2E/DX2                !
 ! D82   D(5,8,10,32)           61.7043         estimate D2E/DX2                !
 ! D83   D(5,8,10,33)          -59.312          estimate D2E/DX2                !
 ! D84   D(5,8,10,34)         -179.8921         estimate D2E/DX2                !
 ! D85   D(9,8,10,32)          -56.1403         estimate D2E/DX2                !
 ! D86   D(9,8,10,33)         -177.1566         estimate D2E/DX2                !
 ! D87   D(9,8,10,34)           62.2633         estimate D2E/DX2                !
 ! D88   D(11,8,10,32)        -170.8594         estimate D2E/DX2                !
 ! D89   D(11,8,10,33)          68.1243         estimate D2E/DX2                !
 ! D90   D(11,8,10,34)         -52.4558         estimate D2E/DX2                !
 ! D91   D(5,8,11,12)           90.0439         estimate D2E/DX2                !
 ! D92   D(5,8,11,14)          -40.6729         estimate D2E/DX2                !
 ! D93   D(5,8,11,35)         -155.3885         estimate D2E/DX2                !
 ! D94   D(9,8,11,12)         -147.6873         estimate D2E/DX2                !
 ! D95   D(9,8,11,14)           81.5959         estimate D2E/DX2                !
 ! D96   D(9,8,11,35)          -33.1197         estimate D2E/DX2                !
 ! D97   D(10,8,11,12)         -35.0862         estimate D2E/DX2                !
 ! D98   D(10,8,11,14)        -165.803          estimate D2E/DX2                !
 ! D99   D(10,8,11,35)          79.4814         estimate D2E/DX2                !
 ! D100  D(8,11,12,13)         179.2995         estimate D2E/DX2                !
 ! D101  D(8,11,12,36)          59.1423         estimate D2E/DX2                !
 ! D102  D(8,11,12,37)         -61.1808         estimate D2E/DX2                !
 ! D103  D(14,11,12,13)        -48.4358         estimate D2E/DX2                !
 ! D104  D(14,11,12,36)       -168.593          estimate D2E/DX2                !
 ! D105  D(14,11,12,37)         71.0839         estimate D2E/DX2                !
 ! D106  D(35,11,12,13)         63.6056         estimate D2E/DX2                !
 ! D107  D(35,11,12,36)        -56.5516         estimate D2E/DX2                !
 ! D108  D(35,11,12,37)       -176.8747         estimate D2E/DX2                !
 ! D109  D(8,11,14,2)           89.041          estimate D2E/DX2                !
 ! D110  D(8,11,14,39)         -39.7768         estimate D2E/DX2                !
 ! D111  D(8,11,14,40)        -151.3194         estimate D2E/DX2                !
 ! D112  D(12,11,14,2)         -44.1054         estimate D2E/DX2                !
 ! D113  D(12,11,14,39)       -172.9232         estimate D2E/DX2                !
 ! D114  D(12,11,14,40)         75.5341         estimate D2E/DX2                !
 ! D115  D(35,11,14,2)        -155.589          estimate D2E/DX2                !
 ! D116  D(35,11,14,39)         75.5931         estimate D2E/DX2                !
 ! D117  D(35,11,14,40)        -35.9495         estimate D2E/DX2                !
 ! D118  D(11,12,13,38)        -57.8145         estimate D2E/DX2                !
 ! D119  D(36,12,13,38)         65.6111         estimate D2E/DX2                !
 ! D120  D(37,12,13,38)        179.1349         estimate D2E/DX2                !
 --------------------------------------------------------------------------------
 Trust Radius=3.00D-01 FncErr=1.00D-07 GrdErr=1.00D-06 EigMax=2.50D+02 EigMin=1.00D-04
 Number of steps in this run=    240 maximum allowed number of steps=    240.
 GradGradGradGradGradGradGradGradGradGradGradGradGradGradGradGradGradGrad

                          Input orientation:                          
 ---------------------------------------------------------------------
 Center     Atomic      Atomic             Coordinates (Angstroms)
 Number     Number       Type             X           Y           Z
 ---------------------------------------------------------------------
      1          6           0        0.773180    0.014350   -0.084130
      2          6           0        2.299690    0.002190   -0.006050
      3          6           0        2.843010   -1.359710   -0.460490
      4          6           0        4.359690   -1.503660   -0.643980
      5          6           0        4.973460   -0.698790   -1.821260
      6          6           0        4.010970   -0.781420   -3.044500
      7          6           0        6.234770   -1.481680   -2.289490
      8          6           0        5.368430    0.803690   -1.392240
      9          6           0        5.477770    1.683830   -2.674520
     10          6           0        6.783960    0.862780   -0.743020
     11          6           0        4.361330    1.517020   -0.389100
     12          6           0        4.658300    1.321620    1.126950
     13          8           0        3.715190    2.008350    1.943970
     14          6           0        2.874010    1.254980   -0.695480
     15          1           0        0.362210   -0.814700    0.501210
     16          1           0        0.418110   -0.073670   -1.114630
     17          1           0        0.378840    0.943330    0.342180
     18          1           0        2.507170    0.067660    1.064740
     19          1           0        2.331950   -1.678280   -1.375990
     20          1           0        2.535370   -2.104490    0.286120
     21          1           0        4.541220   -2.574310   -0.814770
     22          1           0        4.899380   -1.307720    0.285580
     23          1           0        3.778860   -1.827660   -3.278510
     24          1           0        4.443660   -0.346140   -3.949180
     25          1           0        3.052010   -0.289280   -2.888410
     26          1           0        5.972890   -2.500080   -2.600120
     27          1           0        6.977670   -1.587000   -1.493230
     28          1           0        6.708210   -0.996360   -3.149650
     29          1           0        6.182630    1.251420   -3.394390
     30          1           0        5.838190    2.692860   -2.445200
     31          1           0        4.512790    1.800850   -3.177390
     32          1           0        7.575930    0.539730   -1.425530
     33          1           0        6.844320    0.233140    0.150990
     34          1           0        7.040490    1.889780   -0.453700
     35          1           0        4.494220    2.599670   -0.547410
     36          1           0        5.646170    1.688890    1.409070
     37          1           0        4.618260    0.274210    1.426920
     38          1           0        3.745170    2.952160    1.700640
     39          1           0        2.682320    1.267670   -1.771140
     40          1           0        2.311200    2.129920   -0.338880
 ---------------------------------------------------------------------
                    Distance matrix (angstroms):
                    1          2          3          4          5
     1  C    0.000000
     2  C    1.528554   0.000000
     3  C    2.512744   1.535084   0.000000
     4  C    3.934570   2.630236   1.534506   0.000000
     5  C    4.600928   3.306873   2.612916   1.552584   0.000000
     6  C    4.458736   3.574172   2.894073   2.530955   1.558695
     7  C    6.077062   4.785480   3.855406   2.494817   1.556618
     8  C    4.842575   3.461371   3.453434   2.627035   1.611678
     9  C    5.624096   4.477593   4.594238   3.941229   2.580554
    10  C    6.106017   4.625194   4.533252   3.389238   2.622787
    11  C    3.902031   2.586851   3.253608   3.031415   2.708431
    12  C    4.274322   2.930465   3.606213   3.347771   3.587942
    13  O    4.092023   3.135426   4.229179   4.409884   4.805081
    14  C    2.515233   1.540987   2.625411   3.133687   3.080956
    15  H    1.094917   2.162973   2.715929   4.214970   5.164390
    16  H    1.093505   2.185188   2.821691   4.219293   4.652023
    17  H    1.095558   2.167181   3.467046   4.775713   5.337374
    18  H    2.080737   1.092669   2.115774   2.969950   3.872858
    19  H    2.638875   2.168353   1.095815   2.162882   2.852234
    20  H    2.780626   2.139862   1.098529   2.134063   3.515868
    21  H    4.629592   3.509535   2.117707   1.099279   2.171964
    22  H    4.348572   2.925628   2.188146   1.092584   2.194324
    23  H    4.757224   4.030545   3.005999   2.717184   2.196587
    24  H    5.342377   4.501801   3.969932   3.503034   2.221057
    25  H    3.626189   2.993149   2.661634   2.867440   2.235728
    26  H    6.299964   5.146159   3.959117   2.724289   2.202301
    27  H    6.560913   5.159528   4.267742   2.753541   2.216614
    28  H    6.755999   5.505849   4.722645   3.471496   2.205113
    29  H    6.461448   5.302702   5.155466   4.298643   2.782112
    30  H    6.197047   5.070517   5.416041   4.800118   3.555327
    31  H    5.171511   4.265019   4.489861   4.166700   2.880886
    32  H    6.953617   5.490226   5.190347   3.889790   2.909190
    33  H    6.079629   4.553203   4.349892   3.133981   2.873740
    34  H    6.552327   5.122360   5.308302   4.328779   3.583787
    35  H    4.554629   3.443245   4.290774   4.106670   3.568221
    36  H    5.364677   4.005802   4.543888   4.007795   4.072909
    37  H    4.139497   2.739191   3.063254   2.741588   3.409336
    38  H    4.544101   3.701962   4.906791   5.072397   5.219378
    39  H    2.839301   2.205309   2.940536   3.429917   3.019735
    40  H    2.627934   2.153635   3.532015   4.182380   4.157725
                    6          7          8          9         10
     6  C    0.000000
     7  C    2.450651   0.000000
     8  C    2.661810   2.603559   0.000000
     9  C    2.892377   3.277461   1.559116   0.000000
    10  C    3.961020   2.861760   1.558430   2.472033   0.000000
    11  C    3.529409   4.014158   1.590402   2.549001   2.534250
    12  C    4.716228   4.692101   2.668118   3.905624   2.868057
    13  O    5.723210   6.037448   3.913401   4.954034   4.236696
    14  C    3.310211   4.617887   2.628929   3.298496   3.929859
    15  H    5.087889   6.536041   5.591653   6.518962   6.752845
    16  H    4.139318   6.098879   5.035126   5.578729   6.445082
    17  H    5.257065   6.862818   5.284290   5.970587   6.496900
    18  H    4.457376   5.248458   3.842564   5.041680   4.710748
    19  H    2.531283   4.013121   3.921817   4.783947   5.165078
    20  H    3.875686   4.550519   4.393248   5.636885   5.283402
    21  H    2.909865   2.497349   3.525426   4.739995   4.104707
    22  H    3.486502   2.905945   2.737360   4.248070   3.052987
    23  H    1.096929   2.670086   3.606764   3.947361   4.764221
    24  H    1.093222   2.692972   2.952160   2.610540   4.149452
    25  H    1.089114   3.451157   2.966296   3.134202   4.456163
    26  H    2.645826   1.096454   3.569208   4.213761   3.926256
    27  H    3.443357   1.094085   2.883618   3.787278   2.569389
    28  H    2.707833   1.095243   2.850207   2.987164   3.042040
    29  H    2.995158   2.948450   2.207258   1.096366   2.746343
    30  H    3.970959   4.196225   2.213224   1.095733   2.672282
    31  H    2.633933   3.811638   2.216576   1.094421   3.458952
    32  H    4.132244   2.575119   2.223475   2.696519   1.094257
    33  H    4.389574   3.044356   2.210280   3.457668   1.095146
    34  H    4.798494   3.922506   2.203686   2.723334   1.097380
    35  H    4.230929   4.766736   2.168761   2.516094   2.880618
    36  H    5.348887   4.906965   2.950942   4.087064   2.570703
    37  H    4.634302   4.416781   2.964923   4.421266   3.121748
    38  H    6.043726   6.463604   4.100830   4.873663   4.423938
    39  H    2.754183   4.521893   2.752095   2.967124   4.247872
    40  H    4.322673   5.678286   3.495012   3.959972   4.666321
                   11         12         13         14         15
    11  C    0.000000
    12  C    1.557170   0.000000
    13  O    2.470246   1.424281   0.000000
    14  C    1.540991   2.551349   2.870862   0.000000
    15  H    4.714078   4.838574   4.614504   3.467677   0.000000
    16  H    4.313429   4.995070   4.955863   2.823551   1.778536
    17  H    4.089513   4.367235   3.851134   2.720246   1.765287
    18  H    2.766262   2.490712   2.449211   2.154687   2.386834
    19  H    3.911813   4.547088   5.150410   3.059565   2.854737
    20  H    4.111616   4.117288   4.588670   3.516284   2.536227
    21  H    4.117346   4.354567   5.412370   4.178191   4.721457
    22  H    2.953616   2.771182   3.892157   3.410577   4.568969
    23  H    4.458121   5.486297   6.480226   4.122313   5.194792
    24  H    4.018994   5.347391   6.387762   3.951449   6.056711
    25  H    3.350163   4.615006   5.391735   2.688004   4.358969
    26  H    4.860332   5.497689   6.787629   5.227924   6.628611
    27  H    4.207051   4.550263   5.948501   5.055025   6.952593
    28  H    4.409712   5.278681   6.628078   5.078639   7.323489
    29  H    3.524123   4.771900   5.929527   4.269789   7.302181
    30  H    2.791283   4.004085   4.923464   3.730333   7.139374
    31  H    2.806788   4.333379   5.187249   3.023814   6.131926
    32  H    3.516097   3.954627   5.330637   4.811716   7.588449
    33  H    2.846978   2.629823   4.019652   4.186171   6.575589
    34  H    2.705739   2.914805   4.101280   4.221491   7.268115
    35  H    1.102204   2.112774   2.676476   2.110734   5.461779
    36  H    2.216702   1.091039   2.029004   3.507461   5.917128
    37  H    2.215518   1.090254   2.022404   2.917002   4.489613
    38  H    2.608887   1.954888   0.975134   3.062798   5.203103
    39  H    2.188900   3.508038   3.926509   1.092680   3.857817
    40  H    2.140374   2.882861   2.682792   1.099745   3.629752
                   16         17         18         19         20
    16  H    0.000000
    17  H    1.777112   0.000000
    18  H    3.022218   2.412194   0.000000
    19  H    2.511148   3.693181   3.006023   0.000000
    20  H    3.251018   3.734029   2.307657   1.727902   0.000000
    21  H    4.831475   5.571152   3.827522   2.449227   2.335835
    22  H    4.854405   5.050318   2.867303   3.080556   2.494672
    23  H    4.365031   5.687523   4.906450   2.394879   3.785431
    24  H    4.930919   6.049898   5.390790   3.585418   4.967004
    25  H    3.182799   4.370569   4.006451   2.176056   3.693175
    26  H    6.240972   7.197749   5.660009   3.928141   4.505931
    27  H    6.742502   7.301771   5.409850   4.648095   4.813306
    28  H    6.675179   7.484397   6.044995   4.771010   5.517704
    29  H    6.338995   6.909476   5.898655   5.242596   6.173394
    30  H    6.229075   6.374547   5.505184   5.704717   6.432985
    31  H    4.953303   5.496568   5.002212   4.483910   5.581915
    32  H    7.190779   7.421981   5.667153   5.693975   5.943811
    33  H    6.556836   6.507177   4.435447   5.132901   4.904062
    34  H    6.938867   6.775454   5.116324   5.979299   6.066105
    35  H    4.907459   4.524509   3.599787   4.864444   5.163428
    36  H    6.066984   5.425761   3.549686   5.484382   5.032676
    37  H    4.921560   4.426857   2.151869   4.110442   3.361260
    38  H    5.305725   4.148854   3.202710   5.736185   5.388339
    39  H    2.712351   3.142823   3.084302   2.992912   3.952895
    40  H    3.006890   2.367668   2.502293   3.946950   4.286153
                   21         22         23         24         25
    21  H    0.000000
    22  H    1.715605   0.000000
    23  H    2.684901   3.772087   0.000000
    24  H    3.846919   4.366407   1.756889   0.000000
    25  H    3.426236   3.811064   1.745595   1.750759   0.000000
    26  H    2.289686   3.301728   2.392933   2.966136   3.674546
    27  H    2.715028   2.749809   3.671175   3.740672   4.363647
    28  H    3.554917   3.894819   3.047746   2.488015   3.733096
    29  H    4.897436   4.662414   3.907975   2.425697   3.525699
    30  H    5.664231   4.933879   5.036899   3.666359   4.105167
    31  H    4.972405   4.669563   3.703372   2.282543   2.566326
    32  H    4.390870   3.674900   4.843120   4.118821   4.826295
    33  H    3.757491   2.484986   5.040378   4.786453   4.887994
    34  H    5.128823   3.918532   5.695361   4.895022   5.155976
    35  H    5.181096   4.015685   5.250895   4.500266   3.988268
    36  H    4.933686   3.286274   6.150315   5.856468   5.395476
    37  H    3.625628   1.970834   5.221448   5.414589   4.625228
    38  H    6.123957   4.634779   6.902155   6.579296   5.660988
    39  H    4.373896   3.972164   3.613258   3.232733   1.951680
    40  H    5.227738   4.348102   5.143723   4.869551   3.591856
                   26         27         28         29         30
    26  H    0.000000
    27  H    1.751714   0.000000
    28  H    1.761775   1.779099   0.000000
    29  H    3.840392   3.507581   2.321346   0.000000
    30  H    5.196996   4.530106   3.855325   1.759929   0.000000
    31  H    4.578551   4.515480   3.555984   1.771250   1.757404
    32  H    3.631782   2.210312   2.466800   2.514796   2.948802
    33  H    3.974731   2.456451   3.524829   3.747592   3.715202
    34  H    5.001776   3.629403   3.963377   3.129071   2.461003
    35  H    5.692761   4.958861   4.960326   3.574046   2.327348
    36  H    5.807566   4.574680   5.396334   4.853081   3.987509
    37  H    5.074323   4.190250   5.189146   5.162095   4.725612
    38  H    7.292887   6.422915   6.920674   5.898564   4.651447
    39  H    5.070601   5.164921   4.820157   3.858416   3.527753
    40  H    6.321240   6.076509   6.083400   5.009578   4.146462
                   31         32         33         34         35
    31  H    0.000000
    32  H    3.747301   0.000000
    33  H    4.355670   1.764842   0.000000
    34  H    3.716943   1.747508   1.774426   0.000000
    35  H    2.748682   3.809381   3.407521   2.645036   0.000000
    36  H    4.725749   3.616559   2.266614   2.335465   2.446288
    37  H    4.851951   4.117619   2.566131   3.466121   3.053052
    38  H    5.070496   5.501589   4.404454   4.077863   2.395632
    39  H    2.369059   4.959512   4.699689   4.595249   2.560219
    40  H    3.607274   5.605970   4.938312   4.736775   2.242705
                   36         37         38         39         40
    36  H    0.000000
    37  H    1.748782   0.000000
    38  H    2.301014   2.829951   0.000000
    39  H    4.367559   3.868128   4.002551   0.000000
    40  H    3.791024   3.447352   2.625260   1.712476   0.000000
 Stoichiometry    C13H26O
 Framework group  C1[X(C13H26O)]
 Deg. of freedom   114
 Full point group                 C1      NOp   1
 Largest Abelian subgroup         C1      NOp   1
 Largest concise Abelian subgroup C1      NOp   1
                         Standard orientation:                         
 ---------------------------------------------------------------------
 Center     Atomic      Atomic             Coordinates (Angstroms)
 Number     Number       Type             X           Y           Z
 ---------------------------------------------------------------------
      1          6           0        3.052106   -1.647661    0.536335
      2          6           0        1.905087   -0.826677   -0.052571
      3          6           0        0.946634   -1.737780   -0.832150
      4          6           0       -0.373815   -1.134475   -1.329286
      5          6           0       -1.396487   -0.753736   -0.224887
      6          6           0       -1.388832   -1.860527    0.872604
      7          6           0       -2.810986   -0.875528   -0.863180
      8          6           0       -1.157979    0.737050    0.339185
      9          6           0       -1.834883    0.863059    1.738029
     10          6           0       -1.864991    1.806736   -0.546596
     11          6           0        0.362712    1.179077    0.485784
     12          6           0        0.994476    1.867393   -0.759958
     13          8           0        2.349413    2.240404   -0.528475
     14          6           0        1.290193    0.077102    1.033583
     15          1           0        3.559895   -2.204288   -0.258121
     16          1           0        2.699364   -2.356094    1.290953
     17          1           0        3.793568   -0.986676    0.998484
     18          1           0        2.392568   -0.193565   -0.797861
     19          1           0        0.739236   -2.644025   -0.252050
     20          1           0        1.486041   -2.107343   -1.714890
     21          1           0       -0.824799   -1.895512   -1.981858
     22          1           0       -0.204196   -0.296326   -2.009341
     23          1           0       -1.549918   -2.847408    0.421637
     24          1           0       -2.179864   -1.721626    1.614299
     25          1           0       -0.452266   -1.932097    1.423868
     26          1           0       -2.988996   -1.891805   -1.234264
     27          1           0       -2.937651   -0.210292   -1.722505
     28          1           0       -3.597631   -0.659126   -0.132484
     29          1           0       -2.896800    0.594423    1.691275
     30          1           0       -1.783923    1.887586    2.123232
     31          1           0       -1.358224    0.221481    2.485647
     32          1           0       -2.951439    1.679739   -0.576610
     33          1           0       -1.502735    1.778370   -1.579703
     34          1           0       -1.693807    2.816987   -0.153746
     35          1           0        0.375019    1.965880    1.257562
     36          1           0        0.462697    2.775040   -1.049361
     37          1           0        1.000788    1.217758   -1.635508
     38          1           0        2.364520    2.834630    0.244540
     39          1           0        0.802666   -0.493058    1.828055
     40          1           0        2.111170    0.579925    1.565188
 ---------------------------------------------------------------------
 Rotational constants (GHZ):           0.8421984           0.6142568           0.4680714
 Standard basis: 6-31G(2df,p) (6D, 7F)
 There are   564 symmetry adapted cartesian basis functions of A   symmetry.
 There are   522 symmetry adapted basis functions of A   symmetry.
   522 basis functions,   798 primitive gaussians,   564 cartesian basis functions
    56 alpha electrons       56 beta electrons
       nuclear repulsion energy      1065.0770093238 Hartrees.
 NAtoms=   40 NActive=   40 NUniq=   40 SFac= 1.00D+00 NAtFMM=   60 NAOKFM=F Big=F
 Integral buffers will be    131072 words long.
 Raffenetti 2 integral format.
 Two-electron integral symmetry is turned on.
 One-electron integrals computed using PRISM.
 PrsmSu:  requested number of processors reduced to:  12 ShMem   1 Linda.
 NBasis=   522 RedAO= T EigKep=  4.20D-04  NBF=   522
 NBsUse=   522 1.00D-06 EigRej= -1.00D+00 NBFU=   522
 ExpMin= 1.61D-01 ExpMax= 5.48D+03 ExpMxC= 8.25D+02 IAcc=3 IRadAn=         5 AccDes= 0.00D+00
 Harris functional with IExCor=  402 and IRadAn=       5 diagonalized for initial guess.
 HarFok:  IExCor=  402 AccDes= 0.00D+00 IRadAn=         5 IDoV= 1 UseB2=F ITyADJ=14
 ICtDFT=  3500011 ScaDFX=  1.000000  1.000000  1.000000  1.000000
 FoFCou: FMM=F IPFlag=           0 FMFlag=      100000 FMFlg1=           0
         NFxFlg=           0 DoJE=T BraDBF=F KetDBF=T FulRan=T
         wScrn=  0.000000 ICntrl=       500 IOpCl=  0 I1Cent=   200000004 NGrid=           0
         NMat0=    1 NMatS0=      1 NMatT0=    0 NMatD0=    1 NMtDS0=    0 NMtDT0=    0
 Petite list used in FoFCou.
 Requested convergence on RMS density matrix=1.00D-08 within 128 cycles.
 Requested convergence on MAX density matrix=1.00D-06.
 Requested convergence on             energy=1.00D-06.
 No special actions if energy rises.
 Integral accuracy reduced to 1.0D-05 until final iterations.
 Initial convergence to 1.0D-05 achieved.  Increase integral accuracy.
 SCF Done:  E(RB3LYP) =  -586.287855097     A.U. after   12 cycles
            NFock= 12  Conv=0.64D-08     -V/T= 2.0087

 **********************************************************************

            Population analysis using the SCF density.

 **********************************************************************

 Orbital symmetries:
       Occupied  (A) (A) (A) (A) (A) (A) (A) (A) (A) (A) (A) (A)
                 (A) (A) (A) (A) (A) (A) (A) (A) (A) (A) (A) (A)
                 (A) (A) (A) (A) (A) (A) (A) (A) (A) (A) (A) (A)
                 (A) (A) (A) (A) (A) (A) (A) (A) (A) (A) (A) (A)
                 (A) (A) (A) (A) (A) (A) (A) (A)
       Virtual   (A) (A) (A) (A) (A) (A) (A) (A) (A) (A) (A) (A)
                 (A) (A) (A) (A) (A) (A) (A) (A) (A) (A) (A) (A)
                 (A) (A) (A) (A) (A) (A) (A) (A) (A) (A) (A) (A)
                 (A) (A) (A) (A) (A) (A) (A) (A) (A) (A) (A) (A)
                 (A) (A) (A) (A) (A) (A) (A) (A) (A) (A) (A) (A)
                 (A) (A) (A) (A) (A) (A) (A) (A) (A) (A) (A) (A)
                 (A) (A) (A) (A) (A) (A) (A) (A) (A) (A) (A) (A)
                 (A) (A) (A) (A) (A) (A) (A) (A) (A) (A) (A) (A)
                 (A) (A) (A) (A) (A) (A) (A) (A) (A) (A) (A) (A)
                 (A) (A) (A) (A) (A) (A) (A) (A) (A) (A) (A) (A)
                 (A) (A) (A) (A) (A) (A) (A) (A) (A) (A) (A) (A)
                 (A) (A) (A) (A) (A) (A) (A) (A) (A) (A) (A) (A)
                 (A) (A) (A) (A) (A) (A) (A) (A) (A) (A) (A) (A)
                 (A) (A) (A) (A) (A) (A) (A) (A) (A) (A) (A) (A)
                 (A) (A) (A) (A) (A) (A) (A) (A) (A) (A) (A) (A)
                 (A) (A) (A) (A) (A) (A) (A) (A) (A) (A) (A) (A)
                 (A) (A) (A) (A) (A) (A) (A) (A) (A) (A) (A) (A)
                 (A) (A) (A) (A) (A) (A) (A) (A) (A) (A) (A) (A)
                 (A) (A) (A) (A) (A) (A) (A) (A) (A) (A) (A) (A)
                 (A) (A) (A) (A) (A) (A) (A) (A) (A) (A) (A) (A)
                 (A) (A) (A) (A) (A) (A) (A) (A) (A) (A) (A) (A)
                 (A) (A) (A) (A) (A) (A) (A) (A) (A) (A) (A) (A)
                 (A) (A) (A) (A) (A) (A) (A) (A) (A) (A) (A) (A)
                 (A) (A) (A) (A) (A) (A) (A) (A) (A) (A) (A) (A)
                 (A) (A) (A) (A) (A) (A) (A) (A) (A) (A) (A) (A)
                 (A) (A) (A) (A) (A) (A) (A) (A) (A) (A) (A) (A)
                 (A) (A) (A) (A) (A) (A) (A) (A) (A) (A) (A) (A)
                 (A) (A) (A) (A) (A) (A) (A) (A) (A) (A) (A) (A)
                 (A) (A) (A) (A) (A) (A) (A) (A) (A) (A) (A) (A)
                 (A) (A) (A) (A) (A) (A) (A) (A) (A) (A) (A) (A)
                 (A) (A) (A) (A) (A) (A) (A) (A) (A) (A) (A) (A)
                 (A) (A) (A) (A) (A) (A) (A) (A) (A) (A) (A) (A)
                 (A) (A) (A) (A) (A) (A) (A) (A) (A) (A) (A) (A)
                 (A) (A) (A) (A) (A) (A) (A) (A) (A) (A) (A) (A)
                 (A) (A) (A) (A) (A) (A) (A) (A) (A) (A) (A) (A)
                 (A) (A) (A) (A) (A) (A) (A) (A) (A) (A) (A) (A)
                 (A) (A) (A) (A) (A) (A) (A) (A) (A) (A) (A) (A)
                 (A) (A) (A) (A) (A) (A) (A) (A) (A) (A) (A) (A)
                 (A) (A) (A) (A) (A) (A) (A) (A) (A) (A)
 The electronic state is 1-A.
 Alpha  occ. eigenvalues --  -19.13131 -10.21740 -10.19931 -10.19519 -10.18346
 Alpha  occ. eigenvalues --  -10.17042 -10.16982 -10.16928 -10.16882 -10.16824
 Alpha  occ. eigenvalues --  -10.16688 -10.16643 -10.16531 -10.16054  -1.00865
 Alpha  occ. eigenvalues --   -0.83852  -0.79221  -0.77988  -0.72165  -0.71261
 Alpha  occ. eigenvalues --   -0.69091  -0.66835  -0.65875  -0.63259  -0.60142
 Alpha  occ. eigenvalues --   -0.58752  -0.53530  -0.50475  -0.48909  -0.47356
 Alpha  occ. eigenvalues --   -0.46641  -0.44584  -0.43949  -0.42942  -0.42036
 Alpha  occ. eigenvalues --   -0.41381  -0.40219  -0.39416  -0.38810  -0.38484
 Alpha  occ. eigenvalues --   -0.37458  -0.37175  -0.36519  -0.36081  -0.35751
 Alpha  occ. eigenvalues --   -0.35241  -0.34506  -0.33786  -0.32480  -0.30497
 Alpha  occ. eigenvalues --   -0.30151  -0.29818  -0.29274  -0.28451  -0.28435
 Alpha  occ. eigenvalues --   -0.25653
 Alpha virt. eigenvalues --    0.06295   0.07738   0.09493   0.10152   0.11422
 Alpha virt. eigenvalues --    0.11581   0.12475   0.13281   0.13942   0.14868
 Alpha virt. eigenvalues --    0.15034   0.15391   0.16579   0.16721   0.17183
 Alpha virt. eigenvalues --    0.17752   0.18126   0.19041   0.19267   0.19443
 Alpha virt. eigenvalues --    0.19744   0.20960   0.21246   0.21779   0.22163
 Alpha virt. eigenvalues --    0.22625   0.23457   0.23924   0.24070   0.24987
 Alpha virt. eigenvalues --    0.25705   0.26449   0.27731   0.28040   0.28450
 Alpha virt. eigenvalues --    0.29057   0.29956   0.30901   0.32653   0.34993
 Alpha virt. eigenvalues --    0.43266   0.44151   0.46070   0.46734   0.47402
 Alpha virt. eigenvalues --    0.47471   0.49233   0.50142   0.51398   0.52361
 Alpha virt. eigenvalues --    0.53153   0.54320   0.54735   0.55362   0.56972
 Alpha virt. eigenvalues --    0.57524   0.58109   0.58906   0.59759   0.60562
 Alpha virt. eigenvalues --    0.60767   0.62772   0.63666   0.64329   0.65063
 Alpha virt. eigenvalues --    0.65843   0.66853   0.68895   0.69131   0.70271
 Alpha virt. eigenvalues --    0.70703   0.71464   0.71889   0.72337   0.73361
 Alpha virt. eigenvalues --    0.73897   0.74174   0.74711   0.75158   0.75510
 Alpha virt. eigenvalues --    0.76307   0.76453   0.77195   0.77647   0.77970
 Alpha virt. eigenvalues --    0.79030   0.79309   0.80270   0.80804   0.81480
 Alpha virt. eigenvalues --    0.82275   0.82990   0.83532   0.84786   0.85983
 Alpha virt. eigenvalues --    0.86661   0.87206   0.88163   0.88869   0.89459
 Alpha virt. eigenvalues --    0.89937   0.91690   0.92310   0.93356   0.95125
 Alpha virt. eigenvalues --    0.95762   0.96103   0.97723   0.99342   1.00770
 Alpha virt. eigenvalues --    1.02185   1.03968   1.05640   1.07279   1.08179
 Alpha virt. eigenvalues --    1.10163   1.11167   1.14841   1.15479   1.17141
 Alpha virt. eigenvalues --    1.18936   1.20482   1.21411   1.22078   1.22830
 Alpha virt. eigenvalues --    1.23672   1.26515   1.30366   1.30698   1.31929
 Alpha virt. eigenvalues --    1.34547   1.35512   1.38032   1.38743   1.38921
 Alpha virt. eigenvalues --    1.40353   1.42107   1.43103   1.43992   1.44718
 Alpha virt. eigenvalues --    1.46053   1.47388   1.48153   1.49752   1.50426
 Alpha virt. eigenvalues --    1.51745   1.52816   1.53339   1.54242   1.54940
 Alpha virt. eigenvalues --    1.55742   1.57035   1.57994   1.58920   1.59462
 Alpha virt. eigenvalues --    1.61228   1.62100   1.62491   1.63881   1.65058
 Alpha virt. eigenvalues --    1.65195   1.68967   1.70488   1.71220   1.72862
 Alpha virt. eigenvalues --    1.73276   1.73719   1.76340   1.76472   1.79389
 Alpha virt. eigenvalues --    1.81013   1.81474   1.82354   1.84237   1.85101
 Alpha virt. eigenvalues --    1.87366   1.87729   1.88911   1.90676   1.91535
 Alpha virt. eigenvalues --    1.92172   1.93470   1.94152   1.94754   1.96194
 Alpha virt. eigenvalues --    1.97284   1.99177   1.99448   2.00180   2.01706
 Alpha virt. eigenvalues --    2.02063   2.03857   2.06374   2.06903   2.08182
 Alpha virt. eigenvalues --    2.11958   2.18518   2.23701   2.26546   2.26792
 Alpha virt. eigenvalues --    2.28557   2.29168   2.30884   2.31248   2.32066
 Alpha virt. eigenvalues --    2.33189   2.33228   2.34365   2.37928   2.38307
 Alpha virt. eigenvalues --    2.39085   2.41277   2.41741   2.43253   2.44333
 Alpha virt. eigenvalues --    2.45465   2.46823   2.48610   2.48921   2.49936
 Alpha virt. eigenvalues --    2.51747   2.52429   2.53808   2.56960   2.58501
 Alpha virt. eigenvalues --    2.59443   2.62209   2.64115   2.65027   2.65912
 Alpha virt. eigenvalues --    2.69953   2.72414   2.72960   2.74495   2.75419
 Alpha virt. eigenvalues --    2.76684   2.78179   2.79179   2.80401   2.81055
 Alpha virt. eigenvalues --    2.82588   2.82964   2.83497   2.84761   2.85369
 Alpha virt. eigenvalues --    2.85771   2.86777   2.88338   2.89344   2.90606
 Alpha virt. eigenvalues --    2.91463   2.91677   2.93233   2.93498   2.93777
 Alpha virt. eigenvalues --    2.94791   2.95019   2.96468   2.97000   2.97611
 Alpha virt. eigenvalues --    2.99521   2.99951   3.00207   3.00965   3.01753
 Alpha virt. eigenvalues --    3.01949   3.03337   3.04144   3.04985   3.05805
 Alpha virt. eigenvalues --    3.06626   3.06893   3.09474   3.09911   3.11863
 Alpha virt. eigenvalues --    3.14555   3.14770   3.17241   3.17887   3.20031
 Alpha virt. eigenvalues --    3.21141   3.21786   3.23330   3.26415   3.30141
 Alpha virt. eigenvalues --    3.30532   3.31513   3.34871   3.35777   3.38895
 Alpha virt. eigenvalues --    3.40004   3.40472   3.42466   3.43122   3.43752
 Alpha virt. eigenvalues --    3.45868   3.47145   3.47929   3.50214   3.51431
 Alpha virt. eigenvalues --    3.51847   3.52878   3.53922   3.55980   3.57710
 Alpha virt. eigenvalues --    3.58681   3.60004   3.61536   3.62012   3.62857
 Alpha virt. eigenvalues --    3.65626   3.66117   3.66701   3.67198   3.69081
 Alpha virt. eigenvalues --    3.70034   3.72268   3.73622   3.74938   3.76505
 Alpha virt. eigenvalues --    3.76801   3.78941   3.79661   3.80420   3.83472
 Alpha virt. eigenvalues --    3.83933   3.85116   3.86553   3.87067   3.89842
 Alpha virt. eigenvalues --    3.92202   3.93835   3.95086   3.97304   3.98271
 Alpha virt. eigenvalues --    3.99389   4.01051   4.05613   4.07979   4.08896
 Alpha virt. eigenvalues --    4.10080   4.11765   4.15526   4.19259   4.20661
 Alpha virt. eigenvalues --    4.24040   4.26240   4.30901   4.31551   4.33078
 Alpha virt. eigenvalues --    4.34710   4.37409   4.39208   4.40964   4.42861
 Alpha virt. eigenvalues --    4.44766   4.45581   4.45954   4.46254   4.47705
 Alpha virt. eigenvalues --    4.48605   4.49475   4.50552   4.51805   4.52157
 Alpha virt. eigenvalues --    4.53118   4.54114   4.55769   4.56786   4.58623
 Alpha virt. eigenvalues --    4.59419   4.61236   4.61827   4.62845   4.64072
 Alpha virt. eigenvalues --    4.65313   4.66182   4.68118   4.68474   4.69451
 Alpha virt. eigenvalues --    4.70065   4.71272   4.72121   4.72853   4.72941
 Alpha virt. eigenvalues --    4.74055   4.74942   4.76025   4.77464   4.77734
 Alpha virt. eigenvalues --    4.78028   4.78719   4.79454   4.80862   4.81895
 Alpha virt. eigenvalues --    4.82476   4.84265   4.85053   4.85886   4.86865
 Alpha virt. eigenvalues --    4.87625   4.88672   4.90176   4.90504   4.91998
 Alpha virt. eigenvalues --    4.92712   4.93726   4.95508   4.97221   4.98304
 Alpha virt. eigenvalues --    4.99270   4.99831   5.01901   5.04428   5.05170
 Alpha virt. eigenvalues --    5.09145   5.11601   5.12152   5.14863   5.19594
 Alpha virt. eigenvalues --    5.25167   5.27839   5.28479   5.31129   5.34145
 Alpha virt. eigenvalues --    5.37390   5.39985   5.40746   5.44234   5.46673
 Alpha virt. eigenvalues --    5.46914   5.49460   5.50283   5.51997   5.53886
 Alpha virt. eigenvalues --    5.58628   5.59495   5.62010   5.67639   5.71718
 Alpha virt. eigenvalues --    5.75578   5.80985   5.87628   5.98474   6.05137
 Alpha virt. eigenvalues --    6.07866   6.14730   6.39502   6.43423   6.79669
 Alpha virt. eigenvalues --    7.12695   7.57579  11.35885  11.56752  11.72391
 Alpha virt. eigenvalues --   11.92869  12.02202  12.14678  12.22345  12.30995
 Alpha virt. eigenvalues --   12.47628  12.92615  12.99833  13.06994  13.32885
 Alpha virt. eigenvalues --   13.50120
          Condensed to atoms (all electrons):
               1          2          3          4          5          6
     1  C    5.052027   0.386638  -0.041045   0.004106   0.000016  -0.000053
     2  C    0.386638   4.584748   0.416235  -0.025331  -0.002103  -0.003464
     3  C   -0.041045   0.416235   4.894098   0.393206  -0.020708  -0.007535
     4  C    0.004106  -0.025331   0.393206   5.003096   0.395095  -0.051109
     5  C    0.000016  -0.002103  -0.020708   0.395095   4.454749   0.384818
     6  C   -0.000053  -0.003464  -0.007535  -0.051109   0.384818   5.121537
     7  C    0.000001   0.000166   0.003169  -0.043317   0.369947  -0.054245
     8  C    0.000074  -0.003478   0.000127  -0.027335   0.412411  -0.035497
     9  C    0.000012   0.000054  -0.000104   0.004277  -0.037198  -0.014381
    10  C   -0.000000   0.000072  -0.000047  -0.001634  -0.031151   0.004138
    11  C    0.003773  -0.020585  -0.002380  -0.004469  -0.030791  -0.001575
    12  C   -0.000044   0.002221  -0.002948  -0.002969  -0.001353  -0.000136
    13  O   -0.000323  -0.006139   0.000622   0.000042   0.000010   0.000000
    14  C   -0.041233   0.423326  -0.030685  -0.006833  -0.003285  -0.001448
    15  H    0.366416  -0.020756  -0.002392   0.000098  -0.000001   0.000002
    16  H    0.369941  -0.025095  -0.007376   0.000076   0.000016  -0.000126
    17  H    0.366516  -0.018758   0.004141  -0.000169  -0.000002   0.000004
    18  H   -0.038231   0.362712  -0.044984  -0.000883  -0.000268   0.000007
    19  H   -0.009161  -0.033909   0.361811  -0.031391  -0.012169   0.003385
    20  H   -0.002475  -0.027003   0.350725  -0.027058   0.003911   0.000162
    21  H   -0.000192   0.003679  -0.025317   0.338417  -0.018388  -0.002417
    22  H    0.000011  -0.006180  -0.031737   0.350368  -0.025858   0.006126
    23  H   -0.000028   0.000374  -0.001249  -0.005318  -0.016770   0.362893
    24  H    0.000000   0.000056   0.000246   0.005385  -0.016725   0.365714
    25  H    0.000224  -0.000936   0.000778  -0.006297  -0.015718   0.363378
    26  H   -0.000000  -0.000006   0.000237  -0.008377  -0.015245  -0.005945
    27  H   -0.000000  -0.000008   0.000071  -0.003769  -0.015384   0.005570
    28  H   -0.000000   0.000001  -0.000171   0.004996  -0.017639  -0.005179
    29  H   -0.000000  -0.000004  -0.000004   0.000069  -0.003249  -0.001570
    30  H   -0.000000  -0.000006   0.000003  -0.000128   0.003720   0.000379
    31  H    0.000001   0.000122  -0.000039   0.000147  -0.007593   0.001720
    32  H   -0.000000  -0.000002  -0.000009   0.000050  -0.007796   0.000118
    33  H    0.000000  -0.000021  -0.000002   0.000917  -0.003176  -0.000044
    34  H   -0.000000  -0.000006   0.000002   0.000012   0.003618  -0.000117
    35  H   -0.000245   0.003830   0.000117  -0.000492   0.005323  -0.000121
    36  H   -0.000022  -0.000344   0.000180   0.000122  -0.000039  -0.000003
    37  H   -0.000016   0.005839  -0.001192  -0.003496   0.001798   0.000008
    38  H    0.000017   0.000515  -0.000023  -0.000013   0.000004  -0.000000
    39  H   -0.000847  -0.032569  -0.007548   0.000363  -0.001158  -0.004134
    40  H   -0.008784  -0.024493   0.005372   0.000034  -0.000043   0.000231
               7          8          9         10         11         12
     1  C    0.000001   0.000074   0.000012  -0.000000   0.003773  -0.000044
     2  C    0.000166  -0.003478   0.000054   0.000072  -0.020585   0.002221
     3  C    0.003169   0.000127  -0.000104  -0.000047  -0.002380  -0.002948
     4  C   -0.043317  -0.027335   0.004277  -0.001634  -0.004469  -0.002969
     5  C    0.369947   0.412411  -0.037198  -0.031151  -0.030791  -0.001353
     6  C   -0.054245  -0.035497  -0.014381   0.004138  -0.001575  -0.000136
     7  C    5.126996  -0.031825  -0.001151  -0.017194   0.004269   0.000030
     8  C   -0.031825   4.590240   0.353845   0.364431   0.351960  -0.024222
     9  C   -0.001151   0.353845   5.120793  -0.054367  -0.022033   0.002789
    10  C   -0.017194   0.364431  -0.054367   5.121029  -0.041886  -0.012600
    11  C    0.004269   0.351960  -0.022033  -0.041886   4.919037   0.373362
    12  C    0.000030  -0.024222   0.002789  -0.012600   0.373362   4.879302
    13  O    0.000000   0.002750  -0.000047   0.000117  -0.041816   0.324709
    14  C   -0.000338  -0.015666  -0.001904   0.004173   0.371059  -0.038964
    15  H    0.000000  -0.000001   0.000000  -0.000000  -0.000168   0.000012
    16  H    0.000000  -0.000013  -0.000001   0.000000   0.000063   0.000029
    17  H   -0.000000  -0.000002  -0.000000   0.000000   0.000126   0.000060
    18  H   -0.000000  -0.000439  -0.000020   0.000040  -0.011761   0.001635
    19  H    0.000375  -0.000306  -0.000000  -0.000010   0.000051  -0.000002
    20  H   -0.000213   0.000077   0.000002   0.000007  -0.000296  -0.000006
    21  H   -0.015759   0.004297  -0.000184  -0.000048  -0.000030   0.000155
    22  H   -0.000023  -0.010729   0.000108   0.000847   0.000146  -0.004277
    23  H   -0.007179   0.003688   0.000174  -0.000098   0.000047   0.000002
    24  H   -0.005342  -0.007738   0.001425   0.000184  -0.000062  -0.000001
    25  H    0.005712  -0.002603  -0.000519  -0.000050   0.000457   0.000012
    26  H    0.364478   0.003708  -0.000026   0.000428  -0.000109   0.000001
    27  H    0.362779  -0.008147   0.000114   0.001233   0.000052  -0.000029
    28  H    0.361559  -0.003664   0.000160  -0.001297  -0.000038  -0.000001
    29  H    0.000214  -0.019251   0.366813  -0.004969   0.002901  -0.000120
    30  H   -0.000024  -0.016278   0.362677  -0.006236  -0.006530   0.000143
    31  H    0.000001  -0.016330   0.363811   0.005787  -0.003766  -0.000001
    32  H    0.001298  -0.014391  -0.005570   0.365164   0.004363   0.000214
    33  H   -0.000657  -0.015685   0.005790   0.361841  -0.006982   0.001199
    34  H    0.000375  -0.017142  -0.006878   0.365645  -0.005080  -0.001871
    35  H   -0.000142  -0.016781  -0.017970  -0.000902   0.320581  -0.044199
    36  H    0.000015  -0.003850   0.000085   0.001432  -0.033718   0.363441
    37  H   -0.000028  -0.000462  -0.000094  -0.001714  -0.027557   0.354600
    38  H   -0.000000   0.000351  -0.000017  -0.000037  -0.001091  -0.066792
    39  H    0.000032  -0.007945   0.000187   0.000144  -0.029775   0.004921
    40  H   -0.000002   0.004348  -0.000023  -0.000189  -0.015775  -0.005736
              13         14         15         16         17         18
     1  C   -0.000323  -0.041233   0.366416   0.369941   0.366516  -0.038231
     2  C   -0.006139   0.423326  -0.020756  -0.025095  -0.018758   0.362712
     3  C    0.000622  -0.030685  -0.002392  -0.007376   0.004141  -0.044984
     4  C    0.000042  -0.006833   0.000098   0.000076  -0.000169  -0.000883
     5  C    0.000010  -0.003285  -0.000001   0.000016  -0.000002  -0.000268
     6  C    0.000000  -0.001448   0.000002  -0.000126   0.000004   0.000007
     7  C    0.000000  -0.000338   0.000000   0.000000  -0.000000  -0.000000
     8  C    0.002750  -0.015666  -0.000001  -0.000013  -0.000002  -0.000439
     9  C   -0.000047  -0.001904   0.000000  -0.000001  -0.000000  -0.000020
    10  C    0.000117   0.004173  -0.000000   0.000000   0.000000   0.000040
    11  C   -0.041816   0.371059  -0.000168   0.000063   0.000126  -0.011761
    12  C    0.324709  -0.038964   0.000012   0.000029   0.000060   0.001635
    13  O    7.865317  -0.004262  -0.000006  -0.000006   0.000160   0.011495
    14  C   -0.004262   4.964758   0.004263  -0.004532  -0.004092  -0.039801
    15  H   -0.000006   0.004263   0.613305  -0.033242  -0.031587  -0.004331
    16  H   -0.000006  -0.004532  -0.033242   0.614608  -0.033857   0.006260
    17  H    0.000160  -0.004092  -0.031587  -0.033857   0.606940  -0.003978
    18  H    0.011495  -0.039801  -0.004331   0.006260  -0.003978   0.664239
    19  H   -0.000003  -0.004253   0.000056   0.006761  -0.000005   0.006796
    20  H   -0.000001   0.005971   0.004117  -0.000449  -0.000134  -0.010606
    21  H   -0.000001   0.000176   0.000002  -0.000005   0.000003  -0.000129
    22  H    0.000030  -0.000585   0.000002   0.000003   0.000003   0.001353
    23  H   -0.000000   0.000111   0.000001  -0.000005  -0.000000   0.000003
    24  H    0.000000   0.000031  -0.000000   0.000001   0.000000   0.000002
    25  H   -0.000000  -0.002732  -0.000003   0.000566  -0.000018  -0.000039
    26  H   -0.000000   0.000004  -0.000000  -0.000000   0.000000   0.000000
    27  H   -0.000000   0.000014   0.000000  -0.000000   0.000000   0.000000
    28  H    0.000000   0.000009   0.000000   0.000000   0.000000  -0.000000
    29  H    0.000000  -0.000024   0.000000   0.000000   0.000000   0.000000
    30  H   -0.000002   0.000007  -0.000000   0.000000   0.000000   0.000000
    31  H   -0.000000   0.000730  -0.000000  -0.000001  -0.000000   0.000002
    32  H   -0.000003  -0.000110   0.000000   0.000000   0.000000   0.000000
    33  H    0.000065   0.000091   0.000000  -0.000000   0.000000  -0.000008
    34  H    0.000001   0.000107   0.000000  -0.000000  -0.000000   0.000000
    35  H   -0.001771  -0.042208   0.000004  -0.000001  -0.000006   0.000093
    36  H   -0.025607   0.006112  -0.000000   0.000000   0.000001   0.000743
    37  H   -0.016447  -0.008977   0.000014   0.000001  -0.000009  -0.001514
    38  H    0.305023  -0.001437   0.000001  -0.000000  -0.000018  -0.000682
    39  H    0.000183   0.358083  -0.000140   0.003460  -0.000120   0.006350
    40  H    0.009449   0.336228   0.000017  -0.000302   0.005911  -0.003655
              19         20         21         22         23         24
     1  C   -0.009161  -0.002475  -0.000192   0.000011  -0.000028   0.000000
     2  C   -0.033909  -0.027003   0.003679  -0.006180   0.000374   0.000056
     3  C    0.361811   0.350725  -0.025317  -0.031737  -0.001249   0.000246
     4  C   -0.031391  -0.027058   0.338417   0.350368  -0.005318   0.005385
     5  C   -0.012169   0.003911  -0.018388  -0.025858  -0.016770  -0.016725
     6  C    0.003385   0.000162  -0.002417   0.006126   0.362893   0.365714
     7  C    0.000375  -0.000213  -0.015759  -0.000023  -0.007179  -0.005342
     8  C   -0.000306   0.000077   0.004297  -0.010729   0.003688  -0.007738
     9  C   -0.000000   0.000002  -0.000184   0.000108   0.000174   0.001425
    10  C   -0.000010   0.000007  -0.000048   0.000847  -0.000098   0.000184
    11  C    0.000051  -0.000296  -0.000030   0.000146   0.000047  -0.000062
    12  C   -0.000002  -0.000006   0.000155  -0.004277   0.000002  -0.000001
    13  O   -0.000003  -0.000001  -0.000001   0.000030  -0.000000   0.000000
    14  C   -0.004253   0.005971   0.000176  -0.000585   0.000111   0.000031
    15  H    0.000056   0.004117   0.000002   0.000002   0.000001  -0.000000
    16  H    0.006761  -0.000449  -0.000005   0.000003  -0.000005   0.000001
    17  H   -0.000005  -0.000134   0.000003   0.000003  -0.000000   0.000000
    18  H    0.006796  -0.010606  -0.000129   0.001353   0.000003   0.000002
    19  H    0.652659  -0.041682  -0.003184   0.006144   0.002510  -0.000072
    20  H   -0.041682   0.668332  -0.004943  -0.002391  -0.000014  -0.000011
    21  H   -0.003184  -0.004943   0.668488  -0.038897   0.002664  -0.000162
    22  H    0.006144  -0.002391  -0.038897   0.649457  -0.000085  -0.000143
    23  H    0.002510  -0.000014   0.002664  -0.000085   0.611661  -0.032359
    24  H   -0.000072  -0.000011  -0.000162  -0.000143  -0.032359   0.609060
    25  H    0.001491   0.000036  -0.000192  -0.000078  -0.034250  -0.034626
    26  H   -0.000011  -0.000009   0.006353  -0.000132   0.004397   0.000034
    27  H    0.000005  -0.000001   0.000884   0.002697   0.000003   0.000006
    28  H   -0.000007   0.000003   0.000219  -0.000203   0.000109   0.003647
    29  H    0.000000   0.000000   0.000001   0.000001  -0.000034   0.001766
    30  H    0.000000  -0.000000   0.000002  -0.000004  -0.000007  -0.000027
    31  H   -0.000007   0.000000  -0.000003  -0.000002   0.000040   0.001156
    32  H    0.000000   0.000000   0.000006  -0.000029  -0.000002  -0.000029
    33  H    0.000001   0.000004  -0.000205   0.002609  -0.000003  -0.000000
    34  H    0.000000  -0.000000   0.000006  -0.000157   0.000002  -0.000002
    35  H    0.000001   0.000007   0.000004  -0.000006   0.000006   0.000005
    36  H    0.000001  -0.000001  -0.000007  -0.000030  -0.000000  -0.000000
    37  H   -0.000009   0.000211  -0.000119   0.007544   0.000001  -0.000000
    38  H    0.000000   0.000000   0.000000   0.000002   0.000000   0.000000
    39  H    0.001100  -0.000061  -0.000029  -0.000004   0.000104   0.000316
    40  H   -0.000129  -0.000175   0.000006  -0.000025  -0.000006  -0.000007
              25         26         27         28         29         30
     1  C    0.000224  -0.000000  -0.000000  -0.000000  -0.000000  -0.000000
     2  C   -0.000936  -0.000006  -0.000008   0.000001  -0.000004  -0.000006
     3  C    0.000778   0.000237   0.000071  -0.000171  -0.000004   0.000003
     4  C   -0.006297  -0.008377  -0.003769   0.004996   0.000069  -0.000128
     5  C   -0.015718  -0.015245  -0.015384  -0.017639  -0.003249   0.003720
     6  C    0.363378  -0.005945   0.005570  -0.005179  -0.001570   0.000379
     7  C    0.005712   0.364478   0.362779   0.361559   0.000214  -0.000024
     8  C   -0.002603   0.003708  -0.008147  -0.003664  -0.019251  -0.016278
     9  C   -0.000519  -0.000026   0.000114   0.000160   0.366813   0.362677
    10  C   -0.000050   0.000428   0.001233  -0.001297  -0.004969  -0.006236
    11  C    0.000457  -0.000109   0.000052  -0.000038   0.002901  -0.006530
    12  C    0.000012   0.000001  -0.000029  -0.000001  -0.000120   0.000143
    13  O   -0.000000  -0.000000  -0.000000   0.000000   0.000000  -0.000002
    14  C   -0.002732   0.000004   0.000014   0.000009  -0.000024   0.000007
    15  H   -0.000003  -0.000000   0.000000   0.000000   0.000000  -0.000000
    16  H    0.000566  -0.000000  -0.000000   0.000000   0.000000   0.000000
    17  H   -0.000018   0.000000   0.000000   0.000000   0.000000   0.000000
    18  H   -0.000039   0.000000   0.000000  -0.000000   0.000000   0.000000
    19  H    0.001491  -0.000011   0.000005  -0.000007   0.000000   0.000000
    20  H    0.000036  -0.000009  -0.000001   0.000003   0.000000  -0.000000
    21  H   -0.000192   0.006353   0.000884   0.000219   0.000001   0.000002
    22  H   -0.000078  -0.000132   0.002697  -0.000203   0.000001  -0.000004
    23  H   -0.034250   0.004397   0.000003   0.000109  -0.000034  -0.000007
    24  H   -0.034626   0.000034   0.000006   0.003647   0.001766  -0.000027
    25  H    0.600030   0.000059  -0.000234  -0.000046   0.000240  -0.000017
    26  H    0.000059   0.610016  -0.033997  -0.032918  -0.000124   0.000004
    27  H   -0.000234  -0.033997   0.607419  -0.033295  -0.000059  -0.000003
    28  H   -0.000046  -0.032918  -0.033295   0.610447   0.004257  -0.000130
    29  H    0.000240  -0.000124  -0.000059   0.004257   0.602623  -0.032896
    30  H   -0.000017   0.000004  -0.000003  -0.000130  -0.032896   0.614923
    31  H    0.000530  -0.000004  -0.000023  -0.000027  -0.032958  -0.034148
    32  H   -0.000004  -0.000004   0.000602   0.001853   0.003677   0.000049
    33  H    0.000001  -0.000043   0.002306   0.000228  -0.000023   0.000014
    34  H   -0.000001  -0.000009   0.000023  -0.000042   0.000064   0.004293
    35  H   -0.000041   0.000002  -0.000003   0.000001   0.000159   0.006304
    36  H   -0.000001   0.000000  -0.000006  -0.000000   0.000001  -0.000030
    37  H    0.000003   0.000002  -0.000019  -0.000001   0.000005   0.000001
    38  H   -0.000000   0.000000  -0.000000   0.000000   0.000000   0.000000
    39  H    0.005960   0.000001  -0.000000  -0.000002  -0.000170   0.000041
    40  H   -0.000065  -0.000000   0.000000   0.000000   0.000008  -0.000015
              31         32         33         34         35         36
     1  C    0.000001  -0.000000   0.000000  -0.000000  -0.000245  -0.000022
     2  C    0.000122  -0.000002  -0.000021  -0.000006   0.003830  -0.000344
     3  C   -0.000039  -0.000009  -0.000002   0.000002   0.000117   0.000180
     4  C    0.000147   0.000050   0.000917   0.000012  -0.000492   0.000122
     5  C   -0.007593  -0.007796  -0.003176   0.003618   0.005323  -0.000039
     6  C    0.001720   0.000118  -0.000044  -0.000117  -0.000121  -0.000003
     7  C    0.000001   0.001298  -0.000657   0.000375  -0.000142   0.000015
     8  C   -0.016330  -0.014391  -0.015685  -0.017142  -0.016781  -0.003850
     9  C    0.363811  -0.005570   0.005790  -0.006878  -0.017970   0.000085
    10  C    0.005787   0.365164   0.361841   0.365645  -0.000902   0.001432
    11  C   -0.003766   0.004363  -0.006982  -0.005080   0.320581  -0.033718
    12  C   -0.000001   0.000214   0.001199  -0.001871  -0.044199   0.363441
    13  O   -0.000000  -0.000003   0.000065   0.000001  -0.001771  -0.025607
    14  C    0.000730  -0.000110   0.000091   0.000107  -0.042208   0.006112
    15  H   -0.000000   0.000000   0.000000   0.000000   0.000004  -0.000000
    16  H   -0.000001   0.000000  -0.000000  -0.000000  -0.000001   0.000000
    17  H   -0.000000   0.000000   0.000000  -0.000000  -0.000006   0.000001
    18  H    0.000002   0.000000  -0.000008   0.000000   0.000093   0.000743
    19  H   -0.000007   0.000000   0.000001   0.000000   0.000001   0.000001
    20  H    0.000000   0.000000   0.000004  -0.000000   0.000007  -0.000001
    21  H   -0.000003   0.000006  -0.000205   0.000006   0.000004  -0.000007
    22  H   -0.000002  -0.000029   0.002609  -0.000157  -0.000006  -0.000030
    23  H    0.000040  -0.000002  -0.000003   0.000002   0.000006  -0.000000
    24  H    0.001156  -0.000029  -0.000000  -0.000002   0.000005  -0.000000
    25  H    0.000530  -0.000004   0.000001  -0.000001  -0.000041  -0.000001
    26  H   -0.000004  -0.000004  -0.000043  -0.000009   0.000002   0.000000
    27  H   -0.000023   0.000602   0.002306   0.000023  -0.000003  -0.000006
    28  H   -0.000027   0.001853   0.000228  -0.000042   0.000001  -0.000000
    29  H   -0.032958   0.003677  -0.000023   0.000064   0.000159   0.000001
    30  H   -0.034148   0.000049   0.000014   0.004293   0.006304  -0.000030
    31  H    0.602574  -0.000004  -0.000223  -0.000040   0.000840  -0.000004
    32  H   -0.000004   0.607805  -0.033844  -0.034429  -0.000221   0.000032
    33  H   -0.000223  -0.033844   0.605101  -0.034279  -0.000104   0.000659
    34  H   -0.000040  -0.034429  -0.034279   0.613453   0.003221   0.002408
    35  H    0.000840  -0.000221  -0.000104   0.003221   0.736581  -0.006404
    36  H   -0.000004   0.000032   0.000659   0.002408  -0.006404   0.653576
    37  H    0.000000  -0.000070   0.000009   0.000336   0.006797  -0.045356
    38  H    0.000001  -0.000001  -0.000005   0.000022   0.006503  -0.003775
    39  H    0.003273  -0.000002  -0.000000   0.000004   0.000160  -0.000086
    40  H   -0.000234   0.000003  -0.000004  -0.000002  -0.010821   0.000069
              37         38         39         40
     1  C   -0.000016   0.000017  -0.000847  -0.008784
     2  C    0.005839   0.000515  -0.032569  -0.024493
     3  C   -0.001192  -0.000023  -0.007548   0.005372
     4  C   -0.003496  -0.000013   0.000363   0.000034
     5  C    0.001798   0.000004  -0.001158  -0.000043
     6  C    0.000008  -0.000000  -0.004134   0.000231
     7  C   -0.000028  -0.000000   0.000032  -0.000002
     8  C   -0.000462   0.000351  -0.007945   0.004348
     9  C   -0.000094  -0.000017   0.000187  -0.000023
    10  C   -0.001714  -0.000037   0.000144  -0.000189
    11  C   -0.027557  -0.001091  -0.029775  -0.015775
    12  C    0.354600  -0.066792   0.004921  -0.005736
    13  O   -0.016447   0.305023   0.000183   0.009449
    14  C   -0.008977  -0.001437   0.358083   0.336228
    15  H    0.000014   0.000001  -0.000140   0.000017
    16  H    0.000001  -0.000000   0.003460  -0.000302
    17  H   -0.000009  -0.000018  -0.000120   0.005911
    18  H   -0.001514  -0.000682   0.006350  -0.003655
    19  H   -0.000009   0.000000   0.001100  -0.000129
    20  H    0.000211   0.000000  -0.000061  -0.000175
    21  H   -0.000119   0.000000  -0.000029   0.000006
    22  H    0.007544   0.000002  -0.000004  -0.000025
    23  H    0.000001   0.000000   0.000104  -0.000006
    24  H   -0.000000   0.000000   0.000316  -0.000007
    25  H    0.000003  -0.000000   0.005960  -0.000065
    26  H    0.000002   0.000000   0.000001  -0.000000
    27  H   -0.000019  -0.000000  -0.000000   0.000000
    28  H   -0.000001   0.000000  -0.000002   0.000000
    29  H    0.000005   0.000000  -0.000170   0.000008
    30  H    0.000001   0.000000   0.000041  -0.000015
    31  H    0.000000   0.000001   0.003273  -0.000234
    32  H   -0.000070  -0.000001  -0.000002   0.000003
    33  H    0.000009  -0.000005  -0.000000  -0.000004
    34  H    0.000336   0.000022   0.000004  -0.000002
    35  H    0.006797   0.006503   0.000160  -0.010821
    36  H   -0.045356  -0.003775  -0.000086   0.000069
    37  H    0.605748   0.007275  -0.000069  -0.000212
    38  H    0.007275   0.472356  -0.000075   0.000585
[...]
 3561,-0.00004746,-0.00057207,-0.00003487,-0.00007804,-0.00006079,0.000
 03068,0.00000650,0.00000180,-0.00004198,-0.00006106,-0.00021275,-0.000
 32596,0.00010479,-0.00020496,0.00001612,0.00002603,0.00003808,0.000003
 87,0.00000690,-0.00004719,0.00001180,-0.00001594,0.00001965,0.00003285
 ,0.00003496,0.00002546,0.00001254,-0.00005804,0.00003035,0.00004608,0.
 00000572,-0.00005614,-0.00001055,-0.00000217,-0.00006347,-0.00001888,0
 .00002382,-0.00000843,0.00003355,-0.00005110,0.00010041,0.00013252,0.0
 0001553,0.00039313,0.00054461,-0.00109492,-0.00056011,-0.00006553,0.00
 069965,-0.00001297,0.00050911,0.00102787,-0.00054644,0.08699302,0.0894
 4252,-0.00002157,-0.00021841,0.00011436,0.00045471,0.00064333,-0.00064
 383,-0.00008757,0.00006774,0.00012884,-0.00013311,0.00010827,-0.000038
 94,0.00011960,-0.00003777,0.00015811,-0.00005758,0.00015746,0.00000447
 ,-0.00001267,0.00000684,-0.00000588,-0.00111607,0.00053190,0.00083843,
 0.00007764,-0.00002503,0.00003655,0.00095199,-0.00180640,-0.00148940,-
 0.02924412,-0.01206647,-0.00575710,-0.04475743,-0.01599512,-0.05669095
 ,0.02784180,0.00153102,-0.00034470,0.00070232,0.00029475,-0.00665766,-
 0.00010473,-0.00004254,0.00004976,0.00006863,0.00002907,0.00006169,0.0
 0000032,0.00001556,-0.00002196,0.00007328,-0.00024118,0.00021753,0.000
 02214,0.00001725,0.00001528,0.00002217,-0.00010414,-0.00002038,0.00004
 467,-0.00000354,0.00002315,0.00008517,-0.00007009,0.00005622,0.0000521
 0,-0.00001600,0.00002767,0.00003068,-0.00002353,-0.00002085,0.00006381
 ,0.00001376,0.00009609,0.00004728,0.00002651,0.00001938,0.00004605,-0.
 00006722,0.00003770,0.00002487,0.00000229,-0.00004595,0.00008294,0.000
 00619,-0.00003910,0.00000247,0.00008041,-0.00006740,0.00005254,-0.0000
 5459,0.00017262,0.00005708,0.00031402,0.00009085,0.00060444,-0.0002565
 8,-0.00027929,0.00167034,0.00048838,-0.00124161,0.00054318,0.00046496,
 0.00169323,0.03564827,0.02013005,0.06639799,-0.00004409,0.00009393,0.0
 0021109,-0.00076305,-0.00014083,-0.00083128,-0.00007407,-0.00025278,-0
 .00017091,0.00026749,0.00002802,0.00014711,0.00000734,0.00001893,0.000
 00319,0.00001753,0.00000806,0.00000052,0.00002204,-0.00001396,0.000044
 79,0.00036876,0.00009140,0.00005409,-0.00001502,-0.00007338,-0.0001097
 2,-0.00014453,-0.00107603,0.00007957,0.00147920,0.00672887,-0.00233880
 ,-0.05094702,-0.02294117,0.00447746,-0.00202089,0.03003542,-0.00367272
 ,0.00031737,0.00060429,0.00037305,0.00002316,0.00000241,-0.00001076,0.
 00010618,0.00000661,0.00002646,0.00001220,-0.00002036,-0.00001913,-0.0
 0187409,-0.00032134,-0.00015957,-0.00003961,0.00009648,0.00008017,-0.0
 0003175,-0.00003595,-0.00000232,-0.00005664,0.00002558,0.00003028,0.00
 043216,0.00018870,-0.00001895,0.00000371,-0.00000716,-0.00000751,-0.00
 001771,-0.00000039,0.00000757,-0.00001245,0.00001453,-0.00002163,-0.00
 000018,-0.00000747,-0.00001038,-0.00002922,0.00002015,0.00000789,-0.00
 002351,0.00000477,-0.00000279,0.00001649,-0.00000282,-0.00004126,-0.00
 000514,-0.00000833,0.00001439,0.00000376,0.00002093,-0.00000595,-0.000
 00116,0.00034173,-0.00016231,-0.00031282,0.00023170,0.00011749,0.00010
 772,0.00035530,0.00021235,0.00033103,0.00087000,-0.00105184,-0.0005431
 3,-0.02778272,0.00951280,0.05653376,0.00014006,0.00013063,-0.00046545,
 -0.00087960,0.00009343,0.00083565,0.00008047,0.00008543,-0.00000033,0.
 00023185,-0.00159547,-0.00057537,-0.00010631,0.00002048,0.00024374,-0.
 00000437,-0.00000814,-0.00001913,0.00006263,0.00010194,0.00001743,0.00
 055397,-0.00020418,0.00050840,-0.00028306,0.00020708,0.00018966,0.0001
 4683,-0.00045508,0.00053970,-0.00089350,-0.00056108,0.00162269,-0.0135
 7907,-0.27480616,0.08460468,0.00657858,-0.02368992,-0.00061256,-0.0003
 8622,-0.00012093,0.00021232,0.00006150,0.00001438,0.00001056,-0.000183
 98,-0.00001620,-0.00007047,-0.00004295,0.00002048,0.00002037,-0.000639
 81,0.00000179,-0.00093153,-0.00004903,-0.00003124,-0.00005516,0.000008
 29,-0.00001336,0.00002038,-0.00016355,-0.00016139,-0.00035034,-0.00023
 732,-0.00138059,-0.00180675,0.00001341,0.00002965,0.00002875,0.0000152
 9,0.00001197,-0.00002976,-0.00001803,-0.00001492,-0.00001124,-0.000042
 18,0.00003898,0.00001687,-0.00003140,0.00002211,-0.00000371,0.00002048
 ,-0.00000220,-0.00003323,-0.00001530,-0.00004142,0.00011887,0.00002757
 ,0.00003326,-0.00003939,-0.00000177,0.00001676,-0.00005393,-0.00006977
 ,0.00021483,-0.00002660,-0.00018975,0.00028991,-0.00028262,0.00014941,
 0.00025960,-0.00012290,0.00000419,0.00135726,0.00005214,-0.00180065,-0
 .01050454,0.00480747,0.00899217,0.31040307,-0.00003216,-0.00018518,0.0
 0036624,-0.00032972,0.00001310,-0.00031468,-0.00041830,-0.00028810,0.0
 0012426,-0.00087156,0.00006927,-0.00139034,0.00064115,0.00024550,-0.00
 045079,-0.00014163,-0.00013548,0.00012599,-0.00007042,-0.00018289,-0.0
 0003289,-0.00047112,0.00013193,0.00110032,0.00015749,-0.00009174,-0.00
 002918,0.00015909,-0.00008655,-0.00017798,0.00207277,0.03044438,-0.009
 98261,0.00250534,0.09151326,-0.08005206,0.00343267,-0.02508020,0.00492
 169,0.00141753,0.00008494,0.00095976,-0.00007191,-0.00000611,0.0000049
 3,0.00015969,0.00003520,-0.00000284,0.00006706,-0.00003566,-0.00002391
 ,-0.00044245,-0.00015797,0.00082848,0.00020489,0.00005789,0.00004292,0
 .00001274,-0.00004252,-0.00003095,0.00019478,0.00008700,0.00051602,0.0
 0072233,-0.00141055,0.00040012,-0.00001534,-0.00005668,-0.00005589,0.0
 0002914,-0.00000812,0.00012514,0.00004682,0.00002319,0.00002186,0.0000
 3885,-0.00007922,-0.00001897,0.00005770,-0.00000880,-0.00000312,-0.000
 07559,0.00001129,0.00007403,0.00012879,-0.00013476,-0.00019236,-0.0001
 5565,-0.00022917,0.00005335,0.00003822,0.00002169,0.00014181,0.0000931
 7,-0.00012615,0.00011674,0.00056449,-0.00001918,-0.00006181,-0.0001453
 8,-0.00006148,-0.00001934,-0.00229420,0.00060862,-0.00641041,-0.001203
 13,-0.00527194,0.00305400,-0.00911142,-0.08601563,0.08787362,0.0001005
 6,-0.00015968,-0.00017725,-0.00015378,-0.00035047,0.00054778,-0.000049
 92,0.00008437,-0.00025535,-0.00006221,0.00003536,-0.00010582,0.0001002
 7,0.00004231,-0.00006769,0.00002364,-0.00005877,0.00002544,-0.00001615
 ,-0.00005061,-0.00001451,-0.00013633,-0.00020432,-0.00010183,0.0000316
 6,0.00004085,0.00002502,0.00002056,0.00034482,0.00000917,0.00092395,-0
 .00017433,-0.00017270,-0.00315089,0.03402894,-0.00528976,-0.02386051,-
 0.04360565,0.03192761,0.00066707,-0.00109225,-0.00004857,-0.00000763,0
 .00005758,0.00001566,-0.00007965,0.00001675,-0.00000026,-0.00009959,0.
 00003605,0.00005354,0.00011657,0.00052144,-0.00021187,0.00003805,-0.00
 007409,-0.00004145,-0.00001540,0.00007588,0.00002386,0.00000571,0.0000
 0805,0.00004766,0.00003136,-0.00000465,0.00007942,-0.00002230,-0.00000
 012,-0.00001342,-0.00000989,0.00001153,0.00001923,-0.00003552,0.000012
 25,-0.00002492,-0.00000183,-0.00002463,-0.00001017,-0.00000864,0.00001
 735,-0.00001411,-0.00001478,0.00000204,0.00002337,-0.00002035,-0.00000
 099,-0.00000756,-0.00000991,-0.00003774,0.00002757,-0.00003040,-0.0000
 0057,-0.00005256,-0.00004133,-0.00012238,-0.00004840,0.00001076,-0.000
 01968,0.00004242,-0.00012117,-0.00019944,0.00002689,0.00022486,-0.0006
 6724,0.00051547,0.00048539,0.00063617,-0.00100627,-0.00320040,0.002476
 47,0.00312913,0.02936964,-0.00002792,0.00004320,-0.00009525,-0.0000425
 1,-0.00013598,0.00033360,0.00008301,0.00001792,-0.00012474,0.00008499,
 -0.00007438,0.00018755,-0.00020744,-0.00012208,0.00009159,0.00003490,0
 .00003267,-0.00002525,0.00006678,0.00009712,0.00002871,0.00047655,0.00
 004000,0.00039633,-0.00012271,0.00018452,0.00009318,0.00006128,0.00001
 079,0.00018325,-0.00133188,0.00240229,0.00018275,-0.00236593,-0.025048
 59,0.00839571,-0.00713667,-0.47023574,0.11232342,-0.00003714,-0.000572
 63,0.00002892,0.00005346,0.00004548,-0.00000404,-0.00002309,-0.0000008
 8,0.00000954,-0.00004004,-0.00000285,0.00001321,0.00009944,0.00001781,
 -0.00005308,-0.00001267,-0.00000698,0.00000531,0.00000312,0.00008308,0
 .00000151,-0.00002952,0.00002487,-0.00005393,-0.00008594,-0.00001667,-
 0.00010415,0.00000924,0.00003308,0.00002709,-0.00002427,0.00000169,-0.
 00000272,-0.00002561,-0.00000955,-0.00003403,-0.00002784,0.00004815,0.
 00001938,-0.00001271,-0.00000611,-0.00000671,0.00000505,-0.00001300,-0
 .00000907,-0.00004934,-0.00004518,0.00011453,-0.00000667,-0.00000813,-
 0.00002268,0.00001474,0.00000331,-0.00001739,-0.00006167,0.00003812,0.
 00004719,-0.00003541,-0.00002923,-0.00002992,0.00006023,0.00005444,-0.
 00006479,-0.00019201,-0.00022688,-0.00128375,-0.00059112,0.00211074,0.
 00113518,0.00413056,0.00005986,-0.00340935,0.00790992,0.49076933,-0.00
 004397,0.00014649,-0.00009680,0.00000672,-0.00029473,0.00027476,0.0001
 1614,0.00000814,-0.00018676,0.00010056,-0.00015629,0.00016377,-0.00037
 563,-0.00013317,0.00013568,0.00003203,0.00003312,-0.00002567,0.0001067
 2,0.00012133,0.00005422,0.00053446,0.00048467,-0.00022871,-0.00008024,
 0.00008599,-0.00004254,0.00005924,0.00006802,0.00012911,-0.00008498,-0
 .00349007,0.00164678,0.00199251,-0.02814245,0.00278065,0.02429627,0.14
 919307,-0.06138130,-0.00005470,-0.00046603,-0.00022354,0.00009295,0.00
 006108,-0.00001222,-0.00001040,-0.00001622,0.00000605,-0.00003561,-0.0
 0002263,0.00003276,0.00008365,0.00008305,-0.00016372,-0.00001688,-0.00
 000658,0.00001374,-0.00000206,0.00011055,-0.00000139,-0.00003375,0.000
 04323,-0.00005250,-0.00008708,0.00000289,-0.00012436,0.00000762,0.0000
 5066,0.00002487,-0.00002681,-0.00000117,-0.00000334,-0.00004577,-0.000
 01125,-0.00004532,-0.00004341,0.00006485,0.00002040,-0.00002516,0.0000
 0695,-0.00002013,0.00000057,-0.00001818,-0.00000160,-0.00006640,0.0000
 3783,0.00011898,0.00006467,0.00003517,-0.00003383,-0.00001047,-0.00000
 730,-0.00007831,-0.00011880,0.00001025,-0.00005578,-0.00007241,0.00008
 624,-0.00005152,0.00005236,-0.00008117,0.00002066,0.00057010,0.0016037
 3,-0.00063207,0.00031256,0.00063493,0.00029835,0.00222103,-0.00228509,
 -0.00159205,-0.02848484,-0.11804773,0.05958158,0.00109766,0.00035884,0
 .00107640,0.00123847,0.00058324,0.01079930,0.00018478,0.00048378,-0.00
 034360,-0.00007335,0.00005868,-0.00023539,-0.00054987,0.00035282,-0.00
 006252,-0.00063053,0.00046590,0.00011249,0.00008218,0.00005359,0.00014
 810,0.00140517,0.00033858,-0.00043105,-0.00074530,0.00005365,-0.000185
 27,0.00022020,-0.00015131,-0.00007906,-0.00789296,-0.00013256,-0.03302
 105,-0.00707051,-0.00173323,0.00170116,0.00130522,-0.00022112,0.000776
 51,-0.05711780,-0.00155743,-0.05176284,0.00004844,0.00009654,-0.000289
 04,-0.00002908,-0.00017046,-0.00039544,-0.00001158,-0.00002383,0.00008
 223,-0.00053106,-0.00201659,0.00115811,0.00005388,0.00004305,-0.000201
 76,-0.00007289,0.00009492,0.00006158,0.00003702,0.00000228,0.00006037,
 0.00004574,-0.00008775,0.00013775,0.00021596,-0.00015024,-0.00000272,0
 .00012729,-0.00009236,0.00000385,0.00084707,0.00055225,0.00084362,-0.0
 0001106,0.00003562,0.00001617,0.00008218,-0.00005122,0.00002439,-0.000
 01466,0.00000453,-0.00000462,0.00025679,-0.00000771,0.00018094,0.00022
 627,0.00006940,0.00001443,-0.00016329,-0.00039929,0.00086635,0.0000050
 0,0.00002654,0.00012187,0.00012890,-0.00010770,0.00006242,0.00011940,0
 .00011452,-0.00003210,0.00079318,-0.00024677,0.00039818,-0.00049309,0.
 00015624,-0.00228844,0.00004425,0.00019475,-0.00002875,-0.00016015,0.0
 0004544,-0.00002393,0.06386991,0.00146976,0.00062284,-0.00001276,0.005
 17248,-0.00023834,0.02947368,0.00062453,0.00184054,0.00022084,0.000030
 21,-0.00033534,-0.00000330,0.00016634,-0.00003920,0.00034280,0.0011939
 3,-0.00086904,-0.00066126,-0.00004752,0.00003327,-0.00019171,0.0001640
 6,0.00051083,0.00032165,-0.00029025,0.00010522,-0.00026983,-0.00000261
 ,-0.00010704,0.00000233,0.00058851,-0.00049813,-0.00358955,-0.00017092
 ,-0.00029999,-0.00056474,-0.00122746,0.00053316,-0.00058646,-0.0022328
 8,-0.04666477,-0.00313075,0.00012758,-0.00002407,-0.00027881,-0.000408
 73,0.00025679,-0.00056565,-0.00012025,-0.00002191,-0.00009329,-0.00249
 340,-0.00455027,0.00302936,-0.00022203,-0.00034650,-0.00044406,-0.0001
 0895,0.00030341,-0.00031124,0.00008176,-0.00002296,-0.00003654,-0.0000
 9934,0.00004766,-0.00005587,-0.00018852,0.00007643,0.00004453,-0.00015
 970,0.00011998,0.00001839,0.00035245,-0.00073074,-0.00170417,0.0000031
 0,-0.00001201,0.00000915,-0.00009315,0.00003243,-0.00000429,0.00000095
 ,-0.00000177,0.00001087,0.00015631,-0.00001818,0.00005428,-0.00003472,
 -0.00005819,-0.00002060,-0.00008023,0.00008267,0.00033232,-0.00000969,
 0.00001222,0.00000041,0.00002180,-0.00000507,0.00001801,-0.00002795,-0
 .00001729,-0.00003015,0.00036455,-0.00006017,-0.00014702,0.00000647,0.
 00011613,-0.00009958,-0.00023192,0.00005958,-0.00017079,0.00031290,0.0
 0023234,0.00027616,0.00294024,0.05064255,-0.00077659,-0.00048366,0.000
 17765,-0.00279518,-0.00004049,-0.01575070,0.00015181,-0.00068912,0.000
 51226,0.00005255,0.00021766,-0.00005610,-0.00058858,0.00019208,-0.0001
 2647,0.00009048,-0.00098083,-0.00165938,0.00004724,0.00002691,0.000124
 24,0.00027868,-0.00013068,-0.00031036,-0.00009971,0.00016469,-0.000143
 28,-0.00008884,0.00006956,0.00017567,-0.00059405,0.00018349,-0.0034738
 8,0.00005365,-0.00082408,0.00080936,-0.00077196,0.00026586,-0.00004885
 ,-0.05309026,-0.00240312,-0.28886005,0.00017873,0.00008025,0.00047244,
 0.00092617,0.00020448,0.00047860,-0.00001744,0.00003375,-0.00000075,0.
 00136679,0.00283390,-0.00013620,-0.00006315,0.00067772,0.00042429,0.00
 005625,0.00002283,0.00019759,-0.00006536,0.00004151,0.00005786,0.00008
 750,-0.00009119,0.00009654,0.00026230,-0.00032309,-0.00013992,0.000340
 02,-0.00030644,-0.00010547,0.00163316,-0.00187881,-0.00064157,-0.00003
 239,0.00004601,-0.00000407,0.00006946,-0.00003729,0.00003911,-0.000043
 61,-0.00001333,0.00001260,0.00001287,-0.00009650,0.00016987,0.00014371
 ,0.00003169,0.00004723,0.00055678,0.00002998,0.00011732,-0.00010064,0.
 00002962,0.00005452,0.00004873,-0.00005182,0.00002834,0.00007379,0.000
 05201,-0.00000787,-0.00040865,-0.00036805,-0.00000816,-0.00003344,0.00
 001095,-0.00028091,0.00010724,0.00002784,0.00001658,0.00008273,0.00015
 090,0.00014287,0.05540440,0.00394985,0.32092312,0.00070030,-0.00187177
 ,-0.00029409,0.00358616,-0.00908635,-0.00387762,-0.00067205,-0.0018967
 7,0.00127529,-0.00007679,-0.00005180,0.00013698,0.00007344,-0.00064609
 ,-0.00031895,-0.00005848,0.00006253,-0.00020317,0.00010454,0.00005843,
 0.00001655,-0.00427071,-0.00180718,-0.00375563,-0.00005508,0.00031408,
 -0.00033683,-0.00088479,0.00070737,0.00173276,-0.02075241,0.02335274,0
 .01378250,-0.00120102,0.00129594,0.00192168,0.00223728,-0.00112102,0.0
 0028111,-0.10504865,0.09876174,0.04861266,0.00008843,0.00007075,-0.000
 18887,-0.00002111,0.00004456,-0.00008899,-0.00001291,-0.00017967,0.000
 32359,0.00020121,0.00057167,-0.00014314,-0.00001693,0.00012198,0.00003
 401,0.00040516,-0.00065792,-0.00013249,0.00006170,0.00009545,-0.000050
 82,0.00002881,-0.00001547,0.00002500,0.00007322,0.00001154,0.00004766,
 0.00005326,-0.00003789,-0.00003517,0.00008648,-0.00003424,0.00010835,-
 0.00001860,0.00008477,0.00003339,0.00000261,-0.00003594,0.00000781,0.0
 0001584,-0.00002319,-0.00004058,-0.00002250,-0.00009920,0.00013555,-0.
 00005300,-0.00004727,0.00003353,0.00010619,-0.00005094,0.00008637,-0.0
 0072922,-0.00003862,-0.00028619,0.00000063,0.00006957,-0.00008824,0.00
 001331,-0.00011994,-0.00002229,0.00080882,-0.00013850,0.00064375,0.000
 09348,-0.00020159,-0.00007372,0.00006237,-0.00014032,0.00000489,-0.000
 84134,-0.00064862,-0.00090686,0.00313222,-0.00552772,-0.00245519,0.122
 80015,0.00168583,0.00057070,-0.00101262,0.01191779,-0.02693054,-0.0110
 1225,-0.00325114,-0.00250571,0.00464857,-0.00057386,0.00045031,0.00005
 327,-0.00025339,-0.00007586,0.00022003,-0.00003612,0.00014804,0.000005
 36,0.00005230,0.00011337,-0.00004788,-0.00141032,0.00089479,-0.0005266
 3,0.00012667,0.00006439,-0.00007802,-0.00017299,0.00018607,0.00021939,
 -0.00427068,0.00277731,0.00246743,0.00124372,-0.00084760,-0.00074753,-
 0.00240148,0.00040418,-0.00153359,0.09937327,-0.20154969,-0.07837477,0
 .00010129,0.00062601,0.00027310,-0.00017076,-0.00001299,-0.00001660,-0
 .00126599,0.00045370,0.00049492,0.00023388,0.00082148,0.00010717,-0.00
 009611,0.00006897,-0.00013172,0.00045935,-0.00194416,-0.00065009,0.000
 13530,0.00000706,-0.00003062,0.00012313,0.00000140,0.00003496,0.000002
 43,0.00004897,0.00005111,0.00005313,-0.00001635,-0.00005517,0.00004150
 ,-0.00007963,0.00005710,-0.00001450,0.00003411,0.00002563,-0.00000058,
 -0.00001990,0.00001111,0.00006125,-0.00000806,-0.00005340,-0.00002303,
 0.00000489,0.00000765,0.00001696,0.00002084,-0.00002150,0.00002080,-0.
 00002354,0.00000144,-0.00014167,-0.00001295,-0.00002788,-0.00001449,-0
 .00001461,-0.00002405,0.00003526,0.00001325,-0.00000313,-0.00054683,0.
 00186255,0.00052265,-0.00010167,0.00005141,0.00025574,0.00000610,0.000
 13433,-0.00005304,0.00017661,0.00020405,-0.00006834,0.00002415,-0.0007
 0707,-0.00062504,-0.10114509,0.22478648,-0.00050654,0.00015883,0.00041
 585,-0.00630696,0.01361434,0.00558333,0.00147639,0.00214995,-0.0011946
 7,0.00023294,-0.00011650,-0.00011026,-0.00034473,0.00018636,-0.0002929
 0,-0.00056732,0.00003855,-0.00042682,0.00001932,-0.00001001,0.00016392
 ,-0.00065542,0.00001049,-0.00014498,-0.00004120,-0.00010072,0.00006842
 ,-0.00000733,0.00004147,0.00008449,-0.00205345,0.00404459,0.00198505,-
 0.00009122,0.00075209,0.00036481,-0.00070994,-0.00046345,-0.00167531,0
 .04968227,-0.08027030,-0.08606076,-0.00028059,0.00009095,-0.00007558,0
 .00010122,-0.00020986,-0.00011131,0.00008303,-0.00007592,0.00025758,-0
 .00055300,-0.00024390,0.00051393,0.00007685,0.00033327,0.00007919,-0.0
 0011617,0.00085750,0.00043499,-0.00004207,-0.00000986,0.00000869,-0.00
 005232,-0.00003136,0.00002547,0.00021555,-0.00019487,-0.00009062,0.000
 18322,-0.00017215,-0.00005531,0.00059149,-0.00017165,0.00028007,-0.000
 02430,0.00000919,-0.00001214,0.00005997,-0.00001893,0.00001343,-0.0000
 2587,0.00000351,0.00001037,-0.00001053,-0.00000002,0.00001080,0.000106
 99,0.00004533,0.00005814,-0.00010572,-0.00017860,0.00013280,-0.0000280
 3,-0.00001076,-0.00001002,0.00000069,0.00001805,-0.00000314,0.00001093
 ,-0.00001305,0.00000337,0.00059491,0.00016410,0.00064703,0.00014656,-0
 .00026513,0.00005362,0.00002070,-0.00008632,-0.00002567,-0.00047267,-0
 .00038027,-0.00039176,0.01533697,-0.02513222,-0.01332408,-0.05594462,0
 .08563724,0.09280996\\-0.00001155,0.00000426,-0.00000393,0.00001374,0.
 00003196,-0.00002458,-0.00000292,-0.00000936,0.00000974,-0.00000051,0.
 00001563,-0.00001026,-0.00002775,0.00000148,-0.00000444,0.00002102,-0.
 00000367,0.00000056,0.00001048,-0.00000055,-0.00000840,0.00001645,0.00
 000042,0.00000595,0.00000757,0.00000485,-0.00001127,-0.00000698,-0.000
 00067,-0.00000083,-0.00001930,0.00001524,0.00001016,-0.00000175,-0.000
 00833,0.00000287,0.00000783,-0.00000892,-0.00001374,0.00001060,-0.0000
 2341,0.00000760,0.00000119,-0.00000333,0.00000518,0.00000712,-0.000003
 86,0.00001083,0.00000205,0.00000217,0.00000512,0.00000289,-0.00001752,
 0.00000492,-0.00000311,0.00000370,0.00000395,0.00000227,-0.00000728,-0
 .00000012,0.00000444,-0.00000453,-0.00000398,0.00000021,0.00000520,0.0
 0001132,-0.00000936,-0.00000496,0.00000048,-0.00000870,-0.00000272,0.0
 0000125,-0.00000614,0.00000197,0.00000048,-0.00000310,-0.00000201,0.00
 000144,0.00000211,0.00000399,-0.00000143,-0.00000363,0.00000126,-0.000
 00033,-0.00000206,0.00000445,-0.00000049,0.00000047,0.00000383,-0.0000
 0015,-0.00000279,-0.00000183,0.00000306,-0.00000336,0.00000200,-0.0000
 0140,-0.00000226,0.00000046,-0.00000386,0.00000137,0.00000201,0.000000
 62,-0.00000096,-0.00000433,0.00000204,0.00000702,0.00000320,-0.0000048
 2,-0.00000176,-0.00000542,0.00000474,-0.00000114,0.00000114,0.00000437
 ,-0.00000162,0.00000444,-0.00000765,0.00000189,-0.00000094,0.00000500\
 \\@


 ALL SCIENCE IS EITHER PHYSICS, OR STAMP COLLECTING.
   --ERNEST RUTHERFORD, 1871-1937.
 Job cpu time:       0 days 17 hours 49 minutes 37.7 seconds.
 Elapsed time:       0 days  4 hours 27 minutes 30.1 seconds.
 File lengths (MBytes):  RWF=    760 Int=      0 D2E=      0 Chk=     24 Scr=      1
 Normal termination of Gaussian 16 at Mon May 22 21:38:49 2023.
### All Done ###
