### Starting Gaussian ###
 Entering Gaussian System, Link 0=g16
 Initial command:
 /cluster/software/gaussian/gaussian-16-A.03/avx2/g16/l1.exe "/local/scratch/linjian/Gau-26634.inp" -scrdir="/local/scratch/linjian/"
 Entering Link 1 = /cluster/software/gaussian/gaussian-16-A.03/avx2/g16/l1.exe PID=     26635.
  
 Copyright (c) 1988,1990,1992,1993,1995,1998,2003,2009,2016,
            Gaussian, Inc.  All Rights Reserved.
  
 This is part of the Gaussian(R) 16 program.  It is based on
 the Gaussian(R) 09 system (copyright 2009, Gaussian, Inc.),
 the Gaussian(R) 03 system (copyright 2003, Gaussian, Inc.),
 the Gaussian(R) 98 system (copyright 1998, Gaussian, Inc.),
 the Gaussian(R) 94 system (copyright 1995, Gaussian, Inc.),
 the Gaussian 92(TM) system (copyright 1992, Gaussian, Inc.),
 the Gaussian 90(TM) system (copyright 1990, Gaussian, Inc.),
 the Gaussian 88(TM) system (copyright 1988, Gaussian, Inc.),
 the Gaussian 86(TM) system (copyright 1986, Carnegie Mellon
 University), and the Gaussian 82(TM) system (copyright 1983,
 Carnegie Mellon University). Gaussian is a federally registered
 trademark of Gaussian, Inc.
  
 This software contains proprietary and confidential information,
 including trade secrets, belonging to Gaussian, Inc.
  
 This software is provided under written license and may be
 used, copied, transmitted, or stored only in accord with that
 written license.
  
 The following legend is applicable only to US Government
 contracts under FAR:
  
                    RESTRICTED RIGHTS LEGEND
  
 Use, reproduction and disclosure by the US Government is
 subject to restrictions as set forth in subparagraphs (a)
 and (c) of the Commercial Computer Software - Restricted
 Rights clause in FAR 52.227-19.
  
 Gaussian, Inc.
 340 Quinnipiac St., Bldg. 40, Wallingford CT 06492
  
  
 ---------------------------------------------------------------
 Warning -- This program may not be used in any manner that
 competes with the business of Gaussian, Inc. or will provide
 assistance to any competitor of Gaussian, Inc.  The licensee
 of this program is prohibited from giving any competitor of
 Gaussian, Inc. access to this program.  By using this program,
 the user acknowledges that Gaussian, Inc. is engaged in the
 business of creating and licensing software in the field of
 computational chemistry and represents and warrants to the
 licensee that it is not a competitor of Gaussian, Inc. and that
 it will not use this program in any manner prohibited above.
 ---------------------------------------------------------------
  

 Cite this work as:
 Gaussian 16, Revision A.03,
 M. J. Frisch, G. W. Trucks, H. B. Schlegel, G. E. Scuseria, 
 M. A. Robb, J. R. Cheeseman, G. Scalmani, V. Barone, 
 G. A. Petersson, H. Nakatsuji, X. Li, M. Caricato, A. V. Marenich, 
 J. Bloino, B. G. Janesko, R. Gomperts, B. Mennucci, H. P. Hratchian, 
 J. V. Ortiz, A. F. Izmaylov, J. L. Sonnenberg, D. Williams-Young, 
 F. Ding, F. Lipparini, F. Egidi, J. Goings, B. Peng, A. Petrone, 
 T. Henderson, D. Ranasinghe, V. G. Zakrzewski, J. Gao, N. Rega, 
 G. Zheng, W. Liang, M. Hada, M. Ehara, K. Toyota, R. Fukuda, 
 J. Hasegawa, M. Ishida, T. Nakajima, Y. Honda, O. Kitao, H. Nakai, 
 T. Vreven, K. Throssell, J. A. Montgomery, Jr., J. E. Peralta, 
 F. Ogliaro, M. J. Bearpark, J. J. Heyd, E. N. Brothers, K. N. Kudin, 
 V. N. Staroverov, T. A. Keith, R. Kobayashi, J. Normand, 
 K. Raghavachari, A. P. Rendell, J. C. Burant, S. S. Iyengar, 
 J. Tomasi, M. Cossi, J. M. Millam, M. Klene, C. Adamo, R. Cammi, 
 J. W. Ochterski, R. L. Martin, K. Morokuma, O. Farkas, 
 J. B. Foresman, and D. J. Fox, Gaussian, Inc., Wallingford CT, 2016.
 
 ******************************************
 Gaussian 16:  ES64L-G16RevA.03 25-Dec-2016
                28-May-2023 
 ******************************************
 %chk=CC1CC1.chk
 %NProcShared=20
 Will use up to   20 processors via shared memory.
 -----------------------------
 # opt freq b3lyp/6-31g(2df,p)
 -----------------------------
 1/18=20,19=15,26=3,38=1/1,3;
 2/9=110,12=2,17=6,18=5,40=1/2;
 3/5=1,6=6,7=104,11=2,25=1,30=1,71=1,74=-5/1,2,3;
 4//1;
 5/5=2,38=5/2;
 6/7=2,8=2,9=2,10=2,28=1/1;
 7//1,2,3,16;
 1/18=20,19=15,26=3/3(2);
 2/9=110/2;
 99//99;
 2/9=110/2;
 3/5=1,6=6,7=104,11=2,25=1,30=1,71=1,74=-5/1,2,3;
 4/5=5,16=3,69=1/1;
 5/5=2,38=5/2;
 7//1,2,3,16;
 1/18=20,19=15,26=3/3(-5);
 2/9=110/2;
 6/7=2,8=2,9=2,10=2,19=2,28=1/1;
 99/9=1/99;
 -------------------
 Title Card Required
 -------------------
 Symbolic Z-matrix:
 Charge =  0 Multiplicity = 1
 C                     1.03981   0.04666   0.03505 
 C                     2.53049   0.042     0.01715 
 C                     3.27631  -0.71138  -1.05335 
 C                     3.2688    0.7926   -1.05996 
 H                     0.67059  -0.56481   0.86445 
 H                     0.61773  -0.35273  -0.89277 
 H                     0.66505   1.06598   0.17035 
 H                     2.94998   0.06912   1.0163 
 H                     2.7105   -1.2209   -1.82499 
 H                     4.19311  -1.21655  -0.77257 
 H                     2.69277   1.29624  -1.82762 
 H                     4.18108   1.30815  -0.78188 
 

 GradGradGradGradGradGradGradGradGradGradGradGradGradGradGradGradGradGrad
 Berny optimization.
 Initialization pass.
                           ----------------------------
                           !    Initial Parameters    !
                           ! (Angstroms and Degrees)  !
 --------------------------                            --------------------------
 ! Name  Definition              Value          Derivative Info.                !
 --------------------------------------------------------------------------------
 ! R1    R(1,2)                  1.4908         estimate D2E/DX2                !
 ! R2    R(1,5)                  1.0946         estimate D2E/DX2                !
 ! R3    R(1,6)                  1.0948         estimate D2E/DX2                !
 ! R4    R(1,7)                  1.0944         estimate D2E/DX2                !
 ! R5    R(2,3)                  1.5066         estimate D2E/DX2                !
 ! R6    R(2,4)                  1.5062         estimate D2E/DX2                !
 ! R7    R(2,8)                  1.084          estimate D2E/DX2                !
 ! R8    R(3,4)                  1.504          estimate D2E/DX2                !
 ! R9    R(3,9)                  1.0841         estimate D2E/DX2                !
 ! R10   R(3,10)                 1.0838         estimate D2E/DX2                !
 ! R11   R(4,11)                 1.0839         estimate D2E/DX2                !
 ! R12   R(4,12)                 1.0841         estimate D2E/DX2                !
 ! A1    A(2,1,5)              110.1598         estimate D2E/DX2                !
 ! A2    A(2,1,6)              111.9747         estimate D2E/DX2                !
 ! A3    A(2,1,7)              110.2915         estimate D2E/DX2                !
 ! A4    A(5,1,6)              107.9587         estimate D2E/DX2                !
 ! A5    A(5,1,7)              108.1264         estimate D2E/DX2                !
 ! A6    A(6,1,7)              108.2121         estimate D2E/DX2                !
 ! A7    A(1,2,3)              120.3378         estimate D2E/DX2                !
 ! A8    A(1,2,4)              119.8128         estimate D2E/DX2                !
 ! A9    A(1,2,8)              112.0747         estimate D2E/DX2                !
 ! A10   A(3,2,8)              118.4165         estimate D2E/DX2                !
 ! A11   A(4,2,8)              117.193          estimate D2E/DX2                !
 ! A12   A(2,3,9)              118.844          estimate D2E/DX2                !
 ! A13   A(2,3,10)             117.8899         estimate D2E/DX2                !
 ! A14   A(4,3,9)              117.6628         estimate D2E/DX2                !
 ! A15   A(4,3,10)             118.1301         estimate D2E/DX2                !
 ! A16   A(9,3,10)             114.0075         estimate D2E/DX2                !
 ! A17   A(2,4,11)             118.5248         estimate D2E/DX2                !
 ! A18   A(2,4,12)             117.7765         estimate D2E/DX2                !
 ! A19   A(3,4,11)             118.062          estimate D2E/DX2                !
 ! A20   A(3,4,12)             118.047          estimate D2E/DX2                !
 ! A21   A(11,4,12)            114.0735         estimate D2E/DX2                !
 ! D1    D(5,1,2,3)            108.119          estimate D2E/DX2                !
 ! D2    D(5,1,2,4)            178.5788         estimate D2E/DX2                !
 ! D3    D(5,1,2,8)            -38.2207         estimate D2E/DX2                !
 ! D4    D(6,1,2,3)            -12.0351         estimate D2E/DX2                !
 ! D5    D(6,1,2,4)             58.4246         estimate D2E/DX2                !
 ! D6    D(6,1,2,8)           -158.3749         estimate D2E/DX2                !
 ! D7    D(7,1,2,3)           -132.6002         estimate D2E/DX2                !
 ! D8    D(7,1,2,4)            -62.1404         estimate D2E/DX2                !
 ! D9    D(7,1,2,8)             81.0601         estimate D2E/DX2                !
 ! D10   D(1,2,3,9)              1.9439         estimate D2E/DX2                !
 ! D11   D(1,2,3,10)          -142.8423         estimate D2E/DX2                !
 ! D12   D(8,2,3,9)            146.2114         estimate D2E/DX2                !
 ! D13   D(8,2,3,10)             1.4252         estimate D2E/DX2                !
 ! D14   D(1,2,4,11)            -2.1687         estimate D2E/DX2                !
 ! D15   D(1,2,4,12)           142.0257         estimate D2E/DX2                !
 ! D16   D(8,2,4,11)          -143.5537         estimate D2E/DX2                !
 ! D17   D(8,2,4,12)             0.6407         estimate D2E/DX2                !
 ! D18   D(9,3,4,11)             0.5482         estimate D2E/DX2                !
 ! D19   D(9,3,4,12)          -143.3307         estimate D2E/DX2                !
 ! D20   D(10,3,4,11)          143.7867         estimate D2E/DX2                !
 ! D21   D(10,3,4,12)           -0.0922         estimate D2E/DX2                !
 --------------------------------------------------------------------------------
 Trust Radius=3.00D-01 FncErr=1.00D-07 GrdErr=1.00D-06 EigMax=2.50D+02 EigMin=1.00D-04
 Number of steps in this run=     64 maximum allowed number of steps=    100.
 GradGradGradGradGradGradGradGradGradGradGradGradGradGradGradGradGradGrad

                          Input orientation:                          
 ---------------------------------------------------------------------
 Center     Atomic      Atomic             Coordinates (Angstroms)
 Number     Number       Type             X           Y           Z
 ---------------------------------------------------------------------
      1          6           0        1.039810    0.046660    0.035050
      2          6           0        2.530490    0.042000    0.017150
      3          6           0        3.276310   -0.711380   -1.053350
      4          6           0        3.268800    0.792600   -1.059960
      5          1           0        0.670590   -0.564810    0.864450
      6          1           0        0.617730   -0.352730   -0.892770
      7          1           0        0.665050    1.065980    0.170350
      8          1           0        2.949980    0.069120    1.016300
      9          1           0        2.710500   -1.220900   -1.824990
     10          1           0        4.193110   -1.216550   -0.772570
     11          1           0        2.692770    1.296240   -1.827620
     12          1           0        4.181080    1.308150   -0.781880
 ---------------------------------------------------------------------
                    Distance matrix (angstroms):
                    1          2          3          4          5
     1  C    0.000000
     2  C    1.490795   0.000000
     3  C    2.600225   1.506585   0.000000
     4  C    2.593043   1.506210   1.504013   0.000000
     5  H    1.094588   2.131986   3.238706   3.506652   0.000000
     6  H    1.094767   2.154627   2.687464   2.892733   1.770761
     7  H    1.094424   2.133512   3.387496   2.892735   1.772366
     8  H    2.147581   1.083978   2.235872   2.221694   2.370769
     9  H    2.803152   2.240714   1.084057   2.225118   3.438717
    10  H    3.491597   2.229778   1.083770   2.230163   3.938622
    11  H    2.786264   2.236656   2.229473   1.083866   3.847072
    12  H    3.482285   2.228460   2.229530   1.084147   4.306033
                    6          7          8          9         10
     6  H    0.000000
     7  H    1.773472   0.000000
     8  H    3.043336   2.632540   0.000000
     9  H    2.449988   3.659927   3.129606   0.000000
    10  H    3.680214   4.306536   2.529501   1.818169   0.000000
    11  H    2.810487   2.855968   3.108032   2.517204   3.110991
    12  H    3.932974   3.650734   2.506841   3.105926   2.524746
                   11         12
    11  H    0.000000
    12  H    1.819005   0.000000
 Stoichiometry    C4H8
 Framework group  C1[X(C4H8)]
 Deg. of freedom    30
 Full point group                 C1      NOp   1
 Largest Abelian subgroup         C1      NOp   1
 Largest concise Abelian subgroup C1      NOp   1
                         Standard orientation:                         
 ---------------------------------------------------------------------
 Center     Atomic      Atomic             Coordinates (Angstroms)
 Number     Number       Type             X           Y           Z
 ---------------------------------------------------------------------
      1          6           0       -1.534315   -0.004046   -0.146795
      2          6           0       -0.189917   -0.004146    0.497458
      3          6           0        0.956470   -0.750370   -0.134007
      4          6           0        0.945562    0.753595   -0.139083
      5          1           0       -2.229826   -0.620416    0.431544
      6          1           0       -1.499864   -0.400448   -1.166694
      7          1           0       -1.935045    1.013513   -0.188668
      8          1           0       -0.256527    0.019656    1.579125
      9          1           0        0.793403   -1.258047   -1.077857
     10          1           0        1.656429   -1.254065    0.522427
     11          1           0        0.766785    1.259014   -1.081079
     12          1           0        1.637844    1.270604    0.515763
 ---------------------------------------------------------------------
 Rotational constants (GHZ):          15.6834727           6.4089129           5.6306094
 Standard basis: 6-31G(2df,p) (6D, 7F)
 There are   164 symmetry adapted cartesian basis functions of A   symmetry.
 There are   152 symmetry adapted basis functions of A   symmetry.
   152 basis functions,   232 primitive gaussians,   164 cartesian basis functions
    16 alpha electrons       16 beta electrons
       nuclear repulsion energy       124.6391059020 Hartrees.
 NAtoms=   12 NActive=   12 NUniq=   12 SFac= 1.00D+00 NAtFMM=   60 NAOKFM=F Big=F
 Integral buffers will be    131072 words long.
 Raffenetti 2 integral format.
 Two-electron integral symmetry is turned on.
 One-electron integrals computed using PRISM.
 PrsmSu:  requested number of processors reduced to:  13 ShMem   1 Linda.
 NBasis=   152 RedAO= T EigKep=  8.99D-04  NBF=   152
 NBsUse=   152 1.00D-06 EigRej= -1.00D+00 NBFU=   152
 ExpMin= 1.61D-01 ExpMax= 3.05D+03 ExpMxC= 4.57D+02 IAcc=3 IRadAn=         5 AccDes= 0.00D+00
 Harris functional with IExCor=  402 and IRadAn=       5 diagonalized for initial guess.
 HarFok:  IExCor=  402 AccDes= 0.00D+00 IRadAn=         5 IDoV= 1 UseB2=F ITyADJ=14
 ICtDFT=  3500011 ScaDFX=  1.000000  1.000000  1.000000  1.000000
 FoFCou: FMM=F IPFlag=           0 FMFlag=      100000 FMFlg1=           0
         NFxFlg=           0 DoJE=T BraDBF=F KetDBF=T FulRan=T
         wScrn=  0.000000 ICntrl=       500 IOpCl=  0 I1Cent=   200000004 NGrid=           0
         NMat0=    1 NMatS0=      1 NMatT0=    0 NMatD0=    1 NMtDS0=    0 NMtDT0=    0
 Petite list used in FoFCou.
 Keep R1 ints in memory in canonical form, NReq=87442250.
 CoulSu:  requested number of processors reduced to:  18 ShMem   1 Linda.
 Requested convergence on RMS density matrix=1.00D-08 within 128 cycles.
 Requested convergence on MAX density matrix=1.00D-06.
 Requested convergence on             energy=1.00D-06.
 No special actions if energy rises.
 Integral accuracy reduced to 1.0D-05 until final iterations.
 Initial convergence to 1.0D-05 achieved.  Increase integral accuracy.
 SCF Done:  E(RB3LYP) =  -157.223583030     A.U. after   12 cycles
            NFock= 12  Conv=0.22D-08     -V/T= 2.0089

 **********************************************************************

            Population analysis using the SCF density.

 **********************************************************************

 Orbital symmetries:
       Occupied  (A) (A) (A) (A) (A) (A) (A) (A) (A) (A) (A) (A)
                 (A) (A) (A) (A)
       Virtual   (A) (A) (A) (A) (A) (A) (A) (A) (A) (A) (A) (A)
                 (A) (A) (A) (A) (A) (A) (A) (A) (A) (A) (A) (A)
                 (A) (A) (A) (A) (A) (A) (A) (A) (A) (A) (A) (A)
                 (A) (A) (A) (A) (A) (A) (A) (A) (A) (A) (A) (A)
                 (A) (A) (A) (A) (A) (A) (A) (A) (A) (A) (A) (A)
                 (A) (A) (A) (A) (A) (A) (A) (A) (A) (A) (A) (A)
                 (A) (A) (A) (A) (A) (A) (A) (A) (A) (A) (A) (A)
                 (A) (A) (A) (A) (A) (A) (A) (A) (A) (A) (A) (A)
                 (A) (A) (A) (A) (A) (A) (A) (A) (A) (A) (A) (A)
                 (A) (A) (A) (A) (A) (A) (A) (A) (A) (A) (A) (A)
                 (A) (A) (A) (A) (A) (A) (A) (A) (A) (A) (A) (A)
                 (A) (A) (A) (A)
 The electronic state is 1-A.
 Alpha  occ. eigenvalues --  -10.18301 -10.17703 -10.17540 -10.16940  -0.85065
 Alpha  occ. eigenvalues --   -0.70690  -0.59203  -0.56097  -0.48596  -0.44960
 Alpha  occ. eigenvalues --   -0.40517  -0.38497  -0.35572  -0.34411  -0.28288
 Alpha  occ. eigenvalues --   -0.27004
 Alpha virt. eigenvalues --    0.09955   0.11354   0.13430   0.14178   0.15815
 Alpha virt. eigenvalues --    0.17361   0.18206   0.19612   0.23423   0.24881
 Alpha virt. eigenvalues --    0.26530   0.31309   0.43972   0.46956   0.49698
 Alpha virt. eigenvalues --    0.51848   0.51983   0.53262   0.57475   0.58684
 Alpha virt. eigenvalues --    0.61008   0.63901   0.64287   0.68197   0.70805
 Alpha virt. eigenvalues --    0.74965   0.75420   0.75765   0.79535   0.80322
 Alpha virt. eigenvalues --    0.82700   0.83182   0.87239   1.03560   1.06381
 Alpha virt. eigenvalues --    1.11678   1.12336   1.15002   1.17508   1.29265
 Alpha virt. eigenvalues --    1.33473   1.35919   1.41941   1.43385   1.49875
 Alpha virt. eigenvalues --    1.52338   1.53660   1.60276   1.62330   1.67155
 Alpha virt. eigenvalues --    1.68241   1.79407   1.84026   1.88591   1.94371
 Alpha virt. eigenvalues --    1.95715   1.96127   2.15617   2.21336   2.23915
 Alpha virt. eigenvalues --    2.28043   2.29064   2.31889   2.34842   2.45080
 Alpha virt. eigenvalues --    2.49600   2.58995   2.63513   2.67737   2.76422
 Alpha virt. eigenvalues --    2.77453   2.83396   2.85554   2.87778   2.88252
 Alpha virt. eigenvalues --    2.91059   2.98187   2.99924   3.03403   3.04786
 Alpha virt. eigenvalues --    3.06073   3.08136   3.12371   3.16214   3.22235
 Alpha virt. eigenvalues --    3.23524   3.25604   3.32478   3.38041   3.41801
 Alpha virt. eigenvalues --    3.44622   3.45577   3.47201   3.49244   3.61124
 Alpha virt. eigenvalues --    3.66379   3.73137   3.77927   3.86625   3.91141
 Alpha virt. eigenvalues --    4.00556   4.06116   4.10529   4.20076   4.23508
 Alpha virt. eigenvalues --    4.30303   4.38024   4.39947   4.43676   4.48108
 Alpha virt. eigenvalues --    4.48571   4.57923   4.66544   4.69873   4.70142
 Alpha virt. eigenvalues --    4.71426   4.74346   4.77240   4.81328   4.82934
 Alpha virt. eigenvalues --    4.85512   4.88504   4.90925   4.94053   5.04725
 Alpha virt. eigenvalues --    5.13351   5.33726   5.38651   5.45300   5.53114
 Alpha virt. eigenvalues --    5.88640   6.00780  10.61698  11.54243  11.94935
 Alpha virt. eigenvalues --   12.17319
          Condensed to atoms (all electrons):
               1          2          3          4          5          6
     1  C    4.948057   0.439724  -0.020805  -0.026378   0.372108   0.371609
     2  C    0.439724   4.559346   0.358301   0.354859  -0.024482  -0.022762
     3  C   -0.020805   0.358301   4.921520   0.321058   0.000038  -0.012744
     4  C   -0.026378   0.354859   0.321058   4.916227   0.004694  -0.000803
     5  H    0.372108  -0.024482   0.000038   0.004694   0.605481  -0.030621
     6  H    0.371609  -0.022762  -0.012744  -0.000803  -0.030621   0.604581
     7  H    0.372658  -0.030624   0.005406  -0.008727  -0.033551  -0.033430
     8  H   -0.056362   0.389668  -0.035519  -0.032530  -0.006671   0.006048
     9  H   -0.008798  -0.017493   0.381075  -0.022228   0.000327   0.005739
    10  H    0.003229  -0.019343   0.378416  -0.018321   0.000032   0.000029
    11  H   -0.006761  -0.022472  -0.021502   0.384360   0.000022   0.001462
    12  H    0.002767  -0.016745  -0.018819   0.378374  -0.000142  -0.000128
               7          8          9         10         11         12
     1  C    0.372658  -0.056362  -0.008798   0.003229  -0.006761   0.002767
     2  C   -0.030624   0.389668  -0.017493  -0.019343  -0.022472  -0.016745
     3  C    0.005406  -0.035519   0.381075   0.378416  -0.021502  -0.018819
     4  C   -0.008727  -0.032530  -0.022228  -0.018321   0.384360   0.378374
     5  H   -0.033551  -0.006671   0.000327   0.000032   0.000022  -0.000142
     6  H   -0.033430   0.006048   0.005739   0.000029   0.001462  -0.000128
     7  H    0.611008   0.001242   0.000026  -0.000153   0.002214   0.000397
     8  H    0.001242   0.660969   0.003138  -0.006510   0.003286  -0.006598
     9  H    0.000026   0.003138   0.594397  -0.040586  -0.006496   0.002594
    10  H   -0.000153  -0.006510  -0.040586   0.601000   0.002520  -0.007318
    11  H    0.002214   0.003286  -0.006496   0.002520   0.597481  -0.040856
    12  H    0.000397  -0.006598   0.002594  -0.007318  -0.040856   0.599647
 Mulliken charges:
               1
     1  C   -0.391049
     2  C    0.052022
     3  C   -0.256426
     4  C   -0.250584
     5  H    0.112764
     6  H    0.111020
     7  H    0.113534
     8  H    0.079839
     9  H    0.108304
    10  H    0.107005
    11  H    0.106743
    12  H    0.106827
 Sum of Mulliken charges =  -0.00000
 Mulliken charges with hydrogens summed into heavy atoms:
               1
     1  C   -0.053731
     2  C    0.131861
     3  C   -0.041117
     4  C   -0.037014
 Electronic spatial extent (au):  <R**2>=            295.6265
 Charge=             -0.0000 electrons
 Dipole moment (field-independent basis, Debye):
    X=             -0.0690    Y=              0.0013    Z=              0.0924  Tot=              0.1154
 Quadrupole moment (field-independent basis, Debye-Ang):
   XX=            -26.8774   YY=            -26.6829   ZZ=            -25.2881
   XY=              0.0135   XZ=              0.4632   YZ=              0.0542
 Traceless Quadrupole moment (field-independent basis, Debye-Ang):
   XX=             -0.5946   YY=             -0.4001   ZZ=              0.9947
   XY=              0.0135   XZ=              0.4632   YZ=              0.0542
 Octapole moment (field-independent basis, Debye-Ang**2):
  XXX=             -0.3705  YYY=              0.4746  ZZZ=              0.1359  XYY=              0.7457
  XXY=             -0.2192  XXZ=              2.6667  XZZ=              0.1237  YZZ=             -0.3301
  YYZ=             -0.8053  XYZ=              0.1780
 Hexadecapole moment (field-independent basis, Debye-Ang**3):
 XXXX=           -244.1929 YYYY=            -99.0330 ZZZZ=            -63.6901 XXXY=              0.6605
 XXXZ=              2.0081 YYYX=             -0.8201 YYYZ=             -0.0955 ZZZX=             -0.0111
 ZZZY=              0.5252 XXYY=            -52.9653 XXZZ=            -50.5365 YYZZ=            -26.1284
 XXYZ=             -0.5431 YYXZ=              0.3914 ZZXY=              0.5825
 N-N= 1.246391059020D+02 E-N=-6.123772389915D+02  KE= 1.558331681847D+02
 PrsmSu:  requested number of processors reduced to:  13 ShMem   1 Linda.
 Calling FoFJK, ICntrl=      2127 FMM=F ISym2X=0 I1Cent= 0 IOpClX= 0 NMat=1 NMatS=1 NMatT=0.
 ***** Axes restored to original set *****
 -------------------------------------------------------------------
 Center     Atomic                   Forces (Hartrees/Bohr)
 Number     Number              X              Y              Z
 -------------------------------------------------------------------
      1        6          -0.011273061    0.000616893    0.001209326
      2        6           0.004358535    0.000741720   -0.004884104
      3        6           0.005678035   -0.002766769    0.003662373
      4        6           0.003671632    0.001964274    0.002028400
      5        1          -0.002875025   -0.000683655   -0.001093316
      6        1          -0.000902310    0.001262541   -0.000258313
      7        1          -0.003597439    0.000064196    0.001200397
      8        1           0.006518083   -0.000644780   -0.000707450
      9        1          -0.001995603   -0.001003042    0.001186847
     10        1           0.001272847   -0.000528222   -0.001294837
     11        1          -0.001418829    0.000408947   -0.000145512
     12        1           0.000563132    0.000567896   -0.000903810
 -------------------------------------------------------------------
 Cartesian Forces:  Max     0.011273061 RMS     0.003031825

 GradGradGradGradGradGradGradGradGradGradGradGradGradGradGradGradGradGrad
 Berny optimization.
 FormGI is forming the generalized inverse of G from B-inverse, IUseBI=4.
 Internal  Forces:  Max     0.018662073 RMS     0.003158690
 Search for a local minimum.
 Step number   1 out of a maximum of   64
 All quantities printed in internal units (Hartrees-Bohrs-Radians)
 Mixed Optimization -- RFO/linear search
 Second derivative matrix not updated -- first step.
 ITU=  0
     Eigenvalues ---    0.00888   0.01957   0.02372   0.03079   0.03084
     Eigenvalues ---    0.03560   0.03921   0.05810   0.06001   0.09979
     Eigenvalues ---    0.10484   0.11004   0.15186   0.16000   0.16000
     Eigenvalues ---    0.16000   0.16000   0.17295   0.26263   0.27961
     Eigenvalues ---    0.31798   0.33363   0.34268   0.34288   0.34306
     Eigenvalues ---    0.35498   0.35509   0.35518   0.35531   0.35543
 RFO step:  Lambda=-2.78753765D-03 EMin= 8.87715329D-03
 Linear search not attempted -- first point.
 Iteration  1 RMS(Cart)=  0.04159733 RMS(Int)=  0.00104053
 Iteration  2 RMS(Cart)=  0.00107542 RMS(Int)=  0.00009748
 Iteration  3 RMS(Cart)=  0.00000078 RMS(Int)=  0.00009748
 Variable       Old X    -DE/DX   Delta X   Delta X   Delta X     New X
                                 (Linear)    (Quad)   (Total)
    R1        2.81719   0.01866   0.00000   0.05547   0.05547   2.87267
    R2        2.06847   0.00052   0.00000   0.00151   0.00151   2.06999
    R3        2.06881   0.00011   0.00000   0.00031   0.00031   2.06911
    R4        2.06816   0.00144   0.00000   0.00416   0.00416   2.07233
    R5        2.84703   0.00071   0.00000   0.00108   0.00109   2.84812
    R6        2.84632   0.00099   0.00000   0.00228   0.00235   2.84868
    R7        2.04842   0.00185   0.00000   0.00518   0.00518   2.05360
    R8        2.84217   0.00253   0.00000   0.00978   0.00970   2.85188
    R9        2.04857   0.00067   0.00000   0.00187   0.00187   2.05044
   R10        2.04803   0.00099   0.00000   0.00276   0.00276   2.05078
   R11        2.04821   0.00105   0.00000   0.00292   0.00292   2.05113
   R12        2.04874   0.00051   0.00000   0.00143   0.00143   2.05017
    A1        1.92265   0.00325   0.00000   0.02074   0.02055   1.94320
    A2        1.95433  -0.00026   0.00000  -0.00373  -0.00369   1.95063
    A3        1.92495   0.00404   0.00000   0.02609   0.02590   1.95085
    A4        1.88423  -0.00193   0.00000  -0.01439  -0.01435   1.86988
    A5        1.88716  -0.00317   0.00000  -0.01528  -0.01567   1.87149
    A6        1.88866  -0.00225   0.00000  -0.01532  -0.01529   1.87337
    A7        2.10029   0.00223   0.00000   0.01446   0.01451   2.11480
    A8        2.09113   0.00080   0.00000   0.00015   0.00007   2.09120
    A9        1.95607   0.00341   0.00000   0.02726   0.02733   1.98341
   A10        2.06676  -0.00534   0.00000  -0.04487  -0.04495   2.02181
   A11        2.04540  -0.00379   0.00000  -0.01658  -0.01674   2.02867
   A12        2.07422  -0.00348   0.00000  -0.02745  -0.02733   2.04689
   A13        2.05757   0.00337   0.00000   0.01979   0.01982   2.07739
   A14        2.05360   0.00061   0.00000   0.01477   0.01473   2.06834
   A15        2.06176  -0.00011   0.00000  -0.00472  -0.00465   2.05711
   A16        1.98981  -0.00015   0.00000  -0.00088  -0.00095   1.98885
   A17        2.06865  -0.00281   0.00000  -0.01668  -0.01665   2.05200
   A18        2.05559   0.00301   0.00000   0.01629   0.01633   2.07192
   A19        2.06057   0.00171   0.00000   0.00661   0.00655   2.06712
   A20        2.06031  -0.00140   0.00000  -0.00408  -0.00400   2.05631
   A21        1.99096  -0.00016   0.00000  -0.00057  -0.00057   1.99039
    D1        1.88703  -0.00227   0.00000  -0.08268  -0.08278   1.80425
    D2        3.11679  -0.00021   0.00000  -0.07280  -0.07298   3.04381
    D3       -0.66708  -0.00094   0.00000  -0.06233  -0.06240  -0.72948
    D4       -0.21005  -0.00186   0.00000  -0.07614  -0.07612  -0.28618
    D5        1.01970   0.00020   0.00000  -0.06626  -0.06632   0.95339
    D6       -2.76416  -0.00053   0.00000  -0.05579  -0.05574  -2.81990
    D7       -2.31431  -0.00161   0.00000  -0.07214  -0.07201  -2.38632
    D8       -1.08455   0.00045   0.00000  -0.06226  -0.06221  -1.14676
    D9        1.41477  -0.00027   0.00000  -0.05179  -0.05163   1.36313
   D10        0.03393  -0.00179   0.00000  -0.03380  -0.03370   0.00023
   D11       -2.49307  -0.00133   0.00000  -0.01914  -0.01914  -2.51221
   D12        2.55187  -0.00016   0.00000  -0.03037  -0.03040   2.52148
   D13        0.02487   0.00031   0.00000  -0.01571  -0.01584   0.00904
   D14       -0.03785   0.00046   0.00000  -0.00448  -0.00457  -0.04242
   D15        2.47882   0.00049   0.00000  -0.00619  -0.00625   2.47257
   D16       -2.50548  -0.00142   0.00000  -0.03130  -0.03117  -2.53666
   D17        0.01118  -0.00139   0.00000  -0.03300  -0.03286  -0.02167
   D18        0.00957  -0.00025   0.00000  -0.01614  -0.01620  -0.00663
   D19       -2.50159  -0.00044   0.00000  -0.01914  -0.01924  -2.52083
   D20        2.50955   0.00025   0.00000  -0.00182  -0.00174   2.50781
   D21       -0.00161   0.00006   0.00000  -0.00482  -0.00478  -0.00639
         Item               Value     Threshold  Converged?
 Maximum Force            0.018662     0.000450     NO 
 RMS     Force            0.003159     0.000300     NO 
 Maximum Displacement     0.134841     0.001800     NO 
 RMS     Displacement     0.041712     0.001200     NO 
 Predicted change in Energy=-1.472787D-03
 GradGradGradGradGradGradGradGradGradGradGradGradGradGradGradGradGradGrad

                          Input orientation:                          
 ---------------------------------------------------------------------
 Center     Atomic      Atomic             Coordinates (Angstroms)
 Number     Number       Type             X           Y           Z
 ---------------------------------------------------------------------
      1          6           0        1.020097    0.057522    0.038253
      2          6           0        2.540015    0.046654    0.014052
      3          6           0        3.297932   -0.717598   -1.040941
      4          6           0        3.277753    0.791147   -1.069411
      5          1           0        0.629183   -0.603411    0.819426
      6          1           0        0.596502   -0.281375   -0.912844
      7          1           0        0.623505    1.061116    0.233463
      8          1           0        2.991722    0.064561    1.002282
      9          1           0        2.714444   -1.257333   -1.779557
     10          1           0        4.227773   -1.207390   -0.770353
     11          1           0        2.684825    1.285835   -1.832197
     12          1           0        4.192469    1.314654   -0.812013
 ---------------------------------------------------------------------
                    Distance matrix (angstroms):
                    1          2          3          4          5
     1  C    0.000000
     2  C    1.520150   0.000000
     3  C    2.637044   1.507160   0.000000
     4  C    2.619568   1.507455   1.509148   0.000000
     5  H    1.095390   2.173129   3.255185   3.539410   0.000000
     6  H    1.094928   2.178069   2.739420   2.892045   1.762253
     7  H    1.096628   2.179515   3.455501   2.969073   1.764663
     8  H    2.194700   1.086719   2.209140   2.213968   2.461953
     9  H    2.811421   2.224375   1.085046   2.240066   3.395680
    10  H    3.541614   2.244202   1.085228   2.232963   3.980206
    11  H    2.789024   2.228268   2.239582   1.085414   3.850457
    12  H    3.516714   2.240716   2.232185   1.084904   4.363207
                    6          7          8          9         10
     6  H    0.000000
     7  H    1.765511   0.000000
     8  H    3.086172   2.681912   0.000000
     9  H    2.487843   3.714765   3.092397   0.000000
    10  H    3.750191   4.375444   2.507572   1.819657   0.000000
    11  H    2.768113   2.926857   3.101608   2.543884   3.118392
    12  H    3.935537   3.727573   2.509222   3.120226   2.522634
                   11         12
    11  H    0.000000
    12  H    1.820603   0.000000
 Stoichiometry    C4H8
 Framework group  C1[X(C4H8)]
 Deg. of freedom    30
 Full point group                 C1      NOp   1
 Largest Abelian subgroup         C1      NOp   1
 Largest concise Abelian subgroup C1      NOp   1
                         Standard orientation:                         
 ---------------------------------------------------------------------
 Center     Atomic      Atomic             Coordinates (Angstroms)
 Number     Number       Type             X           Y           Z
 ---------------------------------------------------------------------
      1          6           0       -1.557846   -0.002450   -0.135788
      2          6           0       -0.176636   -0.016442    0.498973
      3          6           0        0.972037   -0.746449   -0.148460
      4          6           0        0.947564    0.762441   -0.135009
      5          1           0       -2.239718   -0.688473    0.378314
      6          1           0       -1.524751   -0.307799   -1.186756
      7          1           0       -2.012176    0.994975   -0.099453
      8          1           0       -0.196472   -0.033230    1.585381
      9          1           0        0.771619   -1.259309   -1.083410
     10          1           0        1.699668   -1.247550    0.481754
     11          1           0        0.736339    1.284249   -1.063030
     12          1           0        1.654778    1.274539    0.508902
 ---------------------------------------------------------------------
 Rotational constants (GHZ):          15.6456132           6.2752286           5.5147704
 Standard basis: 6-31G(2df,p) (6D, 7F)
 There are   164 symmetry adapted cartesian basis functions of A   symmetry.
 There are   152 symmetry adapted basis functions of A   symmetry.
   152 basis functions,   232 primitive gaussians,   164 cartesian basis functions
    16 alpha electrons       16 beta electrons
       nuclear repulsion energy       123.8887688512 Hartrees.
 NAtoms=   12 NActive=   12 NUniq=   12 SFac= 1.00D+00 NAtFMM=   60 NAOKFM=F Big=F
 Integral buffers will be    131072 words long.
 Raffenetti 2 integral format.
 Two-electron integral symmetry is turned on.
 One-electron integrals computed using PRISM.
 PrsmSu:  requested number of processors reduced to:  13 ShMem   1 Linda.
 NBasis=   152 RedAO= T EigKep=  9.30D-04  NBF=   152
 NBsUse=   152 1.00D-06 EigRej= -1.00D+00 NBFU=   152
 Initial guess from the checkpoint file:  "CC1CC1.chk"
 B after Tr=    -0.000000    0.000000   -0.000000
         Rot=    0.999909   -0.012200   -0.005037   -0.002881 Ang=  -1.55 deg.
 ExpMin= 1.61D-01 ExpMax= 3.05D+03 ExpMxC= 4.57D+02 IAcc=2 IRadAn=         4 AccDes= 0.00D+00
 Harris functional with IExCor=  402 and IRadAn=       4 diagonalized for initial guess.
 HarFok:  IExCor=  402 AccDes= 0.00D+00 IRadAn=         4 IDoV= 1 UseB2=F ITyADJ=14
 ICtDFT=  3500011 ScaDFX=  1.000000  1.000000  1.000000  1.000000
 FoFCou: FMM=F IPFlag=           0 FMFlag=      100000 FMFlg1=           0
         NFxFlg=           0 DoJE=T BraDBF=F KetDBF=T FulRan=T
         wScrn=  0.000000 ICntrl=       500 IOpCl=  0 I1Cent=   200000004 NGrid=           0
         NMat0=    1 NMatS0=      1 NMatT0=    0 NMatD0=    1 NMtDS0=    0 NMtDT0=    0
 Petite list used in FoFCou.
 Keep R1 ints in memory in canonical form, NReq=87442250.
 CoulSu:  requested number of processors reduced to:  18 ShMem   1 Linda.
 Requested convergence on RMS density matrix=1.00D-08 within 128 cycles.
 Requested convergence on MAX density matrix=1.00D-06.
 Requested convergence on             energy=1.00D-06.
 No special actions if energy rises.
 Integral accuracy reduced to 1.0D-05 until final iterations.
 Initial convergence to 1.0D-05 achieved.  Increase integral accuracy.
 SCF Done:  E(RB3LYP) =  -157.224958225     A.U. after   10 cycles
            NFock= 10  Conv=0.14D-08     -V/T= 2.0095
 PrsmSu:  requested number of processors reduced to:  13 ShMem   1 Linda.
 Calling FoFJK, ICntrl=      2127 FMM=F ISym2X=0 I1Cent= 0 IOpClX= 0 NMat=1 NMatS=1 NMatT=0.
 ***** Axes restored to original set *****
 -------------------------------------------------------------------
 Center     Atomic                   Forces (Hartrees/Bohr)
 Number     Number              X              Y              Z
 -------------------------------------------------------------------
      1        6           0.000910189   -0.000779649    0.000609464
      2        6          -0.003169455    0.001596251    0.001503538
      3        6          -0.000555086   -0.001373710   -0.000032427
      4        6           0.000332945   -0.000233396    0.000061657
      5        1           0.000407211   -0.000914271   -0.000501686
      6        1           0.000784190    0.000698459   -0.001044953
      7        1           0.000992773   -0.000119895    0.000643091
      8        1           0.001028964    0.001175841   -0.000394999
      9        1           0.000312054    0.000396123   -0.000975653
     10        1          -0.000691173   -0.000192653    0.000496335
     11        1           0.000049570   -0.000496872   -0.000378232
     12        1          -0.000402183    0.000243772    0.000013865
 -------------------------------------------------------------------
 Cartesian Forces:  Max     0.003169455 RMS     0.000898570

 GradGradGradGradGradGradGradGradGradGradGradGradGradGradGradGradGradGrad
 Berny optimization.
 Using GEDIIS/GDIIS optimizer.
 FormGI is forming the generalized inverse of G from B-inverse, IUseBI=4.
 Internal  Forces:  Max     0.003106761 RMS     0.000692627
 Search for a local minimum.
 Step number   2 out of a maximum of   64
 All quantities printed in internal units (Hartrees-Bohrs-Radians)
 Mixed Optimization -- En-DIIS/RFO-DIIS
 Update second derivatives using D2CorX and points    1    2
 DE= -1.38D-03 DEPred=-1.47D-03 R= 9.34D-01
 TightC=F SS=  1.41D+00  RLast= 2.38D-01 DXNew= 5.0454D-01 7.1511D-01
 Trust test= 9.34D-01 RLast= 2.38D-01 DXMaxT set to 5.05D-01
 ITU=  1  0
 Use linear search instead of GDIIS.
     Eigenvalues ---    0.00743   0.01987   0.02354   0.03073   0.03083
     Eigenvalues ---    0.03606   0.03938   0.05719   0.05788   0.09806
     Eigenvalues ---    0.10493   0.10946   0.15156   0.15891   0.16000
     Eigenvalues ---    0.16000   0.16946   0.17960   0.26322   0.27980
     Eigenvalues ---    0.31747   0.34240   0.34286   0.34297   0.35454
     Eigenvalues ---    0.35488   0.35506   0.35525   0.35530   0.38235
 RFO step:  Lambda=-4.84061761D-04 EMin= 7.43004611D-03
 Quartic linear search produced a step of  0.00222.
 Iteration  1 RMS(Cart)=  0.02891515 RMS(Int)=  0.00071867
 Iteration  2 RMS(Cart)=  0.00074830 RMS(Int)=  0.00001243
 Iteration  3 RMS(Cart)=  0.00000043 RMS(Int)=  0.00001243
 Variable       Old X    -DE/DX   Delta X   Delta X   Delta X     New X
                                 (Linear)    (Quad)   (Total)
    R1        2.87267  -0.00311   0.00012  -0.00163  -0.00150   2.87116
    R2        2.06999   0.00005   0.00000   0.00035   0.00035   2.07034
    R3        2.06911   0.00039   0.00000   0.00117   0.00117   2.07028
    R4        2.07233  -0.00035   0.00001  -0.00045  -0.00044   2.07188
    R5        2.84812   0.00020   0.00000   0.00149   0.00149   2.84961
    R6        2.84868  -0.00025   0.00001   0.00004   0.00005   2.84872
    R7        2.05360   0.00009   0.00001   0.00096   0.00097   2.05457
    R8        2.85188   0.00050   0.00002   0.00168   0.00171   2.85358
    R9        2.05044   0.00030   0.00000   0.00109   0.00110   2.05154
   R10        2.05078  -0.00038   0.00001  -0.00069  -0.00068   2.05010
   R11        2.05113   0.00001   0.00001   0.00044   0.00044   2.05158
   R12        2.05017  -0.00022   0.00000  -0.00041  -0.00041   2.04976
    A1        1.94320  -0.00015   0.00005   0.00298   0.00302   1.94623
    A2        1.95063  -0.00118  -0.00001  -0.00875  -0.00877   1.94186
    A3        1.95085  -0.00097   0.00006  -0.00267  -0.00263   1.94822
    A4        1.86988   0.00075  -0.00003   0.00303   0.00301   1.87289
    A5        1.87149   0.00079  -0.00003   0.00439   0.00436   1.87585
    A6        1.87337   0.00094  -0.00003   0.00170   0.00164   1.87500
    A7        2.11480  -0.00115   0.00003  -0.00488  -0.00484   2.10996
    A8        2.09120  -0.00041   0.00000   0.00224   0.00224   2.09344
    A9        1.98341   0.00079   0.00006   0.01058   0.01063   1.99404
   A10        2.02181   0.00033  -0.00010  -0.00701  -0.00711   2.01470
   A11        2.02867  -0.00018  -0.00004  -0.00801  -0.00807   2.02060
   A12        2.04689   0.00092  -0.00006   0.00613   0.00608   2.05297
   A13        2.07739  -0.00077   0.00004  -0.00486  -0.00480   2.07258
   A14        2.06834  -0.00007   0.00003  -0.00726  -0.00722   2.06112
   A15        2.05711   0.00007  -0.00001   0.00597   0.00597   2.06308
   A16        1.98885  -0.00001  -0.00000   0.00016   0.00016   1.98901
   A17        2.05200   0.00053  -0.00004   0.00187   0.00183   2.05384
   A18        2.07192  -0.00051   0.00004  -0.00030  -0.00027   2.07165
   A19        2.06712  -0.00075   0.00001  -0.00709  -0.00708   2.06005
   A20        2.05631   0.00065  -0.00001   0.00521   0.00521   2.06152
   A21        1.99039   0.00003  -0.00000   0.00005   0.00005   1.99044
    D1        1.80425  -0.00048  -0.00018  -0.07327  -0.07346   1.73079
    D2        3.04381  -0.00085  -0.00016  -0.07376  -0.07395   2.96986
    D3       -0.72948  -0.00059  -0.00014  -0.06905  -0.06917  -0.79865
    D4       -0.28618  -0.00053  -0.00017  -0.07323  -0.07339  -0.35957
    D5        0.95339  -0.00091  -0.00015  -0.07372  -0.07388   0.87951
    D6       -2.81990  -0.00065  -0.00012  -0.06901  -0.06910  -2.88901
    D7       -2.38632  -0.00023  -0.00016  -0.06746  -0.06762  -2.45395
    D8       -1.14676  -0.00060  -0.00014  -0.06795  -0.06811  -1.21487
    D9        1.36313  -0.00034  -0.00011  -0.06324  -0.06334   1.29980
   D10        0.00023   0.00062  -0.00007   0.01655   0.01648   0.01670
   D11       -2.51221   0.00037  -0.00004   0.01405   0.01399  -2.49822
   D12        2.52148   0.00087  -0.00007   0.01795   0.01790   2.53938
   D13        0.00904   0.00062  -0.00004   0.01545   0.01542   0.02446
   D14       -0.04242   0.00003  -0.00001  -0.00260  -0.00263  -0.04505
   D15        2.47257   0.00013  -0.00001   0.00010   0.00007   2.47264
   D16       -2.53666  -0.00057  -0.00007  -0.01395  -0.01400  -2.55066
   D17       -0.02167  -0.00047  -0.00007  -0.01125  -0.01129  -0.03297
   D18       -0.00663   0.00007  -0.00004   0.00495   0.00491  -0.00172
   D19       -2.52083   0.00017  -0.00004   0.00792   0.00787  -2.51297
   D20        2.50781   0.00006  -0.00000   0.00317   0.00318   2.51099
   D21       -0.00639   0.00016  -0.00001   0.00614   0.00613  -0.00026
         Item               Value     Threshold  Converged?
 Maximum Force            0.003107     0.000450     NO 
 RMS     Force            0.000693     0.000300     NO 
 Maximum Displacement     0.103869     0.001800     NO 
 RMS     Displacement     0.028938     0.001200     NO 
 Predicted change in Energy=-2.530483D-04
 GradGradGradGradGradGradGradGradGradGradGradGradGradGradGradGradGradGrad

                          Input orientation:                          
 ---------------------------------------------------------------------
 Center     Atomic      Atomic             Coordinates (Angstroms)
 Number     Number       Type             X           Y           Z
 ---------------------------------------------------------------------
      1          6           0        1.020107    0.059286    0.040847
      2          6           0        2.539264    0.056880    0.016504
      3          6           0        3.295569   -0.721557   -1.030369
      4          6           0        3.275481    0.787630   -1.077334
      5          1           0        0.629085   -0.647085    0.781407
      6          1           0        0.606752   -0.226851   -0.932542
      7          1           0        0.621544    1.050209    0.288428
      8          1           0        3.001677    0.088006    1.000007
      9          1           0        2.715946   -1.263844   -1.771011
     10          1           0        4.220363   -1.213504   -0.748092
     11          1           0        2.683231    1.266173   -1.851199
     12          1           0        4.187200    1.319035   -0.826486
 ---------------------------------------------------------------------
                    Distance matrix (angstroms):
                    1          2          3          4          5
     1  C    0.000000
     2  C    1.519354   0.000000
     3  C    2.633429   1.507948   0.000000
     4  C    2.620597   1.507479   1.510051   0.000000
     5  H    1.095576   2.174725   3.224627   3.537900   0.000000
     6  H    1.095546   2.171588   2.735697   2.858715   1.764855
     7  H    1.096393   2.176763   3.468255   2.996270   1.767453
     8  H    2.201689   1.087232   2.205492   2.209024   2.493459
     9  H    2.812360   2.229515   1.085628   2.236697   3.354135
    10  H    3.533279   2.241557   1.084867   2.237351   3.944297
    11  H    2.793277   2.229671   2.236021   1.085648   3.848465
    12  H    3.517060   2.240393   2.236200   1.084687   4.371628
                    6          7          8          9         10
     6  H    0.000000
     7  H    1.766881   0.000000
     8  H    3.093468   2.664059   0.000000
     9  H    2.495412   3.739338   3.096398   0.000000
    10  H    3.750425   4.376102   2.496994   1.819936   0.000000
    11  H    2.717502   2.979127   3.101429   2.531499   3.119041
    12  H    3.901361   3.745558   2.501395   3.118971   2.533969
                   11         12
    11  H    0.000000
    12  H    1.820646   0.000000
 Stoichiometry    C4H8
 Framework group  C1[X(C4H8)]
 Deg. of freedom    30
 Full point group                 C1      NOp   1
 Largest Abelian subgroup         C1      NOp   1
 Largest concise Abelian subgroup C1      NOp   1
                         Standard orientation:                         
 ---------------------------------------------------------------------
 Center     Atomic      Atomic             Coordinates (Angstroms)
 Number     Number       Type             X           Y           Z
 ---------------------------------------------------------------------
      1          6           0       -1.557546   -0.001957   -0.135831
      2          6           0       -0.177744   -0.011590    0.500165
      3          6           0        0.967652   -0.749092   -0.146412
      4          6           0        0.949585    0.760817   -0.136240
      5          1           0       -2.221117   -0.736921    0.332985
      6          1           0       -1.504812   -0.244361   -1.202921
      7          1           0       -2.037295    0.979744   -0.045382
      8          1           0       -0.187212   -0.024659    1.587278
      9          1           0        0.773200   -1.256366   -1.086332
     10          1           0        1.685576   -1.257574    0.488385
     11          1           0        0.744407    1.274917   -1.070174
     12          1           0        1.655569    1.276156    0.506067
 ---------------------------------------------------------------------
 Rotational constants (GHZ):          15.6173352           6.2828279           5.5220536
 Standard basis: 6-31G(2df,p) (6D, 7F)
 There are   164 symmetry adapted cartesian basis functions of A   symmetry.
 There are   152 symmetry adapted basis functions of A   symmetry.
   152 basis functions,   232 primitive gaussians,   164 cartesian basis functions
    16 alpha electrons       16 beta electrons
       nuclear repulsion energy       123.8989100980 Hartrees.
 NAtoms=   12 NActive=   12 NUniq=   12 SFac= 1.00D+00 NAtFMM=   60 NAOKFM=F Big=F
 Integral buffers will be    131072 words long.
 Raffenetti 2 integral format.
 Two-electron integral symmetry is turned on.
 One-electron integrals computed using PRISM.
 PrsmSu:  requested number of processors reduced to:  13 ShMem   1 Linda.
 NBasis=   152 RedAO= T EigKep=  9.30D-04  NBF=   152
 NBsUse=   152 1.00D-06 EigRej= -1.00D+00 NBFU=   152
 Initial guess from the checkpoint file:  "CC1CC1.chk"
 B after Tr=     0.000000   -0.000000    0.000000
         Rot=    0.999997   -0.002456    0.000357    0.000207 Ang=  -0.29 deg.
 ExpMin= 1.61D-01 ExpMax= 3.05D+03 ExpMxC= 4.57D+02 IAcc=2 IRadAn=         4 AccDes= 0.00D+00
 Harris functional with IExCor=  402 and IRadAn=       4 diagonalized for initial guess.
 HarFok:  IExCor=  402 AccDes= 0.00D+00 IRadAn=         4 IDoV= 1 UseB2=F ITyADJ=14
 ICtDFT=  3500011 ScaDFX=  1.000000  1.000000  1.000000  1.000000
 FoFCou: FMM=F IPFlag=           0 FMFlag=      100000 FMFlg1=           0
         NFxFlg=           0 DoJE=T BraDBF=F KetDBF=T FulRan=T
         wScrn=  0.000000 ICntrl=       500 IOpCl=  0 I1Cent=   200000004 NGrid=           0
         NMat0=    1 NMatS0=      1 NMatT0=    0 NMatD0=    1 NMtDS0=    0 NMtDT0=    0
 Petite list used in FoFCou.
 Keep R1 ints in memory in canonical form, NReq=87442250.
 CoulSu:  requested number of processors reduced to:  18 ShMem   1 Linda.
 Requested convergence on RMS density matrix=1.00D-08 within 128 cycles.
 Requested convergence on MAX density matrix=1.00D-06.
 Requested convergence on             energy=1.00D-06.
 No special actions if energy rises.
 Integral accuracy reduced to 1.0D-05 until final iterations.
 Initial convergence to 1.0D-05 achieved.  Increase integral accuracy.
 SCF Done:  E(RB3LYP) =  -157.225375695     A.U. after    9 cycles
            NFock=  9  Conv=0.19D-08     -V/T= 2.0095
 PrsmSu:  requested number of processors reduced to:  13 ShMem   1 Linda.
 Calling FoFJK, ICntrl=      2127 FMM=F ISym2X=0 I1Cent= 0 IOpClX= 0 NMat=1 NMatS=1 NMatT=0.
 ***** Axes restored to original set *****
 -------------------------------------------------------------------
 Center     Atomic                   Forces (Hartrees/Bohr)
 Number     Number              X              Y              Z
 -------------------------------------------------------------------
      1        6           0.001696078   -0.000405996    0.000230323
      2        6          -0.002916047    0.000730851    0.000480107
      3        6          -0.000397119   -0.000806387    0.000060090
      4        6           0.000279411   -0.000489896   -0.000116292
      5        1           0.000445368   -0.000637055   -0.000493576
      6        1           0.000489737    0.000728175   -0.000398128
      7        1           0.000574907   -0.000171585    0.000646835
      8        1          -0.000013016    0.000914786   -0.000298912
      9        1           0.000182328    0.000290923   -0.000148205
     10        1          -0.000206624   -0.000006920    0.000090607
     11        1           0.000069118   -0.000317342   -0.000040150
     12        1          -0.000204139    0.000170445   -0.000012698
 -------------------------------------------------------------------
 Cartesian Forces:  Max     0.002916047 RMS     0.000694334

 GradGradGradGradGradGradGradGradGradGradGradGradGradGradGradGradGradGrad
 Berny optimization.
 Using GEDIIS/GDIIS optimizer.
 FormGI is forming the generalized inverse of G from B-inverse, IUseBI=4.
 Internal  Forces:  Max     0.003206465 RMS     0.000527693
 Search for a local minimum.
 Step number   3 out of a maximum of   64
 All quantities printed in internal units (Hartrees-Bohrs-Radians)
 Mixed Optimization -- En-DIIS/RFO-DIIS
 Swapping is turned off.
 Update second derivatives using D2CorX and points    1    2    3
 DE= -4.17D-04 DEPred=-2.53D-04 R= 1.65D+00
 TightC=F SS=  1.41D+00  RLast= 2.16D-01 DXNew= 8.4853D-01 6.4764D-01
 Trust test= 1.65D+00 RLast= 2.16D-01 DXMaxT set to 6.48D-01
 ITU=  1  1  0
     Eigenvalues ---    0.00188   0.01984   0.02395   0.03076   0.03082
     Eigenvalues ---    0.03794   0.03949   0.05786   0.05828   0.10240
     Eigenvalues ---    0.10495   0.11130   0.15201   0.15849   0.16000
     Eigenvalues ---    0.16242   0.16962   0.17833   0.26789   0.28009
     Eigenvalues ---    0.31795   0.34285   0.34293   0.34373   0.35456
     Eigenvalues ---    0.35503   0.35522   0.35529   0.35692   0.38004
 En-DIIS/RFO-DIIS/Sim-DIIS IScMMF=       -3 using points:     3    2
 RFO step:  Lambda=-9.03742685D-04.
 DidBck=F Rises=F RFO-DIIS coefs:    3.00000   -2.00000
 Iteration  1 RMS(Cart)=  0.08220597 RMS(Int)=  0.01457991
 Iteration  2 RMS(Cart)=  0.01489033 RMS(Int)=  0.00021883
 Iteration  3 RMS(Cart)=  0.00021166 RMS(Int)=  0.00006126
 Iteration  4 RMS(Cart)=  0.00000004 RMS(Int)=  0.00006126
 Variable       Old X    -DE/DX   Delta X   Delta X   Delta X     New X
                                 (Linear)    (Quad)   (Total)
    R1        2.87116  -0.00321  -0.00301  -0.01059  -0.01360   2.85756
    R2        2.07034  -0.00008   0.00070  -0.00073  -0.00002   2.07032
    R3        2.07028  -0.00002   0.00234  -0.00161   0.00072   2.07100
    R4        2.07188  -0.00022  -0.00089  -0.00009  -0.00098   2.07090
    R5        2.84961   0.00006   0.00298  -0.00033   0.00262   2.85223
    R6        2.84872  -0.00011   0.00009  -0.00013  -0.00002   2.84870
    R7        2.05457  -0.00025   0.00194  -0.00181   0.00013   2.05470
    R8        2.85358  -0.00000   0.00341  -0.00002   0.00340   2.85698
    R9        2.05154  -0.00014   0.00220  -0.00209   0.00011   2.05165
   R10        2.05010  -0.00015  -0.00136   0.00045  -0.00092   2.04918
   R11        2.05158  -0.00015   0.00089  -0.00096  -0.00007   2.05150
   R12        2.04976  -0.00009  -0.00082   0.00018  -0.00064   2.04912
    A1        1.94623  -0.00039   0.00605  -0.00399   0.00206   1.94829
    A2        1.94186  -0.00054  -0.01755  -0.00131  -0.01895   1.92291
    A3        1.94822  -0.00052  -0.00526   0.00125  -0.00410   1.94412
    A4        1.87289   0.00051   0.00602   0.00188   0.00790   1.88079
    A5        1.87585   0.00054   0.00872   0.00119   0.00990   1.88575
    A6        1.87500   0.00051   0.00327   0.00127   0.00438   1.87938
    A7        2.10996  -0.00036  -0.00968   0.00509  -0.00456   2.10541
    A8        2.09344  -0.00001   0.00448   0.00128   0.00572   2.09916
    A9        1.99404   0.00005   0.02126  -0.00302   0.01823   2.01227
   A10        2.01470   0.00029  -0.01422  -0.00163  -0.01587   1.99883
   A11        2.02060   0.00001  -0.01613   0.00008  -0.01617   2.00443
   A12        2.05297   0.00024   0.01216  -0.00777   0.00440   2.05738
   A13        2.07258  -0.00020  -0.00961   0.00766  -0.00193   2.07066
   A14        2.06112  -0.00001  -0.01444   0.00371  -0.01070   2.05042
   A15        2.06308  -0.00004   0.01194  -0.00446   0.00752   2.07059
   A16        1.98901   0.00003   0.00032   0.00054   0.00084   1.98985
   A17        2.05384   0.00007   0.00367  -0.00436  -0.00069   2.05315
   A18        2.07165  -0.00008  -0.00053   0.00324   0.00268   2.07433
   A19        2.06005  -0.00039  -0.01415  -0.00053  -0.01470   2.04535
   A20        2.06152   0.00035   0.01042   0.00215   0.01262   2.07414
   A21        1.99044   0.00001   0.00010  -0.00026  -0.00015   1.99028
    D1        1.73079  -0.00043  -0.14692  -0.09120  -0.23813   1.49266
    D2        2.96986  -0.00057  -0.14790  -0.08848  -0.23648   2.73339
    D3       -0.79865  -0.00050  -0.13835  -0.09117  -0.22941  -1.02806
    D4       -0.35957  -0.00045  -0.14678  -0.09000  -0.23675  -0.59632
    D5        0.87951  -0.00059  -0.14776  -0.08729  -0.23510   0.64441
    D6       -2.88901  -0.00052  -0.13821  -0.08998  -0.22803  -3.11704
    D7       -2.45395  -0.00037  -0.13525  -0.09157  -0.22687  -2.68082
    D8       -1.21487  -0.00051  -0.13623  -0.08886  -0.22522  -1.44010
    D9        1.29980  -0.00044  -0.12667  -0.09155  -0.21816   1.08164
   D10        0.01670   0.00028   0.03295  -0.00834   0.02459   0.04129
   D11       -2.49822   0.00015   0.02799  -0.00917   0.01875  -2.47947
   D12        2.53938   0.00027   0.03580  -0.00878   0.02709   2.56646
   D13        0.02446   0.00014   0.03084  -0.00961   0.02124   0.04570
   D14       -0.04505  -0.00005  -0.00526  -0.00451  -0.00987  -0.05492
   D15        2.47264  -0.00005   0.00015  -0.00693  -0.00688   2.46576
   D16       -2.55066  -0.00014  -0.02800  -0.00074  -0.02861  -2.57927
   D17       -0.03297  -0.00013  -0.02259  -0.00315  -0.02562  -0.05858
   D18       -0.00172   0.00000   0.00982  -0.00596   0.00383   0.00211
   D19       -2.51297   0.00004   0.01573  -0.00811   0.00761  -2.50536
   D20        2.51099  -0.00003   0.00636  -0.00610   0.00027   2.51126
   D21       -0.00026   0.00001   0.01227  -0.00825   0.00405   0.00379
         Item               Value     Threshold  Converged?
 Maximum Force            0.003206     0.000450     NO 
 RMS     Force            0.000528     0.000300     NO 
 Maximum Displacement     0.367601     0.001800     NO 
 RMS     Displacement     0.094796     0.001200     NO 
 Predicted change in Energy=-6.440728D-04
 GradGradGradGradGradGradGradGradGradGradGradGradGradGradGradGradGradGrad

                          Input orientation:                          
 ---------------------------------------------------------------------
 Center     Atomic      Atomic             Coordinates (Angstroms)
 Number     Number       Type             X           Y           Z
 ---------------------------------------------------------------------
      1          6           0        1.021895    0.068518    0.044080
      2          6           0        2.533756    0.084056    0.018511
      3          6           0        3.294192   -0.735407   -0.995543
      4          6           0        3.267793    0.772320   -1.103958
      5          1           0        0.636620   -0.768829    0.636258
      6          1           0        0.627680   -0.032325   -0.973507
      7          1           0        0.619744    0.996358    0.466371
      8          1           0        3.014114    0.157438    0.991183
      9          1           0        2.721153   -1.300208   -1.724469
     10          1           0        4.215210   -1.218293   -0.688248
     11          1           0        2.674233    1.201734   -1.905106
     12          1           0        4.169829    1.329018   -0.875412
 ---------------------------------------------------------------------
                    Distance matrix (angstroms):
                    1          2          3          4          5
     1  C    0.000000
     2  C    1.512157   0.000000
     3  C    2.624965   1.509333   0.000000
     4  C    2.618661   1.507466   1.511850   0.000000
     5  H    1.095565   2.169827   3.118747   3.510921   0.000000
     6  H    1.095927   2.151922   2.757734   2.763090   1.770271
     7  H    1.095875   2.167098   3.505549   3.086793   1.773424
     8  H    2.207679   1.087300   2.196064   2.198193   2.576125
     9  H    2.808675   2.233671   1.085684   2.231418   3.193849
    10  H    3.519864   2.241184   1.084381   2.243425   3.842218
    11  H    2.795304   2.229179   2.228042   1.085609   3.807035
    12  H    3.513376   2.241821   2.245667   1.084350   4.378319
                    6          7          8          9         10
     6  H    0.000000
     7  H    1.769604   0.000000
     8  H    3.096947   2.590796   0.000000
     9  H    2.560098   3.806562   3.096018   0.000000
    10  H    3.789229   4.377807   2.481080   1.820074   0.000000
    11  H    2.564987   3.144361   3.097510   2.508894   3.116390
    12  H    3.796010   3.809743   2.488465   3.119678   2.554582
                   11         12
    11  H    0.000000
    12  H    1.820241   0.000000
 Stoichiometry    C4H8
 Framework group  C1[X(C4H8)]
 Deg. of freedom    30
 Full point group                 C1      NOp   1
 Largest Abelian subgroup         C1      NOp   1
 Largest concise Abelian subgroup C1      NOp   1
                         Standard orientation:                         
 ---------------------------------------------------------------------
 Center     Atomic      Atomic             Coordinates (Angstroms)
 Number     Number       Type             X           Y           Z
 ---------------------------------------------------------------------
      1          6           0       -1.554480   -0.001717   -0.135891
      2          6           0       -0.182262   -0.004288    0.499427
      3          6           0        0.960578   -0.753313   -0.141640
      4          6           0        0.951402    0.758504   -0.137290
      5          1           0       -2.140564   -0.876962    0.165298
      6          1           0       -1.465367   -0.018748   -1.228057
      7          1           0       -2.120014    0.896132    0.137934
      8          1           0       -0.173704   -0.012321    1.586663
      9          1           0        0.773289   -1.252724   -1.087272
     10          1           0        1.666912   -1.270567    0.498221
     11          1           0        0.755578    1.256102   -1.082063
     12          1           0        1.652444    1.283972    0.501645
 ---------------------------------------------------------------------
 Rotational constants (GHZ):          15.5971461           6.3141499           5.5441583
 Standard basis: 6-31G(2df,p) (6D, 7F)
 There are   164 symmetry adapted cartesian basis functions of A   symmetry.
 There are   152 symmetry adapted basis functions of A   symmetry.
   152 basis functions,   232 primitive gaussians,   164 cartesian basis functions
    16 alpha electrons       16 beta electrons
       nuclear repulsion energy       124.0313345075 Hartrees.
 NAtoms=   12 NActive=   12 NUniq=   12 SFac= 1.00D+00 NAtFMM=   60 NAOKFM=F Big=F
 Integral buffers will be    131072 words long.
 Raffenetti 2 integral format.
 Two-electron integral symmetry is turned on.
 One-electron integrals computed using PRISM.
 PrsmSu:  requested number of processors reduced to:  13 ShMem   1 Linda.
 NBasis=   152 RedAO= T EigKep=  9.24D-04  NBF=   152
 NBsUse=   152 1.00D-06 EigRej= -1.00D+00 NBFU=   152
 Initial guess from the checkpoint file:  "CC1CC1.chk"
 B after Tr=    -0.000000   -0.000000    0.000000
         Rot=    0.999941   -0.010730    0.000850   -0.001268 Ang=  -1.24 deg.
 ExpMin= 1.61D-01 ExpMax= 3.05D+03 ExpMxC= 4.57D+02 IAcc=2 IRadAn=         4 AccDes= 0.00D+00
 Harris functional with IExCor=  402 and IRadAn=       4 diagonalized for initial guess.
 HarFok:  IExCor=  402 AccDes= 0.00D+00 IRadAn=         4 IDoV= 1 UseB2=F ITyADJ=14
 ICtDFT=  3500011 ScaDFX=  1.000000  1.000000  1.000000  1.000000
 FoFCou: FMM=F IPFlag=           0 FMFlag=      100000 FMFlg1=           0
         NFxFlg=           0 DoJE=T BraDBF=F KetDBF=T FulRan=T
         wScrn=  0.000000 ICntrl=       500 IOpCl=  0 I1Cent=   200000004 NGrid=           0
         NMat0=    1 NMatS0=      1 NMatT0=    0 NMatD0=    1 NMtDS0=    0 NMtDT0=    0
 Petite list used in FoFCou.
 Keep R1 ints in memory in canonical form, NReq=87442250.
 CoulSu:  requested number of processors reduced to:  18 ShMem   1 Linda.
 Requested convergence on RMS density matrix=1.00D-08 within 128 cycles.
 Requested convergence on MAX density matrix=1.00D-06.
 Requested convergence on             energy=1.00D-06.
 No special actions if energy rises.
 Integral accuracy reduced to 1.0D-05 until final iterations.
 Initial convergence to 1.0D-05 achieved.  Increase integral accuracy.
 SCF Done:  E(RB3LYP) =  -157.225952744     A.U. after    9 cycles
            NFock=  9  Conv=0.56D-08     -V/T= 2.0094
 PrsmSu:  requested number of processors reduced to:  13 ShMem   1 Linda.
 Calling FoFJK, ICntrl=      2127 FMM=F ISym2X=0 I1Cent= 0 IOpClX= 0 NMat=1 NMatS=1 NMatT=0.
 ***** Axes restored to original set *****
 -------------------------------------------------------------------
 Center     Atomic                   Forces (Hartrees/Bohr)
 Number     Number              X              Y              Z
 -------------------------------------------------------------------
      1        6           0.001335738    0.000046801   -0.000522934
      2        6           0.001517232   -0.000511730   -0.000637640
      3        6          -0.000460357    0.000834838   -0.000050403
      4        6          -0.000101549   -0.000794862   -0.000571315
      5        1          -0.000153428    0.000020535    0.000000544
      6        1          -0.000798585    0.000032037    0.000507547
      7        1          -0.000256165   -0.000253289    0.000167231
      8        1          -0.001515587    0.000384194    0.000578763
      9        1          -0.000007667   -0.000009640    0.000278683
     10        1           0.000144078    0.000114591   -0.000000554
     11        1           0.000029187    0.000408449    0.000297570
     12        1           0.000267103   -0.000271925   -0.000047493
 -------------------------------------------------------------------
 Cartesian Forces:  Max     0.001517232 RMS     0.000559845

 GradGradGradGradGradGradGradGradGradGradGradGradGradGradGradGradGradGrad
 Berny optimization.
 Using GEDIIS/GDIIS optimizer.
 FormGI is forming the generalized inverse of G from B-inverse, IUseBI=4.
 Internal  Forces:  Max     0.001316263 RMS     0.000375199
 Search for a local minimum.
 Step number   4 out of a maximum of   64
 All quantities printed in internal units (Hartrees-Bohrs-Radians)
 Mixed Optimization -- En-DIIS/RFO-DIIS
 Swapping is turned off.
 Update second derivatives using D2CorX and points    3    4
 DE= -5.77D-04 DEPred=-6.44D-04 R= 8.96D-01
 TightC=F SS=  1.41D+00  RLast= 6.96D-01 DXNew= 1.0892D+00 2.0881D+00
 Trust test= 8.96D-01 RLast= 6.96D-01 DXMaxT set to 1.09D+00
 ITU=  1  1  1  0
     Eigenvalues ---    0.00211   0.01979   0.02389   0.03072   0.03085
     Eigenvalues ---    0.03863   0.03951   0.05812   0.05969   0.10343
     Eigenvalues ---    0.10500   0.11255   0.15305   0.15980   0.16046
     Eigenvalues ---    0.16227   0.17078   0.17870   0.26974   0.28091
     Eigenvalues ---    0.31836   0.34285   0.34296   0.34379   0.35454
     Eigenvalues ---    0.35503   0.35523   0.35529   0.35724   0.37657
 En-DIIS/RFO-DIIS/Sim-DIIS IScMMF=       -3 using points:     4    3    2
 RFO step:  Lambda=-6.35374221D-05.
 DidBck=F Rises=F RFO-DIIS coefs:    1.03908   -0.02982   -0.00925
 Iteration  1 RMS(Cart)=  0.00595687 RMS(Int)=  0.00002729
 Iteration  2 RMS(Cart)=  0.00002910 RMS(Int)=  0.00000442
 Iteration  3 RMS(Cart)=  0.00000000 RMS(Int)=  0.00000442
 Variable       Old X    -DE/DX   Delta X   Delta X   Delta X     New X
                                 (Linear)    (Quad)   (Total)
    R1        2.85756  -0.00012  -0.00055   0.00022  -0.00032   2.85724
    R2        2.07032   0.00004   0.00000   0.00017   0.00017   2.07049
    R3        2.07100  -0.00019   0.00004  -0.00037  -0.00033   2.07067
    R4        2.07090  -0.00006  -0.00004  -0.00018  -0.00022   2.07068
    R5        2.85223  -0.00036   0.00012  -0.00148  -0.00137   2.85086
    R6        2.84870   0.00037  -0.00000   0.00098   0.00098   2.84968
    R7        2.05470  -0.00013   0.00001  -0.00019  -0.00018   2.05452
    R8        2.85698  -0.00080   0.00015  -0.00181  -0.00166   2.85533
    R9        2.05165  -0.00018   0.00001  -0.00030  -0.00028   2.05136
   R10        2.04918   0.00007  -0.00004   0.00013   0.00009   2.04927
   R11        2.05150  -0.00007   0.00000  -0.00012  -0.00012   2.05138
   R12        2.04912   0.00007  -0.00003   0.00017   0.00014   2.04926
    A1        1.94829  -0.00013   0.00011  -0.00134  -0.00123   1.94706
    A2        1.92291   0.00132  -0.00082   0.00895   0.00811   1.93103
    A3        1.94412   0.00018  -0.00018   0.00053   0.00033   1.94445
    A4        1.88079  -0.00057   0.00034  -0.00292  -0.00259   1.87821
    A5        1.88575  -0.00028   0.00043  -0.00370  -0.00327   1.88248
    A6        1.87938  -0.00058   0.00019  -0.00187  -0.00170   1.87768
    A7        2.10541   0.00035  -0.00022  -0.00119  -0.00141   2.10400
    A8        2.09916   0.00059   0.00024   0.00357   0.00382   2.10298
    A9        2.01227  -0.00114   0.00081  -0.00851  -0.00769   2.00457
   A10        1.99883   0.00067  -0.00069   0.00844   0.00775   2.00658
   A11        2.00443   0.00048  -0.00071   0.00369   0.00297   2.00740
   A12        2.05738  -0.00020   0.00023  -0.00125  -0.00103   2.05635
   A13        2.07066  -0.00003  -0.00012  -0.00005  -0.00017   2.07049
   A14        2.05042   0.00007  -0.00048   0.00179   0.00130   2.05172
   A15        2.07059  -0.00025   0.00035  -0.00151  -0.00116   2.06943
   A16        1.98985   0.00011   0.00003   0.00024   0.00027   1.99012
   A17        2.05315  -0.00007  -0.00001  -0.00129  -0.00130   2.05185
   A18        2.07433   0.00010   0.00010   0.00094   0.00104   2.07537
   A19        2.04535   0.00014  -0.00064   0.00497   0.00433   2.04968
   A20        2.07414  -0.00006   0.00054  -0.00397  -0.00342   2.07072
   A21        1.99028  -0.00005  -0.00001  -0.00022  -0.00023   1.99006
    D1        1.49266   0.00009  -0.00998   0.00153  -0.00845   1.48421
    D2        2.73339   0.00008  -0.00992   0.00178  -0.00815   2.72523
    D3       -1.02806   0.00008  -0.00960   0.00079  -0.00881  -1.03688
    D4       -0.59632   0.00001  -0.00993   0.00011  -0.00981  -0.60612
    D5        0.64441   0.00000  -0.00987   0.00036  -0.00951   0.63490
    D6       -3.11704   0.00001  -0.00955  -0.00062  -0.01017  -3.12721
    D7       -2.68082  -0.00024  -0.00949  -0.00377  -0.01326  -2.69408
    D8       -1.44010  -0.00025  -0.00943  -0.00352  -0.01296  -1.45306
    D9        1.08164  -0.00024  -0.00911  -0.00450  -0.01362   1.06802
   D10        0.04129   0.00013   0.00111   0.00147   0.00259   0.04388
   D11       -2.47947   0.00030   0.00086   0.00317   0.00404  -2.47543
   D12        2.56646  -0.00047   0.00122  -0.00338  -0.00216   2.56430
   D13        0.04570  -0.00030   0.00097  -0.00167  -0.00071   0.04500
   D14       -0.05492   0.00012  -0.00041   0.00957   0.00916  -0.04576
   D15        2.46576   0.00008  -0.00027   0.00853   0.00826   2.47402
   D16       -2.57927   0.00066  -0.00125   0.01462   0.01337  -2.56589
   D17       -0.05858   0.00061  -0.00111   0.01357   0.01247  -0.04611
   D18        0.00211   0.00003   0.00020   0.00198   0.00218   0.00429
   D19       -2.50536  -0.00001   0.00037   0.00074   0.00111  -2.50425
   D20        2.51126  -0.00005   0.00004   0.00291   0.00295   2.51420
   D21        0.00379  -0.00009   0.00021   0.00166   0.00188   0.00567
         Item               Value     Threshold  Converged?
 Maximum Force            0.001316     0.000450     NO 
 RMS     Force            0.000375     0.000300     NO 
 Maximum Displacement     0.015392     0.001800     NO 
 RMS     Displacement     0.005962     0.001200     NO 
 Predicted change in Energy=-3.183807D-05
 GradGradGradGradGradGradGradGradGradGradGradGradGradGradGradGradGradGrad

                          Input orientation:                          
 ---------------------------------------------------------------------
 Center     Atomic      Atomic             Coordinates (Angstroms)
 Number     Number       Type             X           Y           Z
 ---------------------------------------------------------------------
      1          6           0        1.022440    0.067324    0.042819
      2          6           0        2.534073    0.086765    0.016536
      3          6           0        3.294042   -0.734808   -0.995080
      4          6           0        3.271084    0.771869   -1.106614
      5          1           0        0.640810   -0.774219    0.631571
      6          1           0        0.619697   -0.028156   -0.971754
      7          1           0        0.618005    0.989911    0.474039
      8          1           0        3.007086    0.165583    0.992275
      9          1           0        2.720061   -1.300965   -1.721991
     10          1           0        4.214403   -1.217996   -0.686135
     11          1           0        2.677964    1.205301   -1.905834
     12          1           0        4.176553    1.323771   -0.879673
 ---------------------------------------------------------------------
                    Distance matrix (angstroms):
                    1          2          3          4          5
     1  C    0.000000
     2  C    1.511986   0.000000
     3  C    2.623133   1.508610   0.000000
     4  C    2.621827   1.507985   1.510974   0.000000
     5  H    1.095657   2.168872   3.112425   3.511412   0.000000
     6  H    1.095754   2.157489   2.766229   2.772739   1.768532
     7  H    1.095757   2.167094   3.506300   3.095938   1.771296
     8  H    2.202258   1.087207   2.200597   2.200593   2.571497
     9  H    2.805118   2.232233   1.085535   2.231357   3.184337
    10  H    3.517393   2.240459   1.084426   2.241922   3.834561
    11  H    2.798750   2.228752   2.230033   1.085545   3.808795
    12  H    3.518249   2.243015   2.242742   1.084422   4.380285
                    6          7          8          9         10
     6  H    0.000000
     7  H    1.768270   0.000000
     8  H    3.097510   2.579883   0.000000
     9  H    2.567962   3.806481   3.098449   0.000000
    10  H    3.797263   4.376635   2.487763   1.820148   0.000000
    11  H    2.574954   3.154936   3.096510   2.513352   3.117800
    12  H    3.806233   3.821944   2.492637   3.117709   2.549405
                   11         12
    11  H    0.000000
    12  H    1.820113   0.000000
 Stoichiometry    C4H8
 Framework group  C1[X(C4H8)]
 Deg. of freedom    30
 Full point group                 C1      NOp   1
 Largest Abelian subgroup         C1      NOp   1
 Largest concise Abelian subgroup C1      NOp   1
                         Standard orientation:                         
 ---------------------------------------------------------------------
 Center     Atomic      Atomic             Coordinates (Angstroms)
 Number     Number       Type             X           Y           Z
 ---------------------------------------------------------------------
      1          6           0       -1.554371   -0.000521   -0.136113
      2          6           0       -0.182013   -0.000858    0.498501
      3          6           0        0.957933   -0.754935   -0.140087
      4          6           0        0.955926    0.756037   -0.138857
      5          1           0       -2.137103   -0.878352    0.164391
      6          1           0       -1.474589   -0.013724   -1.228878
      7          1           0       -2.124083    0.892773    0.143419
      8          1           0       -0.181318   -0.002360    1.585707
      9          1           0        0.767881   -1.256588   -1.083809
     10          1           0        1.662163   -1.273125    0.501411
     11          1           0        0.760291    1.256752   -1.081948
     12          1           0        1.661906    1.276279    0.499039
 ---------------------------------------------------------------------
 Rotational constants (GHZ):          15.6157996           6.3088934           5.5403641
 Standard basis: 6-31G(2df,p) (6D, 7F)
 There are   164 symmetry adapted cartesian basis functions of A   symmetry.
 There are   152 symmetry adapted basis functions of A   symmetry.
   152 basis functions,   232 primitive gaussians,   164 cartesian basis functions
    16 alpha electrons       16 beta electrons
       nuclear repulsion energy       124.0266834466 Hartrees.
 NAtoms=   12 NActive=   12 NUniq=   12 SFac= 1.00D+00 NAtFMM=   60 NAOKFM=F Big=F
 Integral buffers will be    131072 words long.
 Raffenetti 2 integral format.
 Two-electron integral symmetry is turned on.
 One-electron integrals computed using PRISM.
 PrsmSu:  requested number of processors reduced to:  13 ShMem   1 Linda.
 NBasis=   152 RedAO= T EigKep=  9.25D-04  NBF=   152
 NBsUse=   152 1.00D-06 EigRej= -1.00D+00 NBFU=   152
 Initial guess from the checkpoint file:  "CC1CC1.chk"
 B after Tr=    -0.000000    0.000000   -0.000000
         Rot=    0.999999    0.000848   -0.000029    0.000973 Ang=   0.15 deg.
 Keep R1 ints in memory in canonical form, NReq=87442250.
 CoulSu:  requested number of processors reduced to:  18 ShMem   1 Linda.
 Requested convergence on RMS density matrix=1.00D-08 within 128 cycles.
 Requested convergence on MAX density matrix=1.00D-06.
 Requested convergence on             energy=1.00D-06.
 No special actions if energy rises.
 SCF Done:  E(RB3LYP) =  -157.225997089     A.U. after    7 cycles
            NFock=  7  Conv=0.88D-08     -V/T= 2.0094
 PrsmSu:  requested number of processors reduced to:  13 ShMem   1 Linda.
 Calling FoFJK, ICntrl=      2127 FMM=F ISym2X=0 I1Cent= 0 IOpClX= 0 NMat=1 NMatS=1 NMatT=0.
 ***** Axes restored to original set *****
 -------------------------------------------------------------------
 Center     Atomic                   Forces (Hartrees/Bohr)
 Number     Number              X              Y              Z
 -------------------------------------------------------------------
      1        6           0.000579706    0.000257658   -0.000237374
      2        6           0.001112097   -0.000267772   -0.000449418
      3        6          -0.000251435    0.000368293    0.000052017
      4        6          -0.000462846   -0.000402979   -0.000387407
      5        1           0.000000590   -0.000074723    0.000037864
      6        1          -0.000248742    0.000028798    0.000173570
      7        1          -0.000186943   -0.000021838    0.000137813
      8        1          -0.000861968    0.000025668    0.000355544
      9        1          -0.000040463   -0.000096454    0.000229340
     10        1           0.000161935    0.000102980   -0.000108913
     11        1           0.000139201    0.000185707    0.000035638
     12        1           0.000058869   -0.000105338    0.000161326
 -------------------------------------------------------------------
 Cartesian Forces:  Max     0.001112097 RMS     0.000330394

 GradGradGradGradGradGradGradGradGradGradGradGradGradGradGradGradGradGrad
 Berny optimization.
 Using GEDIIS/GDIIS optimizer.
[...]
   D16       -2.55427   0.00000   0.00000   0.00055   0.00055  -2.55372
   D17       -0.03535   0.00000   0.00000   0.00048   0.00048  -0.03487
   D18        0.00014  -0.00000   0.00000  -0.00014  -0.00014   0.00000
   D19       -2.50968  -0.00001   0.00000  -0.00023  -0.00023  -2.50991
   D20        2.51001   0.00000   0.00000  -0.00010  -0.00010   2.50991
   D21        0.00019  -0.00000   0.00000  -0.00019  -0.00019  -0.00000
         Item               Value     Threshold  Converged?
 Maximum Force            0.000029     0.000450     YES
 RMS     Force            0.000010     0.000300     YES
 Maximum Displacement     0.001196     0.001800     YES
 RMS     Displacement     0.000347     0.001200     YES
 Predicted change in Energy=-4.480996D-08
 Optimization completed.
    -- Stationary point found.
                           ----------------------------
                           !   Optimized Parameters   !
                           ! (Angstroms and Degrees)  !
 --------------------------                            --------------------------
 ! Name  Definition              Value          Derivative Info.                !
 --------------------------------------------------------------------------------
 ! R1    R(1,2)                  1.512          -DE/DX =    0.0                 !
 ! R2    R(1,5)                  1.0959         -DE/DX =    0.0                 !
 ! R3    R(1,6)                  1.0957         -DE/DX =    0.0                 !
 ! R4    R(1,7)                  1.0959         -DE/DX =    0.0                 !
 ! R5    R(2,3)                  1.5076         -DE/DX =    0.0                 !
 ! R6    R(2,4)                  1.5076         -DE/DX =    0.0                 !
 ! R7    R(2,8)                  1.0872         -DE/DX =    0.0                 !
 ! R8    R(3,4)                  1.5105         -DE/DX =    0.0                 !
 ! R9    R(3,9)                  1.0854         -DE/DX =    0.0                 !
 ! R10   R(3,10)                 1.0845         -DE/DX =    0.0                 !
 ! R11   R(4,11)                 1.0854         -DE/DX =    0.0                 !
 ! R12   R(4,12)                 1.0845         -DE/DX =    0.0                 !
 ! A1    A(2,1,5)              111.452          -DE/DX =    0.0                 !
 ! A2    A(2,1,6)              110.9191         -DE/DX =    0.0                 !
 ! A3    A(2,1,7)              111.4484         -DE/DX =    0.0                 !
 ! A4    A(5,1,6)              107.5426         -DE/DX =    0.0                 !
 ! A5    A(5,1,7)              107.7433         -DE/DX =    0.0                 !
 ! A6    A(6,1,7)              107.5445         -DE/DX =    0.0                 !
 ! A7    A(1,2,3)              120.4934         -DE/DX =    0.0                 !
 ! A8    A(1,2,4)              120.4894         -DE/DX =    0.0                 !
 ! A9    A(1,2,8)              114.3426         -DE/DX =    0.0                 !
 ! A10   A(3,2,8)              115.4429         -DE/DX =    0.0                 !
 ! A11   A(4,2,8)              115.4463         -DE/DX =    0.0                 !
 ! A12   A(2,3,9)              117.7255         -DE/DX =    0.0                 !
 ! A13   A(2,3,10)             118.7227         -DE/DX =    0.0                 !
 ! A14   A(4,3,9)              117.7561         -DE/DX =    0.0                 !
 ! A15   A(4,3,10)             118.3788         -DE/DX =    0.0                 !
 ! A16   A(9,3,10)             114.0153         -DE/DX =    0.0                 !
 ! A17   A(2,4,11)             117.7143         -DE/DX =    0.0                 !
 ! A18   A(2,4,12)             118.7359         -DE/DX =    0.0                 !
 ! A19   A(3,4,11)             117.7437         -DE/DX =    0.0                 !
 ! A20   A(3,4,12)             118.3899         -DE/DX =    0.0                 !
 ! A21   A(11,4,12)            114.015          -DE/DX =    0.0                 !
 ! D1    D(5,1,2,3)             84.2653         -DE/DX =    0.0                 !
 ! D2    D(5,1,2,4)            155.3587         -DE/DX =    0.0                 !
 ! D3    D(5,1,2,8)            -60.1879         -DE/DX =    0.0                 !
 ! D4    D(6,1,2,3)            -35.53           -DE/DX =    0.0                 !
 ! D5    D(6,1,2,4)             35.5634         -DE/DX =    0.0                 !
 ! D6    D(6,1,2,8)            180.0168         -DE/DX =    0.0                 !
 ! D7    D(7,1,2,3)           -155.3253         -DE/DX =    0.0                 !
 ! D8    D(7,1,2,4)            -84.2319         -DE/DX =    0.0                 !
 ! D9    D(7,1,2,8)             60.2215         -DE/DX =    0.0                 !
 ! D10   D(1,2,3,9)              2.2468         -DE/DX =    0.0                 !
 ! D11   D(1,2,3,10)          -142.0739         -DE/DX =    0.0                 !
 ! D12   D(8,2,3,9)            146.3327         -DE/DX =    0.0                 !
 ! D13   D(8,2,3,10)             2.012          -DE/DX =    0.0                 !
 ! D14   D(1,2,4,11)            -2.2637         -DE/DX =    0.0                 !
 ! D15   D(1,2,4,12)           142.0595         -DE/DX =    0.0                 !
 ! D16   D(8,2,4,11)          -146.3487         -DE/DX =    0.0                 !
 ! D17   D(8,2,4,12)            -2.0254         -DE/DX =    0.0                 !
 ! D18   D(9,3,4,11)             0.0082         -DE/DX =    0.0                 !
 ! D19   D(9,3,4,12)          -143.794          -DE/DX =    0.0                 !
 ! D20   D(10,3,4,11)          143.8132         -DE/DX =    0.0                 !
 ! D21   D(10,3,4,12)            0.011          -DE/DX =    0.0                 !
 --------------------------------------------------------------------------------
 GradGradGradGradGradGradGradGradGradGradGradGradGradGradGradGradGradGrad


 ----------------------------------------------------------------------

 Electric dipole moment (input orientation):
 (Debye = 10**-18 statcoulomb cm , SI units = C m)
                  (au)            (Debye)         (10**-30 SI)
   Tot        0.447993D-01      0.113868D+00      0.379824D+00
   x         -0.134576D-01     -0.342057D-01     -0.114098D+00
   y          0.308139D-02      0.783211D-02      0.261251D-01
   z          0.426190D-01      0.108327D+00      0.361339D+00

 Dipole polarizability, Alpha (input orientation).
 (esu units = cm**3 , SI units = C**2 m**2 J**-1)
 Alpha(0;0):
               (au)            (10**-24 esu)      (10**-40 SI)
   iso        0.419599D+02      0.621782D+01      0.691826D+01
   aniso      0.626542D+01      0.928440D+00      0.103303D+01
   xx         0.446703D+02      0.661945D+01      0.736513D+01
   yx        -0.154246D+00     -0.228570D-01     -0.254318D-01
   yy         0.409797D+02      0.607256D+01      0.675663D+01
   zx        -0.272054D+01     -0.403142D+00     -0.448556D+00
   zy        -0.100124D+00     -0.148369D-01     -0.165083D-01
   zz         0.402299D+02      0.596145D+01      0.663301D+01

 ----------------------------------------------------------------------

 Dipole orientation:
     6          1.86976922          0.14302476         -0.49762734
     6          4.57967141          0.21602472         -1.40038852
     6          5.35843625         -1.19100098         -3.75210077
     6          5.28125918          1.66245847         -3.75249661
     1          1.49918192         -1.53989790          0.65109954
     1          0.55780382          0.10685876         -2.09900200
     1          1.40876823          1.80439125          0.64972556
     1          5.97399032          0.25383289          0.10794573
     1          3.89980327         -2.18618799         -4.79575861
     1          7.18697086         -2.11602030         -3.78633475
     1          3.77065906          2.57665568         -4.79632926
     1          7.05691309          2.68530097         -3.78734390

 Electric dipole moment (dipole orientation):
 (Debye = 10**-18 statcoulomb cm , SI units = C m)
                  (au)            (Debye)         (10**-30 SI)
   Tot        0.447993D-01      0.113868D+00      0.379824D+00
   x          0.000000D+00      0.000000D+00      0.000000D+00
   y          0.000000D+00      0.000000D+00      0.000000D+00
   z          0.447993D-01      0.113868D+00      0.379824D+00

 Dipole polarizability, Alpha (dipole orientation).
 (esu units = cm**3 , SI units = C**2 m**2 J**-1)
 Alpha(0;0):
               (au)            (10**-24 esu)      (10**-40 SI)
   iso        0.419599D+02      0.621782D+01      0.691826D+01
   aniso      0.626542D+01      0.928440D+00      0.103303D+01
   xx         0.427065D+02      0.632845D+01      0.704135D+01
   yx         0.458758D-01      0.679809D-02      0.756390D-02
   yy         0.409910D+02      0.607423D+01      0.675850D+01
   zx        -0.350731D+01     -0.519730D+00     -0.578277D+00
   zy        -0.947297D-01     -0.140375D-01     -0.156188D-01
   zz         0.421823D+02      0.625077D+01      0.695492D+01

 ----------------------------------------------------------------------
 1\1\GINC-LEWIS4-R630-HPC4-NODE539\Freq\RB3LYP\6-31G(2df,p)\C4H8\LINJIA
 N\28-May-2023\0\\#N Geom=AllCheck Guess=TCheck SCRF=Check GenChk RB3LY
 P/6-31G(2df,p) Freq\\Title Card Required\\0,1\C,1.0235890019,0.0678661
 417,0.0415014465\C,2.5352068715,0.0887280484,0.0151481364\C,3.29420532
 26,-0.735266529,-0.9937496813\C,3.2713052092,0.7706113927,-1.110077266
 8\H,0.6445165144,-0.7808042343,0.6221419086\H,0.615789255,-0.016863680
 8,-0.971904619\H,0.6178415341,0.9840700802,0.4853525905\H,2.9993700906
 ,0.1713997329,0.9947469339\H,2.7183516111,-1.3067800842,-1.7147967514\
 H,4.2173360408,-1.214579183,-0.6866456621\H,2.6799499458,1.2067531914,
 -1.9089708227\H,4.178758603,1.3192451241,-0.8825862126\\Version=ES64L-
 G16RevA.03\State=1-A\HF=-157.2260148\RMSD=2.418e-09\RMSF=1.795e-05\Zer
 oPoint=0.1092646\Thermal=0.1139117\Dipole=-0.0134576,0.0030814,0.04261
 9\DipoleDeriv=0.1074968,-0.0041545,-0.0484848,0.0000291,0.1342634,-0.0
 053851,0.0054047,-0.0045481,0.0748018,0.1135019,0.0034441,0.0541881,0.
 004743,0.1608061,-0.0098978,0.0713991,-0.0096525,0.0227849,0.0361321,0
 .0628898,0.0637637,0.0657409,-0.0796875,-0.0613158,0.0347006,-0.065069
 2,0.054797,0.0396907,-0.0492196,0.070257,-0.0564944,-0.0606367,0.08107
 09,0.0418204,0.0839074,0.032138,-0.0438261,-0.043798,0.0629628,-0.0837
 717,-0.071874,0.0984072,0.0580755,0.0822367,-0.0026115,0.0000974,-0.00
 26789,-0.024638,-0.00769,0.049774,-0.0137846,-0.0893275,-0.0147677,-0.
 122144,-0.0479872,0.0542805,0.0581244,0.0930152,-0.0933322,-0.0820797,
 0.0466428,-0.0661482,0.0229988,-0.0621243,-0.0053513,-0.0463661,-0.003
 4068,0.0530357,-0.0149124,-0.0213346,-0.0145361,-0.1298395,0.0006373,-
 0.0449328,-0.0755407,-0.001644,-0.0339951,-0.0576819,-0.0446445,-0.072
 708,-0.0036274,-0.073997,0.0937657,-0.0225406,0.0622682,-0.0220126,-0.
 0156556,-0.0330855,0.0035867,0.0388589,-0.0005442,0.0333664,-0.0833876
 ,-0.0047096,-0.0126264,0.0567148,-0.0466759,0.0727893,-0.023834,-0.069
 0776,-0.0976114,-0.008338,-0.0680799,-0.0237148,0.0245201,-0.0229751,0
 .0049097,0.035677\Polar=44.6702781,-0.1542464,40.9796576,-2.7205389,-0
 .1001244,40.2298686\Quadrupole=0.2316649,-0.3090185,0.0773536,0.061215
 3,0.6828874,0.0406036\PG=C01 [X(C4H8)]\NImag=0\\0.47864371,-0.00114049
 ,0.55462516,0.00005854,0.00086147,0.56560471,-0.21252146,-0.00255312,-
 0.00503562,0.56191269,-0.00225534,-0.06959847,-0.00094461,0.00538519,0
 .26117660,-0.00116001,-0.00088879,-0.08073103,0.01037930,0.03002403,0.
 64552507,-0.01292461,0.02950545,0.01437857,-0.10285056,0.03509120,0.04
 094254,0.55336484,0.00082737,-0.00185100,0.00094466,0.06336667,-0.0753
 9935,-0.09489076,-0.08682604,0.53229923,0.00434815,0.00278512,-0.00251
 611,0.04002004,-0.05640992,-0.12620141,0.16135385,0.13445196,0.4042631
 0,-0.01204535,-0.02724464,0.01878828,-0.10002833,-0.02968602,0.0431860
 5,-0.05307210,-0.01501257,-0.02618963,0.54736205,-0.00044093,-0.003258
 26,-0.00038864,-0.05767921,-0.05624135,0.08508701,0.01570825,-0.215526
 30,-0.00675914,0.11204943,0.49519642,0.00453240,-0.00259564,-0.0019921
 9,0.04777255,0.04665894,-0.14817604,-0.02918424,0.03427197,-0.03306181
 ,0.15023761,-0.14329317,0.44735210,-0.07389888,-0.06567768,0.04490079,
 -0.01337335,-0.02661096,0.02089788,0.00251232,0.00038536,-0.00043878,-
 0.00565758,-0.00122687,-0.00293065,0.08338840,-0.06617854,-0.20419954,
 0.10726243,-0.00023842,0.00070701,-0.00079391,-0.00099350,0.00103454,0
 .00050384,0.00099690,0.00117702,-0.00129709,0.07375507,0.21970649,0.04
 502284,0.10688408,-0.12081822,0.00007916,-0.00069212,-0.00020555,-0.00
 012706,-0.00006872,-0.00009989,0.00026786,0.00053290,0.00116887,-0.050
 96574,-0.11877284,0.12743126,-0.07960083,-0.00705976,-0.08454876,-0.01
 529696,-0.00272642,-0.03245908,0.00166278,-0.00034332,-0.00162214,0.00
 166556,0.00012937,-0.00163206,0.00348275,0.00179906,0.01015645,0.08981
 352,-0.00727068,-0.04779479,-0.01874214,-0.00018099,-0.00133005,-0.000
 42797,0.00042761,0.00051447,0.00088011,-0.00031927,0.00037642,-0.00087
 641,0.00984951,0.00235379,0.02398893,0.00809531,0.04748899,-0.08726654
 ,-0.01878301,-0.27149698,0.00038325,0.00006905,-0.00048928,0.00043195,
 0.00001042,0.00072030,0.00048856,0.00005673,0.00085269,-0.00569222,-0.
 00221660,-0.01542042,0.09583512,0.02075980,0.29486140,-0.07819829,0.07
 631691,0.03688849,-0.01422374,0.02905735,0.01655772,-0.00565154,0.0005
 5263,-0.00310785,0.00249685,-0.00040249,-0.00036191,0.00348067,-0.0085
 9472,-0.00518506,0.00381963,-0.01051376,-0.00414114,0.08819883,0.07683
 002,-0.23036472,-0.08859456,-0.00020585,0.00179348,0.00111728,-0.00115
 093,0.00128096,0.00118807,0.00100711,0.00095999,-0.00067944,0.00840719
 ,-0.02113121,-0.01111020,-0.00005647,-0.00170461,-0.00009563,-0.085474
 41,0.24869361,0.03691887,-0.08821197,-0.09036192,0.00006124,0.00045052
 ,-0.00044803,0.00045173,-0.00054077,0.00105870,-0.00028145,-0.00010150
 ,-0.00000431,-0.00690385,0.01537746,0.00740700,0.01105877,-0.02583191,
 -0.01169788,-0.04194053,0.09806625,0.09364522,-0.01259751,-0.00245101,
 -0.02923816,-0.10132140,-0.00954577,-0.11111404,0.00279556,0.00121363,
 0.01230258,0.00240578,0.00076206,0.01164342,0.00112603,-0.00041345,0.0
 0044893,-0.00642021,-0.00006853,0.00051177,0.00111963,0.00050861,0.000
 36797,0.11150859,-0.00005882,-0.00000909,-0.00023136,-0.00929391,-0.03
 928037,-0.01968247,-0.01334244,-0.00341907,-0.02339721,0.01285309,0.00
 027786,0.02199031,0.00025684,0.00003201,-0.00028867,-0.00003686,0.0007
 7188,0.00005513,-0.00032279,0.00011235,0.00033851,0.00976587,0.0402601
 8,0.00172665,0.00023846,0.00275695,-0.10786794,-0.01963410,-0.27074248
 ,-0.00300430,0.00049349,-0.01131413,-0.00498853,-0.00238459,-0.0146169
 3,-0.00065279,-0.00016408,0.00035319,0.00094370,0.00006223,0.00138634,
 -0.00061336,0.00018244,0.00027661,0.11214833,0.02124322,0.29157665,0.0
 0161074,-0.00134877,0.00052087,0.01063453,0.00999895,0.01281400,-0.131
 93244,-0.07718638,-0.10959498,-0.00558891,-0.00012178,-0.00297787,-0.0
 0016831,-0.00023487,0.00021441,0.00006226,0.00014050,-0.00035857,0.000
 23898,-0.00012895,-0.00024491,-0.00085197,0.00285912,0.00125379,0.1347
 4061,-0.00069902,0.00102891,-0.00132021,-0.00067367,-0.00592204,-0.000
 38825,-0.07465597,-0.11838372,-0.10033156,-0.01327768,-0.01395300,-0.0
 1890601,0.00057373,0.00004471,0.00004801,0.00050212,-0.00024167,0.0002
 0222,0.00006675,-0.00002558,0.00023757,-0.00055926,-0.00022784,0.00093
 644,0.08072038,0.13023316,-0.00205196,0.00263127,0.00158873,-0.0151248
 5,-0.01082731,-0.01683630,-0.10823490,-0.10213271,-0.16647071,0.011294
 79,0.00686693,0.00888782,0.00046845,0.00004747,-0.00017321,0.00090125,
 0.00000213,0.00053712,-0.00037924,0.00021845,0.00043165,0.00178331,-0.
 00434647,-0.00091477,0.11363414,0.10990581,0.17658933,-0.00004119,0.00
 331203,0.00125300,-0.01198461,0.00390921,-0.00744270,-0.25685916,0.108
 14178,-0.07813850,0.00837845,-0.00364982,0.00515299,-0.00000573,-0.000
 10379,-0.00001095,0.00036293,-0.00008986,0.00007391,-0.00111486,-0.000
 09260,0.00036097,0.00151962,-0.00141340,-0.00020946,-0.01067264,0.0070
 6085,-0.00205352,0.26918866,-0.00109915,-0.00000620,0.00057729,0.00118
 791,-0.00644117,-0.00006369,0.10538800,-0.09609121,0.03075575,0.023563
 28,-0.01157101,0.00669854,0.00004794,0.00015311,-0.00000981,0.00030554
 ,-0.00007724,0.00016231,-0.00011711,0.00025050,0.00030004,0.00092621,0
 .00077076,-0.00062959,-0.01458456,0.00841604,-0.00381592,-0.11603394,0
 .10556153,0.00011913,-0.00475362,-0.00160655,0.02256037,-0.00947674,0.
 00922080,-0.07960012,0.03174578,-0.06692416,-0.01039758,0.00154228,-0.
 00710927,-0.00010754,0.00022539,-0.00001954,0.00018103,-0.00010744,0.0
 0009750,0.00182038,0.00001979,-0.00016893,-0.00031143,0.00260846,0.001
 18529,-0.01547056,0.01024341,-0.00463459,0.08078437,-0.03298926,0.0679
 3608,0.00155105,0.00142751,0.00026506,0.01090689,-0.00742476,0.0141708
 0,-0.00602083,-0.00017275,-0.00360290,-0.13603204,0.05820870,-0.122929
 21,0.00023837,0.00009926,-0.00025601,0.00008034,-0.00018392,-0.0003284
 4,-0.00015932,0.00025974,0.00017778,-0.00078915,-0.00265567,0.00171016
 ,0.00117799,-0.00129174,0.00046831,0.00077187,0.00152423,-0.00030871,0
 .13912017,0.00040063,0.00089749,0.00144428,-0.00119407,-0.00475034,-0.
 00109965,0.01508148,-0.01114681,0.02195838,0.05591032,-0.08525884,0.08
 440576,-0.00011521,-0.00008488,-0.00016497,-0.00034778,-0.00027090,-0.
 00008850,-0.00050047,0.00001794,-0.00007231,0.00079178,0.00021759,-0.0
 0107180,0.00130573,0.00242697,-0.00189407,-0.00218028,-0.00349899,0.00
 284654,-0.06128370,0.09419222,-0.00205793,-0.00258218,0.00177902,-0.01
 538139,0.00846715,-0.01828479,0.00925580,-0.00340571,0.00650698,-0.121
 25055,0.08625669,-0.19548409,-0.00035987,-0.00014957,0.00049163,0.0009
 6441,0.00015078,0.00054814,0.00055384,-0.00006263,-0.00015563,0.001548
 84,0.00421699,-0.00142396,0.00021550,0.00153174,0.00003090,-0.00027255
 ,-0.00266758,0.00104221,0.12776885,-0.09368288,0.20825434,0.00002262,-
 0.00308643,0.00176893,-0.01185371,-0.00519263,-0.00677246,0.00897575,0
 .00505363,0.00467017,-0.24988439,-0.12333671,-0.05932301,-0.00112469,0
 .00010701,0.00035516,0.00036824,0.00011409,0.00006236,-0.00000684,0.00
 009654,-0.00002658,0.00150504,0.00138897,-0.00044627,0.00074916,0.0022
 3350,-0.00070578,0.00045666,-0.00110833,0.00073065,-0.01084535,-0.0078
 6844,-0.00098495,0.26163750,0.00108494,0.00053052,-0.00086861,0.002079
 46,-0.00471394,0.00200716,-0.02423309,-0.01331173,-0.00562539,-0.12083
 994,-0.11217894,-0.02637776,0.00035507,0.00020696,-0.00034659,-0.00026
 079,-0.00008629,-0.00013193,-0.00006788,0.00011729,-0.00001188,-0.0009
 3014,0.00049373,0.00072787,-0.00141936,-0.00339595,0.00334442,0.001139
 80,0.00253389,-0.00190458,0.01149311,0.00725855,0.00192719,0.13159881,
 0.12254591,-0.00019015,0.00441481,-0.00220642,0.02215389,0.01231511,0.
 00736904,-0.00666381,-0.00087961,-0.00596085,-0.06115542,-0.02741550,-
 0.05781683,0.00178433,-0.00002249,-0.00011512,0.00022133,0.00014189,0.
 00010107,-0.00009135,-0.00024982,0.00001754,-0.00009152,-0.00250644,0.
 00147723,-0.00000583,-0.00215916,0.00096404,0.00050244,0.00168192,0.00
 098117,-0.01713568,-0.01258080,-0.00330475,0.06067177,0.02726010,0.058
 49389\\0.00002444,0.00000519,0.00002168,-0.00002956,-0.00000617,-0.000
 06888,0.00000550,0.00002101,0.00001274,0.00003895,-0.00001145,0.000039
 76,-0.00000716,0.00000231,0.00000129,-0.00001878,-0.00000257,0.0000019
 1,-0.00000008,-0.00000455,0.00000003,-0.00000138,-0.00000226,0.0000087
 5,-0.00000132,0.00000173,-0.00000215,-0.00000164,-0.00000004,-0.000001
 97,-0.00000607,-0.00001363,-0.00000360,-0.00000290,0.00001043,-0.00000
 955\\\@


 THE FIRST AND LAST THING REQUIRED OF GENIUS IS THE LOVE OF TRUTH.

                          -- GOETHE
 Job cpu time:       0 days  0 hours 19 minutes 34.1 seconds.
 Elapsed time:       0 days  0 hours  4 minutes 54.0 seconds.
 File lengths (MBytes):  RWF=     28 Int=      0 D2E=      0 Chk=      3 Scr=      1
 Normal termination of Gaussian 16 at Sun May 28 11:12:34 2023.
### All Done ###
