### Starting Gaussian ###
 Entering Gaussian System, Link 0=g16
 Initial command:
 /cluster/software/gaussian/gaussian-16-A.03/avx2/g16/l1.exe "/local/scratch/linjian/Gau-17167.inp" -scrdir="/local/scratch/linjian/"
 Entering Link 1 = /cluster/software/gaussian/gaussian-16-A.03/avx2/g16/l1.exe PID=     17168.
  
 Copyright (c) 1988,1990,1992,1993,1995,1998,2003,2009,2016,
            Gaussian, Inc.  All Rights Reserved.
  
 This is part of the Gaussian(R) 16 program.  It is based on
 the Gaussian(R) 09 system (copyright 2009, Gaussian, Inc.),
 the Gaussian(R) 03 system (copyright 2003, Gaussian, Inc.),
 the Gaussian(R) 98 system (copyright 1998, Gaussian, Inc.),
 the Gaussian(R) 94 system (copyright 1995, Gaussian, Inc.),
 the Gaussian 92(TM) system (copyright 1992, Gaussian, Inc.),
 the Gaussian 90(TM) system (copyright 1990, Gaussian, Inc.),
 the Gaussian 88(TM) system (copyright 1988, Gaussian, Inc.),
 the Gaussian 86(TM) system (copyright 1986, Carnegie Mellon
 University), and the Gaussian 82(TM) system (copyright 1983,
 Carnegie Mellon University). Gaussian is a federally registered
 trademark of Gaussian, Inc.
  
 This software contains proprietary and confidential information,
 including trade secrets, belonging to Gaussian, Inc.
  
 This software is provided under written license and may be
 used, copied, transmitted, or stored only in accord with that
 written license.
  
 The following legend is applicable only to US Government
 contracts under FAR:
  
                    RESTRICTED RIGHTS LEGEND
  
 Use, reproduction and disclosure by the US Government is
 subject to restrictions as set forth in subparagraphs (a)
 and (c) of the Commercial Computer Software - Restricted
 Rights clause in FAR 52.227-19.
  
 Gaussian, Inc.
 340 Quinnipiac St., Bldg. 40, Wallingford CT 06492
  
  
 ---------------------------------------------------------------
 Warning -- This program may not be used in any manner that
 competes with the business of Gaussian, Inc. or will provide
 assistance to any competitor of Gaussian, Inc.  The licensee
 of this program is prohibited from giving any competitor of
 Gaussian, Inc. access to this program.  By using this program,
 the user acknowledges that Gaussian, Inc. is engaged in the
 business of creating and licensing software in the field of
 computational chemistry and represents and warrants to the
 licensee that it is not a competitor of Gaussian, Inc. and that
 it will not use this program in any manner prohibited above.
 ---------------------------------------------------------------
  

 Cite this work as:
 Gaussian 16, Revision A.03,
 M. J. Frisch, G. W. Trucks, H. B. Schlegel, G. E. Scuseria, 
 M. A. Robb, J. R. Cheeseman, G. Scalmani, V. Barone, 
 G. A. Petersson, H. Nakatsuji, X. Li, M. Caricato, A. V. Marenich, 
 J. Bloino, B. G. Janesko, R. Gomperts, B. Mennucci, H. P. Hratchian, 
 J. V. Ortiz, A. F. Izmaylov, J. L. Sonnenberg, D. Williams-Young, 
 F. Ding, F. Lipparini, F. Egidi, J. Goings, B. Peng, A. Petrone, 
 T. Henderson, D. Ranasinghe, V. G. Zakrzewski, J. Gao, N. Rega, 
 G. Zheng, W. Liang, M. Hada, M. Ehara, K. Toyota, R. Fukuda, 
 J. Hasegawa, M. Ishida, T. Nakajima, Y. Honda, O. Kitao, H. Nakai, 
 T. Vreven, K. Throssell, J. A. Montgomery, Jr., J. E. Peralta, 
 F. Ogliaro, M. J. Bearpark, J. J. Heyd, E. N. Brothers, K. N. Kudin, 
 V. N. Staroverov, T. A. Keith, R. Kobayashi, J. Normand, 
 K. Raghavachari, A. P. Rendell, J. C. Burant, S. S. Iyengar, 
 J. Tomasi, M. Cossi, J. M. Millam, M. Klene, C. Adamo, R. Cammi, 
 J. W. Ochterski, R. L. Martin, K. Morokuma, O. Farkas, 
 J. B. Foresman, and D. J. Fox, Gaussian, Inc., Wallingford CT, 2016.
 
 ******************************************
 Gaussian 16:  ES64L-G16RevA.03 25-Dec-2016
                28-May-2023 
 ******************************************
 %chk=CC1CC2C3CqCrC2C13.chk
 %NProcShared=20
 Will use up to   20 processors via shared memory.
 -----------------------------
 # opt freq b3lyp/6-31g(2df,p)
 -----------------------------
 1/18=20,19=15,26=3,38=1/1,3;
 2/9=110,12=2,17=6,18=5,40=1/2;
 3/5=1,6=6,7=104,11=2,25=1,30=1,71=1,74=-5/1,2,3;
 4//1;
 5/5=2,38=5/2;
 6/7=2,8=2,9=2,10=2,28=1/1;
 7//1,2,3,16;
 1/18=20,19=15,26=3/3(2);
 2/9=110/2;
 99//99;
 2/9=110/2;
 3/5=1,6=6,7=104,11=2,25=1,30=1,71=1,74=-5/1,2,3;
 4/5=5,16=3,69=1/1;
 5/5=2,38=5/2;
 7//1,2,3,16;
 1/18=20,19=15,26=3/3(-5);
 2/9=110/2;
 6/7=2,8=2,9=2,10=2,19=2,28=1/1;
 99/9=1/99;
 -------------------
 Title Card Required
 -------------------
 Symbolic Z-matrix:
 Charge =  0 Multiplicity = 1
 C                     0.98736   0.07127  -0.02856 
 C                     2.51373   0.10232   0.03231 
 C                     3.09816  -0.9801    0.92872 
 C                     3.62392  -0.13419   2.07831 
 C                     4.36474   1.1512    1.61232 
 C                     3.78415   1.83669   2.9907 
 C                     3.59344   1.55236   4.47434 
 C                     2.59067   1.0699    2.31396 
 C                     2.97395   1.32842   0.79232 
 H                     0.63293  -0.80883  -0.57162 
 H                     0.60221   0.96962  -0.52218 
 H                     0.5336    0.03867   0.96895 
 H                     2.93316   0.06273  -0.9776 
 H                     3.89755  -1.53204   0.42309 
 H                     2.34936  -1.69789   1.27928 
 H                     4.10074  -0.67143   2.90035 
 H                     5.35173   1.17458   1.18025 
 H                     3.77573   2.92763   2.8661 
 H                     3.37181   0.50398   4.69978 
 H                     2.71869   2.12484   4.82045 
 H                     4.44154   1.87328   5.08142 
 H                     1.6141    0.90815   2.73156 
 H                     2.76092   2.32329   0.39871 
 

 GradGradGradGradGradGradGradGradGradGradGradGradGradGradGradGradGradGrad
 Berny optimization.
 Initialization pass.
                           ----------------------------
                           !    Initial Parameters    !
                           ! (Angstroms and Degrees)  !
 --------------------------                            --------------------------
 ! Name  Definition              Value          Derivative Info.                !
 --------------------------------------------------------------------------------
 ! R1    R(1,2)                  1.5279         estimate D2E/DX2                !
 ! R2    R(1,10)                 1.0932         estimate D2E/DX2                !
 ! R3    R(1,11)                 1.095          estimate D2E/DX2                !
 ! R4    R(1,12)                 1.0964         estimate D2E/DX2                !
 ! R5    R(2,3)                  1.5221         estimate D2E/DX2                !
 ! R6    R(2,9)                  1.5142         estimate D2E/DX2                !
 ! R7    R(2,13)                 1.0943         estimate D2E/DX2                !
 ! R8    R(3,4)                  1.521          estimate D2E/DX2                !
 ! R9    R(3,14)                 1.0951         estimate D2E/DX2                !
 ! R10   R(3,15)                 1.0949         estimate D2E/DX2                !
 ! R11   R(4,5)                  1.5551         estimate D2E/DX2                !
 ! R12   R(4,8)                  1.604          estimate D2E/DX2                !
 ! R13   R(4,16)                 1.0917         estimate D2E/DX2                !
 ! R14   R(5,6)                  1.6453         estimate D2E/DX2                !
 ! R15   R(5,9)                  1.6242         estimate D2E/DX2                !
 ! R16   R(5,17)                 1.0777         estimate D2E/DX2                !
 ! R17   R(6,7)                  1.5226         estimate D2E/DX2                !
 ! R18   R(6,8)                  1.5717         estimate D2E/DX2                !
 ! R19   R(6,18)                 1.0981         estimate D2E/DX2                !
 ! R20   R(7,19)                 1.095          estimate D2E/DX2                !
 ! R21   R(7,20)                 1.1012         estimate D2E/DX2                !
 ! R22   R(7,21)                 1.0912         estimate D2E/DX2                !
 ! R23   R(8,9)                  1.5903         estimate D2E/DX2                !
 ! R24   R(8,22)                 1.0744         estimate D2E/DX2                !
 ! R25   R(9,23)                 1.0909         estimate D2E/DX2                !
 ! A1    A(2,1,10)             111.1024         estimate D2E/DX2                !
 ! A2    A(2,1,11)             110.6506         estimate D2E/DX2                !
 ! A3    A(2,1,12)             112.199          estimate D2E/DX2                !
 ! A4    A(10,1,11)            108.8146         estimate D2E/DX2                !
 ! A5    A(10,1,12)            107.0885         estimate D2E/DX2                !
 ! A6    A(11,1,12)            106.7963         estimate D2E/DX2                !
 ! A7    A(1,2,3)              113.116          estimate D2E/DX2                !
 ! A8    A(1,2,9)              109.8822         estimate D2E/DX2                !
 ! A9    A(1,2,13)             110.207          estimate D2E/DX2                !
 ! A10   A(3,2,9)               99.4123         estimate D2E/DX2                !
 ! A11   A(3,2,13)             111.7547         estimate D2E/DX2                !
 ! A12   A(9,2,13)             112.0882         estimate D2E/DX2                !
 ! A13   A(2,3,4)              100.5061         estimate D2E/DX2                !
 ! A14   A(2,3,14)             111.5166         estimate D2E/DX2                !
 ! A15   A(2,3,15)             113.0899         estimate D2E/DX2                !
 ! A16   A(4,3,14)             112.1438         estimate D2E/DX2                !
 ! A17   A(4,3,15)             111.0388         estimate D2E/DX2                !
 ! A18   A(14,3,15)            108.4592         estimate D2E/DX2                !
 ! A19   A(3,4,5)              113.4462         estimate D2E/DX2                !
 ! A20   A(3,4,8)              107.8092         estimate D2E/DX2                !
 ! A21   A(3,4,16)             116.5135         estimate D2E/DX2                !
 ! A22   A(5,4,8)               74.3601         estimate D2E/DX2                !
 ! A23   A(5,4,16)             115.11           estimate D2E/DX2                !
 ! A24   A(8,4,16)             122.6938         estimate D2E/DX2                !
 ! A25   A(4,5,6)               85.7119         estimate D2E/DX2                !
 ! A26   A(4,5,9)               80.4184         estimate D2E/DX2                !
 ! A27   A(4,5,17)             125.0565         estimate D2E/DX2                !
 ! A28   A(6,5,9)               94.3203         estimate D2E/DX2                !
 ! A29   A(6,5,17)             130.5448         estimate D2E/DX2                !
 ! A30   A(9,5,17)             125.4117         estimate D2E/DX2                !
 ! A31   A(5,6,7)              141.511          estimate D2E/DX2                !
 ! A32   A(5,6,8)               72.7807         estimate D2E/DX2                !
 ! A33   A(5,6,18)             108.7585         estimate D2E/DX2                !
 ! A34   A(7,6,8)              103.4935         estimate D2E/DX2                !
 ! A35   A(7,6,18)             107.1654         estimate D2E/DX2                !
 ! A36   A(8,6,18)             115.4687         estimate D2E/DX2                !
 ! A37   A(6,7,19)             113.875          estimate D2E/DX2                !
 ! A38   A(6,7,20)             107.9785         estimate D2E/DX2                !
 ! A39   A(6,7,21)             112.943          estimate D2E/DX2                !
 ! A40   A(19,7,20)            105.7974         estimate D2E/DX2                !
 ! A41   A(19,7,21)            108.9251         estimate D2E/DX2                !
 ! A42   A(20,7,21)            106.8352         estimate D2E/DX2                !
 ! A43   A(4,8,6)               86.5798         estimate D2E/DX2                !
 ! A44   A(4,8,9)               79.992          estimate D2E/DX2                !
 ! A45   A(4,8,22)             121.9791         estimate D2E/DX2                !
 ! A46   A(6,8,9)               98.6073         estimate D2E/DX2                !
 ! A47   A(6,8,22)             126.6065         estimate D2E/DX2                !
 ! A48   A(9,8,22)             127.9851         estimate D2E/DX2                !
 ! A49   A(2,9,5)              115.1702         estimate D2E/DX2                !
 ! A50   A(2,9,8)              105.984          estimate D2E/DX2                !
 ! A51   A(2,9,23)             119.8682         estimate D2E/DX2                !
 ! A52   A(5,9,8)               72.8773         estimate D2E/DX2                !
 ! A53   A(5,9,23)             116.6715         estimate D2E/DX2                !
 ! A54   A(8,9,23)             116.5137         estimate D2E/DX2                !
 ! D1    D(10,1,2,3)           -69.7617         estimate D2E/DX2                !
 ! D2    D(10,1,2,9)          -179.8494         estimate D2E/DX2                !
 ! D3    D(10,1,2,13)           56.1499         estimate D2E/DX2                !
 ! D4    D(11,1,2,3)           169.2495         estimate D2E/DX2                !
 ! D5    D(11,1,2,9)            59.1617         estimate D2E/DX2                !
 ! D6    D(11,1,2,13)          -64.839          estimate D2E/DX2                !
 ! D7    D(12,1,2,3)            50.0842         estimate D2E/DX2                !
 ! D8    D(12,1,2,9)           -60.0035         estimate D2E/DX2                !
 ! D9    D(12,1,2,13)          175.9957         estimate D2E/DX2                !
 ! D10   D(1,2,3,4)           -110.3952         estimate D2E/DX2                !
 ! D11   D(1,2,3,14)           130.58           estimate D2E/DX2                !
 ! D12   D(1,2,3,15)             8.028          estimate D2E/DX2                !
 ! D13   D(9,2,3,4)              6.0656         estimate D2E/DX2                !
 ! D14   D(9,2,3,14)          -112.9593         estimate D2E/DX2                !
 ! D15   D(9,2,3,15)           124.4888         estimate D2E/DX2                !
 ! D16   D(13,2,3,4)           124.5256         estimate D2E/DX2                !
 ! D17   D(13,2,3,14)            5.5007         estimate D2E/DX2                !
 ! D18   D(13,2,3,15)         -117.0512         estimate D2E/DX2                !
 ! D19   D(1,2,9,5)            148.8877         estimate D2E/DX2                !
 ! D20   D(1,2,9,8)             70.646          estimate D2E/DX2                !
 ! D21   D(1,2,9,23)           -63.7805         estimate D2E/DX2                !
 ! D22   D(3,2,9,5)             29.998          estimate D2E/DX2                !
 ! D23   D(3,2,9,8)            -48.2437         estimate D2E/DX2                !
 ! D24   D(3,2,9,23)           177.3298         estimate D2E/DX2                !
 ! D25   D(13,2,9,5)           -88.2131         estimate D2E/DX2                !
 ! D26   D(13,2,9,8)          -166.4548         estimate D2E/DX2                !
 ! D27   D(13,2,9,23)           59.1187         estimate D2E/DX2                !
 ! D28   D(2,3,4,5)            -43.536          estimate D2E/DX2                !
 ! D29   D(2,3,4,8)             36.7156         estimate D2E/DX2                !
 ! D30   D(2,3,4,16)           179.3024         estimate D2E/DX2                !
 ! D31   D(14,3,4,5)            75.0317         estimate D2E/DX2                !
 ! D32   D(14,3,4,8)           155.2833         estimate D2E/DX2                !
 ! D33   D(14,3,4,16)          -62.1298         estimate D2E/DX2                !
 ! D34   D(15,3,4,5)          -163.4488         estimate D2E/DX2                !
 ! D35   D(15,3,4,8)           -83.1972         estimate D2E/DX2                !
 ! D36   D(15,3,4,16)           59.3896         estimate D2E/DX2                !
 ! D37   D(3,4,5,6)            147.627          estimate D2E/DX2                !
 ! D38   D(3,4,5,9)             52.5054         estimate D2E/DX2                !
 ! D39   D(3,4,5,17)           -74.3237         estimate D2E/DX2                !
 ! D40   D(8,4,5,6)             44.6374         estimate D2E/DX2                !
 ! D41   D(8,4,5,9)            -50.4842         estimate D2E/DX2                !
 ! D42   D(8,4,5,17)          -177.3133         estimate D2E/DX2                !
 ! D43   D(16,4,5,6)           -74.5887         estimate D2E/DX2                !
 ! D44   D(16,4,5,9)          -169.7104         estimate D2E/DX2                !
 ! D45   D(16,4,5,17)           63.4605         estimate D2E/DX2                !
 ! D46   D(3,4,8,6)           -157.4092         estimate D2E/DX2                !
 ! D47   D(3,4,8,9)            -58.0402         estimate D2E/DX2                !
 ! D48   D(3,4,8,22)            70.7593         estimate D2E/DX2                !
 ! D49   D(5,4,8,6)            -47.2854         estimate D2E/DX2                !
 ! D50   D(5,4,8,9)             52.0835         estimate D2E/DX2                !
 ! D51   D(5,4,8,22)          -179.1169         estimate D2E/DX2                !
 ! D52   D(16,4,8,6)            62.8321         estimate D2E/DX2                !
 ! D53   D(16,4,8,9)           162.201          estimate D2E/DX2                !
 ! D54   D(16,4,8,22)          -68.9994         estimate D2E/DX2                !
 ! D55   D(4,5,6,7)             43.8607         estimate D2E/DX2                !
 ! D56   D(4,5,6,8)            -46.2959         estimate D2E/DX2                !
 ! D57   D(4,5,6,18)          -158.0235         estimate D2E/DX2                !
 ! D58   D(9,5,6,7)            123.895          estimate D2E/DX2                !
 ! D59   D(9,5,6,8)             33.7384         estimate D2E/DX2                !
 ! D60   D(9,5,6,18)           -77.9893         estimate D2E/DX2                !
 ! D61   D(17,5,6,7)           -90.0749         estimate D2E/DX2                !
 ! D62   D(17,5,6,8)           179.7685         estimate D2E/DX2                !
 ! D63   D(17,5,6,18)           68.0409         estimate D2E/DX2                !
 ! D64   D(4,5,9,2)            -48.3641         estimate D2E/DX2                !
 ! D65   D(4,5,9,8)             51.6329         estimate D2E/DX2                !
 ! D66   D(4,5,9,23)           163.2243         estimate D2E/DX2                !
 ! D67   D(6,5,9,2)           -133.2696         estimate D2E/DX2                !
 ! D68   D(6,5,9,8)            -33.2726         estimate D2E/DX2                !
 ! D69   D(6,5,9,23)            78.3188         estimate D2E/DX2                !
 ! D70   D(17,5,9,2)            78.1279         estimate D2E/DX2                !
 ! D71   D(17,5,9,8)           178.1249         estimate D2E/DX2                !
 ! D72   D(17,5,9,23)          -70.2837         estimate D2E/DX2                !
 ! D73   D(5,6,7,19)           -34.0028         estimate D2E/DX2                !
 ! D74   D(5,6,7,20)          -151.1724         estimate D2E/DX2                !
 ! D75   D(5,6,7,21)            90.9227         estimate D2E/DX2                !
 ! D76   D(8,6,7,19)            45.198          estimate D2E/DX2                !
 ! D77   D(8,6,7,20)           -71.9716         estimate D2E/DX2                !
 ! D78   D(8,6,7,21)           170.1235         estimate D2E/DX2                !
 ! D79   D(18,6,7,19)          167.6751         estimate D2E/DX2                !
 ! D80   D(18,6,7,20)           50.5055         estimate D2E/DX2                !
 ! D81   D(18,6,7,21)          -67.3995         estimate D2E/DX2                !
 ! D82   D(5,6,8,4)             44.4367         estimate D2E/DX2                !
 ! D83   D(5,6,8,9)            -34.8949         estimate D2E/DX2                !
 ! D84   D(5,6,8,22)           172.4996         estimate D2E/DX2                !
 ! D85   D(7,6,8,4)            -95.7692         estimate D2E/DX2                !
 ! D86   D(7,6,8,9)           -175.1009         estimate D2E/DX2                !
 ! D87   D(7,6,8,22)            32.2937         estimate D2E/DX2                !
 ! D88   D(18,6,8,4)           147.4568         estimate D2E/DX2                !
 ! D89   D(18,6,8,9)            68.1252         estimate D2E/DX2                !
 ! D90   D(18,6,8,22)          -84.4803         estimate D2E/DX2                !
 ! D91   D(4,8,9,2)             62.4455         estimate D2E/DX2                !
 ! D92   D(4,8,9,5)            -49.5594         estimate D2E/DX2                !
 ! D93   D(4,8,9,23)          -161.3494         estimate D2E/DX2                !
 ! D94   D(6,8,9,2)            147.398          estimate D2E/DX2                !
 ! D95   D(6,8,9,5)             35.3932         estimate D2E/DX2                !
 ! D96   D(6,8,9,23)           -76.3969         estimate D2E/DX2                !
 ! D97   D(22,8,9,2)           -60.5471         estimate D2E/DX2                !
 ! D98   D(22,8,9,5)          -172.552          estimate D2E/DX2                !
 ! D99   D(22,8,9,23)           75.658          estimate D2E/DX2                !
 --------------------------------------------------------------------------------
 Trust Radius=3.00D-01 FncErr=1.00D-07 GrdErr=1.00D-06 EigMax=2.50D+02 EigMin=1.00D-04
 Number of steps in this run=    138 maximum allowed number of steps=    138.
 GradGradGradGradGradGradGradGradGradGradGradGradGradGradGradGradGradGrad

                          Input orientation:                          
 ---------------------------------------------------------------------
 Center     Atomic      Atomic             Coordinates (Angstroms)
 Number     Number       Type             X           Y           Z
 ---------------------------------------------------------------------
      1          6           0        0.987360    0.071270   -0.028560
      2          6           0        2.513730    0.102320    0.032310
      3          6           0        3.098160   -0.980100    0.928720
      4          6           0        3.623920   -0.134190    2.078310
      5          6           0        4.364740    1.151200    1.612320
      6          6           0        3.784150    1.836690    2.990700
      7          6           0        3.593440    1.552360    4.474340
      8          6           0        2.590670    1.069900    2.313960
      9          6           0        2.973950    1.328420    0.792320
     10          1           0        0.632930   -0.808830   -0.571620
     11          1           0        0.602210    0.969620   -0.522180
     12          1           0        0.533600    0.038670    0.968950
     13          1           0        2.933160    0.062730   -0.977600
     14          1           0        3.897550   -1.532040    0.423090
     15          1           0        2.349360   -1.697890    1.279280
     16          1           0        4.100740   -0.671430    2.900350
     17          1           0        5.351730    1.174580    1.180250
     18          1           0        3.775730    2.927630    2.866100
     19          1           0        3.371810    0.503980    4.699780
     20          1           0        2.718690    2.124840    4.820450
     21          1           0        4.441540    1.873280    5.081420
     22          1           0        1.614100    0.908150    2.731560
     23          1           0        2.760920    2.323290    0.398710
 ---------------------------------------------------------------------
                    Distance matrix (angstroms):
                    1          2          3          4          5
     1  C    0.000000
     2  C    1.527899   0.000000
     3  C    2.545042   1.522085   0.000000
     4  C    3.381207   2.339781   1.521034   0.000000
     5  C    3.907100   2.650060   2.571765   1.555053   0.000000
     6  C    4.478244   3.657059   3.557619   2.177728   1.645270
     7  C    5.409380   4.795834   4.385211   2.930246   2.991152
     8  C    3.009197   2.479528   2.525656   1.604048   1.909511
     9  C    2.490143   1.514179   2.315879   2.053158   1.624224
    10  H    1.093211   2.175393   2.890971   4.052566   4.747391
    11  H    1.095004   2.171077   3.483717   4.136626   4.329630
    12  H    1.096352   2.191406   2.759797   3.287953   4.040951
    13  H    2.164922   1.094261   2.179168   3.139190   3.153074
    14  H    3.353177   2.176878   1.095136   2.183715   2.971920
    15  H    2.587550   2.196066   1.094905   2.169818   3.505708
    16  H    4.338577   3.367929   2.233331   1.091666   2.247376
    17  H    4.661141   3.243725   3.128017   2.346214   1.077674
    18  H    4.930807   4.195877   4.413943   3.165186   2.252687
    19  H    5.313195   4.762658   4.061806   2.709783   3.307146
    20  H    5.543244   5.201815   4.993016   3.666332   3.734910
    21  H    6.425768   5.687377   5.214534   3.703661   3.544284
    22  H    2.951514   2.957135   3.003024   2.356392   2.979562
    23  H    2.898218   2.264522   3.362592   3.099199   2.327849
                    6          7          8          9         10
     6  C    0.000000
     7  C    1.522630   0.000000
     8  C    1.571731   2.430135   0.000000
     9  C    2.397423   3.740480   1.590322   0.000000
    10  H    5.442342   6.308847   3.960927   3.450876   0.000000
    11  H    4.818390   5.852543   3.465216   2.735288   1.779402
    12  H    4.229234   4.893019   2.665338   2.765856   1.761102
    13  H    4.429280   5.690221   3.459199   2.176293   2.493089
    14  H    4.237195   5.100846   3.471803   3.028465   3.488585
    15  H    4.181009   4.724433   2.964701   3.128226   2.676264
    16  H    2.529636   2.771288   2.378318   3.116544   4.909090
    17  H    2.484638   3.753043   2.986588   2.414124   5.410179
    18  H    1.098065   2.123919   2.271648   2.738775   5.971285
    19  H    2.206149   1.095009   2.573438   4.013258   6.083797
    20  H    2.136872   1.101233   2.722458   4.114034   6.483150
    21  H    2.191942   1.091242   3.424905   4.565859   7.325031
    22  H    2.374544   2.714788   1.074356   2.405508   3.849898
    23  H    2.828814   4.230624   2.295246   1.090906   3.908971
                   11         12         13         14         15
    11  H    0.000000
    12  H    1.759217   0.000000
    13  H    2.542279   3.089907   0.000000
    14  H    4.243949   3.752500   2.331367   0.000000
    15  H    3.662431   2.531586   2.921320   1.776924   0.000000
    16  H    5.162022   4.118135   4.115912   2.630352   2.597849
    17  H    5.049576   4.954727   3.426661   3.164447   4.156334
    18  H    5.038400   4.738847   4.867402   5.086432   5.093914
    19  H    5.929281   4.710737   5.711371   4.765696   4.194455
    20  H    5.861546   4.894975   6.157571   5.839457   5.223940
    21  H    6.852546   5.962399   6.501156   5.795875   5.620208
    22  H    3.408009   2.242826   4.026478   4.061737   3.072649
    23  H    2.709334   3.241237   2.652174   4.019464   4.136988
                   16         17         18         19         20
    16  H    0.000000
    17  H    2.816287   0.000000
    18  H    3.613867   2.898112   0.000000
    19  H    2.269554   4.093517   3.065879   0.000000
    20  H    3.662782   4.592053   2.362475   1.751660   0.000000
    21  H    3.368792   4.066418   2.542164   1.779032   1.760568
    22  H    2.950753   4.055543   2.961257   2.669604   2.657803
    23  H    4.125732   2.939836   2.735522   4.709807   4.426392
                   21         22         23
    21  H    0.000000
    22  H    3.801018   0.000000
    23  H    4.995475   2.959731   0.000000
 Stoichiometry    C9H14
 Framework group  C1[X(C9H14)]
 Deg. of freedom    63
 Full point group                 C1      NOp   1
 Largest Abelian subgroup         C1      NOp   1
 Largest concise Abelian subgroup C1      NOp   1
                         Standard orientation:                         
 ---------------------------------------------------------------------
 Center     Atomic      Atomic             Coordinates (Angstroms)
 Number     Number       Type             X           Y           Z
 ---------------------------------------------------------------------
      1          6           0       -2.493459   -1.049742   -0.335864
      2          6           0       -1.800777    0.147382    0.313412
      3          6           0       -1.230376    1.129564   -0.699852
      4          6           0        0.260018    0.906260   -0.493930
      5          6           0        0.670404    0.811149    1.002976
      6          6           0        1.831907   -0.235246    0.490258
      7          6           0        2.871964   -0.417121   -0.606831
      8          6           0        0.486960   -0.655355   -0.206134
      9          6           0       -0.514818   -0.299101    0.976511
     10          1           0       -3.424424   -0.748880   -0.823611
     11          1           0       -2.718520   -1.817739    0.411506
     12          1           0       -1.868235   -1.525437   -1.100584
     13          1           0       -2.477947    0.639318    1.018286
     14          1           0       -1.528721    2.158701   -0.473597
     15          1           0       -1.523244    0.902246   -1.730081
     16          1           0        0.932202    1.493856   -1.122129
     17          1           0        0.729628    1.645259    1.682780
     18          1           0        2.141083   -0.862196    1.337070
     19          1           0        2.567388   -0.012618   -1.577736
     20          1           0        3.015061   -1.497676   -0.763791
     21          1           0        3.846722   -0.004478   -0.341535
     22          1           0        0.367344   -1.398473   -0.972757
     23          1           0       -0.549279   -0.998621    1.812908
 ---------------------------------------------------------------------
 Rotational constants (GHZ):           3.5843859           1.2137090           1.1680777
 Standard basis: 6-31G(2df,p) (6D, 7F)
 There are   349 symmetry adapted cartesian basis functions of A   symmetry.
 There are   322 symmetry adapted basis functions of A   symmetry.
   322 basis functions,   494 primitive gaussians,   349 cartesian basis functions
    34 alpha electrons       34 beta electrons
       nuclear repulsion energy       468.8784759124 Hartrees.
 NAtoms=   23 NActive=   23 NUniq=   23 SFac= 1.00D+00 NAtFMM=   60 NAOKFM=F Big=F
 Integral buffers will be    131072 words long.
 Raffenetti 2 integral format.
 Two-electron integral symmetry is turned on.
 One-electron integrals computed using PRISM.
 PrsmSu:  requested number of processors reduced to:  13 ShMem   1 Linda.
 NBasis=   322 RedAO= T EigKep=  3.56D-04  NBF=   322
 NBsUse=   322 1.00D-06 EigRej= -1.00D+00 NBFU=   322
 ExpMin= 1.61D-01 ExpMax= 3.05D+03 ExpMxC= 4.57D+02 IAcc=3 IRadAn=         5 AccDes= 0.00D+00
 Harris functional with IExCor=  402 and IRadAn=       5 diagonalized for initial guess.
 HarFok:  IExCor=  402 AccDes= 0.00D+00 IRadAn=         5 IDoV= 1 UseB2=F ITyADJ=14
 ICtDFT=  3500011 ScaDFX=  1.000000  1.000000  1.000000  1.000000
 FoFCou: FMM=F IPFlag=           0 FMFlag=      100000 FMFlg1=           0
         NFxFlg=           0 DoJE=T BraDBF=F KetDBF=T FulRan=T
         wScrn=  0.000000 ICntrl=       500 IOpCl=  0 I1Cent=   200000004 NGrid=           0
         NMat0=    1 NMatS0=      1 NMatT0=    0 NMatD0=    1 NMtDS0=    0 NMtDT0=    0
 Petite list used in FoFCou.
 Requested convergence on RMS density matrix=1.00D-08 within 128 cycles.
 Requested convergence on MAX density matrix=1.00D-06.
 Requested convergence on             energy=1.00D-06.
 No special actions if energy rises.
 Integral accuracy reduced to 1.0D-05 until final iterations.
 Initial convergence to 1.0D-05 achieved.  Increase integral accuracy.
 SCF Done:  E(RB3LYP) =  -351.291743824     A.U. after   12 cycles
            NFock= 12  Conv=0.69D-08     -V/T= 2.0090

 **********************************************************************

            Population analysis using the SCF density.

 **********************************************************************

 Orbital symmetries:
       Occupied  (A) (A) (A) (A) (A) (A) (A) (A) (A) (A) (A) (A)
                 (A) (A) (A) (A) (A) (A) (A) (A) (A) (A) (A) (A)
                 (A) (A) (A) (A) (A) (A) (A) (A) (A) (A)
       Virtual   (A) (A) (A) (A) (A) (A) (A) (A) (A) (A) (A) (A)
                 (A) (A) (A) (A) (A) (A) (A) (A) (A) (A) (A) (A)
                 (A) (A) (A) (A) (A) (A) (A) (A) (A) (A) (A) (A)
                 (A) (A) (A) (A) (A) (A) (A) (A) (A) (A) (A) (A)
                 (A) (A) (A) (A) (A) (A) (A) (A) (A) (A) (A) (A)
                 (A) (A) (A) (A) (A) (A) (A) (A) (A) (A) (A) (A)
                 (A) (A) (A) (A) (A) (A) (A) (A) (A) (A) (A) (A)
                 (A) (A) (A) (A) (A) (A) (A) (A) (A) (A) (A) (A)
                 (A) (A) (A) (A) (A) (A) (A) (A) (A) (A) (A) (A)
                 (A) (A) (A) (A) (A) (A) (A) (A) (A) (A) (A) (A)
                 (A) (A) (A) (A) (A) (A) (A) (A) (A) (A) (A) (A)
                 (A) (A) (A) (A) (A) (A) (A) (A) (A) (A) (A) (A)
                 (A) (A) (A) (A) (A) (A) (A) (A) (A) (A) (A) (A)
                 (A) (A) (A) (A) (A) (A) (A) (A) (A) (A) (A) (A)
                 (A) (A) (A) (A) (A) (A) (A) (A) (A) (A) (A) (A)
                 (A) (A) (A) (A) (A) (A) (A) (A) (A) (A) (A) (A)
                 (A) (A) (A) (A) (A) (A) (A) (A) (A) (A) (A) (A)
                 (A) (A) (A) (A) (A) (A) (A) (A) (A) (A) (A) (A)
                 (A) (A) (A) (A) (A) (A) (A) (A) (A) (A) (A) (A)
                 (A) (A) (A) (A) (A) (A) (A) (A) (A) (A) (A) (A)
                 (A) (A) (A) (A) (A) (A) (A) (A) (A) (A) (A) (A)
                 (A) (A) (A) (A) (A) (A) (A) (A) (A) (A) (A) (A)
                 (A) (A) (A) (A) (A) (A) (A) (A) (A) (A) (A) (A)
                 (A) (A) (A) (A) (A) (A) (A) (A) (A) (A) (A) (A)
 The electronic state is 1-A.
 Alpha  occ. eigenvalues --  -10.19903 -10.19088 -10.18631 -10.18463 -10.18076
 Alpha  occ. eigenvalues --  -10.17852 -10.17557 -10.16922 -10.16641  -0.90171
 Alpha  occ. eigenvalues --   -0.79002  -0.72715  -0.69825  -0.64697  -0.61733
 Alpha  occ. eigenvalues --   -0.58853  -0.54136  -0.50668  -0.49255  -0.47358
 Alpha  occ. eigenvalues --   -0.44188  -0.41450  -0.40425  -0.39638  -0.38416
 Alpha  occ. eigenvalues --   -0.37005  -0.35295  -0.32368  -0.32007  -0.30737
 Alpha  occ. eigenvalues --   -0.29631  -0.28807  -0.27252  -0.25790
 Alpha virt. eigenvalues --    0.08315   0.09864   0.10897   0.12640   0.13206
 Alpha virt. eigenvalues --    0.13731   0.13947   0.15097   0.15744   0.16588
 Alpha virt. eigenvalues --    0.17608   0.17839   0.18517   0.18938   0.19509
 Alpha virt. eigenvalues --    0.20461   0.21205   0.22428   0.23092   0.25212
 Alpha virt. eigenvalues --    0.25907   0.27397   0.28447   0.31149   0.34639
 Alpha virt. eigenvalues --    0.43913   0.44892   0.46460   0.47612   0.49171
 Alpha virt. eigenvalues --    0.50052   0.50760   0.53321   0.54009   0.54633
 Alpha virt. eigenvalues --    0.55179   0.57079   0.58987   0.59854   0.61533
 Alpha virt. eigenvalues --    0.62614   0.64549   0.64596   0.66317   0.67626
 Alpha virt. eigenvalues --    0.68286   0.68727   0.72572   0.72664   0.73823
 Alpha virt. eigenvalues --    0.74142   0.74619   0.75038   0.76227   0.77406
 Alpha virt. eigenvalues --    0.78403   0.78448   0.79975   0.81120   0.82443
 Alpha virt. eigenvalues --    0.82722   0.85046   0.85357   0.89451   0.90539
 Alpha virt. eigenvalues --    0.90868   0.94872   0.99092   1.02653   1.03202
 Alpha virt. eigenvalues --    1.06836   1.09843   1.11755   1.14661   1.15443
 Alpha virt. eigenvalues --    1.16639   1.21765   1.25657   1.26532   1.29116
 Alpha virt. eigenvalues --    1.32789   1.33969   1.35569   1.37845   1.38857
 Alpha virt. eigenvalues --    1.41866   1.42806   1.44256   1.44997   1.46918
 Alpha virt. eigenvalues --    1.47750   1.48499   1.50194   1.54024   1.54421
 Alpha virt. eigenvalues --    1.55954   1.57883   1.60367   1.61064   1.64924
 Alpha virt. eigenvalues --    1.66342   1.67021   1.68892   1.70250   1.71699
 Alpha virt. eigenvalues --    1.72835   1.75954   1.76507   1.80982   1.83110
 Alpha virt. eigenvalues --    1.84066   1.88852   1.90398   1.91511   1.93780
 Alpha virt. eigenvalues --    1.97089   1.99439   2.00436   2.02766   2.08846
 Alpha virt. eigenvalues --    2.17210   2.23184   2.25888   2.26602   2.29268
 Alpha virt. eigenvalues --    2.30810   2.33064   2.34150   2.37903   2.40653
 Alpha virt. eigenvalues --    2.41093   2.42031   2.42681   2.46129   2.46872
 Alpha virt. eigenvalues --    2.47670   2.50395   2.55921   2.56566   2.58068
 Alpha virt. eigenvalues --    2.64714   2.65272   2.68584   2.72967   2.74217
 Alpha virt. eigenvalues --    2.76052   2.78698   2.80214   2.80949   2.82268
 Alpha virt. eigenvalues --    2.84653   2.85559   2.86748   2.87954   2.89893
 Alpha virt. eigenvalues --    2.92233   2.92743   2.93390   2.95568   2.96192
 Alpha virt. eigenvalues --    2.97555   2.99389   3.01031   3.03378   3.07038
 Alpha virt. eigenvalues --    3.07890   3.11184   3.11977   3.14468   3.15246
 Alpha virt. eigenvalues --    3.18623   3.21087   3.22702   3.23849   3.26545
 Alpha virt. eigenvalues --    3.27508   3.30445   3.32071   3.33671   3.36151
 Alpha virt. eigenvalues --    3.38306   3.39088   3.45012   3.46276   3.47285
 Alpha virt. eigenvalues --    3.50072   3.52379   3.55311   3.56251   3.60334
 Alpha virt. eigenvalues --    3.61554   3.62425   3.64514   3.65481   3.66630
 Alpha virt. eigenvalues --    3.67853   3.74910   3.76433   3.78136   3.80371
 Alpha virt. eigenvalues --    3.84330   3.86349   3.88981   3.89432   3.92679
 Alpha virt. eigenvalues --    3.95389   3.98725   4.00640   4.03372   4.06358
 Alpha virt. eigenvalues --    4.10895   4.12504   4.18711   4.21571   4.23297
 Alpha virt. eigenvalues --    4.25849   4.29440   4.33945   4.38948   4.40775
 Alpha virt. eigenvalues --    4.42214   4.43201   4.44867   4.46834   4.49916
 Alpha virt. eigenvalues --    4.51818   4.54435   4.54712   4.57766   4.60053
 Alpha virt. eigenvalues --    4.61236   4.62761   4.63529   4.64670   4.66124
 Alpha virt. eigenvalues --    4.67374   4.68886   4.70812   4.73538   4.74374
 Alpha virt. eigenvalues --    4.75708   4.78106   4.78711   4.79135   4.81585
 Alpha virt. eigenvalues --    4.83621   4.84088   4.85205   4.86471   4.89455
 Alpha virt. eigenvalues --    4.90808   4.92183   4.93055   4.97132   5.00623
 Alpha virt. eigenvalues --    5.01474   5.04653   5.07811   5.10586   5.12937
 Alpha virt. eigenvalues --    5.18239   5.22332   5.28778   5.33987   5.36570
 Alpha virt. eigenvalues --    5.41374   5.43144   5.48130   5.55304   5.55508
 Alpha virt. eigenvalues --    5.60204   5.64313   5.71142   5.73072   5.84873
 Alpha virt. eigenvalues --    5.97975   6.09918   7.04277   7.40454  10.97028
 Alpha virt. eigenvalues --   11.49994  11.61310  11.92592  12.06665  12.11226
 Alpha virt. eigenvalues --   12.27768  12.90537  12.97840
          Condensed to atoms (all electrons):
               1          2          3          4          5          6
     1  C    5.001316   0.403807  -0.024877  -0.001810   0.002737   0.000366
     2  C    0.403807   4.682628   0.360466  -0.051448  -0.014845   0.002825
     3  C   -0.024877   0.360466   5.013660   0.409873  -0.025904   0.003877
     4  C   -0.001810  -0.051448   0.409873   4.732039   0.324375  -0.027520
     5  C    0.002737  -0.014845  -0.025904   0.324375   5.042269   0.337530
     6  C    0.000366   0.002825   0.003877  -0.027520   0.337530   4.736332
     7  C    0.000007  -0.000189   0.000837  -0.012928  -0.005559   0.403256
     8  C   -0.006884  -0.024701  -0.037222   0.337859  -0.047443   0.365196
     9  C   -0.035392   0.430983  -0.058087  -0.020878   0.316143  -0.019578
    10  H    0.367692  -0.020588  -0.002973   0.000068  -0.000134  -0.000011
    11  H    0.370108  -0.026528   0.004543   0.000188  -0.000070  -0.000009
    12  H    0.372516  -0.022828  -0.007179   0.000044   0.000344  -0.000091
    13  H   -0.050714   0.365687  -0.041823   0.002976  -0.000133  -0.000212
    14  H    0.004405  -0.021551   0.349027  -0.022741  -0.003930  -0.000156
    15  H   -0.013163  -0.027795   0.356637  -0.022277   0.004888  -0.000251
    16  H   -0.000153   0.008253  -0.053608   0.365908  -0.048524  -0.000314
    17  H   -0.000111   0.000610  -0.000246  -0.036439   0.347476  -0.033873
    18  H    0.000006  -0.000177  -0.000521   0.007862  -0.053096   0.353425
    19  H    0.000001  -0.000024  -0.000538   0.003967  -0.004441  -0.024460
    20  H   -0.000002   0.000008  -0.000012  -0.000097   0.002749  -0.022586
    21  H    0.000000   0.000005  -0.000004  -0.000017  -0.001527  -0.024789
    22  H    0.000544  -0.000550   0.002173  -0.040120   0.013479  -0.045341
    23  H   -0.000630  -0.054593   0.010121   0.008263  -0.043151  -0.000533
               7          8          9         10         11         12
     1  C    0.000007  -0.006884  -0.035392   0.367692   0.370108   0.372516
     2  C   -0.000189  -0.024701   0.430983  -0.020588  -0.026528  -0.022828
     3  C    0.000837  -0.037222  -0.058087  -0.002973   0.004543  -0.007179
     4  C   -0.012928   0.337859  -0.020878   0.000068   0.000188   0.000044
     5  C   -0.005559  -0.047443   0.316143  -0.000134  -0.000070   0.000344
     6  C    0.403256   0.365196  -0.019578  -0.000011  -0.000009  -0.000091
     7  C    5.014371  -0.044035   0.003019  -0.000000  -0.000000   0.000014
     8  C   -0.044035   4.908972   0.320374   0.000161  -0.000308   0.004762
     9  C    0.003019   0.320374   4.863971   0.003553  -0.002876  -0.007913
    10  H   -0.000000   0.000161   0.003553   0.606505  -0.030647  -0.032927
    11  H   -0.000000  -0.000308  -0.002876  -0.030647   0.607409  -0.033150
    12  H    0.000014   0.004762  -0.007913  -0.032927  -0.033150   0.596012
    13  H    0.000004   0.004565  -0.039283  -0.002392  -0.001619   0.006056
    14  H   -0.000010   0.005512   0.001433   0.000044  -0.000211  -0.000016
    15  H   -0.000010  -0.004288   0.001514   0.002515   0.000160   0.003633
    16  H    0.001368  -0.042560   0.011520   0.000005   0.000006  -0.000092
    17  H    0.000063   0.012460  -0.040856   0.000002  -0.000002  -0.000001
    18  H   -0.060293  -0.026485  -0.005768  -0.000000   0.000004  -0.000003
    19  H    0.369144  -0.004607   0.000547  -0.000000   0.000000  -0.000001
    20  H    0.379190  -0.006426   0.000101   0.000000   0.000000  -0.000001
    21  H    0.363715   0.004816  -0.000233  -0.000000  -0.000000  -0.000000
    22  H    0.002782   0.345643  -0.040853  -0.000052   0.000069   0.003174
    23  H   -0.000270  -0.036310   0.353207  -0.000155   0.003294  -0.000179
              13         14         15         16         17         18
     1  C   -0.050714   0.004405  -0.013163  -0.000153  -0.000111   0.000006
     2  C    0.365687  -0.021551  -0.027795   0.008253   0.000610  -0.000177
     3  C   -0.041823   0.349027   0.356637  -0.053608  -0.000246  -0.000521
     4  C    0.002976  -0.022741  -0.022277   0.365908  -0.036439   0.007862
     5  C   -0.000133  -0.003930   0.004888  -0.048524   0.347476  -0.053096
     6  C   -0.000212  -0.000156  -0.000251  -0.000314  -0.033873   0.353425
     7  C    0.000004  -0.000010  -0.000010   0.001368   0.000063  -0.060293
     8  C    0.004565   0.005512  -0.004288  -0.042560   0.012460  -0.026485
     9  C   -0.039283   0.001433   0.001514   0.011520  -0.040856  -0.005768
    10  H   -0.002392   0.000044   0.002515   0.000005   0.000002  -0.000000
    11  H   -0.001619  -0.000211   0.000160   0.000006  -0.000002   0.000004
    12  H    0.006056  -0.000016   0.003633  -0.000092  -0.000001  -0.000003
    13  H    0.701456  -0.009416   0.004632  -0.000190   0.000826  -0.000004
    14  H   -0.009416   0.650958  -0.042379  -0.000157   0.001499   0.000014
    15  H    0.004632  -0.042379   0.646119  -0.000254  -0.000095   0.000009
    16  H   -0.000190  -0.000157  -0.000254   0.704504  -0.001034  -0.000216
    17  H    0.000826   0.001499  -0.000095  -0.001034   0.681367   0.001689
    18  H   -0.000004   0.000014   0.000009  -0.000216   0.001689   0.719811
    19  H   -0.000000   0.000015   0.000034   0.002901  -0.000022   0.006899
    20  H   -0.000000  -0.000000  -0.000002   0.000036  -0.000056  -0.006835
    21  H   -0.000000  -0.000000  -0.000000  -0.000075   0.000132   0.000893
    22  H   -0.000172  -0.000169   0.001239  -0.000218  -0.000995  -0.000757
    23  H   -0.001382  -0.000158  -0.000228  -0.000627   0.000652   0.005753
              19         20         21         22         23
     1  C    0.000001  -0.000002   0.000000   0.000544  -0.000630
     2  C   -0.000024   0.000008   0.000005  -0.000550  -0.054593
     3  C   -0.000538  -0.000012  -0.000004   0.002173   0.010121
     4  C    0.003967  -0.000097  -0.000017  -0.040120   0.008263
     5  C   -0.004441   0.002749  -0.001527   0.013479  -0.043151
     6  C   -0.024460  -0.022586  -0.024789  -0.045341  -0.000533
     7  C    0.369144   0.379190   0.363715   0.002782  -0.000270
     8  C   -0.004607  -0.006426   0.004816   0.345643  -0.036310
     9  C    0.000547   0.000101  -0.000233  -0.040853   0.353207
    10  H   -0.000000   0.000000  -0.000000  -0.000052  -0.000155
    11  H    0.000000   0.000000  -0.000000   0.000069   0.003294
    12  H   -0.000001  -0.000001  -0.000000   0.003174  -0.000179
    13  H   -0.000000  -0.000000  -0.000000  -0.000172  -0.001382
    14  H    0.000015  -0.000000  -0.000000  -0.000169  -0.000158
    15  H    0.000034  -0.000002  -0.000000   0.001239  -0.000228
    16  H    0.002901   0.000036  -0.000075  -0.000218  -0.000627
    17  H   -0.000022  -0.000056   0.000132  -0.000995   0.000652
    18  H    0.006899  -0.006835   0.000893  -0.000757   0.005753
    19  H    0.599838  -0.035088  -0.031480  -0.000410   0.000015
    20  H   -0.035088   0.592485  -0.035365   0.003905  -0.000006
    21  H   -0.031480  -0.035365   0.618839  -0.000161   0.000003
    22  H   -0.000410   0.003905  -0.000161   0.695820  -0.000323
    23  H    0.000015  -0.000006   0.000003  -0.000323   0.703952
 Mulliken charges:
               1
     1  C   -0.389769
     2  C    0.010543
     3  C   -0.258219
     4  C    0.042855
     5  C   -0.143233
     6  C   -0.003084
     7  C   -0.414475
     8  C   -0.029051
     9  C   -0.034650
    10  H    0.109333
    11  H    0.109638
    12  H    0.117826
    13  H    0.061138
    14  H    0.087988
    15  H    0.089360
    16  H    0.053518
    17  H    0.066954
    18  H    0.057789
    19  H    0.117710
    20  H    0.128003
    21  H    0.105249
    22  H    0.061293
    23  H    0.053286
 Sum of Mulliken charges =  -0.00000
 Mulliken charges with hydrogens summed into heavy atoms:
               1
     1  C   -0.052973
     2  C    0.071681
     3  C   -0.080871
     4  C    0.096372
     5  C   -0.076280
     6  C    0.054705
     7  C   -0.063512
     8  C    0.032241
     9  C    0.018636
 Electronic spatial extent (au):  <R**2>=           1210.0270
 Charge=             -0.0000 electrons
 Dipole moment (field-independent basis, Debye):
    X=             -0.1686    Y=             -0.0732    Z=             -0.2270  Tot=              0.2921
 Quadrupole moment (field-independent basis, Debye-Ang):
   XX=            -56.6837   YY=            -56.3570   ZZ=            -56.4642
   XY=             -0.6304   XZ=             -0.5677   YZ=              0.5363
 Traceless Quadrupole moment (field-independent basis, Debye-Ang):
   XX=             -0.1821   YY=              0.1446   ZZ=              0.0375
   XY=             -0.6304   XZ=             -0.5677   YZ=              0.5363
 Octapole moment (field-independent basis, Debye-Ang**2):
  XXX=             -1.1235  YYY=              0.5006  ZZZ=             -1.1384  XYY=              0.7284
  XXY=             -0.4436  XXZ=             -0.0664  XZZ=             -0.9489  YZZ=             -0.3868
  YYZ=              0.6218  XYZ=              0.3237
 Hexadecapole moment (field-independent basis, Debye-Ang**3):
 XXXX=          -1110.8152 YYYY=           -304.6048 ZZZZ=           -258.5636 XXXY=             -6.8695
 XXXZ=              1.7407 YYYX=             -4.0910 YYYZ=              3.1705 ZZZX=             -0.5964
 ZZZY=              0.3831 XXYY=           -236.3264 XXZZ=           -229.4251 YYZZ=            -91.3812
 XXYZ=             -0.2760 YYXZ=             -3.7880 ZZXY=              1.0794
 N-N= 4.688784759124D+02 E-N=-1.750136086394D+03  KE= 3.481688469813D+02
 PrsmSu:  requested number of processors reduced to:  13 ShMem   1 Linda.
 Calling FoFJK, ICntrl=      2127 FMM=F ISym2X=0 I1Cent= 0 IOpClX= 0 NMat=1 NMatS=1 NMatT=0.
 ***** Axes restored to original set *****
 -------------------------------------------------------------------
 Center     Atomic                   Forces (Hartrees/Bohr)
 Number     Number              X              Y              Z
 -------------------------------------------------------------------
      1        6          -0.004252955    0.001298485   -0.004756992
      2        6           0.000582925    0.006347636   -0.006579230
      3        6           0.011158343   -0.009977758    0.004881195
      4        6          -0.001550531   -0.006799589    0.006139841
      5        6          -0.025653593   -0.027548916    0.015523042
      6        6          -0.046058049    0.018560632   -0.048342115
      7        6           0.026371529   -0.006959979    0.010571541
      8        6           0.032604319   -0.014163062   -0.018416377
      9        6           0.011647604    0.037501192    0.045447908
     10        1          -0.000659136   -0.000122312   -0.001826587
     11        1          -0.001535237   -0.000971612   -0.001974417
     12        1           0.002534222   -0.000510751   -0.000878305
     13        1          -0.001536363    0.000229236   -0.001750046
     14        1           0.000046824   -0.002766716    0.001415155
     15        1           0.000497688   -0.001683334   -0.001438313
     16        1          -0.006528122   -0.000333602    0.004244702
     17        1           0.010236876    0.002987375   -0.000444160
     18        1          -0.003194626    0.000675462   -0.001149117
     19        1           0.003910818    0.000292064   -0.000635618
     20        1           0.003324332    0.000486751   -0.005567042
     21        1           0.002131037   -0.001106381    0.004817109
     22        1          -0.012077636    0.004231490    0.004622228
     23        1          -0.002000268    0.000333691   -0.003904403
 -------------------------------------------------------------------
 Cartesian Forces:  Max     0.048342115 RMS     0.013989765

 GradGradGradGradGradGradGradGradGradGradGradGradGradGradGradGradGradGrad
 Berny optimization.
 FormGI is forming the generalized inverse of G from B-inverse, IUseBI=4.
 Internal  Forces:  Max     0.019076512 RMS     0.005224739
 Search for a local minimum.
 Step number   1 out of a maximum of  138
 All quantities printed in internal units (Hartrees-Bohrs-Radians)
 Mixed Optimization -- RFO/linear search
 Second derivative matrix not updated -- first step.
 ITU=  0
     Eigenvalues ---    0.00397   0.00467   0.00698   0.01592   0.01706
     Eigenvalues ---    0.01848   0.01985   0.02093   0.02442   0.02712
     Eigenvalues ---    0.03261   0.03493   0.03792   0.03886   0.04434
     Eigenvalues ---    0.05073   0.05075   0.05445   0.05525   0.05769
     Eigenvalues ---    0.05847   0.05916   0.05956   0.06375   0.06487
     Eigenvalues ---    0.07295   0.08065   0.08573   0.10607   0.11237
     Eigenvalues ---    0.11790   0.12161   0.15969   0.16000   0.16000
     Eigenvalues ---    0.16000   0.16000   0.16000   0.16000   0.16484
     Eigenvalues ---    0.17876   0.19298   0.19679   0.23589   0.25978
     Eigenvalues ---    0.27799   0.29618   0.30115   0.30558   0.33546
     Eigenvalues ---    0.33897   0.34089   0.34226   0.34240   0.34241
     Eigenvalues ---    0.34252   0.34325   0.34444   0.34621   0.34669
     Eigenvalues ---    0.34708   0.36277   0.36685
 RFO step:  Lambda=-4.05129103D-02 EMin= 3.96900349D-03
 Linear search not attempted -- first point.
 Maximum step size (   0.300) exceeded in Quadratic search.
    -- Step size scaled by   0.991
 Iteration  1 RMS(Cart)=  0.09566053 RMS(Int)=  0.00872370
 Iteration  2 RMS(Cart)=  0.01289436 RMS(Int)=  0.00203631
 Iteration  3 RMS(Cart)=  0.00023822 RMS(Int)=  0.00203221
 Iteration  4 RMS(Cart)=  0.00000079 RMS(Int)=  0.00203221
 Variable       Old X    -DE/DX   Delta X   Delta X   Delta X     New X
                                 (Linear)    (Quad)   (Total)
    R1        2.88731   0.00429   0.00000   0.01264   0.01264   2.89995
    R2        2.06587   0.00122   0.00000   0.00314   0.00314   2.06901
    R3        2.06926   0.00063   0.00000   0.00164   0.00164   2.07090
    R4        2.07180  -0.00183   0.00000  -0.00476  -0.00476   2.06704
    R5        2.87632   0.01685   0.00000   0.06239   0.06407   2.94039
    R6        2.86138   0.01077   0.00000   0.03177   0.03151   2.89290
    R7        2.06785   0.00102   0.00000   0.00263   0.00263   2.07048
    R8        2.87434   0.00048   0.00000   0.00492   0.00585   2.88019
    R9        2.06951   0.00077   0.00000   0.00201   0.00201   2.07151
   R10        2.06907   0.00030   0.00000   0.00079   0.00079   2.06986
   R11        2.93862  -0.00401   0.00000  -0.00508  -0.00376   2.93486
   R12        3.03121  -0.00179   0.00000  -0.01715  -0.01675   3.01446
   R13        2.06295   0.00051   0.00000   0.00131   0.00131   2.06425
   R14        3.10911  -0.01908   0.00000  -0.08627  -0.08806   3.02105
   R15        3.06934  -0.01777   0.00000  -0.07644  -0.07559   2.99374
   R16        2.03651   0.00962   0.00000   0.02365   0.02365   2.06015
   R17        2.87735   0.00583   0.00000   0.01693   0.01693   2.89428
   R18        2.97014  -0.00802   0.00000  -0.02205  -0.02503   2.94511
   R19        2.07504   0.00083   0.00000   0.00216   0.00216   2.07720
   R20        2.06927  -0.00120   0.00000  -0.00311  -0.00311   2.06615
   R21        2.08103  -0.00414   0.00000  -0.01091  -0.01091   2.07012
   R22        2.06215   0.00401   0.00000   0.01027   0.01027   2.07242
   R23        3.00527  -0.01459   0.00000  -0.05596  -0.05605   2.94922
   R24        2.03024   0.01214   0.00000   0.02954   0.02954   2.05978
   R25        2.06151   0.00210   0.00000   0.00538   0.00538   2.06689
    A1        1.93910   0.00021   0.00000  -0.00075  -0.00076   1.93835
    A2        1.93122   0.00254   0.00000   0.01314   0.01317   1.94439
    A3        1.95824  -0.00289   0.00000  -0.01308  -0.01307   1.94517
    A4        1.89917  -0.00203   0.00000  -0.01236  -0.01235   1.88683
    A5        1.86905   0.00117   0.00000   0.00476   0.00473   1.87378
    A6        1.86395   0.00095   0.00000   0.00813   0.00817   1.87211
    A7        1.97425   0.00101   0.00000   0.00915   0.00942   1.98366
    A8        1.91781   0.00326   0.00000   0.02149   0.02186   1.93967
    A9        1.92348  -0.00389   0.00000  -0.03362  -0.03377   1.88971
   A10        1.73507  -0.00123   0.00000   0.00501   0.00383   1.73890
   A11        1.95049   0.00144   0.00000   0.00634   0.00642   1.95691
   A12        1.95631  -0.00012   0.00000  -0.00327  -0.00303   1.95328
   A13        1.75416  -0.00427   0.00000  -0.01096  -0.01100   1.74317
   A14        1.94633   0.00369   0.00000   0.01768   0.01700   1.96333
   A15        1.97379  -0.00018   0.00000  -0.00244  -0.00171   1.97208
   A16        1.95728  -0.00061   0.00000  -0.00903  -0.00882   1.94846
   A17        1.93799   0.00354   0.00000   0.01830   0.01822   1.95621
   A18        1.89297  -0.00210   0.00000  -0.01266  -0.01264   1.88033
   A19        1.98001  -0.00247   0.00000  -0.05105  -0.05118   1.92883
   A20        1.88163   0.00393   0.00000   0.02082   0.01972   1.90134
   A21        2.03354  -0.00105   0.00000   0.01881   0.01963   2.05317
   A22        1.29783  -0.00596   0.00000  -0.02231  -0.02214   1.27569
   A23        2.00905   0.00422   0.00000   0.03418   0.03419   2.04323
   A24        2.14141  -0.00030   0.00000  -0.02122  -0.02097   2.12044
   A25        1.49595   0.00711   0.00000   0.05994   0.05927   1.55523
   A26        1.40357   0.00759   0.00000   0.04471   0.04434   1.44791
   A27        2.18265  -0.00129   0.00000   0.01656   0.01766   2.20030
   A28        1.64620  -0.00328   0.00000  -0.04707  -0.05351   1.59269
   A29        2.27844  -0.00456   0.00000  -0.03226  -0.03312   2.24532
   A30        2.18885   0.00027   0.00000  -0.00023  -0.00243   2.18642
   A31        2.46983  -0.01330   0.00000  -0.12224  -0.12322   2.34661
   A32        1.27026  -0.00053   0.00000  -0.00034   0.00126   1.27153
   A33        1.89819   0.00460   0.00000   0.04375   0.04209   1.94028
   A34        1.80630   0.00370   0.00000   0.08132   0.09378   1.90008
   A35        1.87039   0.00627   0.00000   0.03939   0.03192   1.90231
   A36        2.01531  -0.00123   0.00000  -0.02154  -0.02381   1.99150
   A37        1.98749  -0.00113   0.00000  -0.00567  -0.00573   1.98177
   A38        1.88458  -0.00717   0.00000  -0.03500  -0.03492   1.84966
   A39        1.97123   0.00562   0.00000   0.02739   0.02752   1.99875
   A40        1.84651   0.00455   0.00000   0.02325   0.02311   1.86962
   A41        1.90110  -0.00292   0.00000  -0.01522  -0.01520   1.88590
   A42        1.86463   0.00111   0.00000   0.00560   0.00587   1.87050
   A43        1.51110   0.00293   0.00000   0.04379   0.04299   1.55409
   A44        1.39612   0.00586   0.00000   0.04122   0.04138   1.43750
   A45        2.12894  -0.00434   0.00000  -0.00984  -0.00994   2.11900
   A46        1.72102  -0.00860   0.00000  -0.08160  -0.08608   1.63495
   A47        2.20970   0.00339   0.00000   0.01985   0.02060   2.23030
   A48        2.23376   0.00219   0.00000   0.01304   0.01264   2.24641
   A49        2.01010  -0.00460   0.00000  -0.05508  -0.05565   1.95445
   A50        1.84977   0.00124   0.00000   0.01892   0.01842   1.86819
   A51        2.09210  -0.00212   0.00000  -0.00594  -0.00574   2.08636
   A52        1.27195   0.00066   0.00000   0.00500   0.00549   1.27744
   A53        2.03630   0.00401   0.00000   0.02722   0.02582   2.06212
   A54        2.03355   0.00257   0.00000   0.02291   0.02227   2.05581
    D1       -1.21757   0.00034   0.00000   0.01069   0.01044  -1.20713
    D2       -3.13896  -0.00062   0.00000  -0.01295  -0.01277   3.13145
    D3        0.98000  -0.00006   0.00000  -0.00058  -0.00054   0.97946
    D4        2.95396   0.00105   0.00000   0.01793   0.01769   2.97165
    D5        1.03257   0.00008   0.00000  -0.00571  -0.00553   1.02704
    D6       -1.13165   0.00065   0.00000   0.00666   0.00670  -1.12495
    D7        0.87413   0.00003   0.00000   0.00737   0.00714   0.88128
    D8       -1.04726  -0.00094   0.00000  -0.01627  -0.01607  -1.06333
    D9        3.07170  -0.00037   0.00000  -0.00391  -0.00384   3.06787
   D10       -1.92676  -0.00414   0.00000  -0.04584  -0.04597  -1.97273
   D11        2.27905  -0.00265   0.00000  -0.03693  -0.03684   2.24221
   D12        0.14012  -0.00256   0.00000  -0.03186  -0.03180   0.10832
   D13        0.10586  -0.00064   0.00000  -0.01452  -0.01442   0.09144
   D14       -1.97151   0.00084   0.00000  -0.00561  -0.00529  -1.97680
   D15        2.17274   0.00094   0.00000  -0.00055  -0.00025   2.17249
   D16        2.17338  -0.00087   0.00000  -0.01299  -0.01318   2.16020
   D17        0.09601   0.00061   0.00000  -0.00408  -0.00405   0.09196
   D18       -2.04293   0.00071   0.00000   0.00098   0.00099  -2.04194
   D19        2.59858   0.00431   0.00000   0.06614   0.06509   2.66367
   D20        1.23301   0.00395   0.00000   0.06331   0.06371   1.29672
   D21       -1.11318   0.00078   0.00000   0.01408   0.01467  -1.09851
   D22        0.52356   0.00252   0.00000   0.04490   0.04348   0.56705
   D23       -0.84201   0.00216   0.00000   0.04206   0.04211  -0.79990
   D24        3.09499  -0.00101   0.00000  -0.00716  -0.00694   3.08805
   D25       -1.53961   0.00159   0.00000   0.03617   0.03521  -1.50440
   D26       -2.90519   0.00122   0.00000   0.03333   0.03383  -2.87135
   D27        1.03182  -0.00195   0.00000  -0.01589  -0.01521   1.01660
   D28       -0.75985   0.00136   0.00000   0.00421   0.00567  -0.75418
   D29        0.64081  -0.00442   0.00000  -0.02557  -0.02547   0.61534
   D30        3.12942  -0.00128   0.00000  -0.01202  -0.01080   3.11861
   D31        1.30955   0.00298   0.00000   0.01468   0.01547   1.32502
   D32        2.71021  -0.00280   0.00000  -0.01510  -0.01566   2.69454
   D33       -1.08437   0.00034   0.00000  -0.00155  -0.00100  -1.08537
   D34       -2.85272   0.00237   0.00000   0.00511   0.00589  -2.84683
   D35       -1.45207  -0.00340   0.00000  -0.02467  -0.02525  -1.47731
   D36        1.03654  -0.00026   0.00000  -0.01113  -0.01059   1.02596
   D37        2.57658   0.00157   0.00000  -0.00835  -0.01015   2.56643
   D38        0.91639   0.00685   0.00000   0.05418   0.05526   0.97165
   D39       -1.29719   0.00122   0.00000   0.01572   0.01666  -1.28053
   D40        0.77907  -0.00097   0.00000  -0.03244  -0.03452   0.74455
   D41       -0.88112   0.00431   0.00000   0.03009   0.03089  -0.85023
   D42       -3.09470  -0.00132   0.00000  -0.00838  -0.00771  -3.10241
   D43       -1.30182   0.00188   0.00000   0.00151   0.00005  -1.30177
   D44       -2.96200   0.00716   0.00000   0.06405   0.06545  -2.89655
   D45        1.10760   0.00153   0.00000   0.02558   0.02686   1.13445
   D46       -2.74731   0.00917   0.00000   0.11908   0.12108  -2.62623
   D47       -1.01299  -0.00068   0.00000   0.02393   0.02453  -0.98846
   D48        1.23498   0.00464   0.00000   0.06418   0.06475   1.29974
   D49       -0.82529   0.00440   0.00000   0.05557   0.05669  -0.76860
   D50        0.90903  -0.00545   0.00000  -0.03957  -0.03985   0.86918
   D51       -3.12618  -0.00013   0.00000   0.00067   0.00037  -3.12581
   D52        1.09663   0.00598   0.00000   0.08463   0.08625   1.18288
   D53        2.83094  -0.00387   0.00000  -0.01052  -0.01029   2.82065
   D54       -1.20427   0.00145   0.00000   0.02973   0.02993  -1.17434
   D55        0.76551   0.00985   0.00000   0.20902   0.20981   0.97533
   D56       -0.80802   0.00040   0.00000   0.03896   0.04032  -0.76770
   D57       -2.75803   0.00276   0.00000   0.07086   0.07385  -2.68419
   D58        2.16237   0.01843   0.00000   0.26363   0.26047   2.42284
   D59        0.58885   0.00897   0.00000   0.09357   0.09097   0.67982
   D60       -1.36117   0.01133   0.00000   0.12547   0.12450  -1.23667
   D61       -1.57210   0.00714   0.00000   0.14053   0.14138  -1.43073
   D62        3.13755  -0.00231   0.00000  -0.02953  -0.02812   3.10943
   D63        1.18754   0.00005   0.00000   0.00237   0.00541   1.19295
   D64       -0.84411  -0.00421   0.00000  -0.06094  -0.06123  -0.90534
   D65        0.90116  -0.00148   0.00000  -0.02481  -0.02600   0.87516
   D66        2.84880   0.00117   0.00000  -0.00051  -0.00141   2.84739
   D67       -2.32599  -0.01272   0.00000  -0.13433  -0.13175  -2.45774
   D68       -0.58072  -0.00999   0.00000  -0.09820  -0.09652  -0.67724
   D69        1.36692  -0.00734   0.00000  -0.07390  -0.07193   1.29499
   D70        1.36359   0.00001   0.00000  -0.00608  -0.00461   1.35898
   D71        3.10887   0.00274   0.00000   0.03006   0.03061   3.13948
   D72       -1.22668   0.00538   0.00000   0.05435   0.05520  -1.17148
   D73       -0.59346  -0.00320   0.00000  -0.07102  -0.06560  -0.65906
   D74       -2.63846  -0.00342   0.00000  -0.07333  -0.06806  -2.70652
   D75        1.58690  -0.00344   0.00000  -0.07367  -0.06822   1.51868
   D76        0.78885   0.00046   0.00000   0.02830   0.02149   0.81035
   D77       -1.25614   0.00024   0.00000   0.02599   0.01903  -1.23711
   D78        2.96921   0.00021   0.00000   0.02565   0.01887   2.98809
   D79        2.92648   0.00398   0.00000   0.06463   0.06613   2.99261
   D80        0.88149   0.00376   0.00000   0.06232   0.06367   0.94515
   D81       -1.17634   0.00373   0.00000   0.06198   0.06351  -1.11283
   D82        0.77557  -0.00078   0.00000  -0.03082  -0.03303   0.74253
   D83       -0.60903  -0.00798   0.00000  -0.08719  -0.08456  -0.69359
   D84        3.01069  -0.00228   0.00000   0.00526   0.00574   3.01642
   D85       -1.67149   0.01388   0.00000   0.11311   0.11030  -1.56119
   D86       -3.05609   0.00667   0.00000   0.05673   0.05877  -2.99731
   D87        0.56363   0.01238   0.00000   0.14919   0.14907   0.71270
   D88        2.57361   0.00444   0.00000   0.02283   0.01934   2.59295
   D89        1.18901  -0.00276   0.00000  -0.03355  -0.03219   1.15682
   D90       -1.47446   0.00294   0.00000   0.05891   0.05811  -1.41635
   D91        1.08988  -0.00304   0.00000  -0.04359  -0.04278   1.04710
   D92       -0.86497   0.00199   0.00000   0.01811   0.01936  -0.84561
   D93       -2.81608  -0.00246   0.00000  -0.01156  -0.00957  -2.82564
   D94        2.57258   0.00259   0.00000   0.02393   0.01981   2.59239
   D95        0.61773   0.00762   0.00000   0.08563   0.08195   0.69968
   D96       -1.33338   0.00317   0.00000   0.05596   0.05303  -1.28035
   D97       -1.05675  -0.00282   0.00000  -0.06829  -0.06906  -1.12580
   D98       -3.01160   0.00221   0.00000  -0.00659  -0.00692  -3.01852
   D99        1.32048  -0.00224   0.00000  -0.03626  -0.03584   1.28464
         Item               Value     Threshold  Converged?
 Maximum Force            0.019077     0.000450     NO 
 RMS     Force            0.005225     0.000300     NO 
 Maximum Displacement     0.581665     0.001800     NO 
 RMS     Displacement     0.104843     0.001200     NO 
 Predicted change in Energy=-2.894967D-02
 GradGradGradGradGradGradGradGradGradGradGradGradGradGradGradGradGradGrad

                          Input orientation:                          
 ---------------------------------------------------------------------
 Center     Atomic      Atomic             Coordinates (Angstroms)
 Number     Number       Type             X           Y           Z
 ---------------------------------------------------------------------
      1          6           0        1.001121    0.076345   -0.158075
      2          6           0        2.521230    0.130656    0.045082
      3          6           0        3.071545   -1.010526    0.948387
      4          6           0        3.530760   -0.193923    2.150573
      5          6           0        4.269005    1.090977    1.685783
      6          6           0        3.695386    1.854284    2.967999
      7          6           0        3.752478    1.606489    4.478331
      8          6           0        2.522677    1.023615    2.364993
      9          6           0        2.922188    1.342351    0.890388
     10          1           0        0.716683   -0.784915   -0.771324
     11          1           0        0.630842    0.982456   -0.650814
     12          1           0        0.473055   -0.013439    0.795628
     13          1           0        2.999309    0.143513   -0.940681
     14          1           0        3.905463   -1.548607    0.482876
     15          1           0        2.308125   -1.747933    1.218846
     16          1           0        3.959923   -0.735236    2.996765
     17          1           0        5.270692    1.136482    1.257929
     18          1           0        3.619917    2.935597    2.785461
     19          1           0        3.679614    0.550111    4.750714
     20          1           0        2.875307    2.109456    4.899790
     21          1           0        4.635807    2.025458    4.975215
     22          1           0        1.528098    0.870605    2.783890
     23          1           0        2.724967    2.350635    0.515203
 ---------------------------------------------------------------------
                    Distance matrix (angstroms):
                    1          2          3          4          5
     1  C    0.000000
     2  C    1.534586   0.000000
     3  C    2.586929   1.555990   0.000000
     4  C    3.435400   2.357455   1.524130   0.000000
     5  C    3.886947   2.582409   2.528632   1.553062   0.000000
     6  C    4.493604   3.590680   3.560218   2.211433   1.598673
     7  C    5.604246   4.831951   4.446678   2.951118   2.886326
     8  C    3.094888   2.485833   2.538851   1.595182   1.874973
     9  C    2.528349   1.530855   2.358326   2.078115   1.584221
    10  H    1.094873   2.182012   2.924668   4.099486   4.709070
    11  H    1.095872   2.187098   3.533617   4.200138   4.325239
    12  H    1.093831   2.186116   2.787413   3.349330   4.052326
    13  H    2.147031   1.095652   2.214860   3.154704   3.067267
    14  H    3.389172   2.219840   1.096198   2.181005   2.923448
    15  H    2.632900   2.225361   1.095320   2.185841   3.481737
    16  H    4.400704   3.395886   2.249635   1.092357   2.269198
    17  H    4.621493   3.168947   3.088965   2.365196   1.090186
    18  H    4.868041   4.072406   4.387191   3.194515   2.243487
    19  H    5.612040   4.864234   4.154880   2.708593   3.167605
    20  H    5.764384   5.254447   5.038491   3.646007   3.648224
    21  H    6.584881   5.689281   5.280100   3.758375   3.439209
    22  H    3.092525   3.005812   3.047943   2.354775   2.960908
    23  H    2.932123   2.278339   3.406636   3.130257   2.311071
                    6          7          8          9         10
     6  C    0.000000
     7  C    1.531588   0.000000
     8  C    1.558485   2.513632   0.000000
     9  C    2.275166   3.692219   1.560660   0.000000
    10  H    5.460823   6.518722   4.045848   3.485800   0.000000
    11  H    4.821548   6.036734   3.560313   2.784797   1.773553
    12  H    4.311729   5.190480   2.781967   2.800964   1.763482
    13  H    4.323083   5.663325   3.453873   2.189972   2.470030
    14  H    4.218961   5.093299   3.474304   3.080671   3.510636
    15  H    4.237924   4.895156   3.006854   3.167778   2.724127
    16  H    2.603156   2.778803   2.357620   3.135297   4.971878
    17  H    2.433345   3.591221   2.964779   2.385988   5.343092
    18  H    1.099207   2.156364   2.244193   2.572268   5.909459
    19  H    2.208888   1.093361   2.693395   4.012911   6.407352
    20  H    2.114109   1.095460   2.780035   4.082396   6.722989
    21  H    2.223197   1.096676   3.504606   4.482068   7.502029
    22  H    2.387187   2.891457   1.089988   2.398204   4.004833
    23  H    2.684080   4.161239   2.285525   1.093753   3.939547
                   11         12         13         14         15
    11  H    0.000000
    12  H    1.763207   0.000000
    13  H    2.529325   3.069425   0.000000
    14  H    4.291232   3.773060   2.389749   0.000000
    15  H    3.709977   2.560286   2.952772   1.769992   0.000000
    16  H    5.228583   4.186197   4.147103   2.642759   2.629637
    17  H    5.019485   4.955135   3.313465   3.110347   4.134994
    18  H    4.955534   4.749631   4.697342   5.048913   5.109847
    19  H    6.217591   5.122725   5.746313   4.761309   4.431262
    20  H    6.092370   5.207845   6.163718   5.826816   5.361950
    21  H    6.984254   6.241358   6.420098   5.786920   5.810929
    22  H    3.551728   2.418229   4.070081   4.098673   3.148738
    23  H    2.759868   3.276979   2.658242   4.074151   4.179370
                   16         17         18         19         20
    16  H    0.000000
    17  H    2.871409   0.000000
    18  H    3.692597   2.880144   0.000000
    19  H    2.192493   3.882642   3.091331   0.000000
    20  H    3.590288   4.466285   2.389004   1.760878   0.000000
    21  H    3.463020   3.874476   2.579808   1.772387   1.764116
    22  H    2.921954   4.050464   2.939371   2.932599   2.797635
    23  H    4.147995   2.916595   2.509420   4.700297   4.393788
                   21         22         23
    21  H    0.000000
    22  H    3.974097   0.000000
    23  H    4.862998   2.961406   0.000000
 Stoichiometry    C9H14
 Framework group  C1[X(C9H14)]
 Deg. of freedom    63
 Full point group                 C1      NOp   1
 Largest Abelian subgroup         C1      NOp   1
 Largest concise Abelian subgroup C1      NOp   1
                         Standard orientation:                         
 ---------------------------------------------------------------------
 Center     Atomic      Atomic             Coordinates (Angstroms)
 Number     Number       Type             X           Y           Z
 ---------------------------------------------------------------------
      1          6           0       -2.605027   -0.857666   -0.537009
      2          6           0       -1.775448    0.044336    0.386650
      3          6           0       -1.227258    1.320531   -0.314718
      4          6           0        0.265331    1.013310   -0.287074
      5          6           0        0.676759    0.436512    1.094965
      6          6           0        1.779404   -0.461134    0.364103
      7          6           0        2.956144   -0.164968   -0.570419
      8          6           0        0.474639   -0.555904   -0.482939
      9          6           0       -0.453237   -0.625219    0.770018
     10          1           0       -3.554844   -0.381953   -0.802133
     11          1           0       -2.826973   -1.820111   -0.062273
     12          1           0       -2.074980   -1.070417   -1.469882
     13          1           0       -2.381969    0.285437    1.266683
     14          1           0       -1.461654    2.236938    0.239275
     15          1           0       -1.603703    1.442560   -1.336053
     16          1           0        0.940883    1.740440   -0.743314
     17          1           0        0.763716    0.998682    2.024971
     18          1           0        2.003654   -1.366366    0.945930
     19          1           0        2.752778    0.633253   -1.289392
     20          1           0        3.122742   -1.082302   -1.145550
     21          1           0        3.896399    0.070933   -0.057612
     22          1           0        0.342862   -1.029503   -1.455777
     23          1           0       -0.466749   -1.556372    1.343663
 ---------------------------------------------------------------------
 Rotational constants (GHZ):           3.7552754           1.1977088           1.1369950
 Standard basis: 6-31G(2df,p) (6D, 7F)
 There are   349 symmetry adapted cartesian basis functions of A   symmetry.
 There are   322 symmetry adapted basis functions of A   symmetry.
   322 basis functions,   494 primitive gaussians,   349 cartesian basis functions
    34 alpha electrons       34 beta electrons
       nuclear repulsion energy       468.4691648257 Hartrees.
 NAtoms=   23 NActive=   23 NUniq=   23 SFac= 1.00D+00 NAtFMM=   60 NAOKFM=F Big=F
 Integral buffers will be    131072 words long.
 Raffenetti 2 integral format.
 Two-electron integral symmetry is turned on.
 One-electron integrals computed using PRISM.
 PrsmSu:  requested number of processors reduced to:  13 ShMem   1 Linda.
 NBasis=   322 RedAO= T EigKep=  3.21D-04  NBF=   322
 NBsUse=   322 1.00D-06 EigRej= -1.00D+00 NBFU=   322
 Initial guess from the checkpoint file:  "CC1CC2C3CqCrC2C13.chk"
 B after Tr=     0.000000   -0.000000    0.000000
         Rot=    0.987156   -0.159673   -0.002132    0.004805 Ang= -18.39 deg.
 ExpMin= 1.61D-01 ExpMax= 3.05D+03 ExpMxC= 4.57D+02 IAcc=2 IRadAn=         4 AccDes= 0.00D+00
 Harris functional with IExCor=  402 and IRadAn=       4 diagonalized for initial guess.
 HarFok:  IExCor=  402 AccDes= 0.00D+00 IRadAn=         4 IDoV= 1 UseB2=F ITyADJ=14
 ICtDFT=  3500011 ScaDFX=  1.000000  1.000000  1.000000  1.000000
 FoFCou: FMM=F IPFlag=           0 FMFlag=      100000 FMFlg1=           0
         NFxFlg=           0 DoJE=T BraDBF=F KetDBF=T FulRan=T
         wScrn=  0.000000 ICntrl=       500 IOpCl=  0 I1Cent=   200000004 NGrid=           0
         NMat0=    1 NMatS0=      1 NMatT0=    0 NMatD0=    1 NMtDS0=    0 NMtDT0=    0
 Petite list used in FoFCou.
 Requested convergence on RMS density matrix=1.00D-08 within 128 cycles.
 Requested convergence on MAX density matrix=1.00D-06.
 Requested convergence on             energy=1.00D-06.
 No special actions if energy rises.
 Integral accuracy reduced to 1.0D-05 until final iterations.
 Initial convergence to 1.0D-05 achieved.  Increase integral accuracy.
 SCF Done:  E(RB3LYP) =  -351.322219967     A.U. after   11 cycles
            NFock= 11  Conv=0.40D-08     -V/T= 2.0091
 PrsmSu:  requested number of processors reduced to:  13 ShMem   1 Linda.
 Calling FoFJK, ICntrl=      2127 FMM=F ISym2X=0 I1Cent= 0 IOpClX= 0 NMat=1 NMatS=1 NMatT=0.
 ***** Axes restored to original set *****
 -------------------------------------------------------------------
 Center     Atomic                   Forces (Hartrees/Bohr)
 Number     Number              X              Y              Z
 -------------------------------------------------------------------
      1        6           0.000225560   -0.000912017   -0.002294149
      2        6          -0.000684063    0.002445027   -0.002761620
      3        6           0.002473497    0.001812465   -0.000181061
      4        6          -0.000992599    0.002865263    0.001238448
      5        6          -0.000299439   -0.006854768    0.009043604
      6        6          -0.027863335    0.001477771   -0.018252196
      7        6           0.018381816    0.000219957   -0.001558501
      8        6           0.007924257   -0.013509215   -0.001753800
      9        6           0.005012979    0.008220083    0.018666108
     10        1          -0.000168876    0.000172019   -0.000530586
     11        1           0.000318690   -0.000499478   -0.000884362
     12        1           0.000211218   -0.000073255    0.000887952
     13        1           0.001603491   -0.000364729    0.000414388
     14        1          -0.000770020   -0.000393847   -0.000152809
     15        1          -0.000377974   -0.000018550   -0.001092946
     16        1          -0.004467850    0.000495304    0.000839220
     17        1           0.002852327    0.000982879    0.001004576
     18        1          -0.000857796   -0.001063071    0.000096940
     19        1           0.001297675    0.000158305   -0.000954884
     20        1           0.000320788    0.000061734    0.000511489
     21        1           0.000272101   -0.000383199   -0.000871868
     22        1          -0.003703298    0.006522762    0.000208905
     23        1          -0.000709149   -0.001361439   -0.001622850
 -------------------------------------------------------------------
 Cartesian Forces:  Max     0.027863335 RMS     0.005917621

 GradGradGradGradGradGradGradGradGradGradGradGradGradGradGradGradGradGrad
 Berny optimization.
 Using GEDIIS/GDIIS optimizer.
 FormGI is forming the generalized inverse of G from B-inverse, IUseBI=4.
 Internal  Forces:  Max     0.010285986 RMS     0.002484922
 Search for a local minimum.
 Step number   2 out of a maximum of  138
 All quantities printed in internal units (Hartrees-Bohrs-Radians)
 Mixed Optimization -- RFO/linear search
 Update second derivatives using D2CorX and points    1    2
 DE= -3.05D-02 DEPred=-2.89D-02 R= 1.05D+00
 TightC=F SS=  1.41D+00  RLast= 6.76D-01 DXNew= 5.0454D-01 2.0265D+00
 Trust test= 1.05D+00 RLast= 6.76D-01 DXMaxT set to 5.05D-01
 ITU=  1  0
 Use linear search instead of GDIIS.
     Eigenvalues ---    0.00397   0.00467   0.00703   0.01721   0.01804
     Eigenvalues ---    0.01863   0.02094   0.02126   0.02708   0.02819
     Eigenvalues ---    0.03258   0.03403   0.03655   0.03855   0.04437
     Eigenvalues ---    0.04960   0.05003   0.05471   0.05505   0.05705
     Eigenvalues ---    0.05796   0.05975   0.06017   0.06275   0.06465
     Eigenvalues ---    0.07223   0.07524   0.08196   0.10879   0.11183
     Eigenvalues ---    0.11291   0.12380   0.15812   0.16000   0.16000
     Eigenvalues ---    0.16000   0.16000   0.16002   0.16228   0.16403
     Eigenvalues ---    0.17676   0.19164   0.19483   0.22687   0.26204
[...]
 0.00073106,-0.01649883,0.01122088,0.00756889,0.07566569,-0.05107943,-0
 .08239115,0.02389810,-0.01450678,-0.00932172,-0.00012518,0.00067319,0.
 00135986,0.00089922,-0.00114643,0.00016805,-0.00006199,-0.00009896,0.0
 0020934,-0.00303213,-0.00123417,-0.00407973,-0.00112366,0.00163682,-0.
 00248853,0.00003070,-0.00020752,-0.00005043,-0.00078085,-0.00000885,-0
 .00062824,0.00002940,0.00002811,0.00005129,-0.00023591,-0.00072588,0.0
 0125036,-0.08264950,0.05579233,0.09043648,0.00097070,0.00068700,-0.001
 06808,0.00671069,0.00730128,-0.00165307,-0.19386157,-0.12154223,0.0375
 8081,-0.00646765,-0.00527973,0.00224872,0.00076093,0.00102750,-0.00210
 583,0.00005711,-0.00049702,0.00023327,0.00008676,-0.00004520,0.0000453
 4,0.00107421,-0.00010478,-0.00013972,-0.00060447,0.00125391,-0.0011030
 7,0.00027754,-0.00010966,0.00023326,0.00015393,0.00012313,-0.00008671,
 0.00042438,-0.00001388,0.00024343,0.00024953,0.00070516,-0.00080070,-0
 .01924361,-0.01576027,0.00467928,0.20909924,-0.00182264,0.00143013,-0.
 00042420,-0.01488104,-0.01243033,0.00364308,-0.11970305,-0.14699371,0.
 02982440,-0.01034198,-0.01004745,0.00306065,0.00001001,-0.00064535,-0.
 00213504,-0.00027420,-0.00070288,0.00011463,0.00011050,-0.00002217,0.0
 0002206,-0.00059277,0.00097200,0.00054204,-0.00020311,-0.00164941,0.00
 160774,0.00045270,0.00025584,0.00043220,-0.00000512,0.00037692,-0.0004
 0661,0.00084028,-0.00026205,-0.00029824,0.00046003,-0.00209324,0.00078
 792,0.01285622,0.01087696,-0.00283540,0.13261863,0.16200296,0.00118550
 ,-0.00041531,0.00159332,0.01482613,0.01217934,-0.00557666,0.03708964,0
 .02965389,-0.05509857,-0.02257383,-0.01861819,0.00793413,-0.00106881,-
 0.00213544,-0.00465012,-0.00054458,-0.00112867,0.00059510,0.00016032,-
 0.00004318,0.00010100,0.00031003,0.00101439,0.00155058,-0.00086211,0.0
 0083542,-0.00230778,-0.00007888,-0.00022926,-0.00044072,0.00013401,-0.
 00029033,0.00018288,-0.00051996,-0.00004390,0.00023001,-0.00088149,0.0
 0292396,-0.00126255,0.00983020,0.00810578,-0.00218183,-0.03813765,-0.0
 3229062,0.05873373,0.00006720,0.00007486,0.00005182,0.00112524,-0.0001
 9121,-0.00108192,-0.00221133,0.00435239,-0.00319556,-0.07851641,0.0467
 7264,-0.07306781,0.00797574,-0.00648980,0.01311363,-0.00170080,-0.0001
 0491,0.00055922,-0.00009238,-0.00007277,-0.00048867,-0.00306423,0.0068
 0246,-0.01643632,-0.00177145,0.00078849,-0.00047180,0.00001225,0.00000
 214,-0.00001932,-0.00006238,0.00004236,-0.00000849,0.00001900,-0.00001
 278,0.00001185,-0.00017769,0.00024841,-0.00033619,0.00018883,-0.000271
 66,-0.00013312,-0.00010730,-0.00000918,0.00021703,0.07556582,0.0000721
 6,0.00083461,-0.00031137,-0.00097174,-0.00239568,-0.00349341,-0.005952
 57,0.01081654,-0.01332135,0.04620987,-0.11875440,0.10620034,0.01158567
 ,-0.00621510,0.01010814,0.00055107,0.00158364,0.00227112,0.00008188,-0
 .00089661,-0.00003717,-0.00144504,-0.00622533,0.01230940,0.00125657,-0
 .00881803,0.00161532,0.00012401,0.00005124,0.00008188,-0.00039805,0.00
 006814,-0.00013673,-0.00004431,-0.00005400,0.00002560,-0.00014445,0.00
 059469,-0.00028512,0.00053555,0.00030248,0.00075368,0.00003928,0.00024
 381,0.00093529,-0.05147547,0.12793851,0.00020713,0.00092697,-0.0006565
 6,-0.00126406,-0.00162569,-0.00222508,-0.00558115,0.01435363,-0.012231
 70,-0.07323870,0.10744481,-0.21598594,-0.00311221,0.00084582,-0.004162
 58,0.00073057,0.00048569,0.00009737,-0.00046330,-0.00041989,-0.0012075
 0,0.00202188,-0.00420930,0.00676494,-0.00017158,0.00047800,-0.00214588
 ,0.00000487,-0.00003218,0.00000920,-0.00046634,-0.00004654,-0.00011859
 ,-0.00007314,-0.00004974,0.00006963,-0.00026514,0.00050878,-0.00046886
 ,0.00067061,-0.00022770,0.00017100,-0.00038913,-0.00040919,0.00042298,
 0.08234149,-0.11624261,0.23152992,0.00008779,-0.00024136,-0.00025885,0
 .00000980,0.00051760,0.00068126,-0.00008754,-0.00000444,-0.00002166,-0
 .00217564,0.00383124,-0.00049695,-0.27388626,-0.01894937,0.08614988,-0
 .00157198,-0.00183544,-0.00319985,0.00051144,0.00030366,0.00032544,-0.
 00931208,-0.00056694,0.00312595,-0.00642358,-0.00308581,0.01062645,-0.
 00012098,-0.00005433,-0.00010625,0.00001945,0.00002760,0.00001426,0.00
 016375,0.00006440,0.00003064,0.00007869,-0.00039991,-0.00070979,-0.000
 06078,-0.00039291,-0.00027512,0.00002397,-0.00007153,-0.00005642,0.000
 21057,-0.00034967,0.00010158,0.29329005,-0.00001042,0.00013246,-0.0000
 6621,-0.00023338,-0.00026922,0.00021035,0.00003567,0.00112799,0.001392
 38,-0.01662172,0.00690312,0.00423404,-0.01892308,-0.05403402,0.0047685
 0,0.01110354,0.00327762,0.00122714,0.00026371,0.00003624,0.00077431,-0
 .00048525,-0.00229721,-0.00014407,0.00383002,-0.00135861,-0.00404597,0
 .00004782,0.00002905,0.00003311,-0.00004773,0.00001537,-0.00002997,0.0
 0002206,-0.00003397,0.00001516,-0.00009348,0.00018304,0.00002935,0.000
 37397,-0.00021826,-0.00049511,0.00003325,-0.00038916,-0.00047582,0.000
 24805,0.00030451,0.00026436,0.02109567,0.04286400,0.00018581,-0.000259
 34,-0.00038687,-0.00005117,0.00109400,0.00161002,-0.00038128,0.0002960
 6,0.00008359,0.00332784,-0.00268141,-0.00334313,0.08712539,0.00496146,
 -0.08642937,0.01310393,0.00743618,0.00054677,0.00069968,0.00032671,0.0
 0103863,0.00283360,-0.00002510,-0.00304911,-0.01056989,-0.00385424,0.0
 0903045,-0.00015242,-0.00004004,-0.00011195,0.00001960,-0.00000224,0.0
 0003326,0.00004088,0.00000812,0.00003838,0.00044255,-0.00006002,-0.000
 25827,0.00008870,0.00013427,0.00028651,0.00009930,-0.00005641,0.000072
 28,0.00012219,-0.00012786,-0.00006563,-0.09798040,-0.00711862,0.078646
 39,-0.00002099,0.00000392,0.00003513,-0.00002617,0.00003430,0.00024746
 ,0.00215310,-0.00044711,-0.00070096,-0.00227498,-0.00142256,-0.0005222
 9,-0.00140426,0.01644718,-0.00280883,-0.05397959,0.03862493,-0.0080293
 5,-0.00166315,0.01198475,-0.00340823,0.00568358,-0.02296136,0.00168252
 ,-0.00225608,-0.00196426,0.00151494,0.00001311,0.00000866,-0.00002027,
 -0.00000855,0.00000200,-0.00002015,0.00002618,-0.00000208,-0.00000353,
 0.00000026,0.00001568,-0.00003097,-0.00018362,-0.00036296,-0.00059932,
 0.00011464,0.00022040,0.00044424,0.00025453,-0.00011500,-0.00007039,-0
 .00010790,0.00032370,-0.00012373,0.05248574,0.00001476,0.00001378,-0.0
 0002780,-0.00014298,0.00022537,-0.00021281,0.00065049,-0.00103023,0.00
 093891,-0.00159779,-0.00381698,-0.00460992,-0.00225814,-0.01033990,0.0
 0163485,0.03803059,-0.27904534,0.04744425,0.00063351,-0.00449116,0.000
 48394,0.00506240,-0.01313565,-0.00055612,0.00040153,0.00071505,0.00197
 620,-0.00000151,-0.00000001,-0.00000198,-0.00006071,0.00004392,-0.0000
 7482,0.00003293,-0.00001963,0.00001598,-0.00001242,0.00000149,-0.00008
 099,-0.00007383,-0.00011620,-0.00044364,-0.00018238,-0.00008080,-0.000
 27180,0.00006832,-0.00006202,0.00010500,0.00024881,0.00010055,-0.00031
 657,-0.04039157,0.30803237,-0.00000077,0.00004513,0.00000117,0.0001791
 1,0.00017341,0.00040249,-0.00045179,-0.00184132,0.00072825,-0.00056125
 ,-0.00415682,-0.00467364,-0.00146504,-0.01958377,0.00289999,-0.0081931
 3,0.04902436,-0.05805662,-0.00603262,0.03056436,-0.00822126,0.00254898
 ,-0.00407077,-0.00132671,0.00204511,-0.00430693,0.00148605,0.00001912,
 0.00000108,0.00001032,-0.00004273,0.00001113,-0.00003423,0.00000569,-0
 .00000578,-0.00000569,-0.00000601,-0.00001056,-0.00001017,0.00004319,-
 0.00010615,-0.00014992,-0.00023109,-0.00032771,-0.00046410,-0.00002839
 ,-0.00038566,0.00010672,0.00015520,0.00032603,0.00026349,0.01418491,-0
 .04616200,0.07055382,0.00000124,-0.00002466,0.00000228,0.00001377,-0.0
 0002231,0.00012287,-0.00006264,-0.00029539,0.00006414,0.00033023,0.000
 09393,-0.00052925,0.00044237,-0.00070692,0.00034242,-0.00317375,0.0124
 2620,-0.00147841,-0.05455050,0.04205302,-0.00984288,0.00002063,0.00091
 313,0.00068754,0.00008330,0.00003301,0.00016427,-0.00000526,-0.0000030
 5,-0.00000451,0.00001077,-0.00000249,0.00001028,-0.00000401,0.00000595
 ,-0.00000149,0.00001210,-0.00001435,0.00003908,-0.00000684,0.00002686,
 0.00004559,-0.00002348,-0.00003572,-0.00004225,0.00044374,-0.00068786,
 -0.00036879,-0.00003098,-0.00017714,-0.00003382,0.00016624,0.00020076,
 -0.00268198,0.05451281,0.00001251,0.00007590,-0.00001497,-0.00005777,-
 0.00023645,-0.00018759,-0.00015282,0.00060504,-0.00025095,-0.00011483,
 -0.00089788,-0.00062194,0.00038043,-0.00029702,-0.00021090,0.00076363,
 -0.00337758,0.00163258,0.04279840,-0.28970607,0.05608060,-0.00037772,-
 0.00020724,0.00007237,0.00008857,0.00000236,0.00025702,0.00002001,0.00
 001115,0.00001421,-0.00002594,0.00000429,-0.00001183,-0.00000587,-0.00
 001059,0.00000051,-0.00001353,0.00005136,-0.00001134,0.00000347,0.0000
 4153,0.00006738,0.00002934,0.00003756,0.00004988,-0.00076331,-0.000194
 81,-0.00216017,-0.00005404,0.00009377,0.00013746,0.00018965,0.00153451
 ,0.00057512,-0.04702848,0.31792888,-0.00000734,-0.00004254,0.00005754,
 0.00011388,-0.00012011,0.00022903,0.00010753,-0.00060936,0.00000603,-0
 .00056726,-0.00010991,-0.00099395,0.00101871,0.00055298,0.00115887,-0.
 00423948,0.03253270,-0.00502266,-0.00967060,0.05412760,-0.05986198,-0.
 00005058,-0.00014260,0.00153638,0.00018275,0.00009478,0.00053081,0.000
 00169,0.00000265,-0.00000805,0.00003251,-0.00000418,0.00001950,0.00000
 174,0.00000958,-0.00000696,0.00001144,-0.00002865,0.00005068,-0.000013
 83,-0.00001577,-0.00000622,0.00003020,0.00001494,0.00001090,-0.0003722
 5,-0.00193470,-0.00090119,0.00004203,-0.00020944,-0.00024895,-0.002692
 86,0.00061615,-0.00579051,0.01260435,-0.06036058,0.06462421,-0.0000104
 0,-0.00006109,-0.00002710,-0.00022724,0.00000542,0.00002258,-0.0000245
 0,-0.00002941,0.00000689,0.00014701,0.00008377,-0.00015983,-0.00038120
 ,0.00017416,-0.00262886,0.00914694,-0.00568825,-0.00959313,-0.15553303
 ,0.06224879,0.11242741,0.00119981,-0.00001609,0.00074599,0.00029977,-0
 .00005161,-0.00037824,-0.00002389,-0.00000116,-0.00000214,0.00000869,-
 0.00000236,0.00000688,-0.00001503,-0.00000709,-0.00000336,0.00000957,0
 .00004379,0.00005056,-0.00000122,0.00000922,0.00001128,-0.00000142,-0.
 00000570,-0.00000641,-0.00003576,-0.00006711,0.00006998,-0.00005594,-0
 .00011583,-0.00028216,0.00036976,-0.00021481,0.00083490,-0.00368043,0.
 00095669,0.00242795,0.16727938,0.00003063,0.00005578,-0.00003566,-0.00
 007320,-0.00002839,-0.00007394,0.00002463,0.00029686,-0.00006315,0.000
 26899,-0.00048271,0.00002151,0.00006947,0.00008079,0.00053088,-0.00377
 862,0.00089957,0.00318466,0.06228386,-0.08185882,-0.06287682,0.0006298
 3,0.00019125,-0.00022810,-0.00006442,0.00010946,-0.00012724,0.00000005
 ,-0.00000704,0.00000580,-0.00002162,0.00000403,-0.00000678,-0.00000485
 ,-0.00000262,0.00000532,0.00000937,0.00000016,-0.00001255,0.00000208,-
 0.00000741,0.00000212,-0.00001296,-0.00001208,0.00001010,0.00006185,0.
 00044206,-0.00020173,-0.00004996,0.00000868,-0.00001148,-0.00045733,0.
 00034494,-0.00028107,0.02090590,-0.01075134,-0.02118205,-0.06864388,0.
 08471598,0.00007715,-0.00026890,-0.00015071,-0.00077075,0.00017285,-0.
 00007045,-0.00012111,0.00001734,0.00006989,0.00045220,0.00097951,-0.00
 006957,-0.00340521,0.00315193,-0.00226949,0.02127660,-0.01337454,-0.02
 240137,0.11232966,-0.06273118,-0.16015406,0.00025800,-0.00017003,0.001
 17905,0.00035654,-0.00099646,-0.00102111,-0.00012015,-0.00002994,-0.00
 005674,0.00000065,0.00002250,-0.00000791,-0.00001080,-0.00000540,0.000
 01987,0.00003626,0.00006310,0.00002012,0.00002526,-0.00000227,0.000005
 44,-0.00005464,-0.00007447,-0.00006289,-0.00002505,-0.00012585,0.00017
 263,-0.00000342,-0.00026023,-0.00041101,-0.00002255,0.00061444,0.00101
 586,-0.00530133,0.00221142,0.00480848,-0.12228301,0.06943226,0.1776441
 8,0.00002784,-0.00001378,0.00002076,0.00016236,0.00012026,-0.00027338,
 0.00007003,0.00000215,-0.00000091,-0.00016423,0.00063641,0.00019008,0.
 00077334,0.00000774,-0.00035814,-0.01032106,-0.00630572,-0.00124234,-0
 .23764625,-0.11161430,-0.02128819,0.00139639,0.00219686,-0.00092469,-0
 .00017075,-0.00063417,-0.00028838,-0.00002019,-0.00001728,-0.00001712,
 -0.00000557,0.00001276,-0.00001178,0.00001250,0.00001371,0.00001314,-0
 .00002656,-0.00011311,-0.00009287,0.00000324,-0.00003781,-0.00005431,-
 0.00001479,-0.00001183,0.00000996,0.00007622,-0.00009514,0.00006609,0.
 00005575,-0.00029327,-0.00046246,0.00014758,0.00054314,-0.00004218,0.0
 0562904,0.00326664,0.00101066,-0.01835919,-0.01103049,-0.00199931,0.25
 843338,0.00001395,0.00000910,-0.00000859,-0.00001160,-0.00002704,-0.00
 011747,-0.00009981,0.00029741,-0.00000996,-0.00010946,-0.00047873,0.00
 018216,-0.00055030,0.00008921,0.00009949,0.00491700,0.00176203,0.00002
 730,-0.11175729,-0.11224841,-0.01196357,0.00054787,0.00029467,0.000567
 44,-0.00002075,0.00006341,-0.00013943,-0.00000464,-0.00000469,0.000000
 43,-0.00001198,0.00000550,-0.00000108,-0.00000635,-0.00000400,0.000002
 85,-0.00002340,0.00004034,-0.00004154,0.00001620,-0.00001329,-0.000003
 43,-0.00000150,-0.00001137,0.00000398,-0.00024540,0.00041844,-0.000087
 83,0.00003993,0.00003151,-0.00016343,0.00009021,0.00046856,-0.00057044
 ,-0.02753543,-0.01493423,-0.00272198,0.01128876,0.00593761,0.00169732,
 0.12341296,0.11826922,0.00005035,0.00003264,0.00005503,0.00044125,0.00
 018312,-0.00051467,0.00009837,0.00003635,-0.00002122,-0.00055812,0.000
 69698,0.00022529,0.00016593,-0.00021508,0.00165772,-0.02903837,-0.0182
 3236,-0.00377227,-0.02119940,-0.01185721,-0.04771678,-0.00055214,0.002
 63075,-0.00426844,-0.00087386,-0.00085969,-0.00049811,-0.00000164,-0.0
 0001104,-0.00000833,-0.00000342,0.00000880,-0.00001689,0.00003246,0.00
 002597,0.00002904,-0.00002307,-0.00021333,-0.00018812,0.00000510,-0.00
 005483,-0.00007339,-0.00000746,0.00000256,0.00002225,0.00015372,-0.000
 09641,0.00009261,0.00047770,-0.00012840,-0.00027603,0.00065039,0.00037
 870,0.00113212,0.00617015,0.00267544,-0.00030632,0.01842905,0.01194047
 ,0.00194639,0.02581499,0.01328856,0.05298745,-0.00071473,0.00005469,0.
 00042411,0.00017605,0.00015346,0.00002595,0.00012035,0.00002437,-0.000
 16650,-0.00546300,-0.00669218,0.00195102,-0.00947298,-0.00074940,0.002
 54472,-0.00534767,0.00462361,0.00761475,0.00018564,0.00000254,0.000293
 93,-0.27673838,-0.02079257,0.08445314,0.00132784,0.00050623,-0.0023718
 5,0.00018661,0.00002155,-0.00006041,0.00010599,-0.00001766,-0.00007364
 ,0.00036717,0.00008091,-0.00038379,0.00001408,-0.00010899,-0.00005750,
 0.00003789,0.00008700,0.00016180,0.00025530,0.00039059,0.00041145,-0.0
 0005504,0.00013974,-0.00017308,-0.00072396,-0.00036479,0.00157552,0.00
 010739,-0.00039653,-0.00004895,-0.00014975,0.00010284,-0.00010061,-0.0
 0009240,-0.00012508,-0.00059899,-0.00005790,0.00003576,-0.00026030,0.2
 9583511,-0.00009609,0.00023426,-0.00005369,0.00029237,-0.00030466,0.00
 002527,0.00070340,0.00122501,0.00106901,0.01342040,0.00871761,-0.00708
 277,-0.00089055,-0.00233220,-0.00003759,-0.00847012,0.00214163,0.00936
 106,0.00036242,0.00002979,0.00072137,-0.02099338,-0.05447740,0.0055499
 2,-0.00597027,-0.00201296,-0.00128732,0.00009019,-0.00000252,0.0000463
 9,-0.00004927,-0.00001361,0.00000098,0.00000663,0.00006234,-0.00018831
 ,-0.00004569,0.00013835,-0.00002673,-0.00025627,-0.00040178,-0.0003482
 4,-0.00053530,-0.00020810,-0.00008753,-0.00003094,0.00030648,0.0003409
 5,-0.00040642,0.00336504,0.00011985,-0.00002857,0.00001098,0.00045083,
 -0.00003959,0.00012062,-0.00027422,0.00010063,0.00005206,-0.00037822,-
 0.00008967,0.00001623,-0.00028200,0.02315898,0.04326358,0.00025895,-0.
 00004381,-0.00015592,0.00091632,0.00091539,0.00057796,0.00025926,0.000
 35170,-0.00007282,-0.00191628,0.00066969,-0.00180743,0.00281184,0.0000
 8267,-0.00295608,-0.00882825,0.00288216,0.00521098,-0.00000129,0.00038
 061,0.00137761,0.08367761,0.00553534,-0.08362334,0.01772527,-0.0022725
 4,0.00274798,-0.00027369,-0.00005913,0.00013396,-0.00001495,0.00000674
 ,0.00008352,-0.00063579,-0.00024999,-0.00029900,-0.00017987,-0.0004950
 3,-0.00041534,-0.00004261,-0.00012599,0.00002826,0.00001142,-0.0001751
 0,0.00002349,-0.00009212,-0.00035026,0.00015068,0.00147474,0.00004987,
 0.00263194,0.00033541,-0.00002429,0.00013308,-0.00008505,0.00006777,-0
 .00016144,0.00032583,-0.00003375,-0.00014469,-0.00000647,-0.00002134,-
 0.00039746,-0.09551662,-0.00741789,0.07660407,0.00059073,0.00003618,0.
 00059134,0.00009702,-0.00507668,0.00222068,0.00097599,-0.00090743,-0.0
 0122687,-0.00254736,0.00108325,-0.00208301,0.00069800,0.02186139,-0.00
 775862,-0.00197056,0.00110839,0.00155344,0.00015781,-0.00025706,-0.000
 03055,0.00253754,-0.01202041,0.00254248,-0.05621401,0.04757252,-0.0174
 3670,0.00000382,0.00018718,0.00000813,-0.00001058,0.00007610,-0.000167
 91,-0.00008326,-0.00007075,0.00004044,0.00003350,0.00016725,-0.0000180
 9,0.00006140,-0.00027551,0.00018638,0.00006534,-0.00000147,0.00015385,
 0.00185561,0.00115061,-0.00057720,0.00010632,-0.00001137,0.00037235,0.
 00040318,-0.00055457,-0.00023029,0.00002141,-0.00001787,0.00012937,-0.
 00001928,-0.00002425,-0.00009601,-0.00000119,0.00001526,0.00002831,0.0
 0009637,-0.00023287,-0.00020363,0.05314224,0.00066799,0.00021539,0.000
 67440,0.00482607,-0.01269971,0.01072181,0.00013664,-0.00206510,-0.0011
 6782,0.00071731,-0.00319217,0.00150251,-0.00174360,-0.00086162,-0.0010
 7841,-0.00063222,0.00173275,-0.00073520,0.00007266,0.00032560,0.000213
 53,0.00167733,-0.00348609,-0.00148390,0.04790747,-0.27480973,0.0750033
 3,-0.00021342,0.00027454,-0.00022722,-0.00068461,0.00027622,-0.0006142
 4,-0.00016562,-0.00003752,-0.00000661,0.00032522,0.00023448,-0.0005701
 1,0.00008747,-0.00073666,0.00046429,0.00026645,-0.00064807,0.00031802,
 0.00020546,-0.00028914,-0.00004145,0.00033321,0.00012751,0.00020265,0.
 00020743,0.00064641,0.00063752,-0.00008538,0.00010624,-0.00019531,-0.0
 0000684,0.00001118,0.00005481,0.00004393,0.00001852,0.00004998,-0.0001
 3506,0.00006925,0.00032715,-0.05380787,0.29478771,0.00101052,0.0003263
 4,0.00087153,0.00426011,-0.01684820,0.00859746,-0.00122962,-0.00345880
 ,-0.00219856,-0.00238280,0.00259563,-0.00731267,0.00278254,0.00616070,
 -0.00466884,0.00117047,0.00394017,0.00152719,0.00003490,-0.00065021,0.
 00011336,-0.01028074,0.01761538,-0.00378323,-0.01742142,0.07350202,-0.
 07522144,0.00003231,0.00017032,-0.00012107,-0.00020912,0.00032504,-0.0
 0010520,-0.00015137,0.00005024,-0.00000455,0.00036892,0.00089639,0.000
 25477,0.00017860,-0.00047654,0.00056672,0.00037211,-0.00061923,0.00057
 256,-0.00081394,0.00254774,0.00058184,-0.00009643,-0.00035073,0.000298
 61,-0.00004158,-0.00142570,-0.00000051,0.00011679,-0.00001150,0.000275
 81,0.00000495,0.00000119,-0.00006191,-0.00006318,-0.00001945,-0.000089
 87,0.00035586,-0.00022111,0.00032997,0.02200212,-0.08404972,0.07957803
 \\-0.00000474,0.00000150,-0.00000077,0.00001015,-0.00001084,0.00000186
 ,0.00001698,-0.00000984,-0.00001925,-0.00003355,0.00000993,0.00001912,
 -0.00000519,0.00003063,-0.00000670,-0.00000124,0.00000872,-0.00002405,
 0.00000449,-0.00000224,-0.00000489,0.00002712,-0.00001159,0.00001986,0
 .00002146,0.00000045,0.00000893,-0.00000098,-0.00000210,-0.00000093,0.
 00000296,-0.00000246,-0.00000007,-0.00000199,-0.00000013,-0.00000035,-
 0.00000332,-0.00000062,-0.00000133,-0.00000450,0.00000054,-0.00000001,
 -0.00000755,0.00000210,-0.00000014,-0.00000033,-0.00000740,-0.00001384
 ,0.00000444,-0.00000532,-0.00000273,-0.00000305,0.00000097,0.00000281,
 0.00000074,0.00000248,-0.00000027,-0.00000725,0.00000594,0.,-0.0000046
 8,-0.00000358,0.00001099,-0.00001003,-0.00000535,0.00000282,0.00000006
 ,-0.00000180,0.00000895\\\@


            ARSENIC

 FOR SMELTER FUMES HAVE I BEEN NAMED,
    I AM AN EVIL POISONOUS SMOKE...
 BUT WHEN FROM POISON I AM FREED,
    THROUGH ART AND SLEIGHT OF HAND,
 THEN CAN I CURE BOTH MAN AND BEAST,
    FROM DIRE DISEASE OFTTIMES DIRECT THEM;
 BUT PREPARE ME CORRECTLY, AND TAKE GREAT CARE
    THAT YOU FAITHFULLY KEEP WATCHFUL GUARD OVER ME;
 FOR ELSE I AM POISON, AND POISON REMAIN,
    THAT PIERCES THE HEART OF MANY A ONE.

 ATTRIBUTED TO THE PROBABLY MYTHICAL 15TH
 CENTURY MONK, BASILIUS VALENTINUS
 Job cpu time:       0 days  3 hours 10 minutes 33.9 seconds.
 Elapsed time:       0 days  0 hours 47 minutes 40.7 seconds.
 File lengths (MBytes):  RWF=    175 Int=      0 D2E=      0 Chk=     10 Scr=      1
 Normal termination of Gaussian 16 at Sun May 28 05:21:29 2023.
### All Done ###
