### Starting Gaussian ###
 Entering Gaussian System, Link 0=g16
 Initial command:
 /cluster/software/gaussian/gaussian-16-A.03/avx2/g16/l1.exe "/local/scratch/cz9n3/Gau-11827.inp" -scrdir="/local/scratch/cz9n3/"
 Entering Link 1 = /cluster/software/gaussian/gaussian-16-A.03/avx2/g16/l1.exe PID=     11828.
  
 Copyright (c) 1988,1990,1992,1993,1995,1998,2003,2009,2016,
            Gaussian, Inc.  All Rights Reserved.
  
 This is part of the Gaussian(R) 16 program.  It is based on
 the Gaussian(R) 09 system (copyright 2009, Gaussian, Inc.),
 the Gaussian(R) 03 system (copyright 2003, Gaussian, Inc.),
 the Gaussian(R) 98 system (copyright 1998, Gaussian, Inc.),
 the Gaussian(R) 94 system (copyright 1995, Gaussian, Inc.),
 the Gaussian 92(TM) system (copyright 1992, Gaussian, Inc.),
 the Gaussian 90(TM) system (copyright 1990, Gaussian, Inc.),
 the Gaussian 88(TM) system (copyright 1988, Gaussian, Inc.),
 the Gaussian 86(TM) system (copyright 1986, Carnegie Mellon
 University), and the Gaussian 82(TM) system (copyright 1983,
 Carnegie Mellon University). Gaussian is a federally registered
 trademark of Gaussian, Inc.
  
 This software contains proprietary and confidential information,
 including trade secrets, belonging to Gaussian, Inc.
  
 This software is provided under written license and may be
 used, copied, transmitted, or stored only in accord with that
 written license.
  
 The following legend is applicable only to US Government
 contracts under FAR:
  
                    RESTRICTED RIGHTS LEGEND
  
 Use, reproduction and disclosure by the US Government is
 subject to restrictions as set forth in subparagraphs (a)
 and (c) of the Commercial Computer Software - Restricted
 Rights clause in FAR 52.227-19.
  
 Gaussian, Inc.
 340 Quinnipiac St., Bldg. 40, Wallingford CT 06492
  
  
 ---------------------------------------------------------------
 Warning -- This program may not be used in any manner that
 competes with the business of Gaussian, Inc. or will provide
 assistance to any competitor of Gaussian, Inc.  The licensee
 of this program is prohibited from giving any competitor of
 Gaussian, Inc. access to this program.  By using this program,
 the user acknowledges that Gaussian, Inc. is engaged in the
 business of creating and licensing software in the field of
 computational chemistry and represents and warrants to the
 licensee that it is not a competitor of Gaussian, Inc. and that
 it will not use this program in any manner prohibited above.
 ---------------------------------------------------------------
  

 Cite this work as:
 Gaussian 16, Revision A.03,
 M. J. Frisch, G. W. Trucks, H. B. Schlegel, G. E. Scuseria, 
 M. A. Robb, J. R. Cheeseman, G. Scalmani, V. Barone, 
 G. A. Petersson, H. Nakatsuji, X. Li, M. Caricato, A. V. Marenich, 
 J. Bloino, B. G. Janesko, R. Gomperts, B. Mennucci, H. P. Hratchian, 
 J. V. Ortiz, A. F. Izmaylov, J. L. Sonnenberg, D. Williams-Young, 
 F. Ding, F. Lipparini, F. Egidi, J. Goings, B. Peng, A. Petrone, 
 T. Henderson, D. Ranasinghe, V. G. Zakrzewski, J. Gao, N. Rega, 
 G. Zheng, W. Liang, M. Hada, M. Ehara, K. Toyota, R. Fukuda, 
 J. Hasegawa, M. Ishida, T. Nakajima, Y. Honda, O. Kitao, H. Nakai, 
 T. Vreven, K. Throssell, J. A. Montgomery, Jr., J. E. Peralta, 
 F. Ogliaro, M. J. Bearpark, J. J. Heyd, E. N. Brothers, K. N. Kudin, 
 V. N. Staroverov, T. A. Keith, R. Kobayashi, J. Normand, 
 K. Raghavachari, A. P. Rendell, J. C. Burant, S. S. Iyengar, 
 J. Tomasi, M. Cossi, J. M. Millam, M. Klene, C. Adamo, R. Cammi, 
 J. W. Ochterski, R. L. Martin, K. Morokuma, O. Farkas, 
 J. B. Foresman, and D. J. Fox, Gaussian, Inc., Wallingford CT, 2016.
 
 ******************************************
 Gaussian 16:  ES64L-G16RevA.03 25-Dec-2016
                22-May-2023 
 ******************************************
 %chk=CC1CC2CCOCC2CC1OO.chk
 %NProcShared=20
 Will use up to   20 processors via shared memory.
 -----------------------------
 # opt freq b3lyp/6-31g(2df,p)
 -----------------------------
 1/18=20,19=15,26=3,38=1/1,3;
 2/9=110,12=2,17=6,18=5,40=1/2;
 3/5=1,6=6,7=104,11=2,25=1,30=1,71=1,74=-5/1,2,3;
 4//1;
 5/5=2,38=5/2;
 6/7=2,8=2,9=2,10=2,28=1/1;
 7//1,2,3,16;
 1/18=20,19=15,26=3/3(2);
 2/9=110/2;
 99//99;
 2/9=110/2;
 3/5=1,6=6,7=104,11=2,25=1,30=1,71=1,74=-5/1,2,3;
 4/5=5,16=3,69=1/1;
 5/5=2,38=5/2;
 7//1,2,3,16;
 1/18=20,19=15,26=3/3(-5);
 2/9=110/2;
 6/7=2,8=2,9=2,10=2,19=2,28=1/1;
 99/9=1/99;
 -------------------
 Title Card Required
 -------------------
 Symbolic Z-matrix:
 Charge =  0 Multiplicity = 1
 C                     1.05894   0.1343    0.04236 
 C                     2.59136   0.03718  -0.0033 
 C                     3.09895  -1.21026   0.74107 
 C                     2.65351  -2.48729   0.02741 
 C                     3.14079  -3.75125   0.73121 
 C                     2.63583  -4.96628  -0.03869 
 O                     3.08054  -4.93431  -1.39621 
 C                     2.61377  -3.78435  -2.10825 
 C                     3.11501  -2.50312  -1.44235 
 C                     2.66571  -1.24036  -2.19614 
 C                     3.11393   0.0328   -1.45739 
 O                     4.55323   0.03701  -1.49255 
 O                     4.98747   1.29403  -0.9052 
 H                     0.70461   0.15579   1.07764 
 H                     0.56194  -0.70837  -0.44759 
 H                     0.71325   1.04264  -0.45979 
 H                     2.98827   0.91406   0.52275 
 H                     2.73237  -1.20484   1.77429 
 H                     4.19514  -1.18215   0.80232 
 H                     1.55688  -2.52592   0.04911 
 H                     2.77825  -3.78007   1.76466 
 H                     4.23724  -3.75866   0.75908 
 H                     1.54023  -5.01729  -0.0184 
 H                     3.01806  -5.88241   0.42066 
 H                     1.51863  -3.81033  -2.16221 
 H                     2.99666  -3.85299  -3.13172 
 H                     4.21404  -2.53745  -1.44926 
 H                     1.57689  -1.24207  -2.32187 
 H                     3.09703  -1.2518   -3.20455 
 H                     2.75764   0.91582  -2.00087 
 H                     5.93518   1.05594  -0.8506 
 

 GradGradGradGradGradGradGradGradGradGradGradGradGradGradGradGradGradGrad
 Berny optimization.
 Initialization pass.
                           ----------------------------
                           !    Initial Parameters    !
                           ! (Angstroms and Degrees)  !
 --------------------------                            --------------------------
 ! Name  Definition              Value          Derivative Info.                !
 --------------------------------------------------------------------------------
 ! R1    R(1,2)                  1.5362         estimate D2E/DX2                !
 ! R2    R(1,14)                 1.0944         estimate D2E/DX2                !
 ! R3    R(1,15)                 1.0941         estimate D2E/DX2                !
 ! R4    R(1,16)                 1.094          estimate D2E/DX2                !
 ! R5    R(2,3)                  1.5388         estimate D2E/DX2                !
 ! R6    R(2,11)                 1.5451         estimate D2E/DX2                !
 ! R7    R(2,17)                 1.0969         estimate D2E/DX2                !
 ! R8    R(3,4)                  1.5292         estimate D2E/DX2                !
 ! R9    R(3,18)                 1.0963         estimate D2E/DX2                !
 ! R10   R(3,19)                 1.0983         estimate D2E/DX2                !
 ! R11   R(4,5)                  1.5266         estimate D2E/DX2                !
 ! R12   R(4,9)                  1.5406         estimate D2E/DX2                !
 ! R13   R(4,20)                 1.0975         estimate D2E/DX2                !
 ! R14   R(5,6)                  1.5245         estimate D2E/DX2                !
 ! R15   R(5,21)                 1.0956         estimate D2E/DX2                !
 ! R16   R(5,22)                 1.0968         estimate D2E/DX2                !
 ! R17   R(6,7)                  1.4289         estimate D2E/DX2                !
 ! R18   R(6,23)                 1.097          estimate D2E/DX2                !
 ! R19   R(6,24)                 1.0938         estimate D2E/DX2                !
 ! R20   R(7,8)                  1.4308         estimate D2E/DX2                !
 ! R21   R(8,9)                  1.5285         estimate D2E/DX2                !
 ! R22   R(8,25)                 1.0968         estimate D2E/DX2                !
 ! R23   R(8,26)                 1.0949         estimate D2E/DX2                !
 ! R24   R(9,10)                 1.5377         estimate D2E/DX2                !
 ! R25   R(9,27)                 1.0996         estimate D2E/DX2                !
 ! R26   R(10,11)                1.5387         estimate D2E/DX2                !
 ! R27   R(10,28)                1.0961         estimate D2E/DX2                !
 ! R28   R(10,29)                1.0968         estimate D2E/DX2                !
 ! R29   R(11,12)                1.4397         estimate D2E/DX2                !
 ! R30   R(11,30)                1.0964         estimate D2E/DX2                !
 ! R31   R(12,13)                1.4538         estimate D2E/DX2                !
 ! R32   R(13,31)                0.9787         estimate D2E/DX2                !
 ! A1    A(2,1,14)             110.6292         estimate D2E/DX2                !
 ! A2    A(2,1,15)             113.0245         estimate D2E/DX2                !
 ! A3    A(2,1,16)             110.737          estimate D2E/DX2                !
 ! A4    A(14,1,15)            106.9566         estimate D2E/DX2                !
 ! A5    A(14,1,16)            108.3969         estimate D2E/DX2                !
 ! A6    A(15,1,16)            106.882          estimate D2E/DX2                !
 ! A7    A(1,2,3)              111.465          estimate D2E/DX2                !
 ! A8    A(1,2,11)             111.4399         estimate D2E/DX2                !
 ! A9    A(1,2,17)             107.2276         estimate D2E/DX2                !
 ! A10   A(3,2,11)             109.9607         estimate D2E/DX2                !
 ! A11   A(3,2,17)             107.2601         estimate D2E/DX2                !
 ! A12   A(11,2,17)            109.342          estimate D2E/DX2                !
 ! A13   A(2,3,4)              110.8019         estimate D2E/DX2                !
 ! A14   A(2,3,18)             109.9736         estimate D2E/DX2                !
 ! A15   A(2,3,19)             109.6013         estimate D2E/DX2                !
 ! A16   A(4,3,18)             110.2762         estimate D2E/DX2                !
 ! A17   A(4,3,19)             109.7634         estimate D2E/DX2                !
 ! A18   A(18,3,19)            106.323          estimate D2E/DX2                !
 ! A19   A(3,4,5)              112.5381         estimate D2E/DX2                !
 ! A20   A(3,4,9)              111.5028         estimate D2E/DX2                !
 ! A21   A(3,4,20)             108.1323         estimate D2E/DX2                !
 ! A22   A(5,4,9)              109.6159         estimate D2E/DX2                !
 ! A23   A(5,4,20)             106.301          estimate D2E/DX2                !
 ! A24   A(9,4,20)             108.5309         estimate D2E/DX2                !
 ! A25   A(4,5,6)              108.7444         estimate D2E/DX2                !
 ! A26   A(4,5,21)             110.5514         estimate D2E/DX2                !
 ! A27   A(4,5,22)             109.6577         estimate D2E/DX2                !
 ! A28   A(6,5,21)             110.2314         estimate D2E/DX2                !
 ! A29   A(6,5,22)             109.7897         estimate D2E/DX2                !
 ! A30   A(21,5,22)            107.8576         estimate D2E/DX2                !
 ! A31   A(5,6,7)              111.0318         estimate D2E/DX2                !
 ! A32   A(5,6,23)             111.0106         estimate D2E/DX2                !
 ! A33   A(5,6,24)             109.8594         estimate D2E/DX2                !
 ! A34   A(7,6,23)             109.2358         estimate D2E/DX2                !
 ! A35   A(7,6,24)             107.9971         estimate D2E/DX2                !
 ! A36   A(23,6,24)            107.5957         estimate D2E/DX2                !
 ! A37   A(6,7,8)              112.9075         estimate D2E/DX2                !
 ! A38   A(7,8,9)              110.4819         estimate D2E/DX2                !
 ! A39   A(7,8,25)             109.3405         estimate D2E/DX2                !
 ! A40   A(7,8,26)             107.5002         estimate D2E/DX2                !
 ! A41   A(9,8,25)             111.6378         estimate D2E/DX2                !
 ! A42   A(9,8,26)             110.1887         estimate D2E/DX2                !
 ! A43   A(25,8,26)            107.5602         estimate D2E/DX2                !
 ! A44   A(4,9,8)              109.0268         estimate D2E/DX2                !
 ! A45   A(4,9,10)             111.82           estimate D2E/DX2                !
 ! A46   A(4,9,27)             107.8017         estimate D2E/DX2                !
 ! A47   A(8,9,10)             112.2701         estimate D2E/DX2                !
 ! A48   A(8,9,27)             107.3892         estimate D2E/DX2                !
 ! A49   A(10,9,27)            108.3362         estimate D2E/DX2                !
 ! A50   A(9,10,11)            111.0392         estimate D2E/DX2                !
 ! A51   A(9,10,28)            110.1942         estimate D2E/DX2                !
 ! A52   A(9,10,29)            109.0996         estimate D2E/DX2                !
 ! A53   A(11,10,28)           110.227          estimate D2E/DX2                !
 ! A54   A(11,10,29)           109.6021         estimate D2E/DX2                !
 ! A55   A(28,10,29)           106.5686         estimate D2E/DX2                !
 ! A56   A(2,11,10)            110.8332         estimate D2E/DX2                !
 ! A57   A(2,11,12)            111.1661         estimate D2E/DX2                !
 ! A58   A(2,11,30)            110.7509         estimate D2E/DX2                !
 ! A59   A(10,11,12)           106.3739         estimate D2E/DX2                !
 ! A60   A(10,11,30)           109.4966         estimate D2E/DX2                !
 ! A61   A(12,11,30)           108.0841         estimate D2E/DX2                !
 ! A62   A(11,12,13)           106.9332         estimate D2E/DX2                !
 ! A63   A(12,13,31)            95.8215         estimate D2E/DX2                !
 ! D1    D(14,1,2,3)            57.8246         estimate D2E/DX2                !
 ! D2    D(14,1,2,11)         -178.9113         estimate D2E/DX2                !
 ! D3    D(14,1,2,17)          -59.2869         estimate D2E/DX2                !
 ! D4    D(15,1,2,3)           -62.0821         estimate D2E/DX2                !
 ! D5    D(15,1,2,11)           61.182          estimate D2E/DX2                !
 ! D6    D(15,1,2,17)         -179.1936         estimate D2E/DX2                !
 ! D7    D(16,1,2,3)           178.0306         estimate D2E/DX2                !
 ! D8    D(16,1,2,11)          -58.7053         estimate D2E/DX2                !
 ! D9    D(16,1,2,17)           60.919          estimate D2E/DX2                !
 ! D10   D(1,2,3,4)             65.9992         estimate D2E/DX2                !
 ! D11   D(1,2,3,18)           -56.1761         estimate D2E/DX2                !
 ! D12   D(1,2,3,19)          -172.7187         estimate D2E/DX2                !
 ! D13   D(11,2,3,4)           -58.1037         estimate D2E/DX2                !
 ! D14   D(11,2,3,18)          179.7211         estimate D2E/DX2                !
 ! D15   D(11,2,3,19)           63.1785         estimate D2E/DX2                !
 ! D16   D(17,2,3,4)          -176.909          estimate D2E/DX2                !
 ! D17   D(17,2,3,18)           60.9157         estimate D2E/DX2                !
 ! D18   D(17,2,3,19)          -55.6269         estimate D2E/DX2                !
 ! D19   D(1,2,11,10)          -65.9881         estimate D2E/DX2                !
 ! D20   D(1,2,11,12)          175.9267         estimate D2E/DX2                !
 ! D21   D(1,2,11,30)           55.7505         estimate D2E/DX2                !
 ! D22   D(3,2,11,10)           58.1292         estimate D2E/DX2                !
 ! D23   D(3,2,11,12)          -59.9559         estimate D2E/DX2                !
 ! D24   D(3,2,11,30)          179.8679         estimate D2E/DX2                !
 ! D25   D(17,2,11,10)         175.6483         estimate D2E/DX2                !
 ! D26   D(17,2,11,12)          57.5632         estimate D2E/DX2                !
 ! D27   D(17,2,11,30)         -62.613          estimate D2E/DX2                !
 ! D28   D(2,3,4,5)            179.7978         estimate D2E/DX2                !
 ! D29   D(2,3,4,9)             56.1452         estimate D2E/DX2                !
 ! D30   D(2,3,4,20)           -63.094          estimate D2E/DX2                !
 ! D31   D(18,3,4,5)           -58.2038         estimate D2E/DX2                !
 ! D32   D(18,3,4,9)           178.1436         estimate D2E/DX2                !
 ! D33   D(18,3,4,20)           58.9045         estimate D2E/DX2                !
 ! D34   D(19,3,4,5)            58.6112         estimate D2E/DX2                !
 ! D35   D(19,3,4,9)           -65.0414         estimate D2E/DX2                !
 ! D36   D(19,3,4,20)          175.7195         estimate D2E/DX2                !
 ! D37   D(3,4,5,6)            179.2931         estimate D2E/DX2                !
 ! D38   D(3,4,5,21)            58.1469         estimate D2E/DX2                !
 ! D39   D(3,4,5,22)           -60.6487         estimate D2E/DX2                !
 ! D40   D(9,4,5,6)            -56.0118         estimate D2E/DX2                !
 ! D41   D(9,4,5,21)          -177.158          estimate D2E/DX2                !
 ! D42   D(9,4,5,22)            64.0464         estimate D2E/DX2                !
 ! D43   D(20,4,5,6)            61.1017         estimate D2E/DX2                !
 ! D44   D(20,4,5,21)          -60.0445         estimate D2E/DX2                !
 ! D45   D(20,4,5,22)         -178.8402         estimate D2E/DX2                !
 ! D46   D(3,4,9,8)           -178.7067         estimate D2E/DX2                !
 ! D47   D(3,4,9,10)           -53.9648         estimate D2E/DX2                !
 ! D48   D(3,4,9,27)            65.0131         estimate D2E/DX2                !
 ! D49   D(5,4,9,8)             56.0001         estimate D2E/DX2                !
 ! D50   D(5,4,9,10)          -179.258          estimate D2E/DX2                !
 ! D51   D(5,4,9,27)           -60.2801         estimate D2E/DX2                !
 ! D52   D(20,4,9,8)           -59.7047         estimate D2E/DX2                !
 ! D53   D(20,4,9,10)           65.0373         estimate D2E/DX2                !
 ! D54   D(20,4,9,27)         -175.9849         estimate D2E/DX2                !
 ! D55   D(4,5,6,7)             57.6829         estimate D2E/DX2                !
 ! D56   D(4,5,6,23)           -64.0384         estimate D2E/DX2                !
 ! D57   D(4,5,6,24)           177.0781         estimate D2E/DX2                !
 ! D58   D(21,5,6,7)           179.0252         estimate D2E/DX2                !
 ! D59   D(21,5,6,23)           57.3039         estimate D2E/DX2                !
 ! D60   D(21,5,6,24)          -61.5796         estimate D2E/DX2                !
 ! D61   D(22,5,6,7)           -62.2934         estimate D2E/DX2                !
 ! D62   D(22,5,6,23)          175.9854         estimate D2E/DX2                !
 ! D63   D(22,5,6,24)           57.1018         estimate D2E/DX2                !
 ! D64   D(5,6,7,8)            -60.6908         estimate D2E/DX2                !
 ! D65   D(23,6,7,8)            62.0617         estimate D2E/DX2                !
 ! D66   D(24,6,7,8)           178.8056         estimate D2E/DX2                !
 ! D67   D(6,7,8,9)             60.1653         estimate D2E/DX2                !
 ! D68   D(6,7,8,25)           -63.0828         estimate D2E/DX2                !
 ! D69   D(6,7,8,26)          -179.5661         estimate D2E/DX2                !
 ! D70   D(7,8,9,4)            -56.9599         estimate D2E/DX2                !
 ! D71   D(7,8,9,10)           178.5622         estimate D2E/DX2                !
 ! D72   D(7,8,9,27)            59.5837         estimate D2E/DX2                !
 ! D73   D(25,8,9,4)            64.9446         estimate D2E/DX2                !
 ! D74   D(25,8,9,10)          -59.5332         estimate D2E/DX2                !
 ! D75   D(25,8,9,27)         -178.5118         estimate D2E/DX2                !
 ! D76   D(26,8,9,4)          -175.6036         estimate D2E/DX2                !
 ! D77   D(26,8,9,10)           59.9185         estimate D2E/DX2                !
 ! D78   D(26,8,9,27)          -59.06           estimate D2E/DX2                !
 ! D79   D(4,9,10,11)           53.7197         estimate D2E/DX2                !
 ! D80   D(4,9,10,28)          -68.7041         estimate D2E/DX2                !
 ! D81   D(4,9,10,29)          174.6224         estimate D2E/DX2                !
 ! D82   D(8,9,10,11)          176.6377         estimate D2E/DX2                !
 ! D83   D(8,9,10,28)           54.2139         estimate D2E/DX2                !
 ! D84   D(8,9,10,29)          -62.4596         estimate D2E/DX2                !
 ! D85   D(27,9,10,11)         -64.9412         estimate D2E/DX2                !
 ! D86   D(27,9,10,28)         172.635          estimate D2E/DX2                !
 ! D87   D(27,9,10,29)          55.9615         estimate D2E/DX2                !
 ! D88   D(9,10,11,2)          -55.9959         estimate D2E/DX2                !
 ! D89   D(9,10,11,12)          64.9661         estimate D2E/DX2                !
 ! D90   D(9,10,11,30)        -178.4671         estimate D2E/DX2                !
 ! D91   D(28,10,11,2)          66.4089         estimate D2E/DX2                !
 ! D92   D(28,10,11,12)       -172.6292         estimate D2E/DX2                !
 ! D93   D(28,10,11,30)        -56.0624         estimate D2E/DX2                !
 ! D94   D(29,10,11,2)        -176.6021         estimate D2E/DX2                !
 ! D95   D(29,10,11,12)        -55.6401         estimate D2E/DX2                !
 ! D96   D(29,10,11,30)         60.9267         estimate D2E/DX2                !
 ! D97   D(2,11,12,13)         -64.3056         estimate D2E/DX2                !
 ! D98   D(10,11,12,13)        174.9463         estimate D2E/DX2                !
 ! D99   D(30,11,12,13)         57.4378         estimate D2E/DX2                !
 ! D100  D(11,12,13,31)        169.723          estimate D2E/DX2                !
 --------------------------------------------------------------------------------
 Trust Radius=3.00D-01 FncErr=1.00D-07 GrdErr=1.00D-06 EigMax=2.50D+02 EigMin=1.00D-04
 Number of steps in this run=    186 maximum allowed number of steps=    186.
 GradGradGradGradGradGradGradGradGradGradGradGradGradGradGradGradGradGrad

                          Input orientation:                          
 ---------------------------------------------------------------------
 Center     Atomic      Atomic             Coordinates (Angstroms)
 Number     Number       Type             X           Y           Z
 ---------------------------------------------------------------------
      1          6           0        1.058940    0.134300    0.042360
      2          6           0        2.591360    0.037180   -0.003300
      3          6           0        3.098950   -1.210260    0.741070
      4          6           0        2.653510   -2.487290    0.027410
      5          6           0        3.140790   -3.751250    0.731210
      6          6           0        2.635830   -4.966280   -0.038690
      7          8           0        3.080540   -4.934310   -1.396210
      8          6           0        2.613770   -3.784350   -2.108250
      9          6           0        3.115010   -2.503120   -1.442350
     10          6           0        2.665710   -1.240360   -2.196140
     11          6           0        3.113930    0.032800   -1.457390
     12          8           0        4.553230    0.037010   -1.492550
     13          8           0        4.987470    1.294030   -0.905200
     14          1           0        0.704610    0.155790    1.077640
     15          1           0        0.561940   -0.708370   -0.447590
     16          1           0        0.713250    1.042640   -0.459790
     17          1           0        2.988270    0.914060    0.522750
     18          1           0        2.732370   -1.204840    1.774290
     19          1           0        4.195140   -1.182150    0.802320
     20          1           0        1.556880   -2.525920    0.049110
     21          1           0        2.778250   -3.780070    1.764660
     22          1           0        4.237240   -3.758660    0.759080
     23          1           0        1.540230   -5.017290   -0.018400
     24          1           0        3.018060   -5.882410    0.420660
     25          1           0        1.518630   -3.810330   -2.162210
     26          1           0        2.996660   -3.852990   -3.131720
     27          1           0        4.214040   -2.537450   -1.449260
     28          1           0        1.576890   -1.242070   -2.321870
     29          1           0        3.097030   -1.251800   -3.204550
     30          1           0        2.757640    0.915820   -2.000870
     31          1           0        5.935180    1.055940   -0.850600
 ---------------------------------------------------------------------
                    Distance matrix (angstroms):
                    1          2          3          4          5
     1  C    0.000000
     2  C    1.536173   0.000000
     3  C    2.541196   1.538779   0.000000
     4  C    3.068487   2.525422   1.529226   0.000000
     5  C    4.461627   3.897894   2.541354   1.526555   0.000000
     6  C    5.339388   5.003783   3.863961   2.479934   1.524476
     7  O    5.643329   5.186059   4.293816   2.863033   2.434990
     8  C    4.732699   4.362959   3.870396   2.498997   2.888145
     9  C    3.658930   2.966176   2.537532   1.540593   2.506563
    10  C    3.079331   2.538934   2.969142   2.549345   3.885827
    11  C    2.546083   1.545146   2.525599   2.960992   4.371467
    12  O    3.817784   2.463087   2.942732   3.505896   4.614218
    13  O    4.204306   2.852094   3.542341   4.540431   5.616308
    14  H    1.094448   2.177688   2.777091   3.447762   4.617353
    15  H    1.094145   2.207212   2.846265   2.786547   4.159225
    16  H    1.093955   2.178676   3.494165   4.057386   5.503891
    17  H    2.135677   1.096898   2.138375   3.453492   4.672455
    18  H    2.755584   2.173091   1.096337   2.168522   2.781911
    19  H    3.485159   2.169769   1.098260   2.163446   2.777946
    20  H    2.706429   2.764485   2.141903   1.097525   2.115529
    21  H    4.609190   4.210939   2.784692   2.169073   1.095575
    22  H    5.076457   4.206964   2.791124   2.158686   1.096829
    23  H    5.174380   5.162632   4.183286   2.764487   2.174066
    24  H    6.338932   5.950072   4.683822   3.437206   2.157162
    25  H    4.542197   4.540372   4.205569   2.798718   3.317646
    26  H    5.452341   5.008463   4.689668   3.458756   3.866957
    27  H    4.395206   3.369363   2.793278   2.149029   2.716547
    28  H    2.784286   2.835736   3.420421   2.868589   4.250066
    29  H    4.076458   3.487861   3.945839   3.488368   4.662550
    30  H    2.769683   2.188594   3.486394   3.963070   5.421495
    31  H    5.042273   3.596793   3.963998   4.908639   5.780987
                    6          7          8          9         10
     6  C    0.000000
     7  O    1.428863   0.000000
     8  C    2.383385   1.430833   0.000000
     9  C    2.875245   2.431872   1.528468   0.000000
    10  C    4.305573   3.802268   2.546038   1.537736   0.000000
    11  C    5.218438   4.967599   3.904409   2.535965   1.538697
    12  O    5.551850   5.185761   4.329363   2.919462   2.385256
    13  O    6.743332   6.532204   5.733387   4.267667   3.671543
    14  H    5.586717   6.137923   5.414747   4.385223   4.063592
    15  H    4.753737   5.010169   4.053326   3.275491   2.786806
    16  H    6.323034   6.496528   5.443274   4.393892   3.469741
    17  H    5.917586   6.155839   5.397913   3.943957   3.483954
    18  H    4.176679   4.907366   4.662838   3.489802   3.971148
    19  H    4.178323   4.489384   4.212315   2.819607   3.366498
    20  H    2.669681   3.195439   2.711985   2.157022   2.814839
    21  H    2.163203   3.378572   3.876403   3.468274   4.706456
    22  H    2.158540   2.713924   3.295132   2.771656   4.188659
    23  H    1.096975   2.068285   2.653319   3.290686   4.502717
    24  H    1.093799   2.050320   3.310694   3.860027   5.340451
    25  H    2.663399   2.071147   1.096776   2.185275   2.814550
    26  H    3.307030   2.046530   1.094900   2.165670   2.794758
    27  H    3.221749   2.651900   2.133047   1.099588   2.153508
    28  H    4.494887   4.092731   2.753896   2.174768   1.096057
    29  H    4.902320   4.102590   2.801647   2.161359   1.096840
    30  H    6.201942   5.890153   4.703597   3.482644   2.166955
    31  H    6.914625   6.658059   6.003487   4.579349   4.215792
                   11         12         13         14         15
    11  C    0.000000
    12  O    1.439736   0.000000
    13  O    2.325031   1.453838   0.000000
    14  H    3.499475   4.629456   4.854908   0.000000
    15  H    2.842830   4.192604   4.878968   1.758822   0.000000
    16  H    2.788951   4.101625   4.304712   1.774900   1.757578
    17  H    2.171028   2.698101   2.486005   2.469409   3.075860
    18  H    3.481537   3.940808   4.302266   2.539379   3.145473
    19  H    2.784135   2.623168   3.110447   3.748291   3.871290
    20  H    3.352759   4.233608   5.222229   2.995965   2.130752
    21  H    5.003225   5.322600   6.144534   4.501441   4.386504
    22  H    4.533181   4.424568   5.372369   5.282412   4.926272
    23  H    5.481846   6.066073   7.245870   5.353534   4.439375
    24  H    6.206929   6.407547   7.558953   6.499503   5.792847
    25  H    4.220356   4.945631   6.298207   5.185496   3.671149
    26  H    4.232788   4.499099   5.950843   6.248402   4.798026
    27  H    2.795799   2.597069   3.946446   5.094592   4.205557
    28  H    2.176031   3.344012   4.480046   3.777771   2.197245
    29  H    2.168652   2.590848   3.916890   5.103149   3.784551
    30  H    1.096375   2.062726   2.513101   3.777539   3.141937
    31  H    3.061774   1.833059   0.978684   5.646879   5.669825
                   16         17         18         19         20
    16  H    0.000000
    17  H    2.481458   0.000000
    18  H    3.757542   2.474182   0.000000
    19  H    4.320436   2.434911   1.756399   0.000000
    20  H    3.702069   3.755885   2.470481   3.055071   0.000000
    21  H    5.698327   4.860175   2.575657   3.111730   2.451071
    22  H    6.079197   4.842529   3.133254   2.577217   3.034474
    23  H    6.132004   6.129484   4.378323   4.736077   2.492340
    24  H    7.351439   6.797302   4.877868   4.860414   3.679555
    25  H    5.205592   5.629273   4.874195   4.781158   2.557559
    26  H    6.026638   6.006662   5.581351   4.903714   3.735206
    27  H    5.104079   4.159839   3.789785   2.628081   3.050532
    28  H    3.071338   3.838327   4.256177   4.076688   2.696334
    29  H    4.298903   4.312255   4.992397   4.155202   3.818605
    30  H    2.563307   2.534137   4.330089   3.784938   4.182083
    31  H    5.236551   3.254305   4.717962   3.281605   5.727889
                   21         22         23         24         25
    21  H    0.000000
    22  H    1.772090   0.000000
    23  H    2.498542   3.076116   0.000000
    24  H    2.506727   2.472093   1.767820   0.000000
    25  H    4.124059   3.990920   2.460313   3.634972   0.000000
    26  H    4.901791   4.084882   3.628987   4.091260   1.768147
    27  H    3.732945   2.523620   3.917426   4.014440   3.064924
    28  H    4.958270   4.785702   4.422624   5.579534   2.573877
    29  H    5.584516   4.826468   5.172436   5.881406   3.181807
    30  H    6.019221   5.626482   6.372917   7.221327   4.888524
    31  H    6.339778   5.352985   7.542696   7.633243   6.701255
                   26         27         28         29         30
    26  H    0.000000
    27  H    2.458319   0.000000
    28  H    3.080342   3.064966   0.000000
    29  H    2.604144   2.445741   1.757852   0.000000
    30  H    4.906883   3.788199   2.480665   2.502520   0.000000
    31  H    6.159221   4.029041   5.142001   4.349924   3.382235
                   31
    31  H    0.000000
 Stoichiometry    C10H18O3
 Framework group  C1[X(C10H18O3)]
 Deg. of freedom    87
 Full point group                 C1      NOp   1
 Largest Abelian subgroup         C1      NOp   1
 Largest concise Abelian subgroup C1      NOp   1
                         Standard orientation:                         
 ---------------------------------------------------------------------
 Center     Atomic      Atomic             Coordinates (Angstroms)
 Number     Number       Type             X           Y           Z
 ---------------------------------------------------------------------
      1          6           0       -1.536740    1.966698    1.344655
      2          6           0       -1.687586    1.038505    0.129941
      3          6           0       -0.516553    1.204493   -0.854423
      4          6           0        0.794186    0.732671   -0.223647
      5          6           0        1.983600    0.875513   -1.169830
      6          6           0        3.241073    0.399535   -0.451334
      7          8           0        3.099149   -0.952146   -0.010352
      8          6           0        2.018695   -1.126765    0.911283
      9          6           0        0.693498   -0.725192    0.264128
     10          6           0       -0.502255   -0.930491    1.208935
     11          6           0       -1.808897   -0.440385    0.560806
     12          8           0       -2.044512   -1.294761   -0.573815
     13          8           0       -3.337360   -0.921204   -1.123944
     14          1           0       -1.471334    3.011603    1.025733
     15          1           0       -0.639862    1.756529    1.935072
     16          1           0       -2.392122    1.864410    2.018893
     17          1           0       -2.601151    1.339393   -0.397364
     18          1           0       -0.433390    2.252885   -1.164122
     19          1           0       -0.718032    0.628035   -1.767262
     20          1           0        1.008509    1.375373    0.639811
     21          1           0        2.099907    1.917769   -1.486783
     22          1           0        1.816164    0.267704   -2.067364
     23          1           0        3.467405    1.039056    0.410722
     24          1           0        4.097055    0.445249   -1.130746
     25          1           0        2.218114   -0.544752    1.819254
     26          1           0        1.995579   -2.184008    1.195025
     27          1           0        0.551207   -1.365814   -0.618170
     28          1           0       -0.329866   -0.407431    2.156579
     29          1           0       -0.589128   -1.996651    1.451451
     30          1           0       -2.638792   -0.573038    1.264876
     31          1           0       -3.252604   -1.448913   -1.943799
 ---------------------------------------------------------------------
 Rotational constants (GHZ):           1.3518318           0.5208298           0.4812247
 Standard basis: 6-31G(2df,p) (6D, 7F)
 There are   493 symmetry adapted cartesian basis functions of A   symmetry.
 There are   454 symmetry adapted basis functions of A   symmetry.
   454 basis functions,   698 primitive gaussians,   493 cartesian basis functions
    51 alpha electrons       51 beta electrons
       nuclear repulsion energy       908.5486657334 Hartrees.
 NAtoms=   31 NActive=   31 NUniq=   31 SFac= 1.00D+00 NAtFMM=   60 NAOKFM=F Big=F
 Integral buffers will be    131072 words long.
 Raffenetti 2 integral format.
 Two-electron integral symmetry is turned on.
 One-electron integrals computed using PRISM.
 PrsmSu:  requested number of processors reduced to:  12 ShMem   1 Linda.
 NBasis=   454 RedAO= T EigKep=  5.05D-04  NBF=   454
 NBsUse=   454 1.00D-06 EigRej= -1.00D+00 NBFU=   454
 ExpMin= 1.61D-01 ExpMax= 5.48D+03 ExpMxC= 8.25D+02 IAcc=3 IRadAn=         5 AccDes= 0.00D+00
 Harris functional with IExCor=  402 and IRadAn=       5 diagonalized for initial guess.
 HarFok:  IExCor=  402 AccDes= 0.00D+00 IRadAn=         5 IDoV= 1 UseB2=F ITyADJ=14
 ICtDFT=  3500011 ScaDFX=  1.000000  1.000000  1.000000  1.000000
 FoFCou: FMM=F IPFlag=           0 FMFlag=      100000 FMFlg1=           0
         NFxFlg=           0 DoJE=T BraDBF=F KetDBF=T FulRan=T
         wScrn=  0.000000 ICntrl=       500 IOpCl=  0 I1Cent=   200000004 NGrid=           0
         NMat0=    1 NMatS0=      1 NMatT0=    0 NMatD0=    1 NMtDS0=    0 NMtDT0=    0
 Petite list used in FoFCou.
 Requested convergence on RMS density matrix=1.00D-08 within 128 cycles.
 Requested convergence on MAX density matrix=1.00D-06.
 Requested convergence on             energy=1.00D-06.
 No special actions if energy rises.
 Integral accuracy reduced to 1.0D-05 until final iterations.
 Initial convergence to 1.0D-05 achieved.  Increase integral accuracy.
 SCF Done:  E(RB3LYP) =  -617.521871908     A.U. after   13 cycles
            NFock= 13  Conv=0.58D-08     -V/T= 2.0075

 **********************************************************************

            Population analysis using the SCF density.

 **********************************************************************

 Orbital symmetries:
       Occupied  (A) (A) (A) (A) (A) (A) (A) (A) (A) (A) (A) (A)
                 (A) (A) (A) (A) (A) (A) (A) (A) (A) (A) (A) (A)
                 (A) (A) (A) (A) (A) (A) (A) (A) (A) (A) (A) (A)
                 (A) (A) (A) (A) (A) (A) (A) (A) (A) (A) (A) (A)
                 (A) (A) (A)
       Virtual   (A) (A) (A) (A) (A) (A) (A) (A) (A) (A) (A) (A)
                 (A) (A) (A) (A) (A) (A) (A) (A) (A) (A) (A) (A)
                 (A) (A) (A) (A) (A) (A) (A) (A) (A) (A) (A) (A)
                 (A) (A) (A) (A) (A) (A) (A) (A) (A) (A) (A) (A)
                 (A) (A) (A) (A) (A) (A) (A) (A) (A) (A) (A) (A)
                 (A) (A) (A) (A) (A) (A) (A) (A) (A) (A) (A) (A)
                 (A) (A) (A) (A) (A) (A) (A) (A) (A) (A) (A) (A)
                 (A) (A) (A) (A) (A) (A) (A) (A) (A) (A) (A) (A)
                 (A) (A) (A) (A) (A) (A) (A) (A) (A) (A) (A) (A)
                 (A) (A) (A) (A) (A) (A) (A) (A) (A) (A) (A) (A)
                 (A) (A) (A) (A) (A) (A) (A) (A) (A) (A) (A) (A)
                 (A) (A) (A) (A) (A) (A) (A) (A) (A) (A) (A) (A)
                 (A) (A) (A) (A) (A) (A) (A) (A) (A) (A) (A) (A)
                 (A) (A) (A) (A) (A) (A) (A) (A) (A) (A) (A) (A)
                 (A) (A) (A) (A) (A) (A) (A) (A) (A) (A) (A) (A)
                 (A) (A) (A) (A) (A) (A) (A) (A) (A) (A) (A) (A)
                 (A) (A) (A) (A) (A) (A) (A) (A) (A) (A) (A) (A)
                 (A) (A) (A) (A) (A) (A) (A) (A) (A) (A) (A) (A)
                 (A) (A) (A) (A) (A) (A) (A) (A) (A) (A) (A) (A)
                 (A) (A) (A) (A) (A) (A) (A) (A) (A) (A) (A) (A)
                 (A) (A) (A) (A) (A) (A) (A) (A) (A) (A) (A) (A)
                 (A) (A) (A) (A) (A) (A) (A) (A) (A) (A) (A) (A)
                 (A) (A) (A) (A) (A) (A) (A) (A) (A) (A) (A) (A)
                 (A) (A) (A) (A) (A) (A) (A) (A) (A) (A) (A) (A)
                 (A) (A) (A) (A) (A) (A) (A) (A) (A) (A) (A) (A)
                 (A) (A) (A) (A) (A) (A) (A) (A) (A) (A) (A) (A)
                 (A) (A) (A) (A) (A) (A) (A) (A) (A) (A) (A) (A)
                 (A) (A) (A) (A) (A) (A) (A) (A) (A) (A) (A) (A)
                 (A) (A) (A) (A) (A) (A) (A) (A) (A) (A) (A) (A)
                 (A) (A) (A) (A) (A) (A) (A) (A) (A) (A) (A) (A)
                 (A) (A) (A) (A) (A) (A) (A) (A) (A) (A) (A) (A)
                 (A) (A) (A) (A) (A) (A) (A) (A) (A) (A) (A) (A)
                 (A) (A) (A) (A) (A) (A) (A) (A) (A) (A) (A) (A)
                 (A) (A) (A) (A) (A) (A) (A)
 The electronic state is 1-A.
 Alpha  occ. eigenvalues --  -19.18866 -19.18735 -19.12869 -10.23230 -10.21968
 Alpha  occ. eigenvalues --  -10.21947 -10.18590 -10.18059 -10.17961 -10.17827
 Alpha  occ. eigenvalues --  -10.17384 -10.17319 -10.17054  -1.10794  -1.01746
 Alpha  occ. eigenvalues --   -0.91027  -0.83163  -0.77468  -0.77244  -0.72131
 Alpha  occ. eigenvalues --   -0.68400  -0.63744  -0.61856  -0.59882  -0.56608
 Alpha  occ. eigenvalues --   -0.53644  -0.51637  -0.48599  -0.47618  -0.46860
 Alpha  occ. eigenvalues --   -0.46412  -0.44961  -0.43060  -0.42792  -0.41735
 Alpha  occ. eigenvalues --   -0.39672  -0.39066  -0.38330  -0.38036  -0.36787
 Alpha  occ. eigenvalues --   -0.36197  -0.34620  -0.34004  -0.33607  -0.33386
 Alpha  occ. eigenvalues --   -0.31709  -0.30867  -0.29130  -0.28204  -0.24015
 Alpha  occ. eigenvalues --   -0.23404
 Alpha virt. eigenvalues --    0.02953   0.07874   0.08343   0.10248   0.10750
 Alpha virt. eigenvalues --    0.11281   0.12205   0.13726   0.14475   0.14934
 Alpha virt. eigenvalues --    0.15018   0.16313   0.17238   0.17414   0.17790
 Alpha virt. eigenvalues --    0.18898   0.19151   0.19229   0.20453   0.21496
 Alpha virt. eigenvalues --    0.21844   0.22582   0.22966   0.23531   0.24010
 Alpha virt. eigenvalues --    0.26735   0.27095   0.27965   0.28372   0.30075
 Alpha virt. eigenvalues --    0.30997   0.31972   0.43814   0.45521   0.45962
 Alpha virt. eigenvalues --    0.46785   0.47519   0.48194   0.49226   0.49765
 Alpha virt. eigenvalues --    0.51940   0.52617   0.53624   0.54886   0.56551
 Alpha virt. eigenvalues --    0.57450   0.58051   0.59237   0.59901   0.60827
 Alpha virt. eigenvalues --    0.61228   0.62893   0.64407   0.64844   0.65570
 Alpha virt. eigenvalues --    0.67530   0.68471   0.69873   0.71414   0.72263
 Alpha virt. eigenvalues --    0.72813   0.73196   0.73800   0.73950   0.75244
 Alpha virt. eigenvalues --    0.75598   0.76318   0.76760   0.77677   0.79056
 Alpha virt. eigenvalues --    0.79526   0.80371   0.81097   0.82594   0.83479
 Alpha virt. eigenvalues --    0.83616   0.84661   0.85863   0.86015   0.86468
 Alpha virt. eigenvalues --    0.87771   0.88260   0.88892   0.91129   0.92601
 Alpha virt. eigenvalues --    0.93166   0.93995   0.94295   0.95211   0.97468
 Alpha virt. eigenvalues --    0.99273   1.01094   1.04118   1.04484   1.05624
 Alpha virt. eigenvalues --    1.07727   1.09746   1.12460   1.13679   1.15187
 Alpha virt. eigenvalues --    1.16606   1.17287   1.20478   1.21585   1.23275
 Alpha virt. eigenvalues --    1.25087   1.27403   1.27631   1.29714   1.31559
 Alpha virt. eigenvalues --    1.32474   1.33505   1.34542   1.36387   1.38799
 Alpha virt. eigenvalues --    1.40673   1.41486   1.42145   1.43063   1.44677
 Alpha virt. eigenvalues --    1.45708   1.47484   1.49472   1.50306   1.51334
 Alpha virt. eigenvalues --    1.52385   1.53962   1.54125   1.54957   1.57348
 Alpha virt. eigenvalues --    1.58083   1.61104   1.61548   1.62433   1.63454
 Alpha virt. eigenvalues --    1.64932   1.66670   1.67343   1.68234   1.70067
 Alpha virt. eigenvalues --    1.71440   1.72479   1.73807   1.75160   1.77474
 Alpha virt. eigenvalues --    1.79478   1.79879   1.82447   1.82904   1.83962
 Alpha virt. eigenvalues --    1.85653   1.87204   1.88337   1.89586   1.90800
 Alpha virt. eigenvalues --    1.93106   1.95375   1.96975   1.97291   1.98760
 Alpha virt. eigenvalues --    2.00474   2.02439   2.04101   2.06293   2.08612
 Alpha virt. eigenvalues --    2.10774   2.15808   2.19568   2.24497   2.26741
 Alpha virt. eigenvalues --    2.27537   2.28297   2.28673   2.31090   2.33193
 Alpha virt. eigenvalues --    2.34184   2.36639   2.38251   2.41622   2.43402
 Alpha virt. eigenvalues --    2.45245   2.46169   2.49934   2.50643   2.52222
 Alpha virt. eigenvalues --    2.53323   2.56457   2.57160   2.60365   2.60600
 Alpha virt. eigenvalues --    2.64708   2.66564   2.68392   2.71687   2.72710
 Alpha virt. eigenvalues --    2.74690   2.76233   2.77561   2.78613   2.79379
 Alpha virt. eigenvalues --    2.79899   2.81464   2.82829   2.83649   2.84710
 Alpha virt. eigenvalues --    2.85061   2.88027   2.88171   2.89992   2.90719
 Alpha virt. eigenvalues --    2.91879   2.93074   2.94181   2.95010   2.96094
 Alpha virt. eigenvalues --    2.96537   2.98129   2.98498   2.99610   3.02312
 Alpha virt. eigenvalues --    3.04097   3.05219   3.08927   3.09939   3.10941
 Alpha virt. eigenvalues --    3.14273   3.16559   3.16893   3.18090   3.21945
 Alpha virt. eigenvalues --    3.22521   3.24055   3.27235   3.29213   3.31351
 Alpha virt. eigenvalues --    3.33045   3.34087   3.35692   3.38328   3.39296
 Alpha virt. eigenvalues --    3.40667   3.41838   3.44321   3.44351   3.47769
 Alpha virt. eigenvalues --    3.48202   3.49472   3.50313   3.51669   3.55050
 Alpha virt. eigenvalues --    3.55519   3.57117   3.57536   3.60573   3.63530
 Alpha virt. eigenvalues --    3.64830   3.65630   3.68962   3.69814   3.75239
 Alpha virt. eigenvalues --    3.75673   3.77306   3.78503   3.80264   3.81747
 Alpha virt. eigenvalues --    3.83327   3.85097   3.87783   3.89690   3.93231
 Alpha virt. eigenvalues --    3.96796   3.97178   3.98751   4.00391   4.03190
 Alpha virt. eigenvalues --    4.05342   4.10375   4.11141   4.11397   4.14335
 Alpha virt. eigenvalues --    4.18753   4.19970   4.21995   4.24545   4.27731
 Alpha virt. eigenvalues --    4.29320   4.29905   4.31013   4.34605   4.35125
 Alpha virt. eigenvalues --    4.38244   4.38685   4.40981   4.42023   4.44161
 Alpha virt. eigenvalues --    4.46179   4.48020   4.50128   4.50936   4.51302
 Alpha virt. eigenvalues --    4.52558   4.53560   4.55444   4.56225   4.57388
 Alpha virt. eigenvalues --    4.58247   4.59746   4.61101   4.61656   4.62603
 Alpha virt. eigenvalues --    4.63654   4.64681   4.65927   4.67033   4.68528
 Alpha virt. eigenvalues --    4.68939   4.69818   4.70725   4.72023   4.72824
 Alpha virt. eigenvalues --    4.74005   4.74454   4.76179   4.77510   4.77905
 Alpha virt. eigenvalues --    4.79515   4.80558   4.80935   4.82186   4.83015
 Alpha virt. eigenvalues --    4.84047   4.85434   4.85734   4.87224   4.88953
 Alpha virt. eigenvalues --    4.90306   4.91090   4.92500   4.93506   4.93895
 Alpha virt. eigenvalues --    4.95956   4.97565   4.99601   5.00570   5.04084
 Alpha virt. eigenvalues --    5.05921   5.08072   5.09989   5.10702   5.16582
 Alpha virt. eigenvalues --    5.20919   5.21793   5.24294   5.29896   5.35411
 Alpha virt. eigenvalues --    5.37789   5.39945   5.40735   5.42736   5.43029
 Alpha virt. eigenvalues --    5.44143   5.46607   5.48047   5.50545   5.52466
 Alpha virt. eigenvalues --    5.53312   5.58586   5.60355   5.62416   5.67431
 Alpha virt. eigenvalues --    5.68369   5.72347   5.77960   5.82485   5.90939
 Alpha virt. eigenvalues --    5.92925   5.96986   6.06652   6.11321   6.13757
 Alpha virt. eigenvalues --    6.16046   6.19424   6.30579   6.32490   6.58632
 Alpha virt. eigenvalues --    6.72494   7.01040   7.08401   7.15462   7.46707
 Alpha virt. eigenvalues --   11.19784  11.53512  11.62635  11.97602  12.18810
 Alpha virt. eigenvalues --   12.28375  12.53718  12.77402  12.93882  13.10723
 Alpha virt. eigenvalues --   13.16080  13.45771  13.60980
          Condensed to atoms (all electrons):
               1          2          3          4          5          6
     1  C    5.039033   0.372761  -0.033669  -0.005021   0.000429   0.000002
     2  C    0.372761   4.804177   0.373086  -0.007966   0.002248  -0.000144
     3  C   -0.033669   0.373086   4.955393   0.412319  -0.042358   0.002174
     4  C   -0.005021  -0.007966   0.412319   4.636695   0.417992  -0.017397
     5  C    0.000429   0.002248  -0.042358   0.417992   4.998978   0.368123
     6  C    0.000002  -0.000144   0.002174  -0.017397   0.368123   4.763328
     7  O    0.000000  -0.000002  -0.000003  -0.009543  -0.048713   0.392601
     8  C    0.000027   0.000507   0.003557  -0.026741  -0.010277  -0.090021
     9  C   -0.002029  -0.024063  -0.020305   0.425152  -0.018508  -0.012726
    10  C   -0.004021  -0.005056  -0.022387  -0.028821   0.003808   0.000283
    11  C   -0.033649   0.372295  -0.006098  -0.012032   0.000603  -0.000015
    12  O    0.001585  -0.051605   0.001299  -0.002840   0.000007  -0.000001
    13  O    0.000196   0.001888  -0.000263   0.000048   0.000000   0.000000
    14  H    0.371003  -0.019410  -0.002408  -0.000504  -0.000047   0.000001
    15  H    0.373076  -0.023240  -0.006237   0.000402  -0.000154   0.000012
    16  H    0.370836  -0.026067   0.004152   0.000145  -0.000006  -0.000000
    17  H   -0.041184   0.361468  -0.037460   0.002618  -0.000187   0.000002
    18  H   -0.006713  -0.028123   0.354049  -0.027805  -0.003683   0.000117
    19  H    0.005477  -0.026420   0.352514  -0.025829  -0.003822   0.000130
    20  H    0.000028  -0.003409  -0.046411   0.350084  -0.045373  -0.001452
    21  H   -0.000008   0.000123  -0.004847  -0.026577   0.340849  -0.021627
    22  H   -0.000001   0.000083  -0.003883  -0.030270   0.351951  -0.025340
    23  H   -0.000010   0.000004   0.000147  -0.012655  -0.047148   0.354462
    24  H    0.000000   0.000002  -0.000178   0.002760  -0.034691   0.367150
    25  H   -0.000056  -0.000006   0.000081  -0.014914  -0.001284  -0.004017
    26  H    0.000001  -0.000013  -0.000165   0.004385  -0.000053   0.004963
    27  H   -0.000001  -0.000661  -0.003770  -0.044267  -0.006778   0.001259
    28  H   -0.000472  -0.003507  -0.000034  -0.007179   0.000093  -0.000007
    29  H    0.000075   0.004797   0.000173   0.004348  -0.000137   0.000005
    30  H    0.000131  -0.067375   0.005667   0.000109   0.000008  -0.000000
    31  H   -0.000019   0.000665  -0.000012   0.000010   0.000000   0.000000
               7          8          9         10         11         12
     1  C    0.000000   0.000027  -0.002029  -0.004021  -0.033649   0.001585
     2  C   -0.000002   0.000507  -0.024063  -0.005056   0.372295  -0.051605
     3  C   -0.000003   0.003557  -0.020305  -0.022387  -0.006098   0.001299
     4  C   -0.009543  -0.026741   0.425152  -0.028821  -0.012032  -0.002840
     5  C   -0.048713  -0.010277  -0.018508   0.003808   0.000603   0.000007
     6  C    0.392601  -0.090021  -0.012726   0.000283  -0.000015  -0.000001
     7  O    7.675244   0.392435  -0.046715   0.002146  -0.000049  -0.000000
     8  C    0.392435   4.850129   0.375395  -0.034488   0.000371   0.000222
     9  C   -0.046715   0.375395   4.767467   0.352533  -0.006074   0.001591
    10  C    0.002146  -0.034488   0.352533   5.036965   0.370887  -0.021625
    11  C   -0.000049   0.000371  -0.006074   0.370887   4.617681   0.327834
    12  O   -0.000000   0.000222   0.001591  -0.021625   0.327834   7.899656
    13  O   -0.000000  -0.000001   0.000025   0.002267  -0.054455   0.109524
    14  H   -0.000000  -0.000002   0.000054   0.000127   0.002535  -0.000046
    15  H    0.000001   0.000029   0.000573   0.000757  -0.006105   0.000032
    16  H    0.000000  -0.000002   0.000116  -0.000528  -0.001822   0.000041
    17  H   -0.000000   0.000005   0.000691   0.004525  -0.036446  -0.004295
    18  H    0.000003  -0.000159   0.004565   0.000446   0.003235   0.000214
    19  H   -0.000011   0.000173  -0.008583  -0.000201  -0.006317   0.006659
    20  H   -0.000966  -0.004613  -0.050926  -0.002643  -0.000864  -0.000043
    21  H    0.002756  -0.000011   0.004498  -0.000129  -0.000015  -0.000000
    22  H    0.000175   0.000648  -0.008934   0.000271  -0.000003  -0.000029
    23  H   -0.035087  -0.003062  -0.002122   0.000192   0.000000  -0.000000
    24  H   -0.018152   0.004051   0.000335   0.000006  -0.000000  -0.000000
    25  H   -0.032782   0.343175  -0.040940   0.000658  -0.000018  -0.000003
    26  H   -0.013376   0.352307  -0.023648  -0.003258  -0.000068  -0.000002
    27  H    0.001561  -0.036191   0.349953  -0.037517  -0.003908   0.006850
    28  H    0.000005  -0.005458  -0.028505   0.360347  -0.023205   0.001585
    29  H    0.000038  -0.003600  -0.029125   0.351794  -0.022052   0.000872
    30  H    0.000000  -0.000063   0.004531  -0.043410   0.364377  -0.031750
    31  H    0.000000  -0.000001   0.000009  -0.000482   0.001540  -0.032349
              13         14         15         16         17         18
     1  C    0.000196   0.371003   0.373076   0.370836  -0.041184  -0.006713
     2  C    0.001888  -0.019410  -0.023240  -0.026067   0.361468  -0.028123
     3  C   -0.000263  -0.002408  -0.006237   0.004152  -0.037460   0.354049
     4  C    0.000048  -0.000504   0.000402   0.000145   0.002618  -0.027805
     5  C    0.000000  -0.000047  -0.000154  -0.000006  -0.000187  -0.003683
     6  C    0.000000   0.000001   0.000012  -0.000000   0.000002   0.000117
     7  O   -0.000000  -0.000000   0.000001   0.000000  -0.000000   0.000003
     8  C   -0.000001  -0.000002   0.000029  -0.000002   0.000005  -0.000159
     9  C    0.000025   0.000054   0.000573   0.000116   0.000691   0.004565
    10  C    0.002267   0.000127   0.000757  -0.000528   0.004525   0.000446
    11  C   -0.054455   0.002535  -0.006105  -0.001822  -0.036446   0.003235
    12  O    0.109524  -0.000046   0.000032   0.000041  -0.004295   0.000214
    13  O    7.964873   0.000003  -0.000004   0.000009   0.011251  -0.000021
    14  H    0.000003   0.596727  -0.033931  -0.029938  -0.002987   0.004009
    15  H   -0.000004  -0.033931   0.597599  -0.033570   0.005758  -0.000110
    16  H    0.000009  -0.029938  -0.033570   0.603413  -0.003340  -0.000040
    17  H    0.011251  -0.002987   0.005758  -0.003340   0.666328  -0.002503
    18  H   -0.000021   0.004009  -0.000110  -0.000040  -0.002503   0.661869
    19  H    0.001748  -0.000021  -0.000045  -0.000172  -0.003496  -0.040907
    20  H    0.000001   0.000940   0.003916  -0.000166   0.000004  -0.004903
    21  H   -0.000000   0.000004   0.000004  -0.000000  -0.000001   0.005090
    22  H   -0.000000   0.000001  -0.000000   0.000000  -0.000003  -0.000359
    23  H   -0.000000   0.000000  -0.000006   0.000000  -0.000000   0.000013
    24  H    0.000000  -0.000000  -0.000000   0.000000  -0.000000  -0.000000
    25  H    0.000000   0.000001   0.000033   0.000001  -0.000000   0.000002
    26  H   -0.000000   0.000000  -0.000002  -0.000000  -0.000000   0.000003
    27  H   -0.000126   0.000005  -0.000012   0.000004  -0.000030  -0.000089
    28  H   -0.000062   0.000001   0.003545   0.000746   0.000017  -0.000021
    29  H   -0.000032   0.000002  -0.000137  -0.000035  -0.000154   0.000020
    30  H    0.003054  -0.000228  -0.000146   0.004563  -0.004846  -0.000151
    31  H    0.291432   0.000000   0.000000  -0.000000  -0.000468   0.000002
              19         20         21         22         23         24
     1  C    0.005477   0.000028  -0.000008  -0.000001  -0.000010   0.000000
     2  C   -0.026420  -0.003409   0.000123   0.000083   0.000004   0.000002
     3  C    0.352514  -0.046411  -0.004847  -0.003883   0.000147  -0.000178
     4  C   -0.025829   0.350084  -0.026577  -0.030270  -0.012655   0.002760
     5  C   -0.003822  -0.045373   0.340849   0.351951  -0.047148  -0.034691
     6  C    0.000130  -0.001452  -0.021627  -0.025340   0.354462   0.367150
     7  O   -0.000011  -0.000966   0.002756   0.000175  -0.035087  -0.018152
     8  C    0.000173  -0.004613  -0.000011   0.000648  -0.003062   0.004051
     9  C   -0.008583  -0.050926   0.004498  -0.008934  -0.002122   0.000335
    10  C   -0.000201  -0.002643  -0.000129   0.000271   0.000192   0.000006
    11  C   -0.006317  -0.000864  -0.000015  -0.000003   0.000000  -0.000000
    12  O    0.006659  -0.000043  -0.000000  -0.000029  -0.000000  -0.000000
    13  O    0.001748   0.000001  -0.000000  -0.000000  -0.000000   0.000000
    14  H   -0.000021   0.000940   0.000004   0.000001   0.000000  -0.000000
    15  H   -0.000045   0.003916   0.000004  -0.000000  -0.000006  -0.000000
    16  H   -0.000172  -0.000166  -0.000000   0.000000   0.000000   0.000000
    17  H   -0.003496   0.000004  -0.000001  -0.000003  -0.000000  -0.000000
    18  H   -0.040907  -0.004903   0.005090  -0.000359   0.000013  -0.000000
    19  H    0.636734   0.006746  -0.000378   0.004935   0.000006   0.000004
    20  H    0.006746   0.711901  -0.004494   0.007233   0.006574  -0.000045
    21  H   -0.000378  -0.004494   0.655379  -0.037215   0.000347   0.000039
    22  H    0.004935   0.007233  -0.037215   0.633373   0.006432  -0.004585
    23  H    0.000006   0.006574   0.000347   0.006432   0.680936  -0.044077
    24  H    0.000004  -0.000045   0.000039  -0.004585  -0.044077   0.625336
    25  H    0.000001   0.006439   0.000061   0.000253   0.012812  -0.000070
    26  H    0.000004  -0.000054   0.000024  -0.000030  -0.000068  -0.000198
    27  H    0.003646   0.007074  -0.000022   0.005776   0.000280  -0.000022
    28  H   -0.000014   0.002312   0.000004   0.000004   0.000013   0.000000
    29  H   -0.000039  -0.000049   0.000003   0.000001   0.000001  -0.000000
    30  H    0.000191  -0.000071  -0.000000  -0.000001   0.000000   0.000000
    31  H   -0.000042   0.000000   0.000000   0.000000  -0.000000   0.000000
              25         26         27         28         29         30
     1  C   -0.000056   0.000001  -0.000001  -0.000472   0.000075   0.000131
     2  C   -0.000006  -0.000013  -0.000661  -0.003507   0.004797  -0.067375
     3  C    0.000081  -0.000165  -0.003770  -0.000034   0.000173   0.005667
     4  C   -0.014914   0.004385  -0.044267  -0.007179   0.004348   0.000109
     5  C   -0.001284  -0.000053  -0.006778   0.000093  -0.000137   0.000008
     6  C   -0.004017   0.004963   0.001259  -0.000007   0.000005  -0.000000
     7  O   -0.032782  -0.013376   0.001561   0.000005   0.000038   0.000000
     8  C    0.343175   0.352307  -0.036191  -0.005458  -0.003600  -0.000063
     9  C   -0.040940  -0.023648   0.349953  -0.028505  -0.029125   0.004531
    10  C    0.000658  -0.003258  -0.037517   0.360347   0.351794  -0.043410
    11  C   -0.000018  -0.000068  -0.003908  -0.023205  -0.022052   0.364377
    12  O   -0.000003  -0.000002   0.006850   0.001585   0.000872  -0.031750
    13  O    0.000000  -0.000000  -0.000126  -0.000062  -0.000032   0.003054
    14  H    0.000001   0.000000   0.000005   0.000001   0.000002  -0.000228
    15  H    0.000033  -0.000002  -0.000012   0.003545  -0.000137  -0.000146
    16  H    0.000001  -0.000000   0.000004   0.000746  -0.000035   0.004563
    17  H   -0.000000  -0.000000  -0.000030   0.000017  -0.000154  -0.004846
    18  H    0.000002   0.000003  -0.000089  -0.000021   0.000020  -0.000151
    19  H    0.000001   0.000004   0.003646  -0.000014  -0.000039   0.000191
    20  H    0.006439  -0.000054   0.007074   0.002312  -0.000049  -0.000071
    21  H    0.000061   0.000024  -0.000022   0.000004   0.000003  -0.000000
    22  H    0.000253  -0.000030   0.005776   0.000004   0.000001  -0.000001
    23  H    0.012812  -0.000068   0.000280   0.000013   0.000001   0.000000
    24  H   -0.000070  -0.000198  -0.000022   0.000000  -0.000000   0.000000
    25  H    0.683393  -0.045829   0.007096   0.006005  -0.000366   0.000002
    26  H   -0.045829   0.622362  -0.005515  -0.000425   0.004483   0.000004
    27  H    0.007096  -0.005515   0.664420   0.006103  -0.005198   0.000220
    28  H    0.006005  -0.000425   0.006103   0.617280  -0.036705  -0.001292
    29  H   -0.000366   0.004483  -0.005198  -0.036705   0.630089  -0.004438
    30  H    0.000002   0.000004   0.000220  -0.001292  -0.004438   0.697206
    31  H    0.000000   0.000000   0.000006   0.000004   0.000003   0.000117
              31
     1  C   -0.000019
     2  C    0.000665
     3  C   -0.000012
     4  C    0.000010
     5  C    0.000000
     6  C    0.000000
     7  O    0.000000
     8  C   -0.000001
     9  C    0.000009
    10  C   -0.000482
    11  C    0.001540
    12  O   -0.032349
    13  O    0.291432
    14  H    0.000000
    15  H    0.000000
    16  H   -0.000000
    17  H   -0.000468
    18  H    0.000002
    19  H   -0.000042
    20  H    0.000000
    21  H    0.000000
    22  H    0.000000
    23  H   -0.000000
    24  H    0.000000
    25  H    0.000000
    26  H    0.000000
    27  H    0.000006
    28  H    0.000004
    29  H    0.000003
    30  H    0.000117
    31  H    0.422713
 Mulliken charges:
               1
     1  C   -0.407807
     2  C   -0.007039
     3  C   -0.234123
     4  C    0.043295
     5  C   -0.221869
     6  C   -0.081864
     7  O   -0.261563
     8  C   -0.108341
     9  C    0.035716
    10  C   -0.283445
    11  C    0.151837
    12  O   -0.213383
    13  O   -0.331353
    14  H    0.114111
    15  H    0.117963
    16  H    0.111662
    17  H    0.084735
    18  H    0.081952
    19  H    0.097331
    20  H    0.063230
    21  H    0.086141
    22  H    0.099518
    23  H    0.082016
    24  H    0.102337
    25  H    0.080271
    26  H    0.104169
    27  H    0.089855
    28  H    0.108822
    29  H    0.105364
    30  H    0.073592
    31  H    0.316872
 Sum of Mulliken charges =  -0.00000
 Mulliken charges with hydrogens summed into heavy atoms:
               1
     1  C   -0.064071
     2  C    0.077696
     3  C   -0.054841
     4  C    0.106525
     5  C   -0.036210
     6  C    0.102489
     7  O   -0.261563
     8  C    0.076099
     9  C    0.125571
    10  C   -0.069259
    11  C    0.225428
    12  O   -0.213383
    13  O   -0.014482
 Electronic spatial extent (au):  <R**2>=           2605.1615
 Charge=             -0.0000 electrons
 Dipole moment (field-independent basis, Debye):
    X=             -0.6598    Y=              0.9988    Z=             -0.0568  Tot=              1.1984
 Quadrupole moment (field-independent basis, Debye-Ang):
   XX=            -86.2925   YY=            -79.0256   ZZ=            -74.0423
   XY=              4.7574   XZ=              2.3561   YZ=              0.8580
 Traceless Quadrupole moment (field-independent basis, Debye-Ang):
   XX=             -6.5057   YY=              0.7612   ZZ=              5.7444
   XY=              4.7574   XZ=              2.3561   YZ=              0.8580
 Octapole moment (field-independent basis, Debye-Ang**2):
  XXX=            -23.0273  YYY=            -15.3951  ZZZ=            -18.8311  XYY=             -9.0960
  XXY=              9.1222  XXZ=            -15.0761  XZZ=            -15.3584  YZZ=            -14.4699
  YYZ=             -6.2278  XYZ=             -9.9323
 Hexadecapole moment (field-independent basis, Debye-Ang**3):
 XXXX=          -2175.5045 YYYY=           -691.4979 ZZZZ=           -487.2041 XXXY=             87.2653
 XXXZ=             40.9547 YYYX=             19.6333 YYYZ=              5.7333 ZZZX=             58.8212
 ZZZY=             28.0816 XXYY=           -468.5505 XXZZ=           -374.3930 YYZZ=           -192.3974
 XXYZ=             26.4973 YYXZ=             28.9065 ZZXY=             31.6429
 N-N= 9.085486657334D+02 E-N=-3.257292760302D+03  KE= 6.129420508891D+02
 PrsmSu:  requested number of processors reduced to:  13 ShMem   1 Linda.
 Calling FoFJK, ICntrl=      2127 FMM=F ISym2X=0 I1Cent= 0 IOpClX= 0 NMat=1 NMatS=1 NMatT=0.
 ***** Axes restored to original set *****
 -------------------------------------------------------------------
 Center     Atomic                   Forces (Hartrees/Bohr)
 Number     Number              X              Y              Z
 -------------------------------------------------------------------
      1        6          -0.001352842    0.002269430   -0.001829981
      2        6          -0.000613635    0.001198045    0.005731788
      3        6           0.000506561    0.000816054   -0.003343381
      4        6           0.004560746    0.000993785    0.005607709
      5        6          -0.003460838    0.000134655   -0.002301010
      6        6           0.007126056   -0.000015484   -0.004677577
      7        8          -0.000938740   -0.001414582   -0.001489485
      8        6           0.008778412   -0.005797616    0.007234355
      9        6          -0.004862968    0.000783141    0.001060034
     10        6           0.011352362   -0.003228061   -0.001159307
     11        6          -0.000502588    0.000821210    0.004847194
     12        8          -0.012437619   -0.006524104   -0.006003433
     13        8           0.013448564   -0.004413805   -0.000459018
     14        1           0.000220913    0.001496500    0.000121938
     15        1           0.000400422    0.001021214    0.000756082
     16        1          -0.001019364    0.001515142    0.000802605
     17        1           0.000593889    0.000386700   -0.004829131
     18        1          -0.001065890    0.000026504    0.000193671
     19        1          -0.001274660    0.000001941   -0.001157447
     20        1          -0.001544164    0.000235979   -0.001845915
     21        1           0.000020284   -0.000512002    0.001125761
     22        1           0.000108103   -0.001677698    0.000563735
     23        1          -0.004010068    0.001162620    0.001877745
     24        1           0.000815143   -0.002667179   -0.005049695
     25        1          -0.004672804    0.002656409    0.000496638
     26        1           0.000894981   -0.003850582    0.000540563
     27        1          -0.001638634   -0.000210689   -0.000411543
     28        1           0.001127106    0.003112485    0.001247447
     29        1          -0.000410540    0.001806523   -0.000016033
     30        1          -0.000077881    0.002175525    0.000619832
     31        1          -0.010070306    0.007697941    0.001745859
 -------------------------------------------------------------------
 Cartesian Forces:  Max     0.013448564 RMS     0.003776291

 GradGradGradGradGradGradGradGradGradGradGradGradGradGradGradGradGradGrad
 Berny optimization.
 FormGI is forming the generalized inverse of G from B-inverse, IUseBI=4.
 Internal  Forces:  Max     0.011527104 RMS     0.002536616
 Search for a local minimum.
 Step number   1 out of a maximum of  186
 All quantities printed in internal units (Hartrees-Bohrs-Radians)
 Mixed Optimization -- RFO/linear search
 Second derivative matrix not updated -- first step.
 ITU=  0
     Eigenvalues ---    0.00287   0.00474   0.00503   0.00583   0.00600
     Eigenvalues ---    0.00705   0.01166   0.01284   0.01678   0.01939
     Eigenvalues ---    0.02813   0.03445   0.03646   0.03808   0.04304
     Eigenvalues ---    0.04347   0.04475   0.04550   0.04628   0.04775
     Eigenvalues ---    0.04895   0.04910   0.04994   0.05287   0.05470
     Eigenvalues ---    0.05481   0.05504   0.05620   0.06057   0.06272
     Eigenvalues ---    0.06549   0.06791   0.07700   0.07937   0.08024
     Eigenvalues ---    0.08035   0.08463   0.08890   0.10686   0.11120
     Eigenvalues ---    0.11571   0.11624   0.12477   0.13869   0.15065
     Eigenvalues ---    0.15349   0.16000   0.16000   0.16000   0.16000
     Eigenvalues ---    0.16559   0.17719   0.18390   0.20096   0.22005
     Eigenvalues ---    0.25000   0.26924   0.27423   0.27828   0.28189
     Eigenvalues ---    0.28676   0.28861   0.28861   0.29160   0.29769
     Eigenvalues ---    0.33728   0.33875   0.33957   0.34019   0.34028
     Eigenvalues ---    0.34034   0.34035   0.34041   0.34086   0.34091
     Eigenvalues ---    0.34122   0.34176   0.34252   0.34304   0.34338
     Eigenvalues ---    0.34360   0.34377   0.37747   0.38929   0.39587
     Eigenvalues ---    0.39622   0.51641
 RFO step:  Lambda=-8.81140363D-03 EMin= 2.87445068D-03
 Linear search not attempted -- first point.
 Iteration  1 RMS(Cart)=  0.08501045 RMS(Int)=  0.00204307
 Iteration  2 RMS(Cart)=  0.00346180 RMS(Int)=  0.00026067
 Iteration  3 RMS(Cart)=  0.00000443 RMS(Int)=  0.00026065
 Iteration  4 RMS(Cart)=  0.00000000 RMS(Int)=  0.00026065
 Variable       Old X    -DE/DX   Delta X   Delta X   Delta X     New X
                                 (Linear)    (Quad)   (Total)
    R1        2.90295   0.00214   0.00000   0.00720   0.00720   2.91015
    R2        2.06821   0.00007   0.00000   0.00021   0.00021   2.06842
    R3        2.06763  -0.00131   0.00000  -0.00371  -0.00371   2.06392
    R4        2.06728   0.00121   0.00000   0.00344   0.00344   2.07071
    R5        2.90787   0.00418   0.00000   0.01792   0.01787   2.92574
    R6        2.91990  -0.00163   0.00000  -0.00226  -0.00249   2.91741
    R7        2.07284  -0.00179   0.00000  -0.00513  -0.00513   2.06770
    R8        2.88982   0.00426   0.00000   0.01478   0.01472   2.90454
    R9        2.07178   0.00054   0.00000   0.00154   0.00154   2.07332
   R10        2.07541  -0.00134   0.00000  -0.00385  -0.00385   2.07156
   R11        2.88477   0.00518   0.00000   0.02049   0.02039   2.90516
   R12        2.91130  -0.00024   0.00000  -0.00133  -0.00120   2.91010
   R13        2.07402   0.00150   0.00000   0.00430   0.00430   2.07832
   R14        2.88084   0.00366   0.00000   0.01312   0.01308   2.89393
   R15        2.07034   0.00107   0.00000   0.00305   0.00305   2.07338
   R16        2.07271   0.00013   0.00000   0.00038   0.00038   2.07309
   R17        2.70016  -0.00600   0.00000  -0.01632  -0.01622   2.68394
   R18        2.07298   0.00399   0.00000   0.01142   0.01142   2.08440
   R19        2.06698   0.00040   0.00000   0.00113   0.00113   2.06811
   R20        2.70388  -0.00597   0.00000  -0.01696  -0.01686   2.68702
   R21        2.88839   0.00239   0.00000   0.00628   0.00632   2.89471
   R22        2.07261   0.00458   0.00000   0.01311   0.01311   2.08572
   R23        2.06906   0.00005   0.00000   0.00014   0.00014   2.06920
   R24        2.90590   0.00252   0.00000   0.00470   0.00475   2.91065
   R25        2.07792  -0.00163   0.00000  -0.00471  -0.00471   2.07321
   R26        2.90772  -0.00236   0.00000  -0.00872  -0.00867   2.89905
   R27        2.07125  -0.00127   0.00000  -0.00362  -0.00362   2.06763
   R28        2.07273  -0.00017   0.00000  -0.00047  -0.00047   2.07225
   R29        2.72071  -0.00895   0.00000  -0.02210  -0.02210   2.69861
   R30        2.07185   0.00147   0.00000   0.00420   0.00420   2.07605
   R31        2.74735   0.00437   0.00000   0.01131   0.01131   2.75867
   R32        1.84944  -0.01153   0.00000  -0.02195  -0.02195   1.82750
    A1        1.93084  -0.00070   0.00000  -0.00691  -0.00692   1.92393
    A2        1.97265   0.00057   0.00000   0.00728   0.00726   1.97991
    A3        1.93273   0.00092   0.00000   0.00436   0.00431   1.93703
    A4        1.86674   0.00037   0.00000   0.00433   0.00434   1.87109
    A5        1.89188  -0.00109   0.00000  -0.01405  -0.01407   1.87781
    A6        1.86544  -0.00014   0.00000   0.00441   0.00435   1.86979
    A7        1.94543   0.00403   0.00000   0.03808   0.03847   1.98391
    A8        1.94499   0.00093   0.00000   0.00868   0.00847   1.95347
    A9        1.87147  -0.00265   0.00000  -0.02479  -0.02548   1.84600
   A10        1.91918  -0.00418   0.00000  -0.00142  -0.00299   1.91618
   A11        1.87204   0.00217   0.00000   0.01599   0.01623   1.88827
   A12        1.90838  -0.00024   0.00000  -0.03849  -0.03827   1.87011
   A13        1.93386   0.00448   0.00000   0.04278   0.04214   1.97600
   A14        1.91940  -0.00190   0.00000  -0.00509  -0.00533   1.91408
   A15        1.91290  -0.00113   0.00000  -0.01952  -0.01917   1.89373
   A16        1.92468   0.00027   0.00000   0.00469   0.00460   1.92928
   A17        1.91573  -0.00317   0.00000  -0.02798  -0.02763   1.88811
   A18        1.85569   0.00126   0.00000   0.00288   0.00269   1.85838
   A19        1.96416   0.00621   0.00000   0.02855   0.02861   1.99277
   A20        1.94609  -0.00241   0.00000  -0.01253  -0.01254   1.93356
   A21        1.88727  -0.00047   0.00000   0.00758   0.00720   1.89446
   A22        1.91316  -0.00369   0.00000  -0.01533  -0.01531   1.89785
   A23        1.85530  -0.00056   0.00000   0.00540   0.00504   1.86034
   A24        1.89422   0.00094   0.00000  -0.01387  -0.01384   1.88038
   A25        1.89795   0.00130   0.00000   0.02252   0.02228   1.92023
   A26        1.92949  -0.00024   0.00000   0.00396   0.00401   1.93349
   A27        1.91389   0.00079   0.00000   0.00204   0.00217   1.91606
   A28        1.92390   0.00030   0.00000  -0.00113  -0.00130   1.92260
   A29        1.91619  -0.00213   0.00000  -0.02073  -0.02073   1.89546
   A30        1.88247  -0.00006   0.00000  -0.00723  -0.00736   1.87511
   A31        1.93787   0.00195   0.00000   0.01177   0.01177   1.94964
   A32        1.93750  -0.00384   0.00000  -0.02014  -0.02005   1.91745
   A33        1.91741   0.00533   0.00000   0.03535   0.03546   1.95287
   A34        1.90652   0.00171   0.00000   0.00946   0.00942   1.91595
   A35        1.88490  -0.00535   0.00000  -0.04027  -0.04027   1.84463
   A36        1.87790   0.00008   0.00000   0.00290   0.00298   1.88088
   A37        1.97061  -0.00211   0.00000  -0.01746  -0.01780   1.95281
   A38        1.92827   0.00582   0.00000   0.02532   0.02546   1.95373
   A39        1.90835   0.00076   0.00000   0.01267   0.01267   1.92102
   A40        1.87623  -0.00544   0.00000  -0.03580  -0.03583   1.84041
   A41        1.94845  -0.00468   0.00000  -0.02466  -0.02465   1.92380
   A42        1.92315   0.00232   0.00000   0.01732   0.01740   1.94056
   A43        1.87728   0.00104   0.00000   0.00408   0.00420   1.88148
   A44        1.90288  -0.00068   0.00000   0.00689   0.00689   1.90977
   A45        1.95163  -0.00039   0.00000  -0.00075  -0.00127   1.95035
   A46        1.88150   0.00043   0.00000  -0.00056  -0.00041   1.88109
   A47        1.95948   0.00229   0.00000   0.01107   0.01127   1.97076
   A48        1.87430  -0.00092   0.00000  -0.01288  -0.01294   1.86136
   A49        1.89082  -0.00082   0.00000  -0.00488  -0.00474   1.88608
   A50        1.93800   0.00201   0.00000   0.01863   0.01827   1.95627
   A51        1.92325   0.00097   0.00000   0.00440   0.00436   1.92761
   A52        1.90415   0.00060   0.00000   0.01786   0.01826   1.92240
   A53        1.92382  -0.00306   0.00000  -0.03208  -0.03196   1.89187
   A54        1.91292  -0.00110   0.00000  -0.01000  -0.01039   1.90253
   A55        1.85997   0.00053   0.00000   0.00079   0.00035   1.86032
   A56        1.93440   0.00350   0.00000   0.03707   0.03626   1.97066
   A57        1.94021   0.00387   0.00000   0.01270   0.01311   1.95332
   A58        1.93297  -0.00287   0.00000  -0.00824  -0.00835   1.92461
   A59        1.85658  -0.00741   0.00000  -0.04743  -0.04707   1.80950
   A60        1.91108   0.00254   0.00000   0.01785   0.01740   1.92848
   A61        1.88642   0.00018   0.00000  -0.01419  -0.01425   1.87217
   A62        1.86634  -0.00413   0.00000  -0.01595  -0.01595   1.85039
   A63        1.67240   0.01027   0.00000   0.06082   0.06082   1.73322
    D1        1.00923   0.00227   0.00000   0.01073   0.01073   1.01996
    D2       -3.12259   0.00046   0.00000   0.04292   0.04266  -3.07993
    D3       -1.03475  -0.00097   0.00000  -0.01461  -0.01439  -1.04914
    D4       -1.08354   0.00190   0.00000   0.00513   0.00516  -1.07838
    D5        1.06783   0.00009   0.00000   0.03731   0.03709   1.10492
    D6       -3.12752  -0.00133   0.00000  -0.02022  -0.01996   3.13570
    D7        3.10722   0.00104   0.00000  -0.00858  -0.00858   3.09864
    D8       -1.02460  -0.00077   0.00000   0.02361   0.02336  -1.00124
    D9        1.06324  -0.00219   0.00000  -0.03392  -0.03369   1.02954
   D10        1.15190   0.00285   0.00000   0.10436   0.10456   1.25646
   D11       -0.98046   0.00081   0.00000   0.07330   0.07326  -0.90720
   D12       -3.01451   0.00104   0.00000   0.08417   0.08398  -2.93053
   D13       -1.01410   0.00183   0.00000   0.06738   0.06746  -0.94664
   D14        3.13672  -0.00022   0.00000   0.03632   0.03616  -3.11030
   D15        1.10267   0.00002   0.00000   0.04719   0.04688   1.14956
   D16       -3.08765   0.00317   0.00000   0.10499   0.10559  -2.98205
   D17        1.06318   0.00112   0.00000   0.07393   0.07429   1.13747
   D18       -0.97087   0.00135   0.00000   0.08480   0.08501  -0.88586
   D19       -1.15171  -0.00602   0.00000  -0.14442  -0.14410  -1.29581
   D20        3.07050  -0.00150   0.00000  -0.11714  -0.11703   2.95347
   D21        0.97303  -0.00238   0.00000  -0.10216  -0.10210   0.87093
   D22        1.01455  -0.00320   0.00000  -0.09039  -0.09010   0.92444
   D23       -1.04643   0.00132   0.00000  -0.06311  -0.06304  -1.10947
   D24        3.13929   0.00044   0.00000  -0.04813  -0.04811   3.09118
   D25        3.06564  -0.00316   0.00000  -0.09461  -0.09440   2.97124
   D26        1.00467   0.00137   0.00000  -0.06733  -0.06734   0.93733
   D27       -1.09280   0.00049   0.00000  -0.05235  -0.05241  -1.14521
   D28        3.13806  -0.00174   0.00000  -0.02309  -0.02374   3.11433
   D29        0.97992   0.00029   0.00000  -0.01477  -0.01523   0.96469
   D30       -1.10120   0.00087   0.00000   0.00492   0.00461  -1.09659
   D31       -1.01585  -0.00094   0.00000   0.00245   0.00232  -1.01353
   D32        3.10919   0.00109   0.00000   0.01077   0.01082   3.12002
   D33        1.02808   0.00167   0.00000   0.03046   0.03066   1.05874
   D34        1.02296  -0.00114   0.00000  -0.00795  -0.00803   1.01493
   D35       -1.13519   0.00089   0.00000   0.00037   0.00048  -1.13471
   D36        3.06688   0.00148   0.00000   0.02006   0.02032   3.08720
   D37        3.12926   0.00269   0.00000   0.04213   0.04236  -3.11157
   D38        1.01486   0.00163   0.00000   0.02658   0.02670   1.04156
   D39       -1.05852   0.00136   0.00000   0.03179   0.03196  -1.02656
   D40       -0.97759   0.00127   0.00000   0.03489   0.03488  -0.94271
   D41       -3.09199   0.00021   0.00000   0.01935   0.01923  -3.07276
   D42        1.11782  -0.00006   0.00000   0.02456   0.02449   1.14231
   D43        1.06643   0.00018   0.00000   0.01369   0.01365   1.08008
   D44       -1.04798  -0.00088   0.00000  -0.00185  -0.00200  -1.04997
   D45       -3.12135  -0.00115   0.00000   0.00336   0.00326  -3.11809
   D46       -3.11902   0.00047   0.00000  -0.01741  -0.01730  -3.13633
   D47       -0.94186   0.00264   0.00000   0.00127   0.00140  -0.94046
   D48        1.13469   0.00168   0.00000  -0.00552  -0.00541   1.12928
   D49        0.97739  -0.00312   0.00000  -0.03404  -0.03406   0.94333
   D50       -3.12864  -0.00095   0.00000  -0.01536  -0.01535   3.13920
   D51       -1.05209  -0.00191   0.00000  -0.02215  -0.02216  -1.07425
   D52       -1.04204  -0.00097   0.00000  -0.02443  -0.02446  -1.06650
   D53        1.13511   0.00120   0.00000  -0.00575  -0.00575   1.12937
   D54       -3.07152   0.00025   0.00000  -0.01254  -0.01256  -3.08408
   D55        1.00676   0.00082   0.00000  -0.01264  -0.01297   0.99379
   D56       -1.11768  -0.00006   0.00000  -0.01892  -0.01910  -1.13678
   D57        3.09060  -0.00117   0.00000  -0.03249  -0.03259   3.05800
   D58        3.12458   0.00155   0.00000   0.00591   0.00571   3.13029
   D59        1.00014   0.00066   0.00000  -0.00037  -0.00042   0.99972
   D60       -1.07477  -0.00044   0.00000  -0.01394  -0.01391  -1.08868
   D61       -1.08722   0.00033   0.00000  -0.01646  -0.01651  -1.10374
   D62        3.07152  -0.00055   0.00000  -0.02274  -0.02264   3.04888
   D63        0.99662  -0.00165   0.00000  -0.03631  -0.03614   0.96048
   D64       -1.05925   0.00284   0.00000   0.01754   0.01733  -1.04193
   D65        1.08318   0.00047   0.00000   0.00641   0.00633   1.08951
   D66        3.12075  -0.00148   0.00000  -0.00737  -0.00729   3.11346
   D67        1.05008  -0.00132   0.00000   0.00094   0.00133   1.05141
[...]
 2,-0.00006143,-0.00000508,-0.00002641,-0.00000230,0.00004815,-0.000008
 19,0.00002949,0.00000521,0.00000153,-0.00000149,0.00001856,-0.00001134
 ,0.00001223,0.00000758,0.00001452,0.00000650,-0.00000099,0.00000471,-0
 .00000607,0.00005060,0.00001239,-0.00001913,0.00014465,0.00002987,-0.0
 0000797,0.00035469,-0.00013636,-0.00009409,0.00003358,-0.00012911,-0.0
 0012844,0.00020249,0.00009454,0.00005949,0.00122224,-0.00037853,0.0004
 7615,0.00032111,0.00000310,0.00006994,0.02114660,-0.00247376,0.0537959
 3,-0.00003033,-0.00002455,-0.00002606,-0.00005182,-0.00000927,-0.00003
 858,0.00050989,-0.00011459,-0.00036988,-0.00025581,-0.00153370,-0.0002
 1712,0.00002775,0.00007002,-0.00004933,-0.00025523,0.00141391,-0.00119
 144,0.00600528,0.00098974,-0.01379284,-0.09665638,0.00831630,0.1013056
 2,0.00427470,-0.00244732,-0.01069591,-0.00002161,0.00043652,0.00011311
 ,-0.00004742,0.00014326,-0.00013436,0.00000137,0.00000703,-0.00001852,
 -0.00000832,0.00001899,0.00000662,0.00000290,0.00000577,0.00000317,0.0
 0001905,-0.00000701,0.00001009,0.00000790,0.00001491,0.00000388,0.0000
 0941,-0.00000258,-0.00001186,-0.00005186,-0.00013225,-0.00012430,0.000
 02617,0.00009451,0.00006812,0.00047227,-0.00005929,-0.00035801,-0.0000
 2121,-0.00007358,-0.00001344,0.00000466,0.00002875,0.00002282,0.000534
 80,0.00012855,-0.00039065,0.00044457,0.00010643,-0.00029464,-0.0123628
 7,0.00317218,0.02807348,0.09646029,-0.00000223,-0.00003234,0.00005197,
 0.00002623,0.00040751,-0.00010053,0.00079757,0.00059817,-0.00179927,-0
 .00276041,-0.00540159,-0.00104483,-0.00008528,-0.00056066,0.00062827,0
 .00275551,-0.00424051,0.00129903,-0.01086656,-0.00472554,0.03573915,0.
 01217353,-0.04898174,-0.02972239,0.01224614,-0.00162529,-0.02555500,0.
 00031279,0.00163517,-0.00088080,-0.00017075,0.00001180,0.00008775,-0.0
 0006305,-0.00002783,0.00007206,-0.00001310,0.00002421,0.00005240,-0.00
 002350,0.00001263,0.00001018,-0.00001426,0.00001560,-0.00001669,0.0000
 2998,-0.00003520,0.00000599,0.00000320,-0.00004114,0.00008796,-0.00020
 234,-0.00064027,-0.00040483,-0.00008456,-0.00001869,-0.00000205,0.0000
 1036,0.00000422,0.00028455,0.00005898,0.00031650,0.00002051,-0.0000049
 6,0.00012608,-0.00003589,-0.00013548,0.00000972,-0.00011235,-0.0003013
 5,-0.00008113,0.00161705,-0.00195687,0.00167283,0.00136166,-0.01141952
 ,0.06085227,-0.00000999,-0.00004171,0.00006257,0.00000336,0.00022352,0
 .00001501,0.00054529,0.00060377,-0.00069710,-0.00192187,-0.00275369,0.
 00066753,0.00029708,0.00006484,0.00021773,-0.00270756,0.00258958,0.001
 75570,0.00507381,0.00781765,-0.02228030,0.09431500,-0.02141070,-0.2576
 8402,0.00689342,-0.00253626,-0.01323204,0.00000151,0.00050123,0.000214
 06,-0.00011820,-0.00027483,0.00007563,-0.00005870,-0.00003629,0.000074
 03,-0.00003996,0.00001396,0.00005646,-0.00001810,0.00001748,0.00000989
 ,-0.00001007,0.00001672,-0.00002619,0.00002706,-0.00003825,0.00000705,
 0.00001910,-0.00006472,0.00007352,-0.00011540,-0.00029999,-0.00019947,
 -0.00004665,-0.00001470,-0.00001867,0.00009210,0.00003735,0.00014688,-
 0.00001328,-0.00009605,-0.00010927,-0.00005867,-0.00000248,-0.00004000
 ,0.00022619,-0.00001704,0.00000844,0.00030065,0.00003014,-0.00101088,-
 0.00046985,-0.00088216,0.00323564,-0.10196220,0.01685200,0.28759103,-0
 .00015490,-0.00018259,-0.00007418,0.00012104,0.00024629,0.00000323,0.0
 0026081,-0.00047307,-0.00079147,-0.01391578,-0.00013534,0.00157564,0.0
 0005931,0.00037199,-0.00088372,-0.00006189,-0.00021683,0.00014171,0.00
 213956,0.00041833,0.00103567,-0.01250689,-0.00035912,-0.00155249,-0.29
 467607,-0.00070501,-0.00622543,-0.01008477,0.00117683,-0.00071683,-0.0
 0114126,-0.00016545,-0.00035905,-0.00001529,-0.00114118,-0.00010330,0.
 00050764,-0.00045601,0.00025058,0.00003792,0.00003275,0.00002370,0.000
 13117,0.00008695,0.00005247,0.00004739,0.00001555,0.00001323,-0.000040
 04,0.00005994,0.00006775,0.00038225,-0.00001765,0.00005650,0.00057964,
 0.00058274,0.00041774,0.00009748,-0.00008925,0.00232425,0.00038589,0.0
 0003470,0.00007814,0.00061810,-0.00059481,0.00037488,0.00001462,0.0001
 8790,-0.00006969,-0.00000626,-0.00004913,0.00000224,0.00051228,-0.0014
 9220,-0.00111972,0.00081016,-0.00014391,-0.00032783,0.32442489,0.00009
 784,0.00013266,0.00004295,-0.00013938,-0.00027981,0.00004337,0.0009435
 6,0.00024211,0.00010727,0.00095196,-0.00038342,-0.00013720,-0.00089723
 ,0.00012994,0.00005136,-0.00030653,-0.00021672,0.00034644,0.00146199,0
 .00300805,-0.00015273,-0.03050662,-0.00380567,-0.00285900,-0.00117698,
 -0.04627700,0.00015939,0.02836390,-0.00172335,0.00218219,0.00107698,0.
 00135663,-0.00045812,-0.00063527,-0.00128974,0.00002862,-0.00035769,0.
 00038195,0.00008150,-0.00005979,-0.00003678,-0.00005031,-0.00013905,-0
 .00009340,0.00001511,-0.00001687,0.00000848,-0.00000028,0.00001649,-0.
 00005380,-0.00013556,-0.00011012,-0.00003599,0.00004016,-0.00008016,0.
 00006280,-0.00037206,0.00006325,0.00050410,-0.00018685,0.00003402,-0.0
 0001339,-0.00003316,-0.00001892,0.00010058,0.00030293,0.00024232,0.000
 03973,-0.00010542,0.00002749,-0.00001579,0.00003395,-0.00182303,-0.004
 60122,-0.00218054,0.00069415,0.00115162,0.00045453,0.00131392,0.054830
 03,0.00004342,0.00000009,0.00011001,-0.00000710,-0.00003476,-0.0001705
 5,0.00090737,0.00090289,0.00165930,0.03285616,0.00001297,-0.00277984,0
 .00086444,-0.00076674,0.00157077,0.00013233,0.00001486,-0.00041720,0.0
 0153546,0.00118633,0.00071398,-0.01805435,-0.00125047,-0.00201421,-0.0
 0541517,-0.00053343,-0.04808531,-0.01746716,0.00103580,-0.00153383,0.0
 0021568,-0.00066082,0.00019460,0.00005851,0.00013208,0.00025303,0.0001
 7671,-0.00008649,-0.00010764,0.00002680,0.00004528,0.00004085,-0.00007
 095,0.00003612,-0.00011898,-0.00005883,-0.00009700,-0.00002182,0.00001
 492,-0.00007168,0.00006704,-0.00036328,0.00025495,0.00019612,-0.000726
 84,-0.00028135,-0.00023615,0.00248486,-0.00004231,-0.00579089,-0.00040
 578,-0.00029919,0.00017192,-0.00066875,0.00029400,-0.00028050,-0.00015
 614,-0.00001496,-0.00016191,0.00000320,0.00008280,0.00008982,-0.001357
 17,-0.00310388,-0.00063333,-0.00013750,0.00073705,0.00050812,0.0069903
 6,0.00027617,0.05742952,-0.00062152,-0.00013135,0.00065452,-0.00059397
 ,-0.00023452,-0.00013140,0.00006804,0.00001908,-0.00011653,0.00023035,
 -0.00033898,0.00073711,0.00036094,-0.00000503,-0.00007520,-0.00017431,
 -0.00008339,0.00004026,0.00057403,0.00011875,0.00003292,-0.00015188,-0
 .00118684,-0.00011318,-0.01180939,0.00168146,-0.00122314,-0.29668929,-
 0.00601191,-0.02234857,-0.00973861,0.00118964,0.00036899,0.00127172,-0
 .00228484,-0.00058484,-0.00037997,0.00031450,-0.00052280,0.00019302,0.
 00032742,0.00019627,0.00056590,0.00068697,0.00050224,0.00004237,0.0000
 3548,-0.00001711,0.00006334,-0.00002163,-0.00002779,0.00000609,-0.0000
 1514,-0.00008053,0.00010087,-0.00000154,0.00013409,0.00057867,0.000036
 63,-0.00067829,0.00002182,0.00007321,-0.00006134,0.00007309,-0.0001458
 8,0.00015280,0.00003839,0.00003221,-0.00000914,0.00000959,0.00001423,-
 0.00000053,0.00064427,0.00083274,0.00026812,-0.00002391,0.00000741,-0.
 00002111,0.00072979,0.00198623,-0.00140584,0.32640079,0.00004004,-0.00
 012545,-0.00040555,0.00042604,0.00066202,0.00010294,-0.00004815,-0.000
 15556,0.00000875,0.00043997,0.00098886,-0.00134388,-0.00001402,-0.0001
 5777,-0.00010971,0.00006754,0.00012225,0.00013761,-0.00080309,0.000049
 56,-0.00028929,0.00216161,0.00144001,0.00027097,0.02830270,-0.00064422
 ,0.00263978,-0.00417599,-0.04621076,-0.00105972,-0.02847680,0.00091507
 ,0.00010786,0.00019453,-0.00487733,-0.00233965,-0.00271723,-0.00110562
 ,-0.00168756,0.00020260,0.00000899,0.00007513,0.00033892,0.00010224,-0
 .00046367,-0.00000108,-0.00012601,-0.00000979,-0.00000626,-0.00001651,
 0.00037177,0.00001072,0.00009657,0.00000294,0.00000315,-0.00013109,-0.
 00000907,-0.00058626,0.00006806,0.00022099,-0.00008263,-0.00003452,0.0
 0001492,-0.00015611,0.00007197,-0.00004847,-0.00003094,-0.00002925,-0.
 00000010,-0.00000131,-0.00001163,-0.00002656,-0.00085832,-0.00027385,-
 0.00005591,-0.00008091,-0.00010024,-0.00005628,0.00136002,-0.00432561,
 0.00305730,0.00410055,0.05415211,-0.00018827,-0.00077486,-0.00043205,0
 .00014572,0.00050205,0.00005373,0.00004051,-0.00004095,-0.00027231,-0.
 00142467,-0.00054931,0.00111653,0.00007012,0.00012132,-0.00002069,-0.0
 0010267,-0.00001242,0.00015333,0.00021657,-0.00004555,-0.00022958,0.00
 027712,-0.00084597,0.00031759,-0.01756957,0.00026454,-0.00242933,-0.02
 140021,-0.00080655,-0.04938719,-0.01625884,0.00099973,-0.00176185,0.00
 100685,-0.00211908,-0.00113829,-0.00117416,-0.00076553,0.00003919,0.00
 020700,0.00014012,0.00008991,0.00067597,-0.00017596,-0.00077882,0.0000
 6346,0.00005162,0.00000544,0.00010114,-0.00001089,0.00026039,-0.000018
 64,-0.00001189,-0.00007335,0.00014203,0.00001875,0.00011276,0.00045440
 ,0.00018444,-0.00019080,0.00006545,0.00001087,-0.00001652,0.00015973,-
 0.00008173,0.00002252,0.00003049,0.00001373,-0.00000643,0.00000857,-0.
 00001475,-0.00002133,0.00025192,0.00019449,0.00030063,0.00013698,0.000
 03432,0.00001627,-0.00098774,0.00284669,-0.00108055,0.02517477,-0.0002
 1913,0.05117006,-0.00017750,-0.00024844,0.00012623,-0.00086402,-0.0013
 2388,-0.00075532,-0.00003496,-0.00000249,0.00022567,-0.00044680,0.0019
 5168,-0.00048517,0.00058314,0.00002300,-0.00052277,-0.00008621,-0.0000
 2617,-0.00004144,-0.00001051,-0.00023005,-0.00011291,0.00002523,-0.000
 26683,0.00029181,0.00413852,0.00005857,-0.01141703,-0.08674029,0.00016
 431,0.09473062,0.00239327,-0.00062790,-0.00896078,0.00045530,-0.000558
 54,-0.00087836,0.00025491,0.00060572,0.00034837,0.00012539,0.00013776,
 0.00006956,0.00036890,0.00014693,-0.00011633,0.00004101,0.00005720,0.0
 0000926,0.00015938,-0.00014004,-0.00045802,0.00002785,-0.00002003,0.00
 000201,-0.00000123,-0.00001186,-0.00002455,0.00038688,0.00006438,-0.00
 030025,-0.00006590,0.00021206,-0.00015122,0.00000918,-0.00007727,0.000
 05491,0.00000562,0.00000630,0.00000864,0.00000936,0.00000678,-0.000007
 09,-0.00001323,0.00002639,0.00010419,0.00016332,-0.00019246,0.00008775
 ,0.00056136,-0.00064554,-0.00006646,-0.01237966,0.00037041,0.02947880,
 0.09110310,-0.00055739,0.00012530,0.00001829,-0.00306799,-0.00487817,-
 0.00074436,0.00007997,-0.00059137,0.00001245,0.00260304,-0.00505626,0.
 00119211,-0.00069414,0.00051678,0.00160761,-0.00008861,0.00040428,0.00
 042944,0.00029070,0.00032326,-0.00078749,-0.00066892,0.00118483,0.0015
 4778,-0.01179693,-0.00026265,0.02517776,-0.00067346,-0.04752064,0.0040
 4356,0.01214998,-0.00113375,-0.02886120,0.00052858,0.00123486,0.000698
 96,0.00033979,0.00027190,0.00069217,0.00011510,0.00000311,-0.00003184,
 0.00009535,0.00006881,0.00015862,0.00002440,-0.00000057,0.00000509,0.0
 0039931,-0.00006471,-0.00194811,0.00000306,0.00023473,0.00001061,-0.00
 001370,0.00012201,-0.00001124,-0.00000261,-0.00003001,-0.00026074,0.00
 014807,-0.00057410,0.00035297,0.00006834,-0.00004137,0.00001173,-0.000
 00217,-0.00001973,-0.00004560,0.00001995,-0.00002873,-0.00010496,-0.00
 001362,-0.00007894,-0.00010596,0.00023455,-0.00032737,-0.00066300,0.00
 009036,0.00107219,-0.00073721,-0.00033614,-0.00049350,0.00087854,0.000
 04901,0.05444366,-0.00034602,0.00004877,0.00014391,-0.00154280,-0.0030
 6912,0.00070002,0.00025177,0.00015135,0.00062034,-0.00225345,0.0032098
 7,0.00041121,0.00066029,-0.00057193,-0.00091958,-0.00000987,-0.0003560
 6,-0.00028225,-0.00023231,0.00013308,0.00059145,0.00009037,-0.00078176
 ,-0.00008932,0.00640545,0.00083137,-0.01533706,0.09254508,0.00238314,-
 0.26415024,0.00634759,-0.00128018,-0.01676387,0.00068070,0.00124039,0.
 00075895,-0.00005572,0.00007612,0.00089782,0.00010064,0.00005909,0.000
 00755,0.00009067,0.00009228,0.00000766,0.00004240,-0.00005230,-0.00000
 653,0.00035159,-0.00001029,-0.00099040,0.00000918,-0.00003791,-0.00006
 719,-0.00008274,0.00000745,-0.00006978,0.00008738,-0.00002801,0.000190
 49,-0.00013441,0.00037255,-0.00025154,-0.00005837,0.00002990,-0.000020
 49,0.00000598,0.00002257,0.00004677,-0.00000769,0.00006148,0.00008691,
 -0.00000644,0.00003478,0.00006170,0.00006196,0.00071625,0.00056122,-0.
 00033221,-0.00033054,0.00047427,-0.00120238,0.00007145,0.00342120,-0.1
 0152190,-0.00299330,0.28926296,0.00074405,-0.00080203,0.00062809,0.003
 86585,-0.00457088,0.00386763,-0.00027609,0.00020471,0.00186676,0.00007
 283,0.00022367,-0.00022702,-0.00004781,0.00005079,-0.00001767,0.000062
 08,0.00003522,-0.00014151,-0.00005121,-0.00049610,0.00006288,0.0003389
 2,0.00001518,0.00048247,-0.00026879,-0.00171641,-0.00164660,0.00452716
 ,-0.00825026,0.00469569,-0.07399949,0.06599604,-0.04388593,-0.04137686
 ,0.02802094,-0.01486463,0.00363672,0.00140225,0.00135535,0.00007696,-0
 .00008288,-0.00018066,-0.00002507,-0.00006546,-0.00001067,0.00007547,0
 .00016033,0.00018048,0.00003848,0.00027862,-0.00002011,0.00023925,-0.0
 0046694,0.00024728,0.00009054,-0.00005806,0.00017556,-0.00002421,0.000
 00193,-0.00000232,0.00000996,0.00000006,0.00002428,0.00001190,-0.00000
 591,0.00000383,-0.00001418,0.00000049,0.00001787,-0.00000463,-0.000012
 98,0.00001928,-0.00002501,-0.00000224,-0.00001086,0.00001340,-0.000011
 17,-0.00002110,0.00014397,-0.00030684,0.00004071,0.00065785,0.00022436
 ,0.00050155,-0.00000173,0.00049969,-0.00005260,0.10073719,-0.00008424,
 0.00021047,-0.00035040,0.00076092,0.00054086,-0.00070672,0.00009257,0.
 00109524,-0.00056246,0.00017471,0.00030322,-0.00053440,-0.00007316,0.0
 0011162,0.00003593,0.00019979,0.00011466,-0.00042171,-0.00013245,-0.00
 117496,0.00016890,0.00085957,0.00013727,0.00141297,-0.00247968,-0.0026
 5897,-0.00433907,0.00905714,-0.02227566,0.01257844,0.07298561,-0.20409
 167,0.09742426,0.00048540,0.00209819,-0.00198726,-0.00007855,0.0035654
 5,-0.00045495,-0.00020486,0.00020264,-0.00012561,-0.00001502,-0.000063
 88,0.00006146,-0.00047040,0.00043793,0.00011793,-0.00013768,0.00046846
 ,0.00035846,-0.00003479,0.00013715,-0.00002265,-0.00003678,-0.00004070
 ,0.00002149,-0.00012702,-0.00003926,0.00007505,0.00000086,-0.00003224,
 0.00007889,0.00000365,0.00000433,-0.00001983,-0.00006039,0.00000315,0.
 00004204,-0.00000863,-0.00003216,0.00005879,-0.00013572,-0.00006263,-0
 .00003438,0.00003828,-0.00001559,-0.00005044,0.00006998,0.00023801,-0.
 00007660,-0.00046246,0.00083961,0.00032275,0.00044075,0.00092950,-0.00
 022767,-0.08027021,0.21912797,-0.00146983,0.00114126,0.00095731,-0.009
 41329,0.02660461,-0.01733231,0.00282463,-0.00252227,-0.00535471,-0.000
 13279,-0.00063374,-0.00037028,0.00006920,0.00018506,0.00029952,0.00003
 735,-0.00000364,-0.00042626,-0.00007956,-0.00064449,0.00023938,0.00033
 577,-0.00010911,0.00073630,-0.00115220,-0.00241956,-0.00176885,0.00592
 735,-0.01381031,0.00752588,-0.04299853,0.09797703,-0.11275544,-0.00097
 151,-0.00507025,0.00635983,-0.00022542,0.00066732,-0.00014402,-0.00011
 130,-0.00047250,0.00032039,0.00023584,-0.00007631,-0.00000304,0.001011
 11,-0.00083445,0.00007252,-0.00053051,-0.00041604,0.00083155,-0.000638
 91,0.00186775,-0.00103011,-0.00014498,-0.00012153,0.00010837,0.0000800
 6,0.00011729,0.00009414,-0.00001152,-0.00008944,0.00007235,0.00000680,
 -0.00001646,-0.00001725,-0.00000857,0.00001640,0.00003886,-0.00000157,
 0.00004911,0.00005787,-0.00004126,-0.00002214,-0.00000805,0.00002456,0
 .00004210,0.00003179,0.00005545,0.00008225,-0.00006138,0.00026410,0.00
 091228,0.00062973,0.00036552,0.00048034,0.00074844,0.04634826,-0.10274
 954,0.12032557,0.00000520,0.00058378,0.00022334,-0.00015718,-0.0012854
 5,-0.00094004,0.00001673,-0.00014949,0.00040018,-0.00007293,-0.0000235
 7,-0.00022972,0.00012272,0.00005734,0.00015977,-0.00004220,-0.00002620
 ,-0.00010852,-0.00003839,0.00009473,0.00002736,0.00003680,-0.00015826,
 0.00001834,0.00001505,-0.00006225,-0.00008083,-0.00080816,-0.00032183,
 0.00052684,-0.00299162,-0.00251104,-0.00389270,-0.00571949,0.00340296,
 -0.00447571,-0.16241554,0.04811149,-0.22363144,0.00004306,-0.00003140,
 -0.00004464,0.00035668,0.00001546,0.00000485,0.00001802,-0.00005091,0.
 00000239,-0.00084030,0.00082573,0.00104105,0.00008834,0.00005663,-0.00
 003255,0.00009255,-0.00027087,0.00010928,0.00001624,0.00003219,0.00002
 182,-0.00000008,-0.00000823,-0.00000809,-0.00002608,0.00000479,-0.0000
 0987,0.00000201,-0.00000182,0.00000374,-0.00000094,0.00006238,0.000016
 68,0.00000039,0.00002863,0.00000637,-0.00000115,0.00003004,0.00003823,
 0.00003788,-0.00005409,0.00001038,-0.00006843,-0.00020408,-0.00008436,
 0.00001030,0.00017643,0.00010785,0.00077249,-0.00035719,0.00034574,0.1
 7154803,0.00001337,-0.00010359,0.00010167,-0.00007583,0.00078956,0.000
 35717,-0.00074211,0.00007312,-0.00027891,0.00018232,-0.00020000,-0.000
 04478,-0.00005106,0.00000582,0.00005451,-0.00000750,-0.00004212,-0.000
 06072,0.00003634,-0.00003292,0.00004696,0.00006349,-0.00006701,0.00000
 211,-0.00030457,0.00030166,-0.00008171,-0.00231666,0.00020198,0.000193
 53,0.00060793,-0.00505513,-0.00430566,-0.03437985,-0.01036720,-0.03776
 641,0.08434831,-0.06948928,0.12139256,-0.00001103,0.00003745,-0.000003
 15,0.00001821,0.00001479,-0.00002196,0.00004862,-0.00001567,0.00003000
 ,-0.00024586,0.00008509,0.00021857,0.00023215,0.00004816,-0.00000445,0
 .00032217,-0.00038181,0.00030498,0.00009208,0.00010967,0.00004454,0.00
 001486,-0.00000873,0.00000339,0.00003196,-0.00003078,0.00000980,0.0000
 1680,0.00000986,0.00001373,-0.00000752,0.00001371,0.00000919,0.0000577
 8,0.00005332,0.00001947,-0.00000928,0.00001680,0.00001583,0.00017329,-
 0.00010719,-0.00001178,-0.00019686,-0.00069840,-0.00010939,0.00005027,
 0.00016667,0.00019719,0.00000407,-0.00007803,-0.00013102,-0.04796589,0
 .08475017,-0.00010227,-0.00016646,-0.00024905,0.00034914,0.00055968,0.
 00046642,0.00029422,-0.00016255,-0.00004468,-0.00014021,0.00009657,0.0
 0017546,-0.00000192,-0.00004703,-0.00007656,-0.00003616,-0.00000012,0.
 00014901,0.00001772,0.00010383,-0.00013702,0.00005924,-0.00008713,-0.0
 0001948,-0.00013616,-0.00004823,0.00011200,0.00043251,0.00006605,-0.00
 018213,-0.00057558,0.00019880,0.00065901,-0.00238957,-0.00331902,-0.00
 362432,-0.22907828,0.08306425,-0.31576248,0.00009062,0.00000025,-0.000
 05171,-0.00012122,-0.00001276,0.00001266,-0.00004204,0.00004939,0.0000
 0026,0.00055397,-0.00026485,-0.00019244,-0.00002740,0.00003204,-0.0000
 9057,-0.00026802,0.00025071,0.00001205,-0.00002636,-0.00006723,-0.0000
 7500,0.00001085,0.00002419,-0.00003031,-0.00000869,0.00001351,0.000018
 71,0.00000965,-0.00000788,-0.00001408,0.00000064,-0.00000780,-0.000018
 09,0.00001122,0.00003281,0.00000626,-0.00000377,-0.00002561,-0.0000306
 5,0.00008011,-0.00009311,0.00001472,0.00009354,0.00012964,0.00012978,-
 0.00008373,-0.00002301,-0.00004462,0.00056369,-0.00009367,-0.00017814,
 0.23047427,-0.08019522,0.31906501\\0.00000664,-0.00000501,-0.00000403,
 -0.00000679,-0.00000265,0.00000061,0.00000228,0.00000437,0.00000226,-0
 .00000375,0.00000029,-0.00000264,0.00000343,0.00000212,0.00000302,0.00
 000132,-0.00000400,-0.00000457,-0.00000253,0.00000341,0.00000422,0.000
 00213,0.00000128,-0.00000569,0.00000176,0.00000505,0.00000083,-0.00001
 117,-0.00000126,0.00000353,0.00001936,-0.00001354,-0.00000702,-0.00000
 968,0.00001643,0.00000611,0.00000449,-0.00000465,0.00000225,0.00000049
 ,0.00000027,0.00000226,-0.00000295,0.00000060,0.00000069,-0.00000238,0
 .00000050,-0.00000028,0.00000046,-0.00000057,0.00000029,-0.00000051,-0
 .00000300,-0.00000059,-0.00000082,0.00000018,-0.00000121,0.00000084,-0
 .00000066,0.00000041,0.00000097,-0.00000145,-0.00000108,0.00000110,0.0
 0000116,-0.00000058,-0.00000012,-0.00000033,0.00000052,0.00000149,0.00
 000178,0.00000219,0.00000035,-0.00000111,0.00000047,-0.00000128,0.0000
 0123,-0.00000221,0.00000127,-0.00000036,-0.00000093,-0.00000365,-0.000
 00269,-0.00000168,0.00000022,-0.00000228,0.00000275,-0.00000304,0.0000
 0067,0.00000085,0.00000007,0.00000423,-0.00000078\\\@


 Experience is what you get when you don't get what you want.
 -- Dan Stanford
 Job cpu time:       0 days  7 hours 54 minutes 12.9 seconds.
 Elapsed time:       0 days  1 hours 59 minutes 51.7 seconds.
 File lengths (MBytes):  RWF=    463 Int=      0 D2E=      0 Chk=     18 Scr=      1
 Normal termination of Gaussian 16 at Mon May 22 17:10:36 2023.
### All Done ###
