### Starting Gaussian ###
 Entering Gaussian System, Link 0=g16
 Initial command:
 /cluster/software/gaussian/gaussian-16-A.03/avx2/g16/l1.exe "/local/scratch/linjian/Gau-24038.inp" -scrdir="/local/scratch/linjian/"
 Entering Link 1 = /cluster/software/gaussian/gaussian-16-A.03/avx2/g16/l1.exe PID=     24039.
  
 Copyright (c) 1988,1990,1992,1993,1995,1998,2003,2009,2016,
            Gaussian, Inc.  All Rights Reserved.
  
 This is part of the Gaussian(R) 16 program.  It is based on
 the Gaussian(R) 09 system (copyright 2009, Gaussian, Inc.),
 the Gaussian(R) 03 system (copyright 2003, Gaussian, Inc.),
 the Gaussian(R) 98 system (copyright 1998, Gaussian, Inc.),
 the Gaussian(R) 94 system (copyright 1995, Gaussian, Inc.),
 the Gaussian 92(TM) system (copyright 1992, Gaussian, Inc.),
 the Gaussian 90(TM) system (copyright 1990, Gaussian, Inc.),
 the Gaussian 88(TM) system (copyright 1988, Gaussian, Inc.),
 the Gaussian 86(TM) system (copyright 1986, Carnegie Mellon
 University), and the Gaussian 82(TM) system (copyright 1983,
 Carnegie Mellon University). Gaussian is a federally registered
 trademark of Gaussian, Inc.
  
 This software contains proprietary and confidential information,
 including trade secrets, belonging to Gaussian, Inc.
  
 This software is provided under written license and may be
 used, copied, transmitted, or stored only in accord with that
 written license.
  
 The following legend is applicable only to US Government
 contracts under FAR:
  
                    RESTRICTED RIGHTS LEGEND
  
 Use, reproduction and disclosure by the US Government is
 subject to restrictions as set forth in subparagraphs (a)
 and (c) of the Commercial Computer Software - Restricted
 Rights clause in FAR 52.227-19.
  
 Gaussian, Inc.
 340 Quinnipiac St., Bldg. 40, Wallingford CT 06492
  
  
 ---------------------------------------------------------------
 Warning -- This program may not be used in any manner that
 competes with the business of Gaussian, Inc. or will provide
 assistance to any competitor of Gaussian, Inc.  The licensee
 of this program is prohibited from giving any competitor of
 Gaussian, Inc. access to this program.  By using this program,
 the user acknowledges that Gaussian, Inc. is engaged in the
 business of creating and licensing software in the field of
 computational chemistry and represents and warrants to the
 licensee that it is not a competitor of Gaussian, Inc. and that
 it will not use this program in any manner prohibited above.
 ---------------------------------------------------------------
  

 Cite this work as:
 Gaussian 16, Revision A.03,
 M. J. Frisch, G. W. Trucks, H. B. Schlegel, G. E. Scuseria, 
 M. A. Robb, J. R. Cheeseman, G. Scalmani, V. Barone, 
 G. A. Petersson, H. Nakatsuji, X. Li, M. Caricato, A. V. Marenich, 
 J. Bloino, B. G. Janesko, R. Gomperts, B. Mennucci, H. P. Hratchian, 
 J. V. Ortiz, A. F. Izmaylov, J. L. Sonnenberg, D. Williams-Young, 
 F. Ding, F. Lipparini, F. Egidi, J. Goings, B. Peng, A. Petrone, 
 T. Henderson, D. Ranasinghe, V. G. Zakrzewski, J. Gao, N. Rega, 
 G. Zheng, W. Liang, M. Hada, M. Ehara, K. Toyota, R. Fukuda, 
 J. Hasegawa, M. Ishida, T. Nakajima, Y. Honda, O. Kitao, H. Nakai, 
 T. Vreven, K. Throssell, J. A. Montgomery, Jr., J. E. Peralta, 
 F. Ogliaro, M. J. Bearpark, J. J. Heyd, E. N. Brothers, K. N. Kudin, 
 V. N. Staroverov, T. A. Keith, R. Kobayashi, J. Normand, 
 K. Raghavachari, A. P. Rendell, J. C. Burant, S. S. Iyengar, 
 J. Tomasi, M. Cossi, J. M. Millam, M. Klene, C. Adamo, R. Cammi, 
 J. W. Ochterski, R. L. Martin, K. Morokuma, O. Farkas, 
 J. B. Foresman, and D. J. Fox, Gaussian, Inc., Wallingford CT, 2016.
 
 ******************************************
 Gaussian 16:  ES64L-G16RevA.03 25-Dec-2016
                28-May-2023 
 ******************************************
 %chk=CC1CC2qCrC3CC2C13.chk
 %NProcShared=20
 Will use up to   20 processors via shared memory.
 -----------------------------
 # opt freq b3lyp/6-31g(2df,p)
 -----------------------------
 1/18=20,19=15,26=3,38=1/1,3;
 2/9=110,12=2,17=6,18=5,40=1/2;
 3/5=1,6=6,7=104,11=2,25=1,30=1,71=1,74=-5/1,2,3;
 4//1;
 5/5=2,38=5/2;
 6/7=2,8=2,9=2,10=2,28=1/1;
 7//1,2,3,16;
 1/18=20,19=15,26=3/3(2);
 2/9=110/2;
 99//99;
 2/9=110/2;
 3/5=1,6=6,7=104,11=2,25=1,30=1,71=1,74=-5/1,2,3;
 4/5=5,16=3,69=1/1;
 5/5=2,38=5/2;
 7//1,2,3,16;
 1/18=20,19=15,26=3/3(-5);
 2/9=110/2;
 6/7=2,8=2,9=2,10=2,19=2,28=1/1;
 99/9=1/99;
 -------------------
 Title Card Required
 -------------------
 Symbolic Z-matrix:
 Charge =  0 Multiplicity = 1
 C                     0.95543   0.0396    0.0052 
 C                     2.47745   0.07365   0.05211 
 C                     3.08484  -0.99645   0.94017 
 C                     3.69776  -0.14758   2.06562 
 C                     4.44614  -1.00033   3.0678 
 C                     4.35779   1.18234   1.50823 
 C                     3.88349   1.87329   2.87663 
 C                     2.66238   1.02548   2.38305 
 C                     2.91537   1.2991    0.80894 
 H                     0.59543  -0.84084  -0.53226 
 H                     0.5704    0.9378   -0.48984 
 H                     0.51826   0.01882   1.01028 
 H                     2.89372   0.03904  -0.95997 
 H                     3.85225  -1.56652   0.40439 
 H                     2.34093  -1.70048   1.32949 
 H                     5.09129  -1.72281   2.55145 
 H                     3.74866  -1.57085   3.68866 
 H                     5.09784  -0.42208   3.72753 
 H                     5.32136   1.22691   1.02687 
 H                     3.69835   2.95099   2.8268 
 H                     4.31108   1.60288   3.84033 
 H                     1.71253   0.87956   2.86948 
 H                     2.66378   2.2879    0.42045 
 

 GradGradGradGradGradGradGradGradGradGradGradGradGradGradGradGradGradGrad
 Berny optimization.
 Initialization pass.
                           ----------------------------
                           !    Initial Parameters    !
                           ! (Angstroms and Degrees)  !
 --------------------------                            --------------------------
 ! Name  Definition              Value          Derivative Info.                !
 --------------------------------------------------------------------------------
 ! R1    R(1,2)                  1.5231         estimate D2E/DX2                !
 ! R2    R(1,10)                 1.0925         estimate D2E/DX2                !
 ! R3    R(1,11)                 1.0955         estimate D2E/DX2                !
 ! R4    R(1,12)                 1.0962         estimate D2E/DX2                !
 ! R5    R(2,3)                  1.5175         estimate D2E/DX2                !
 ! R6    R(2,9)                  1.5054         estimate D2E/DX2                !
 ! R7    R(2,13)                 1.0949         estimate D2E/DX2                !
 ! R8    R(3,4)                  1.5372         estimate D2E/DX2                !
 ! R9    R(3,14)                 1.0959         estimate D2E/DX2                !
 ! R10   R(3,15)                 1.0957         estimate D2E/DX2                !
 ! R11   R(4,5)                  1.5138         estimate D2E/DX2                !
 ! R12   R(4,6)                  1.5859         estimate D2E/DX2                !
 ! R13   R(4,8)                  1.5965         estimate D2E/DX2                !
 ! R14   R(5,16)                 1.0976         estimate D2E/DX2                !
 ! R15   R(5,17)                 1.0943         estimate D2E/DX2                !
 ! R16   R(5,18)                 1.0929         estimate D2E/DX2                !
 ! R17   R(6,7)                  1.6046         estimate D2E/DX2                !
 ! R18   R(6,9)                  1.6072         estimate D2E/DX2                !
 ! R19   R(6,19)                 1.078          estimate D2E/DX2                !
 ! R20   R(7,8)                  1.5664         estimate D2E/DX2                !
 ! R21   R(7,20)                 1.0946         estimate D2E/DX2                !
 ! R22   R(7,21)                 1.0884         estimate D2E/DX2                !
 ! R23   R(8,9)                  1.6176         estimate D2E/DX2                !
 ! R24   R(8,22)                 1.0771         estimate D2E/DX2                !
 ! R25   R(9,23)                 1.0918         estimate D2E/DX2                !
 ! A1    A(2,1,10)             111.2499         estimate D2E/DX2                !
 ! A2    A(2,1,11)             110.292          estimate D2E/DX2                !
 ! A3    A(2,1,12)             111.7581         estimate D2E/DX2                !
 ! A4    A(10,1,11)            108.8218         estimate D2E/DX2                !
 ! A5    A(10,1,12)            107.719          estimate D2E/DX2                !
 ! A6    A(11,1,12)            106.8397         estimate D2E/DX2                !
 ! A7    A(1,2,3)              113.7181         estimate D2E/DX2                !
 ! A8    A(1,2,9)              108.9272         estimate D2E/DX2                !
 ! A9    A(1,2,13)             110.5327         estimate D2E/DX2                !
 ! A10   A(3,2,9)               99.4038         estimate D2E/DX2                !
 ! A11   A(3,2,13)             111.4996         estimate D2E/DX2                !
 ! A12   A(9,2,13)             112.3243         estimate D2E/DX2                !
 ! A13   A(2,3,4)              101.4581         estimate D2E/DX2                !
 ! A14   A(2,3,14)             111.1622         estimate D2E/DX2                !
 ! A15   A(2,3,15)             112.9101         estimate D2E/DX2                !
 ! A16   A(4,3,14)             111.4691         estimate D2E/DX2                !
 ! A17   A(4,3,15)             111.4313         estimate D2E/DX2                !
 ! A18   A(14,3,15)            108.3546         estimate D2E/DX2                !
 ! A19   A(3,4,5)              111.7618         estimate D2E/DX2                !
 ! A20   A(3,4,6)              111.8216         estimate D2E/DX2                !
 ! A21   A(3,4,8)              107.0222         estimate D2E/DX2                !
 ! A22   A(5,4,6)              119.9554         estimate D2E/DX2                !
 ! A23   A(5,4,8)              127.0769         estimate D2E/DX2                !
 ! A24   A(6,4,8)               73.9556         estimate D2E/DX2                !
 ! A25   A(4,5,16)             110.4825         estimate D2E/DX2                !
 ! A26   A(4,5,17)             110.7445         estimate D2E/DX2                !
 ! A27   A(4,5,18)             113.353          estimate D2E/DX2                !
 ! A28   A(16,5,17)            107.3594         estimate D2E/DX2                !
 ! A29   A(16,5,18)            106.3649         estimate D2E/DX2                !
 ! A30   A(17,5,18)            108.2673         estimate D2E/DX2                !
 ! A31   A(4,6,7)               86.4657         estimate D2E/DX2                !
 ! A32   A(4,6,9)               80.8122         estimate D2E/DX2                !
 ! A33   A(4,6,19)             124.3058         estimate D2E/DX2                !
 ! A34   A(7,6,9)               94.2715         estimate D2E/DX2                !
 ! A35   A(7,6,19)             128.8416         estimate D2E/DX2                !
 ! A36   A(9,6,19)             127.2205         estimate D2E/DX2                !
 ! A37   A(6,7,8)               74.2552         estimate D2E/DX2                !
 ! A38   A(6,7,20)             115.7922         estimate D2E/DX2                !
 ! A39   A(6,7,21)             122.1377         estimate D2E/DX2                !
 ! A40   A(8,7,20)             112.7488         estimate D2E/DX2                !
 ! A41   A(8,7,21)             116.7944         estimate D2E/DX2                !
 ! A42   A(20,7,21)            110.57           estimate D2E/DX2                !
 ! A43   A(4,8,7)               87.4077         estimate D2E/DX2                !
 ! A44   A(4,8,9)               80.176          estimate D2E/DX2                !
 ! A45   A(4,8,22)             124.2057         estimate D2E/DX2                !
 ! A46   A(7,8,9)               95.3453         estimate D2E/DX2                !
 ! A47   A(7,8,22)             128.207          estimate D2E/DX2                !
 ! A48   A(9,8,22)             126.8917         estimate D2E/DX2                !
 ! A49   A(2,9,6)              114.8765         estimate D2E/DX2                !
 ! A50   A(2,9,8)              107.82           estimate D2E/DX2                !
 ! A51   A(2,9,23)             119.4279         estimate D2E/DX2                !
 ! A52   A(6,9,8)               72.8236         estimate D2E/DX2                !
 ! A53   A(6,9,23)             115.3044         estimate D2E/DX2                !
 ! A54   A(8,9,23)             117.6082         estimate D2E/DX2                !
 ! D1    D(10,1,2,3)           -69.825          estimate D2E/DX2                !
 ! D2    D(10,1,2,9)          -179.6606         estimate D2E/DX2                !
 ! D3    D(10,1,2,13)           56.4749         estimate D2E/DX2                !
 ! D4    D(11,1,2,3)           169.3207         estimate D2E/DX2                !
 ! D5    D(11,1,2,9)            59.4852         estimate D2E/DX2                !
 ! D6    D(11,1,2,13)          -64.3793         estimate D2E/DX2                !
 ! D7    D(12,1,2,3)            50.6266         estimate D2E/DX2                !
 ! D8    D(12,1,2,9)           -59.2089         estimate D2E/DX2                !
 ! D9    D(12,1,2,13)          176.9266         estimate D2E/DX2                !
 ! D10   D(1,2,3,4)           -113.1968         estimate D2E/DX2                !
 ! D11   D(1,2,3,14)           128.1887         estimate D2E/DX2                !
 ! D12   D(1,2,3,15)             6.1703         estimate D2E/DX2                !
 ! D13   D(9,2,3,4)              2.3901         estimate D2E/DX2                !
 ! D14   D(9,2,3,14)          -116.2243         estimate D2E/DX2                !
 ! D15   D(9,2,3,15)           121.7573         estimate D2E/DX2                !
 ! D16   D(13,2,3,4)           121.0137         estimate D2E/DX2                !
 ! D17   D(13,2,3,14)            2.3992         estimate D2E/DX2                !
 ! D18   D(13,2,3,15)         -119.6192         estimate D2E/DX2                !
 ! D19   D(1,2,9,6)            154.1245         estimate D2E/DX2                !
 ! D20   D(1,2,9,8)             75.2449         estimate D2E/DX2                !
 ! D21   D(1,2,9,23)           -62.5053         estimate D2E/DX2                !
 ! D22   D(3,2,9,6)             34.9277         estimate D2E/DX2                !
 ! D23   D(3,2,9,8)            -43.952          estimate D2E/DX2                !
 ! D24   D(3,2,9,23)           178.2978         estimate D2E/DX2                !
 ! D25   D(13,2,9,6)           -83.0802         estimate D2E/DX2                !
 ! D26   D(13,2,9,8)          -161.9598         estimate D2E/DX2                !
 ! D27   D(13,2,9,23)           60.2899         estimate D2E/DX2                !
 ! D28   D(2,3,4,5)           -176.9205         estimate D2E/DX2                !
 ! D29   D(2,3,4,6)            -39.2756         estimate D2E/DX2                !
 ! D30   D(2,3,4,8)             39.8436         estimate D2E/DX2                !
 ! D31   D(14,3,4,5)           -58.5266         estimate D2E/DX2                !
 ! D32   D(14,3,4,6)            79.1183         estimate D2E/DX2                !
 ! D33   D(14,3,4,8)           158.2375         estimate D2E/DX2                !
 ! D34   D(15,3,4,5)            62.664          estimate D2E/DX2                !
 ! D35   D(15,3,4,6)          -159.6912         estimate D2E/DX2                !
 ! D36   D(15,3,4,8)           -80.572          estimate D2E/DX2                !
 ! D37   D(3,4,5,16)            46.0994         estimate D2E/DX2                !
 ! D38   D(3,4,5,17)           -72.7206         estimate D2E/DX2                !
 ! D39   D(3,4,5,18)           165.3669         estimate D2E/DX2                !
 ! D40   D(6,4,5,16)           -87.6905         estimate D2E/DX2                !
 ! D41   D(6,4,5,17)           153.4895         estimate D2E/DX2                !
 ! D42   D(6,4,5,18)            31.577          estimate D2E/DX2                !
 ! D43   D(8,4,5,16)          -179.7345         estimate D2E/DX2                !
 ! D44   D(8,4,5,17)            61.4454         estimate D2E/DX2                !
 ! D45   D(8,4,5,18)           -60.4671         estimate D2E/DX2                !
 ! D46   D(3,4,6,7)            145.8939         estimate D2E/DX2                !
 ! D47   D(3,4,6,9)             50.9843         estimate D2E/DX2                !
 ! D48   D(3,4,6,19)           -78.1711         estimate D2E/DX2                !
 ! D49   D(5,4,6,7)            -80.3412         estimate D2E/DX2                !
 ! D50   D(5,4,6,9)           -175.2508         estimate D2E/DX2                !
 ! D51   D(5,4,6,19)            55.5938         estimate D2E/DX2                !
 ! D52   D(8,4,6,7)             43.5975         estimate D2E/DX2                !
 ! D53   D(8,4,6,9)            -51.3121         estimate D2E/DX2                !
 ! D54   D(8,4,6,19)           179.5325         estimate D2E/DX2                !
 ! D55   D(3,4,8,7)           -153.3447         estimate D2E/DX2                !
 ! D56   D(3,4,8,9)            -57.4626         estimate D2E/DX2                !
 ! D57   D(3,4,8,22)            70.7774         estimate D2E/DX2                !
 ! D58   D(5,4,8,7)             70.8202         estimate D2E/DX2                !
 ! D59   D(5,4,8,9)            166.7022         estimate D2E/DX2                !
 ! D60   D(5,4,8,22)           -65.0577         estimate D2E/DX2                !
 ! D61   D(6,4,8,7)            -44.8957         estimate D2E/DX2                !
 ! D62   D(6,4,8,9)             50.9864         estimate D2E/DX2                !
 ! D63   D(6,4,8,22)           179.2264         estimate D2E/DX2                !
 ! D64   D(4,6,7,8)            -44.5726         estimate D2E/DX2                !
 ! D65   D(4,6,7,20)          -152.6303         estimate D2E/DX2                !
 ! D66   D(4,6,7,21)            67.5137         estimate D2E/DX2                !
 ! D67   D(9,6,7,8)             35.9283         estimate D2E/DX2                !
 ! D68   D(9,6,7,20)           -72.1295         estimate D2E/DX2                !
 ! D69   D(9,6,7,21)           148.0145         estimate D2E/DX2                !
 ! D70   D(19,6,7,8)          -177.0467         estimate D2E/DX2                !
 ! D71   D(19,6,7,20)           74.8956         estimate D2E/DX2                !
 ! D72   D(19,6,7,21)          -64.9604         estimate D2E/DX2                !
 ! D73   D(4,6,9,2)            -51.3088         estimate D2E/DX2                !
 ! D74   D(4,6,9,8)             50.7987         estimate D2E/DX2                !
 ! D75   D(4,6,9,23)           163.7779         estimate D2E/DX2                !
 ! D76   D(7,6,9,2)           -137.0247         estimate D2E/DX2                !
 ! D77   D(7,6,9,8)            -34.9172         estimate D2E/DX2                !
 ! D78   D(7,6,9,23)            78.062          estimate D2E/DX2                !
 ! D79   D(19,6,9,2)            75.1403         estimate D2E/DX2                !
 ! D80   D(19,6,9,8)           177.2478         estimate D2E/DX2                !
 ! D81   D(19,6,9,23)          -69.773          estimate D2E/DX2                !
 ! D82   D(6,7,8,4)             44.1489         estimate D2E/DX2                !
 ! D83   D(6,7,8,9)            -35.7272         estimate D2E/DX2                !
 ! D84   D(6,7,8,22)           177.0331         estimate D2E/DX2                !
 ! D85   D(20,7,8,4)           155.9872         estimate D2E/DX2                !
 ! D86   D(20,7,8,9)            76.1111         estimate D2E/DX2                !
 ! D87   D(20,7,8,22)          -71.1287         estimate D2E/DX2                !
 ! D88   D(21,7,8,4)           -74.3273         estimate D2E/DX2                !
 ! D89   D(21,7,8,9)          -154.2034         estimate D2E/DX2                !
 ! D90   D(21,7,8,22)           58.5568         estimate D2E/DX2                !
 ! D91   D(4,8,9,2)             60.8305         estimate D2E/DX2                !
 ! D92   D(4,8,9,6)            -50.462          estimate D2E/DX2                !
 ! D93   D(4,8,9,23)          -160.5349         estimate D2E/DX2                !
 ! D94   D(7,8,9,2)            147.2585         estimate D2E/DX2                !
 ! D95   D(7,8,9,6)             35.966          estimate D2E/DX2                !
 ! D96   D(7,8,9,23)           -74.107          estimate D2E/DX2                !
 ! D97   D(22,8,9,2)           -64.8591         estimate D2E/DX2                !
 ! D98   D(22,8,9,6)          -176.1516         estimate D2E/DX2                !
 ! D99   D(22,8,9,23)           73.7755         estimate D2E/DX2                !
 --------------------------------------------------------------------------------
 Trust Radius=3.00D-01 FncErr=1.00D-07 GrdErr=1.00D-06 EigMax=2.50D+02 EigMin=1.00D-04
 Number of steps in this run=    138 maximum allowed number of steps=    138.
 GradGradGradGradGradGradGradGradGradGradGradGradGradGradGradGradGradGrad

                          Input orientation:                          
 ---------------------------------------------------------------------
 Center     Atomic      Atomic             Coordinates (Angstroms)
 Number     Number       Type             X           Y           Z
 ---------------------------------------------------------------------
      1          6           0        0.955430    0.039600    0.005200
      2          6           0        2.477450    0.073650    0.052110
      3          6           0        3.084840   -0.996450    0.940170
      4          6           0        3.697760   -0.147580    2.065620
      5          6           0        4.446140   -1.000330    3.067800
      6          6           0        4.357790    1.182340    1.508230
      7          6           0        3.883490    1.873290    2.876630
      8          6           0        2.662380    1.025480    2.383050
      9          6           0        2.915370    1.299100    0.808940
     10          1           0        0.595430   -0.840840   -0.532260
     11          1           0        0.570400    0.937800   -0.489840
     12          1           0        0.518260    0.018820    1.010280
     13          1           0        2.893720    0.039040   -0.959970
     14          1           0        3.852250   -1.566520    0.404390
     15          1           0        2.340930   -1.700480    1.329490
     16          1           0        5.091290   -1.722810    2.551450
     17          1           0        3.748660   -1.570850    3.688660
     18          1           0        5.097840   -0.422080    3.727530
     19          1           0        5.321360    1.226910    1.026870
     20          1           0        3.698350    2.950990    2.826800
     21          1           0        4.311080    1.602880    3.840330
     22          1           0        1.712530    0.879560    2.869480
     23          1           0        2.663780    2.287900    0.420450
 ---------------------------------------------------------------------
                    Distance matrix (angstroms):
                    1          2          3          4          5
     1  C    0.000000
     2  C    1.523123   0.000000
     3  C    2.545968   1.517461   0.000000
     4  C    3.435221   2.364809   1.537169   0.000000
     5  C    4.758784   3.758132   2.525859   1.513810   0.000000
     6  C    3.891145   2.623958   2.586546   1.585878   2.684048
     7  C    4.492334   3.632295   3.552904   2.185440   2.934419
     8  C    3.088658   2.524571   2.519638   1.596510   2.784706
     9  C    2.464488   1.505421   2.305535   2.069846   3.568345
    10  H    1.092537   2.172505   2.896451   4.105367   5.273882
    11  H    1.095480   2.162708   3.479750   4.181962   5.606649
    12  H    1.096237   2.181633   2.760982   3.354199   4.549758
    13  H    2.165299   1.094890   2.172395   3.136160   4.439958
    14  H    3.336246   2.168948   1.095882   2.190192   2.786939
    15  H    2.588674   2.190405   1.095733   2.189606   2.818482
    16  H    5.166703   4.038085   2.673886   2.158543   1.097640
    17  H    4.895259   4.188657   2.885271   2.159293   1.094275
    18  H    5.588242   4.541025   3.485892   2.190324   1.092854
    19  H    4.638411   3.219936   3.154817   2.367341   3.145156
    20  H    4.895021   4.179544   4.417924   3.190694   4.028672
    21  H    5.330333   4.477874   4.083027   2.567074   2.718777
    22  H    3.079421   3.028559   3.020743   2.375362   3.323543
    23  H    2.854075   2.252398   3.351769   3.115648   4.582328
                    6          7          8          9         10
     6  C    0.000000
     7  C    1.604647   0.000000
     8  C    1.914244   1.566369   0.000000
     9  C    1.607238   2.354207   1.617620   0.000000
    10  H    4.734154   5.458788   4.031683   3.429327   0.000000
    11  H    4.289103   4.815063   3.554935   2.704857   1.779322
    12  H    4.042737   4.271662   2.737720   2.725030   1.767597
    13  H    3.089118   4.366190   3.493188   2.171926   2.497851
    14  H    3.005040   4.236182   3.471217   3.041904   3.465660
    15  H    3.522829   4.188671   2.940098   3.098134   2.692929
    16  H    3.172732   3.807421   3.671656   4.111315   5.522671
    17  H    3.564459   3.541140   3.102507   4.150153   5.319017
    18  H    2.836746   2.732654   3.136004   4.030360   6.212316
    19  H    1.078036   2.430409   2.991651   2.416918   5.388960
    20  H    2.302523   1.094622   2.231084   2.722785   5.940486
    21  H    2.370174   1.088427   2.274921   3.351062   6.236775
    22  H    2.990331   2.387597   1.077090   2.422532   3.972345
    23  H    2.296780   2.773520   2.333561   1.091763   3.869721
                   11         12         13         14         15
    11  H    0.000000
    12  H    1.760001   0.000000
    13  H    2.535075   3.086277   0.000000
    14  H    4.223956   3.741109   2.314753   0.000000
    15  H    3.661319   2.525869   2.927991   1.777032   0.000000
    16  H    6.063558   5.130408   4.501500   2.483851   3.009679
    17  H    5.818464   4.487344   4.993238   3.285906   2.750307
    18  H    6.335077   5.343257   5.200330   3.728873   3.871105
    19  H    4.995560   4.952729   3.354401   3.216989   4.188574
    20  H    4.983684   4.691518   4.844224   5.128319   5.071558
    21  H    5.760676   4.990382   5.243795   4.696946   4.593255
    22  H    3.548645   2.371451   4.094676   4.079017   3.069701
    23  H    2.652101   3.178031   2.648736   4.033519   4.103384
                   16         17         18         19         20
    16  H    0.000000
    17  H    1.766067   0.000000
    18  H    1.753598   1.772419   0.000000
    19  H    3.328382   4.169649   3.172175   0.000000
    20  H    4.884722   4.603517   3.761315   2.974283   0.000000
    21  H    3.651048   3.226745   2.175357   3.012902   1.794459
    22  H    4.276622   3.289588   3.727042   4.066881   2.869865
    23  H    5.149734   5.171858   4.919900   2.925094   2.701952
                   21         22         23
    21  H    0.000000
    22  H    2.866741   0.000000
    23  H    3.857257   2.980947   0.000000
 Stoichiometry    C9H14
 Framework group  C1[X(C9H14)]
 Deg. of freedom    63
 Full point group                 C1      NOp   1
 Largest Abelian subgroup         C1      NOp   1
 Largest concise Abelian subgroup C1      NOp   1
                         Standard orientation:                         
 ---------------------------------------------------------------------
 Center     Atomic      Atomic             Coordinates (Angstroms)
 Number     Number       Type             X           Y           Z
 ---------------------------------------------------------------------
      1          6           0       -2.623676   -0.013841   -0.527444
      2          6           0       -1.540849    0.154436    0.530419
      3          6           0       -0.587022    1.300981    0.250530
      4          6           0        0.726362    0.547698   -0.014942
      5          6           0        1.880178    1.498196   -0.253445
      6          6           0        0.906524   -0.686365    0.964670
      7          6           0        1.632647   -1.425755   -0.260458
      8          6           0        0.356531   -0.750297   -0.867746
      9          6           0       -0.576906   -0.997533    0.430046
     10          1           0       -3.342874    0.807830   -0.492108
     11          1           0       -3.158237   -0.958143   -0.377066
     12          1           0       -2.202232   -0.045081   -1.538950
     13          1           0       -1.987029    0.237764    1.526795
     14          1           0       -0.500489    1.964472    1.118429
     15          1           0       -0.885581    1.902548   -0.615270
     16          1           0        1.882023    2.296663    0.499722
     17          1           0        1.793124    1.974996   -1.234527
     18          1           0        2.858753    1.015451   -0.192809
     19          1           0        1.226219   -0.605747    1.991051
     20          1           0        1.573337   -2.518769   -0.259775
     21          1           0        2.594419   -1.095202   -0.648274
     22          1           0        0.040155   -0.728612   -1.897094
     23          1           0       -0.934324   -2.013299    0.610099
 ---------------------------------------------------------------------
 Rotational constants (GHZ):           2.8016006           1.5899218           1.2597098
 Standard basis: 6-31G(2df,p) (6D, 7F)
 There are   349 symmetry adapted cartesian basis functions of A   symmetry.
 There are   322 symmetry adapted basis functions of A   symmetry.
   322 basis functions,   494 primitive gaussians,   349 cartesian basis functions
    34 alpha electrons       34 beta electrons
       nuclear repulsion energy       474.6888345160 Hartrees.
 NAtoms=   23 NActive=   23 NUniq=   23 SFac= 1.00D+00 NAtFMM=   60 NAOKFM=F Big=F
 Integral buffers will be    131072 words long.
 Raffenetti 2 integral format.
 Two-electron integral symmetry is turned on.
 One-electron integrals computed using PRISM.
 PrsmSu:  requested number of processors reduced to:  13 ShMem   1 Linda.
 NBasis=   322 RedAO= T EigKep=  3.27D-04  NBF=   322
 NBsUse=   322 1.00D-06 EigRej= -1.00D+00 NBFU=   322
 ExpMin= 1.61D-01 ExpMax= 3.05D+03 ExpMxC= 4.57D+02 IAcc=3 IRadAn=         5 AccDes= 0.00D+00
 Harris functional with IExCor=  402 and IRadAn=       5 diagonalized for initial guess.
 HarFok:  IExCor=  402 AccDes= 0.00D+00 IRadAn=         5 IDoV= 1 UseB2=F ITyADJ=14
 ICtDFT=  3500011 ScaDFX=  1.000000  1.000000  1.000000  1.000000
 FoFCou: FMM=F IPFlag=           0 FMFlag=      100000 FMFlg1=           0
         NFxFlg=           0 DoJE=T BraDBF=F KetDBF=T FulRan=T
         wScrn=  0.000000 ICntrl=       500 IOpCl=  0 I1Cent=   200000004 NGrid=           0
         NMat0=    1 NMatS0=      1 NMatT0=    0 NMatD0=    1 NMtDS0=    0 NMtDT0=    0
 Petite list used in FoFCou.
 Requested convergence on RMS density matrix=1.00D-08 within 128 cycles.
 Requested convergence on MAX density matrix=1.00D-06.
 Requested convergence on             energy=1.00D-06.
 No special actions if energy rises.
 Integral accuracy reduced to 1.0D-05 until final iterations.
 Initial convergence to 1.0D-05 achieved.  Increase integral accuracy.
 SCF Done:  E(RB3LYP) =  -351.322282766     A.U. after   12 cycles
            NFock= 12  Conv=0.71D-08     -V/T= 2.0091

 **********************************************************************

            Population analysis using the SCF density.

 **********************************************************************

 Orbital symmetries:
       Occupied  (A) (A) (A) (A) (A) (A) (A) (A) (A) (A) (A) (A)
                 (A) (A) (A) (A) (A) (A) (A) (A) (A) (A) (A) (A)
                 (A) (A) (A) (A) (A) (A) (A) (A) (A) (A)
       Virtual   (A) (A) (A) (A) (A) (A) (A) (A) (A) (A) (A) (A)
                 (A) (A) (A) (A) (A) (A) (A) (A) (A) (A) (A) (A)
                 (A) (A) (A) (A) (A) (A) (A) (A) (A) (A) (A) (A)
                 (A) (A) (A) (A) (A) (A) (A) (A) (A) (A) (A) (A)
                 (A) (A) (A) (A) (A) (A) (A) (A) (A) (A) (A) (A)
                 (A) (A) (A) (A) (A) (A) (A) (A) (A) (A) (A) (A)
                 (A) (A) (A) (A) (A) (A) (A) (A) (A) (A) (A) (A)
                 (A) (A) (A) (A) (A) (A) (A) (A) (A) (A) (A) (A)
                 (A) (A) (A) (A) (A) (A) (A) (A) (A) (A) (A) (A)
                 (A) (A) (A) (A) (A) (A) (A) (A) (A) (A) (A) (A)
                 (A) (A) (A) (A) (A) (A) (A) (A) (A) (A) (A) (A)
                 (A) (A) (A) (A) (A) (A) (A) (A) (A) (A) (A) (A)
                 (A) (A) (A) (A) (A) (A) (A) (A) (A) (A) (A) (A)
                 (A) (A) (A) (A) (A) (A) (A) (A) (A) (A) (A) (A)
                 (A) (A) (A) (A) (A) (A) (A) (A) (A) (A) (A) (A)
                 (A) (A) (A) (A) (A) (A) (A) (A) (A) (A) (A) (A)
                 (A) (A) (A) (A) (A) (A) (A) (A) (A) (A) (A) (A)
                 (A) (A) (A) (A) (A) (A) (A) (A) (A) (A) (A) (A)
                 (A) (A) (A) (A) (A) (A) (A) (A) (A) (A) (A) (A)
                 (A) (A) (A) (A) (A) (A) (A) (A) (A) (A) (A) (A)
                 (A) (A) (A) (A) (A) (A) (A) (A) (A) (A) (A) (A)
                 (A) (A) (A) (A) (A) (A) (A) (A) (A) (A) (A) (A)
                 (A) (A) (A) (A) (A) (A) (A) (A) (A) (A) (A) (A)
                 (A) (A) (A) (A) (A) (A) (A) (A) (A) (A) (A) (A)
 The electronic state is 1-A.
 Alpha  occ. eigenvalues --  -10.19312 -10.19022 -10.18879 -10.18683 -10.18322
 Alpha  occ. eigenvalues --  -10.17600 -10.16793 -10.16680 -10.16443  -0.90099
 Alpha  occ. eigenvalues --   -0.78564  -0.73695  -0.68440  -0.64430  -0.61730
 Alpha  occ. eigenvalues --   -0.60688  -0.54064  -0.49965  -0.48472  -0.46696
 Alpha  occ. eigenvalues --   -0.44027  -0.42494  -0.40653  -0.39947  -0.37964
 Alpha  occ. eigenvalues --   -0.37268  -0.34567  -0.32511  -0.31585  -0.31140
 Alpha  occ. eigenvalues --   -0.29805  -0.28605  -0.28227  -0.26689
 Alpha virt. eigenvalues --    0.09543   0.10277   0.10978   0.12596   0.13108
 Alpha virt. eigenvalues --    0.13243   0.14821   0.15412   0.16181   0.16678
 Alpha virt. eigenvalues --    0.17330   0.17966   0.18326   0.19557   0.20227
 Alpha virt. eigenvalues --    0.20591   0.21540   0.22034   0.23651   0.25415
 Alpha virt. eigenvalues --    0.26313   0.27366   0.27851   0.29770   0.36418
 Alpha virt. eigenvalues --    0.43120   0.44752   0.45473   0.46440   0.48124
 Alpha virt. eigenvalues --    0.48436   0.50506   0.51860   0.51927   0.54149
 Alpha virt. eigenvalues --    0.56641   0.58041   0.58540   0.60749   0.61611
 Alpha virt. eigenvalues --    0.61794   0.63431   0.66291   0.67406   0.68890
 Alpha virt. eigenvalues --    0.69718   0.70928   0.71884   0.72673   0.73847
 Alpha virt. eigenvalues --    0.74271   0.74444   0.75086   0.76960   0.77491
 Alpha virt. eigenvalues --    0.78081   0.79367   0.79640   0.80636   0.81421
 Alpha virt. eigenvalues --    0.83627   0.86934   0.87323   0.88891   0.90818
 Alpha virt. eigenvalues --    0.91276   0.96831   0.98260   1.02718   1.04266
 Alpha virt. eigenvalues --    1.10076   1.10287   1.12375   1.15863   1.19799
 Alpha virt. eigenvalues --    1.21063   1.22976   1.25233   1.30053   1.30945
 Alpha virt. eigenvalues --    1.31877   1.32868   1.36258   1.36970   1.38740
 Alpha virt. eigenvalues --    1.39730   1.42112   1.43028   1.46868   1.47211
 Alpha virt. eigenvalues --    1.48302   1.49861   1.53398   1.54170   1.55514
 Alpha virt. eigenvalues --    1.56438   1.57351   1.58609   1.61887   1.63635
 Alpha virt. eigenvalues --    1.64727   1.66178   1.68865   1.70800   1.71863
 Alpha virt. eigenvalues --    1.74293   1.74609   1.76833   1.81922   1.82865
 Alpha virt. eigenvalues --    1.85246   1.87171   1.88230   1.93125   1.94212
 Alpha virt. eigenvalues --    1.97793   1.98826   2.01283   2.03539   2.06807
 Alpha virt. eigenvalues --    2.13840   2.21050   2.26123   2.27503   2.28507
 Alpha virt. eigenvalues --    2.30878   2.33256   2.35425   2.36926   2.40123
 Alpha virt. eigenvalues --    2.41562   2.42930   2.44465   2.45918   2.49574
 Alpha virt. eigenvalues --    2.49670   2.52072   2.57021   2.57327   2.58033
 Alpha virt. eigenvalues --    2.64342   2.64951   2.66997   2.70457   2.72653
 Alpha virt. eigenvalues --    2.75174   2.78078   2.78661   2.79735   2.83130
 Alpha virt. eigenvalues --    2.83802   2.83888   2.88839   2.90277   2.90589
 Alpha virt. eigenvalues --    2.91978   2.92131   2.93857   2.95909   2.96685
 Alpha virt. eigenvalues --    2.98938   3.02063   3.04174   3.04982   3.05317
 Alpha virt. eigenvalues --    3.07817   3.09939   3.10800   3.13450   3.16850
 Alpha virt. eigenvalues --    3.17699   3.18897   3.20665   3.23190   3.23954
 Alpha virt. eigenvalues --    3.25179   3.28242   3.32576   3.35534   3.36338
 Alpha virt. eigenvalues --    3.38863   3.39590   3.43055   3.43255   3.49219
 Alpha virt. eigenvalues --    3.50092   3.51155   3.52688   3.57713   3.60979
 Alpha virt. eigenvalues --    3.62589   3.64671   3.66520   3.67867   3.70681
 Alpha virt. eigenvalues --    3.73200   3.74959   3.76868   3.79991   3.81086
 Alpha virt. eigenvalues --    3.82514   3.86559   3.89590   3.90687   3.93132
 Alpha virt. eigenvalues --    3.95489   3.96530   3.99594   4.02914   4.07291
 Alpha virt. eigenvalues --    4.10471   4.11730   4.15994   4.21150   4.26401
 Alpha virt. eigenvalues --    4.27847   4.28877   4.33231   4.38214   4.39550
 Alpha virt. eigenvalues --    4.41493   4.43684   4.44354   4.48444   4.50160
 Alpha virt. eigenvalues --    4.52482   4.55453   4.56468   4.58290   4.59050
 Alpha virt. eigenvalues --    4.59155   4.61371   4.62832   4.66393   4.66952
 Alpha virt. eigenvalues --    4.67831   4.69203   4.71893   4.72475   4.75190
 Alpha virt. eigenvalues --    4.76619   4.77693   4.79300   4.80922   4.81523
 Alpha virt. eigenvalues --    4.82483   4.85048   4.85804   4.86817   4.88541
 Alpha virt. eigenvalues --    4.90254   4.90961   4.94176   4.95582   4.99157
 Alpha virt. eigenvalues --    5.00705   5.04153   5.08999   5.13807   5.17158
 Alpha virt. eigenvalues --    5.18316   5.22046   5.33109   5.35255   5.38724
 Alpha virt. eigenvalues --    5.41760   5.45969   5.48098   5.53848   5.57238
 Alpha virt. eigenvalues --    5.58205   5.59903   5.63826   5.78946   5.81464
 Alpha virt. eigenvalues --    6.03952   6.15592   7.18833   7.48304  10.94873
 Alpha virt. eigenvalues --   11.55897  11.67979  11.91132  12.03143  12.15453
 Alpha virt. eigenvalues --   12.34015  12.97610  13.07456
          Condensed to atoms (all electrons):
               1          2          3          4          5          6
     1  C    5.007752   0.394799  -0.020142  -0.001692  -0.000096   0.002418
     2  C    0.394799   4.667637   0.355513  -0.045584   0.007792  -0.015196
     3  C   -0.020142   0.355513   5.127472   0.409137  -0.073174  -0.050682
     4  C   -0.001692  -0.045584   0.409137   4.323363   0.368083   0.355882
     5  C   -0.000096   0.007792  -0.073174   0.368083   5.231365  -0.060308
     6  C    0.002418  -0.015196  -0.050682   0.355882  -0.060308   5.039066
     7  C    0.000248   0.001984   0.010656  -0.021317   0.001117   0.321656
     8  C   -0.007148  -0.016998  -0.066693   0.354382  -0.051082  -0.060459
     9  C   -0.033119   0.445977  -0.046064  -0.015499   0.009114   0.316288
    10  H    0.366405  -0.019828  -0.003274   0.000213   0.000007  -0.000141
    11  H    0.369838  -0.026332   0.004174   0.000130   0.000003   0.000034
    12  H    0.372179  -0.022421  -0.007445  -0.000167  -0.000109   0.000373
    13  H   -0.051361   0.365216  -0.039205   0.001451  -0.000206   0.000211
    14  H    0.004468  -0.017003   0.335418  -0.015170  -0.003599  -0.004687
    15  H   -0.014341  -0.023693   0.347881  -0.018011  -0.000483   0.005797
    16  H    0.000001   0.000177  -0.009355  -0.012075   0.360921  -0.001429
    17  H   -0.000010  -0.000057  -0.000815  -0.012514   0.357333   0.005557
    18  H    0.000002  -0.000258   0.006282  -0.010302   0.354297  -0.007395
    19  H   -0.000100   0.000606  -0.001359  -0.034196  -0.000807   0.347592
    20  H    0.000001   0.000133  -0.000629   0.002490   0.000033  -0.014309
    21  H    0.000006  -0.000224   0.000337  -0.010676   0.002185  -0.019497
    22  H    0.000444  -0.000199   0.000495  -0.034043  -0.000651   0.012985
    23  H   -0.000786  -0.052658   0.009532   0.003773  -0.000589  -0.036814
               7          8          9         10         11         12
     1  C    0.000248  -0.007148  -0.033119   0.366405   0.369838   0.372179
     2  C    0.001984  -0.016998   0.445977  -0.019828  -0.026332  -0.022421
     3  C    0.010656  -0.066693  -0.046064  -0.003274   0.004174  -0.007445
     4  C   -0.021317   0.354382  -0.015499   0.000213   0.000130  -0.000167
     5  C    0.001117  -0.051082   0.009114   0.000007   0.000003  -0.000109
     6  C    0.321656  -0.060459   0.316288  -0.000141   0.000034   0.000373
     7  C    4.992818   0.332217  -0.009814  -0.000006  -0.000020  -0.000108
     8  C    0.332217   5.005885   0.317948   0.000165  -0.000255   0.004975
     9  C   -0.009814   0.317948   4.802245   0.003461  -0.003398  -0.008336
    10  H   -0.000006   0.000165   0.003461   0.609283  -0.030984  -0.032670
    11  H   -0.000020  -0.000255  -0.003398  -0.030984   0.609105  -0.032741
    12  H   -0.000108   0.004975  -0.008336  -0.032670  -0.032741   0.597687
    13  H   -0.000232   0.004609  -0.039393  -0.002273  -0.001674   0.006113
    14  H   -0.000308   0.006760   0.001372   0.000068  -0.000219  -0.000029
    15  H   -0.000285  -0.005887   0.000017   0.002471   0.000155   0.004154
    16  H   -0.000269   0.004865  -0.000253  -0.000000   0.000000  -0.000001
    17  H   -0.000273  -0.005486  -0.000220   0.000001   0.000000   0.000010
    18  H    0.001341  -0.001970   0.000241  -0.000000  -0.000000   0.000001
    19  H   -0.040836   0.013430  -0.037490   0.000002  -0.000002  -0.000001
    20  H    0.346825  -0.016898  -0.011343   0.000000   0.000004   0.000004
    21  H    0.376823  -0.023751   0.005239  -0.000000   0.000000   0.000003
    22  H   -0.041244   0.346617  -0.039456  -0.000051   0.000063   0.002884
    23  H   -0.002436  -0.032707   0.348163  -0.000153   0.003535  -0.000135
              13         14         15         16         17         18
     1  C   -0.051361   0.004468  -0.014341   0.000001  -0.000010   0.000002
     2  C    0.365216  -0.017003  -0.023693   0.000177  -0.000057  -0.000258
     3  C   -0.039205   0.335418   0.347881  -0.009355  -0.000815   0.006282
     4  C    0.001451  -0.015170  -0.018011  -0.012075  -0.012514  -0.010302
     5  C   -0.000206  -0.003599  -0.000483   0.360921   0.357333   0.354297
     6  C    0.000211  -0.004687   0.005797  -0.001429   0.005557  -0.007395
     7  C   -0.000232  -0.000308  -0.000285  -0.000269  -0.000273   0.001341
     8  C    0.004609   0.006760  -0.005887   0.004865  -0.005486  -0.001970
     9  C   -0.039393   0.001372   0.000017  -0.000253  -0.000220   0.000241
    10  H   -0.002273   0.000068   0.002471  -0.000000   0.000001  -0.000000
    11  H   -0.001674  -0.000219   0.000155   0.000000   0.000000  -0.000000
    12  H    0.006113  -0.000029   0.004154  -0.000001   0.000010   0.000001
    13  H    0.699872  -0.010133   0.005214  -0.000019   0.000002   0.000008
    14  H   -0.010133   0.655640  -0.044333   0.005638  -0.000519  -0.000092
    15  H    0.005214  -0.044333   0.648988  -0.000398   0.002773  -0.000120
    16  H   -0.000019   0.005638  -0.000398   0.605101  -0.034343  -0.033760
    17  H    0.000002  -0.000519   0.002773  -0.034343   0.608379  -0.033035
    18  H    0.000008  -0.000092  -0.000120  -0.033760  -0.033035   0.609581
    19  H    0.001127   0.001351  -0.000102   0.000973  -0.000120   0.000101
    20  H   -0.000002   0.000011   0.000009   0.000004   0.000009  -0.000325
    21  H    0.000008  -0.000011  -0.000017  -0.000226  -0.000064   0.005251
    22  H   -0.000170  -0.000150   0.001603  -0.000068   0.001259  -0.000075
    23  H   -0.001351  -0.000200  -0.000242   0.000008   0.000009  -0.000004
              19         20         21         22         23
     1  C   -0.000100   0.000001   0.000006   0.000444  -0.000786
     2  C    0.000606   0.000133  -0.000224  -0.000199  -0.052658
     3  C   -0.001359  -0.000629   0.000337   0.000495   0.009532
     4  C   -0.034196   0.002490  -0.010676  -0.034043   0.003773
     5  C   -0.000807   0.000033   0.002185  -0.000651  -0.000589
     6  C    0.347592  -0.014309  -0.019497   0.012985  -0.036814
     7  C   -0.040836   0.346825   0.376823  -0.041244  -0.002436
     8  C    0.013430  -0.016898  -0.023751   0.346617  -0.032707
     9  C   -0.037490  -0.011343   0.005239  -0.039456   0.348163
    10  H    0.000002   0.000000  -0.000000  -0.000051  -0.000153
    11  H   -0.000002   0.000004   0.000000   0.000063   0.003535
    12  H   -0.000001   0.000004   0.000003   0.002884  -0.000135
    13  H    0.001127  -0.000002   0.000008  -0.000170  -0.001351
    14  H    0.001351   0.000011  -0.000011  -0.000150  -0.000200
    15  H   -0.000102   0.000009  -0.000017   0.001603  -0.000242
    16  H    0.000973   0.000004  -0.000226  -0.000068   0.000008
    17  H   -0.000120   0.000009  -0.000064   0.001259   0.000009
    18  H    0.000101  -0.000325   0.005251  -0.000075  -0.000004
    19  H    0.684952   0.001204   0.000335  -0.000951   0.000320
    20  H    0.001204   0.651235  -0.048473   0.000823   0.004951
    21  H    0.000335  -0.048473   0.604293   0.000059  -0.000317
    22  H   -0.000951   0.000823   0.000059   0.685904   0.000337
    23  H    0.000320   0.004951  -0.000317   0.000337   0.703873
 Mulliken charges:
               1
     1  C   -0.389767
     2  C    0.000618
     3  C   -0.288061
     4  C    0.412341
     5  C   -0.501148
     6  C   -0.136942
     7  C   -0.268538
     8  C   -0.102520
     9  C   -0.005680
    10  H    0.107305
    11  H    0.108585
    12  H    0.115780
    13  H    0.062188
    14  H    0.085725
    15  H    0.088849
    16  H    0.114506
    17  H    0.112122
    18  H    0.110232
    19  H    0.063971
    20  H    0.084242
    21  H    0.108718
    22  H    0.063585
    23  H    0.053889
 Sum of Mulliken charges =  -0.00000
 Mulliken charges with hydrogens summed into heavy atoms:
               1
     1  C   -0.058097
     2  C    0.062806
     3  C   -0.113487
     4  C    0.412341
     5  C   -0.164288
     6  C   -0.072970
     7  C   -0.075579
     8  C   -0.038936
     9  C    0.048209
 Electronic spatial extent (au):  <R**2>=           1117.6868
 Charge=             -0.0000 electrons
 Dipole moment (field-independent basis, Debye):
    X=             -0.1004    Y=              0.2490    Z=              0.0101  Tot=              0.2687
 Quadrupole moment (field-independent basis, Debye-Ang):
   XX=            -56.8138   YY=            -57.1909   ZZ=            -55.9303
   XY=              0.1051   XZ=             -0.3531   YZ=              0.1937
 Traceless Quadrupole moment (field-independent basis, Debye-Ang):
   XX=             -0.1688   YY=             -0.5459   ZZ=              0.7147
   XY=              0.1051   XZ=             -0.3531   YZ=              0.1937
 Octapole moment (field-independent basis, Debye-Ang**2):
  XXX=              1.5446  YYY=              0.2831  ZZZ=              0.2311  XYY=             -2.1392
  XXY=             -0.2362  XXZ=              0.6573  XZZ=             -0.1672  YZZ=              1.9193
  YYZ=              0.3846  XYZ=              1.0436
 Hexadecapole moment (field-independent basis, Debye-Ang**3):
 XXXX=           -871.3560 YYYY=           -463.9459 ZZZZ=           -209.5106 XXXY=             -4.3787
 XXXZ=             -7.4905 YYYX=              2.1676 YYYZ=              0.8565 ZZZX=              0.9337
 ZZZY=              0.5163 XXYY=           -224.2398 XXZZ=           -182.5381 YYZZ=           -113.5103
 XXYZ=              1.6517 YYXZ=             -0.0035 ZZXY=              0.5426
 N-N= 4.746888345160D+02 E-N=-1.761822129684D+03  KE= 3.481670953246D+02
 PrsmSu:  requested number of processors reduced to:  13 ShMem   1 Linda.
 Calling FoFJK, ICntrl=      2127 FMM=F ISym2X=0 I1Cent= 0 IOpClX= 0 NMat=1 NMatS=1 NMatT=0.
 ***** Axes restored to original set *****
 -------------------------------------------------------------------
 Center     Atomic                   Forces (Hartrees/Bohr)
 Number     Number              X              Y              Z
 -------------------------------------------------------------------
      1        6          -0.005710965    0.000745566   -0.006044847
      2        6          -0.004752431    0.006182229   -0.002882791
      3        6           0.011904917   -0.004321713    0.001590635
      4        6           0.001583301   -0.010932503   -0.001492693
      5        6          -0.000897917    0.002995708    0.008128092
      6        6          -0.026993180   -0.021794746    0.013525908
      7        6          -0.025500856    0.009021357   -0.043395558
      8        6           0.030270878   -0.016147151   -0.009890637
      9        6           0.019442285    0.038158286    0.044221171
     10        1          -0.001734187   -0.000617757   -0.001389224
     11        1          -0.002030683   -0.001344139   -0.001778153
     12        1           0.001901750   -0.000891652   -0.000689506
     13        1          -0.001432723    0.001433202   -0.001247495
     14        1          -0.000049945   -0.002999375    0.002314401
     15        1           0.001245476   -0.001138362    0.000114946
     16        1          -0.001709550    0.001208755   -0.000988008
     17        1           0.000578581   -0.002003413    0.001698095
     18        1          -0.001175219    0.000495581    0.002243736
     19        1           0.008269718    0.003115113   -0.004173940
     20        1           0.004964133    0.001537401    0.000410688
     21        1           0.004844531   -0.004268374   -0.003898891
     22        1          -0.008917104    0.001374446    0.004876369
     23        1          -0.004100810    0.000191543   -0.001252298
 -------------------------------------------------------------------
 Cartesian Forces:  Max     0.044221171 RMS     0.011997809

 GradGradGradGradGradGradGradGradGradGradGradGradGradGradGradGradGradGrad
 Berny optimization.
 FormGI is forming the generalized inverse of G from B-inverse, IUseBI=4.
 Internal  Forces:  Max     0.021629511 RMS     0.004658058
 Search for a local minimum.
 Step number   1 out of a maximum of  138
 All quantities printed in internal units (Hartrees-Bohrs-Radians)
 Mixed Optimization -- RFO/linear search
 Second derivative matrix not updated -- first step.
 ITU=  0
     Eigenvalues ---    0.00460   0.00583   0.00677   0.01691   0.01915
     Eigenvalues ---    0.02034   0.02416   0.02502   0.02541   0.03086
     Eigenvalues ---    0.03320   0.03646   0.03792   0.03955   0.04366
     Eigenvalues ---    0.04784   0.05405   0.05499   0.05584   0.05635
     Eigenvalues ---    0.05734   0.05757   0.05986   0.06384   0.06572
     Eigenvalues ---    0.07358   0.07471   0.08082   0.10563   0.11251
     Eigenvalues ---    0.11455   0.12709   0.15843   0.16000   0.16000
     Eigenvalues ---    0.16000   0.16000   0.16000   0.16000   0.16845
     Eigenvalues ---    0.18623   0.19082   0.19663   0.24077   0.25605
     Eigenvalues ---    0.27983   0.30068   0.30602   0.30971   0.33944
     Eigenvalues ---    0.34102   0.34142   0.34158   0.34187   0.34254
     Eigenvalues ---    0.34284   0.34323   0.34485   0.34521   0.34610
     Eigenvalues ---    0.34995   0.36233   0.36348
 RFO step:  Lambda=-2.76682018D-02 EMin= 4.60069538D-03
 Linear search not attempted -- first point.
 Iteration  1 RMS(Cart)=  0.05940587 RMS(Int)=  0.00240174
 Iteration  2 RMS(Cart)=  0.00298967 RMS(Int)=  0.00120628
 Iteration  3 RMS(Cart)=  0.00000429 RMS(Int)=  0.00120628
 Iteration  4 RMS(Cart)=  0.00000000 RMS(Int)=  0.00120628
 Variable       Old X    -DE/DX   Delta X   Delta X   Delta X     New X
                                 (Linear)    (Quad)   (Total)
    R1        2.87829   0.00792   0.00000   0.02412   0.02412   2.90241
    R2        2.06460   0.00175   0.00000   0.00470   0.00470   2.06930
    R3        2.07016   0.00041   0.00000   0.00112   0.00112   2.07128
    R4        2.07159  -0.00137   0.00000  -0.00373  -0.00373   2.06786
    R5        2.86759   0.01622   0.00000   0.06694   0.06847   2.93605
    R6        2.84483   0.01093   0.00000   0.03451   0.03437   2.87920
    R7        2.06904   0.00056   0.00000   0.00152   0.00152   2.07056
    R8        2.90483  -0.00219   0.00000  -0.00295  -0.00222   2.90261
    R9        2.07092   0.00039   0.00000   0.00107   0.00107   2.07199
   R10        2.07063  -0.00007   0.00000  -0.00020  -0.00020   2.07043
   R11        2.86069   0.00423   0.00000   0.01255   0.01255   2.87323
   R12        2.99688  -0.00348   0.00000  -0.01399  -0.01529   2.98159
   R13        3.01697  -0.00364   0.00000  -0.02153  -0.02334   2.99362
   R14        2.07424  -0.00134   0.00000  -0.00364  -0.00364   2.07060
   R15        2.06788   0.00164   0.00000   0.00442   0.00442   2.07230
   R16        2.06519   0.00092   0.00000   0.00246   0.00246   2.06766
   R17        3.03234  -0.02163   0.00000  -0.08861  -0.08709   2.94525
   R18        3.03724  -0.01599   0.00000  -0.06794  -0.06838   2.96886
   R19        2.03719   0.00938   0.00000   0.02406   0.02406   2.06125
   R20        2.96001  -0.01561   0.00000  -0.04519  -0.04430   2.91571
   R21        2.06854   0.00066   0.00000   0.00177   0.00177   2.07031
   R22        2.05683  -0.00049   0.00000  -0.00129  -0.00129   2.05553
   R23        3.05686  -0.01412   0.00000  -0.07316  -0.07404   2.98282
   R24        2.03540   0.00988   0.00000   0.02526   0.02526   2.06066
   R25        2.06313   0.00156   0.00000   0.00419   0.00419   2.06732
    A1        1.94168   0.00126   0.00000   0.00443   0.00441   1.94608
    A2        1.92496   0.00321   0.00000   0.01868   0.01869   1.94365
    A3        1.95055  -0.00265   0.00000  -0.01346  -0.01344   1.93711
    A4        1.89930  -0.00264   0.00000  -0.01542  -0.01546   1.88384
    A5        1.88005   0.00018   0.00000  -0.00197  -0.00198   1.87807
    A6        1.86470   0.00051   0.00000   0.00713   0.00718   1.87188
    A7        1.98475   0.00092   0.00000   0.01174   0.01180   1.99656
    A8        1.90114   0.00540   0.00000   0.04068   0.04111   1.94225
    A9        1.92916  -0.00415   0.00000  -0.03607  -0.03602   1.89314
   A10        1.73492  -0.00268   0.00000  -0.00059  -0.00194   1.73298
   A11        1.94603   0.00184   0.00000   0.00424   0.00420   1.95023
   A12        1.96043  -0.00089   0.00000  -0.01476  -0.01447   1.94596
   A13        1.77078  -0.00235   0.00000  -0.00607  -0.00614   1.76463
   A14        1.94015   0.00451   0.00000   0.03121   0.03041   1.97055
   A15        1.97065  -0.00095   0.00000  -0.00410  -0.00324   1.96742
   A16        1.94550  -0.00123   0.00000  -0.00714  -0.00689   1.93862
   A17        1.94484   0.00182   0.00000   0.00160   0.00132   1.94616
   A18        1.89115  -0.00171   0.00000  -0.01432  -0.01439   1.87676
   A19        1.95061   0.00254   0.00000   0.04669   0.04691   1.99752
   A20        1.95166  -0.00332   0.00000  -0.05551  -0.05604   1.89561
   A21        1.86789   0.00130   0.00000   0.00645   0.00614   1.87403
   A22        2.09362   0.00263   0.00000   0.02318   0.02426   2.11787
   A23        2.21791  -0.00241   0.00000  -0.03920  -0.03830   2.17961
   A24        1.29077  -0.00293   0.00000  -0.01056  -0.01207   1.27870
   A25        1.92828  -0.00303   0.00000  -0.01629  -0.01624   1.91204
   A26        1.93286   0.00306   0.00000   0.01556   0.01557   1.94842
   A27        1.97838   0.00043   0.00000   0.00319   0.00317   1.98156
   A28        1.87377  -0.00035   0.00000  -0.00362  -0.00355   1.87022
   A29        1.85642   0.00171   0.00000   0.01051   0.01052   1.86694
   A30        1.88962  -0.00192   0.00000  -0.00994  -0.00998   1.87965
   A31        1.50911   0.00248   0.00000   0.05271   0.05393   1.56305
   A32        1.41044   0.00696   0.00000   0.04645   0.04702   1.45746
   A33        2.16954  -0.00196   0.00000   0.00526   0.00444   2.17398
   A34        1.64535  -0.00832   0.00000  -0.08248  -0.08779   1.55755
   A35        2.24871   0.00022   0.00000  -0.00702  -0.00839   2.24032
   A36        2.22042   0.00277   0.00000   0.01391   0.01219   2.23261
   A37        1.29600   0.00470   0.00000   0.01446   0.01182   1.30782
   A38        2.02096   0.00157   0.00000   0.01110   0.01043   2.03139
   A39        2.13170  -0.00685   0.00000  -0.06408  -0.06386   2.06784
   A40        1.96784   0.00394   0.00000   0.05217   0.05234   2.02018
   A41        2.03845  -0.00420   0.00000  -0.01158  -0.01104   2.02741
   A42        1.92981   0.00191   0.00000   0.00950   0.00782   1.93763
   A43        1.52555   0.00064   0.00000   0.04216   0.04324   1.56880
   A44        1.39934   0.00637   0.00000   0.04931   0.05037   1.44971
   A45        2.16780  -0.00268   0.00000  -0.00190  -0.00309   2.16471
   A46        1.66409  -0.01125   0.00000  -0.09740  -0.10143   1.56266
   A47        2.23763   0.00474   0.00000   0.01750   0.01612   2.25375
   A48        2.21468   0.00223   0.00000   0.00998   0.00853   2.22321
   A49        2.00497  -0.00462   0.00000  -0.05672  -0.05700   1.94798
   A50        1.88181  -0.00165   0.00000  -0.00197  -0.00181   1.88000
   A51        2.08441  -0.00117   0.00000  -0.00046   0.00007   2.08448
   A52        1.27101   0.00267   0.00000   0.01509   0.01358   1.28459
   A53        2.01244   0.00381   0.00000   0.03614   0.03598   2.04842
   A54        2.05265   0.00235   0.00000   0.01287   0.01261   2.06526
    D1       -1.21868   0.00041   0.00000   0.01863   0.01862  -1.20006
    D2       -3.13567  -0.00000   0.00000  -0.01082  -0.01091   3.13661
    D3        0.98567   0.00020   0.00000   0.00399   0.00411   0.98978
    D4        2.95520   0.00075   0.00000   0.02256   0.02251   2.97772
    D5        1.03821   0.00033   0.00000  -0.00690  -0.00701   1.03120
    D6       -1.12363   0.00054   0.00000   0.00791   0.00800  -1.11563
    D7        0.88360  -0.00031   0.00000   0.00996   0.00995   0.89355
    D8       -1.03339  -0.00072   0.00000  -0.01950  -0.01957  -1.05296
    D9        3.08795  -0.00052   0.00000  -0.00468  -0.00456   3.08339
   D10       -1.97566  -0.00412   0.00000  -0.04477  -0.04474  -2.02039
   D11        2.23732  -0.00339   0.00000  -0.04694  -0.04683   2.19049
   D12        0.10769  -0.00382   0.00000  -0.04844  -0.04833   0.05936
   D13        0.04172   0.00099   0.00000   0.00676   0.00713   0.04884
   D14       -2.02850   0.00172   0.00000   0.00459   0.00503  -2.02346
   D15        2.12507   0.00129   0.00000   0.00309   0.00353   2.12860
   D16        2.11209  -0.00074   0.00000  -0.00879  -0.00884   2.10325
   D17        0.04187  -0.00001   0.00000  -0.01097  -0.01093   0.03094
   D18       -2.08775  -0.00044   0.00000  -0.01246  -0.01243  -2.10018
   D19        2.68998   0.00311   0.00000   0.04807   0.04677   2.73675
   D20        1.31327   0.00187   0.00000   0.04527   0.04612   1.35939
   D21       -1.09092   0.00138   0.00000   0.02767   0.02806  -1.06286
   D22        0.60960   0.00132   0.00000   0.01965   0.01782   0.62743
   D23       -0.76711   0.00008   0.00000   0.01685   0.01717  -0.74993
   D24        3.11188  -0.00041   0.00000  -0.00074  -0.00089   3.11099
   D25       -1.45002   0.00105   0.00000   0.02108   0.01983  -1.43019
   D26       -2.82673  -0.00019   0.00000   0.01828   0.01918  -2.80755
   D27        1.05226  -0.00068   0.00000   0.00068   0.00112   1.05338
   D28       -3.08784  -0.00382   0.00000  -0.04535  -0.04354  -3.13138
   D29       -0.68549  -0.00070   0.00000  -0.01986  -0.01781  -0.70330
   D30        0.69540  -0.00425   0.00000  -0.04228  -0.04256   0.65284
   D31       -1.02148  -0.00043   0.00000  -0.01561  -0.01470  -1.03618
   D32        1.38087   0.00269   0.00000   0.00988   0.01102   1.39190
   D33        2.76176  -0.00086   0.00000  -0.01255  -0.01373   2.74804
   D34        1.09369  -0.00221   0.00000  -0.03781  -0.03685   1.05684
   D35       -2.78714   0.00092   0.00000  -0.01232  -0.01113  -2.79827
   D36       -1.40625  -0.00264   0.00000  -0.03475  -0.03588  -1.44213
   D37        0.80459  -0.00053   0.00000  -0.00059  -0.00011   0.80448
   D38       -1.26921  -0.00010   0.00000   0.00443   0.00496  -1.26426
   D39        2.88620  -0.00018   0.00000   0.00352   0.00400   2.89020
   D40       -1.53049  -0.00113   0.00000   0.00737   0.00625  -1.52423
   D41        2.67890  -0.00071   0.00000   0.01239   0.01132   2.69021
   D42        0.55112  -0.00079   0.00000   0.01148   0.01036   0.56148
   D43       -3.13696   0.00235   0.00000   0.02772   0.02831  -3.10865
   D44        1.07243   0.00278   0.00000   0.03275   0.03338   1.10580
   D45       -1.05535   0.00270   0.00000   0.03183   0.03242  -1.02293
   D46        2.54633  -0.00192   0.00000  -0.03296  -0.03407   2.51226
   D47        0.88984   0.00747   0.00000   0.06319   0.06407   0.95391
   D48       -1.36434  -0.00055   0.00000   0.00909   0.00968  -1.35466
   D49       -1.40222   0.00114   0.00000   0.00174   0.00081  -1.40140
   D50       -3.05870   0.01053   0.00000   0.09789   0.09895  -2.95975
   D51        0.97030   0.00250   0.00000   0.04379   0.04456   1.01486
   D52        0.76092  -0.00301   0.00000  -0.04787  -0.04924   0.71168
   D53       -0.89556   0.00638   0.00000   0.04828   0.04890  -0.84667
   D54        3.13343  -0.00164   0.00000  -0.00582  -0.00549   3.12795
   D55       -2.67637   0.00934   0.00000   0.12546   0.12719  -2.54918
   D56       -1.00291  -0.00261   0.00000   0.01575   0.01658  -0.98633
   D57        1.23530   0.00398   0.00000   0.06357   0.06439   1.29968
   D58        1.23605   0.00603   0.00000   0.08257   0.08394   1.31998
   D59        2.90950  -0.00593   0.00000  -0.02714  -0.02668   2.88282
   D60       -1.13547   0.00066   0.00000   0.02068   0.02113  -1.11434
   D61       -0.78358   0.00488   0.00000   0.06265   0.06315  -0.72043
   D62        0.88988  -0.00707   0.00000  -0.04706  -0.04747   0.84241
   D63        3.12809  -0.00049   0.00000   0.00076   0.00034   3.12843
   D64       -0.77794   0.00125   0.00000   0.04852   0.05041  -0.72752
   D65       -2.66390  -0.00490   0.00000  -0.01435  -0.01196  -2.67586
   D66        1.17834  -0.00073   0.00000   0.04615   0.04764   1.22597
   D67        0.62707   0.00909   0.00000   0.10597   0.10296   0.73002
   D68       -1.25890   0.00294   0.00000   0.04309   0.04058  -1.21831
   D69        2.58334   0.00711   0.00000   0.10359   0.10018   2.68352
   D70       -3.09005   0.00136   0.00000  -0.00903  -0.00824  -3.09829
   D71        1.30717  -0.00479   0.00000  -0.07190  -0.07061   1.23656
   D72       -1.13377  -0.00062   0.00000  -0.01141  -0.01102  -1.14479
   D73       -0.89551  -0.00436   0.00000  -0.05249  -0.05305  -0.94856
   D74        0.88660  -0.00412   0.00000  -0.03625  -0.03783   0.84878
   D75        2.85846  -0.00100   0.00000  -0.02103  -0.02224   2.83622
   D76       -2.39153  -0.00889   0.00000  -0.12396  -0.12153  -2.51306
   D77       -0.60942  -0.00865   0.00000  -0.10772  -0.10630  -0.71572
   D78        1.36244  -0.00552   0.00000  -0.09250  -0.09072   1.27172
   D79        1.31145  -0.00018   0.00000  -0.00229  -0.00113   1.31032
   D80        3.09356   0.00006   0.00000   0.01395   0.01409   3.10765
   D81       -1.21777   0.00319   0.00000   0.02917   0.02967  -1.18809
   D82        0.77054  -0.00106   0.00000  -0.04411  -0.04662   0.72392
   D83       -0.62356  -0.00825   0.00000  -0.10419  -0.10224  -0.72579
   D84        3.08981  -0.00108   0.00000   0.00838   0.00841   3.09822
   D85        2.72249   0.00172   0.00000  -0.03415  -0.03667   2.68582
   D86        1.32839  -0.00547   0.00000  -0.09423  -0.09229   1.23610
   D87       -1.24143   0.00170   0.00000   0.01834   0.01836  -1.22307
   D88       -1.29726   0.00444   0.00000   0.02111   0.01923  -1.27803
   D89       -2.69136  -0.00274   0.00000  -0.03897  -0.03639  -2.72775
   D90        1.02201   0.00442   0.00000   0.07360   0.07426   1.09627
   D91        1.06169  -0.00001   0.00000  -0.02285  -0.02199   1.03971
   D92       -0.88073   0.00399   0.00000   0.03407   0.03547  -0.84525
   D93       -2.80186  -0.00120   0.00000  -0.01194  -0.01016  -2.81202
   D94        2.57015   0.00332   0.00000   0.04279   0.03933   2.60948
   D95        0.62772   0.00733   0.00000   0.09971   0.09679   0.72452
   D96       -1.29341   0.00214   0.00000   0.05370   0.05117  -1.24225
   D97       -1.13200  -0.00237   0.00000  -0.06308  -0.06334  -1.19534
   D98       -3.07443   0.00163   0.00000  -0.00616  -0.00588  -3.08030
   D99        1.28762  -0.00356   0.00000  -0.05218  -0.05151   1.23612
         Item               Value     Threshold  Converged?
 Maximum Force            0.021630     0.000450     NO 
 RMS     Force            0.004658     0.000300     NO 
 Maximum Displacement     0.303193     0.001800     NO 
 RMS     Displacement     0.059923     0.001200     NO 
 Predicted change in Energy=-1.754206D-02
 GradGradGradGradGradGradGradGradGradGradGradGradGradGradGradGradGradGrad

                          Input orientation:                          
 ---------------------------------------------------------------------
 Center     Atomic      Atomic             Coordinates (Angstroms)
 Number     Number       Type             X           Y           Z
 ---------------------------------------------------------------------
      1          6           0        0.935357    0.048031   -0.031178
      2          6           0        2.465593    0.124417    0.076030
      3          6           0        3.106104   -1.003932    0.930739
      4          6           0        3.705888   -0.193251    2.089333
      5          6           0        4.439057   -1.027445    3.127769
      6          6           0        4.336800    1.129479    1.504737
      7          6           0        3.880058    1.897337    2.781798
      8          6           0        2.693683    0.979707    2.419734
      9          6           0        2.902963    1.332161    0.895447
     10          1           0        0.617153   -0.816083   -0.623745
     11          1           0        0.522450    0.948930   -0.499434
     12          1           0        0.477160   -0.042433    0.958411
     13          1           0        2.883463    0.153522   -0.936436
     14          1           0        3.884546   -1.557449    0.392365
     15          1           0        2.370719   -1.732833    1.288942
     16          1           0        5.098476   -1.743107    2.624196
     17          1           0        3.742899   -1.607944    3.744977
     18          1           0        5.065743   -0.434868    3.801040
     19          1           0        5.297266    1.182126    0.990434
     20          1           0        3.702803    2.972280    2.666357
     21          1           0        4.381959    1.683545    3.722845
     22          1           0        1.747252    0.839756    2.942971
     23          1           0        2.639138    2.337473    0.554078
 ---------------------------------------------------------------------
                    Distance matrix (angstroms):
                    1          2          3          4          5
     1  C    0.000000
     2  C    1.535887   0.000000
     3  C    2.596932   1.553691   0.000000
     4  C    3.497231   2.385925   1.535997   0.000000
     5  C    4.838544   3.812409   2.569875   1.520449   0.000000
     6  C    3.885663   2.559838   2.528938   1.577788   2.701298
     7  C    4.472586   3.530600   3.527434   2.209163   2.997754
     8  C    3.157009   2.505294   2.514364   1.584157   2.752509
     9  C    2.525687   1.523608   2.345175   2.096887   3.593131
    10  H    1.095026   2.188825   2.940508   4.158004   5.359616
    11  H    1.096073   2.187872   3.540387   4.259175   5.692317
    12  H    1.094265   2.181811   2.799391   3.424385   4.623093
    13  H    2.150752   1.095695   2.208078   3.154665   4.509137
    14  H    3.384475   2.223099   1.096448   2.184641   2.840919
    15  H    2.640919   2.220255   1.095626   2.189433   2.856025
    16  H    5.252689   4.112526   2.717300   2.151147   1.095715
    17  H    4.988375   4.253676   2.947926   2.178045   1.096612
    18  H    5.655013   4.577039   3.521739   2.199437   1.094156
    19  H    4.621267   3.158046   3.095740   2.373126   3.191698
    20  H    4.846306   4.043613   4.379348   3.217694   4.093015
    21  H    5.352258   4.404839   4.079975   2.578332   2.776120
    22  H    3.183012   3.040901   3.048728   2.373195   3.281220
    23  H    2.913236   2.270741   3.394838   3.146351   4.602854
                    6          7          8          9         10
     6  C    0.000000
     7  C    1.558559   0.000000
     8  C    1.886660   1.542925   0.000000
     9  C    1.571052   2.198285   1.578440   0.000000
    10  H    4.706530   5.441224   4.098732   3.485373   0.000000
    11  H    4.312606   4.789519   3.638234   2.785570   1.771918
    12  H    4.070463   4.320550   2.844856   2.788905   1.766735
    13  H    3.003998   4.226033   3.461571   2.178386   2.484768
    14  H    2.943040   4.200590   3.459124   3.092967   3.501137
    15  H    3.479205   4.205337   2.956496   3.135651   2.752053
    16  H    3.175703   3.842163   3.638482   4.155253   5.611662
    17  H    3.586763   3.637790   3.090802   4.179656   5.429831
    18  H    2.872550   2.807826   3.087992   4.030196   6.286016
    19  H    1.090768   2.393531   2.976998   2.400879   5.338714
    20  H    2.268751   1.095558   2.247107   2.542805   5.890476
    21  H    2.286708   1.087742   2.245832   3.210153   6.270148
    22  H    2.976276   2.386067   1.090457   2.402184   4.091502
    23  H    2.290210   2.587728   2.308067   1.093978   3.926909
                   11         12         13         14         15
    11  H    0.000000
    12  H    1.763566   0.000000
    13  H    2.529432   3.069061   0.000000
    14  H    4.287299   3.771732   2.386482   0.000000
    15  H    3.715675   2.559739   2.962017   1.768130   0.000000
    16  H    6.159882   5.198431   4.602345   2.547384   3.037049
    17  H    5.909646   4.569554   5.075137   3.355983   2.816129
    18  H    6.407066   5.411990   5.249021   3.778158   3.906214
    19  H    5.007290   4.973328   3.255349   3.139862   4.141349
    20  H    4.922481   4.733956   4.647239   5.071737   5.080335
    21  H    5.767418   5.086113   5.127900   4.673709   4.651947
    22  H    3.655437   2.515923   4.100206   4.101245   3.121336
    23  H    2.741954   3.240615   2.655366   4.092384   4.144812
                   16         17         18         19         20
    16  H    0.000000
    17  H    1.764088   0.000000
    18  H    1.759978   1.768945   0.000000
    19  H    3.356440   4.217589   3.250813   0.000000
    20  H    4.917780   4.705686   3.841064   2.925010   0.000000
    21  H    3.669110   3.353026   2.227408   2.924941   1.799517
    22  H    4.243053   3.258382   3.656956   4.065984   2.906605
    23  H    5.194696   5.192922   4.910911   2.931020   2.448690
                   21         22         23
    21  H    0.000000
    22  H    2.874346   0.000000
    23  H    3.675069   2.957267   0.000000
 Stoichiometry    C9H14
 Framework group  C1[X(C9H14)]
 Deg. of freedom    63
 Full point group                 C1      NOp   1
 Largest Abelian subgroup         C1      NOp   1
 Largest concise Abelian subgroup C1      NOp   1
                         Standard orientation:                         
 ---------------------------------------------------------------------
 Center     Atomic      Atomic             Coordinates (Angstroms)
 Number     Number       Type             X           Y           Z
 ---------------------------------------------------------------------
      1          6           0       -2.666030    0.065732   -0.507823
      2          6           0       -1.526222    0.134824    0.519315
      3          6           0       -0.541784    1.317910    0.306845
      4          6           0        0.759432    0.566513   -0.011783
      5          6           0        1.959295    1.465361   -0.265096
      6          6           0        0.860846   -0.689694    0.937466
      7          6           0        1.514286   -1.498884   -0.223280
      8          6           0        0.373963   -0.697602   -0.885270
      9          6           0       -0.555539   -1.026876    0.347238
     10          1           0       -3.368707    0.896409   -0.384118
     11          1           0       -3.229809   -0.869763   -0.416302
     12          1           0       -2.276367    0.111175   -1.529348
     13          1           0       -1.964216    0.146660    1.523591
     14          1           0       -0.427256    1.943427    1.200048
     15          1           0       -0.839700    1.973309   -0.519045
     16          1           0        2.006050    2.240954    0.507472
     17          1           0        1.884569    1.976459   -1.232439
     18          1           0        2.915603    0.934185   -0.242591
     19          1           0        1.157965   -0.650353    1.986250
     20          1           0        1.378650   -2.585667   -0.195846
     21          1           0        2.524588   -1.239479   -0.531796
     22          1           0        0.087292   -0.648712   -1.936234
     23          1           0       -0.918152   -2.052305    0.464690
 ---------------------------------------------------------------------
 Rotational constants (GHZ):           2.7830720           1.5920034           1.2487794
 Standard basis: 6-31G(2df,p) (6D, 7F)
 There are   349 symmetry adapted cartesian basis functions of A   symmetry.
 There are   322 symmetry adapted basis functions of A   symmetry.
   322 basis functions,   494 primitive gaussians,   349 cartesian basis functions
    34 alpha electrons       34 beta electrons
       nuclear repulsion energy       474.8434350042 Hartrees.
 NAtoms=   23 NActive=   23 NUniq=   23 SFac= 1.00D+00 NAtFMM=   60 NAOKFM=F Big=F
 Integral buffers will be    131072 words long.
 Raffenetti 2 integral format.
 Two-electron integral symmetry is turned on.
 One-electron integrals computed using PRISM.
 PrsmSu:  requested number of processors reduced to:  13 ShMem   1 Linda.
 NBasis=   322 RedAO= T EigKep=  3.05D-04  NBF=   322
 NBsUse=   322 1.00D-06 EigRej= -1.00D+00 NBFU=   322
 Initial guess from the checkpoint file:  "CC1CC2qCrC3CC2C13.chk"
 B after Tr=     0.000000   -0.000000    0.000000
         Rot=    0.999843   -0.010293   -0.000252    0.014422 Ang=  -2.03 deg.
 ExpMin= 1.61D-01 ExpMax= 3.05D+03 ExpMxC= 4.57D+02 IAcc=2 IRadAn=         4 AccDes= 0.00D+00
 Harris functional with IExCor=  402 and IRadAn=       4 diagonalized for initial guess.
 HarFok:  IExCor=  402 AccDes= 0.00D+00 IRadAn=         4 IDoV= 1 UseB2=F ITyADJ=14
 ICtDFT=  3500011 ScaDFX=  1.000000  1.000000  1.000000  1.000000
 FoFCou: FMM=F IPFlag=           0 FMFlag=      100000 FMFlg1=           0
         NFxFlg=           0 DoJE=T BraDBF=F KetDBF=T FulRan=T
         wScrn=  0.000000 ICntrl=       500 IOpCl=  0 I1Cent=   200000004 NGrid=           0
         NMat0=    1 NMatS0=      1 NMatT0=    0 NMatD0=    1 NMtDS0=    0 NMtDT0=    0
 Petite list used in FoFCou.
 Requested convergence on RMS density matrix=1.00D-08 within 128 cycles.
 Requested convergence on MAX density matrix=1.00D-06.
 Requested convergence on             energy=1.00D-06.
 No special actions if energy rises.
 Integral accuracy reduced to 1.0D-05 until final iterations.
 Initial convergence to 1.0D-05 achieved.  Increase integral accuracy.
 SCF Done:  E(RB3LYP) =  -351.338547557     A.U. after   10 cycles
            NFock= 10  Conv=0.72D-08     -V/T= 2.0090
 PrsmSu:  requested number of processors reduced to:  13 ShMem   1 Linda.
 Calling FoFJK, ICntrl=      2127 FMM=F ISym2X=0 I1Cent= 0 IOpClX= 0 NMat=1 NMatS=1 NMatT=0.
 ***** Axes restored to original set *****
 -------------------------------------------------------------------
 Center     Atomic                   Forces (Hartrees/Bohr)
 Number     Number              X              Y              Z
 -------------------------------------------------------------------
      1        6           0.000945787   -0.001354653   -0.001695991
      2        6          -0.004239026    0.000747308   -0.002368003
      3        6           0.001370121    0.003684792   -0.001215029
      4        6          -0.000436549    0.000896941   -0.002129087
      5        6          -0.001571170    0.003315738    0.001740090
      6        6          -0.005667056   -0.005627551    0.003237623
      7        6          -0.003814145    0.000418699   -0.005821230
      8        6           0.006753831   -0.006011690   -0.002783859
      9        6           0.004945944    0.000425736    0.011628984
     10        1          -0.000018002   -0.000009922   -0.000129570
     11        1           0.000473240   -0.000443599   -0.000744449
     12        1          -0.000175828   -0.000273709    0.000667337
     13        1           0.001351968   -0.000261560   -0.000010509
     14        1          -0.000838830   -0.000271320   -0.000356107
     15        1          -0.000432497   -0.000486797   -0.000559105
     16        1           0.000282468   -0.000041659   -0.000041431
     17        1          -0.000146495   -0.000070204   -0.000621666
     18        1          -0.001343117    0.000938326    0.000449010
     19        1           0.000480155    0.002860165   -0.001796795
     20        1           0.001476007   -0.000740828    0.000284682
     21        1           0.003763628    0.000161049    0.001339521
     22        1          -0.001551205    0.003700621    0.000925414
     23        1          -0.001609229   -0.001555885    0.000000170
 -------------------------------------------------------------------
 Cartesian Forces:  Max     0.011628984 RMS     0.002696784

 GradGradGradGradGradGradGradGradGradGradGradGradGradGradGradGradGradGrad
 Berny optimization.
 Using GEDIIS/GDIIS optimizer.
 FormGI is forming the generalized inverse of G from B-inverse, IUseBI=4.
 Internal  Forces:  Max     0.003880636 RMS     0.001144554
 Search for a local minimum.
 Step number   2 out of a maximum of  138
 All quantities printed in internal units (Hartrees-Bohrs-Radians)
 Mixed Optimization -- RFO/linear search
 Update second derivatives using D2CorX and points    1    2
 DE= -1.63D-02 DEPred=-1.75D-02 R= 9.27D-01
 TightC=F SS=  1.41D+00  RLast= 5.38D-01 DXNew= 5.0454D-01 1.6150D+00
 Trust test= 9.27D-01 RLast= 5.38D-01 DXMaxT set to 5.05D-01
 ITU=  1  0
 Use linear search instead of GDIIS.
     Eigenvalues ---    0.00460   0.00583   0.00683   0.01810   0.02042
     Eigenvalues ---    0.02066   0.02410   0.02520   0.02918   0.03178
     Eigenvalues ---    0.03193   0.03275   0.03815   0.04059   0.04383
     Eigenvalues ---    0.04784   0.05345   0.05491   0.05570   0.05614
     Eigenvalues ---    0.05762   0.05772   0.05973   0.06166   0.06582
     Eigenvalues ---    0.07310   0.07410   0.08040   0.10653   0.11283
     Eigenvalues ---    0.11432   0.12913   0.15934   0.15993   0.16000
     Eigenvalues ---    0.16000   0.16000   0.16000   0.16101   0.16879
     Eigenvalues ---    0.18722   0.19069   0.19374   0.22879   0.25762
     Eigenvalues ---    0.28432   0.30128   0.30600   0.31178   0.33947
[...]
 040026,-0.00068533,-0.00016312,-0.00142128,-0.00107085,-0.00139642,0.0
 0154839,-0.00189504,0.00071416,0.00008628,0.00017115,0.00004808,0.0006
 6163,0.00010683,0.00004694,0.00009624,-0.00006080,-0.00013710,-0.00009
 993,0.00124142,0.00010628,-0.10005455,0.12800450,-0.00015613,0.0021395
 4,-0.00059015,-0.01380649,0.01115036,0.00941449,0.09023732,-0.06898018
 ,-0.11266277,0.01928239,-0.01281125,-0.01275617,0.00113061,-0.00025962
 ,0.00082843,-0.00005338,0.00053165,0.00122102,0.00076159,-0.00112520,0
 .00007912,-0.00347098,-0.00108633,-0.00291685,-0.00149009,0.00156689,-
 0.00209656,0.00004134,-0.00019786,-0.00005033,-0.00078220,-0.00002946,
 -0.00036004,-0.00005759,0.00005445,0.00007238,-0.00026243,-0.00065270,
 0.00137368,-0.09758794,0.07547159,0.12335889,0.00101472,0.00057461,-0.
 00098130,0.00883398,0.00969710,-0.00486509,-0.17076492,-0.11121057,0.0
 6286150,-0.01012284,-0.00892092,0.00610487,0.00011462,-0.00024153,0.00
 077360,-0.00010215,0.00033627,-0.00295459,0.00005038,-0.00073161,0.000
 34149,0.00108041,0.00012350,-0.00007627,-0.00108502,0.00136409,-0.0013
 6343,0.00027126,-0.00015340,0.00008186,0.00016782,0.00005313,-0.000082
 15,0.00034409,-0.00002034,0.00022458,-0.00013965,0.00126592,-0.0010556
 9,-0.01578070,-0.01392332,0.00774537,0.18516520,-0.00184008,0.00137389
 ,-0.00002788,-0.01359105,-0.01204047,0.00656831,-0.10952534,-0.1456038
 5,0.05471171,-0.01034683,-0.01109259,0.00572303,0.00037938,0.00009218,
 0.00034925,-0.00043804,-0.00085220,-0.00212578,-0.00020222,-0.00072603
 ,0.00023388,-0.00052203,0.00104903,0.00062362,0.00002968,-0.00159460,0
 .00154880,0.00052604,0.00025507,0.00032104,-0.00008055,0.00035235,-0.0
 0040216,0.00078212,-0.00024578,-0.00045204,0.00061157,-0.00200208,0.00
 069039,0.01211891,0.01090053,-0.00565385,0.12171118,0.16093984,0.00134
 911,-0.00052727,0.00153108,0.01210598,0.01074980,-0.00796581,0.0623038
 8,0.05476991,-0.07723998,-0.01899916,-0.01575631,0.01061405,0.00031692
 ,-0.00030502,0.00131395,-0.00205285,-0.00240383,-0.00351642,-0.0003452
 4,-0.00100166,0.00061034,0.00033320,0.00097038,0.00151450,-0.00105019,
 0.00047206,-0.00185619,-0.00023582,-0.00021447,-0.00045183,0.00013831,
 -0.00030671,0.00019231,-0.00057093,-0.00003143,0.00031035,-0.00113139,
 0.00274067,-0.00093686,0.01239954,0.01080940,-0.00574331,-0.06596591,-
 0.06010753,0.08184234,0.00000221,-0.00014843,0.00006431,0.00030793,0.0
 0020762,-0.00016523,0.00022197,-0.00003857,0.00099786,-0.01320302,0.00
 925916,0.00713713,-0.18518318,0.09899384,0.08146484,0.00079020,0.00003
 030,-0.00033014,-0.00026367,-0.00062670,-0.00029098,0.00050282,-0.0009
 3623,-0.00271156,-0.00014956,0.00080941,0.00024680,-0.00003430,-0.0000
 1359,-0.00003222,0.00006455,-0.00000069,0.00001573,0.00003348,0.000013
 82,-0.00000868,-0.00001291,-0.00003771,-0.00006691,0.00007689,-0.00034
 668,-0.00079917,-0.00002571,0.00000701,0.00001503,0.20139284,-0.000020
 29,0.00012044,-0.00003960,-0.00030329,-0.00022824,0.00006548,-0.000614
 20,0.00047001,-0.00030778,0.01406311,-0.01217662,-0.00813814,0.0989624
 1,-0.11621265,-0.05877492,0.00011303,0.00076097,-0.00096871,0.00045934
 ,0.00021603,-0.00015898,0.00048008,-0.00001313,0.00290490,0.00050755,-
 0.00077515,-0.00018036,0.00002570,0.00001207,0.00002138,-0.00004072,-0
 .00000996,-0.00001578,-0.00002058,-0.00001985,-0.00000004,0.00002647,0
 .00006236,0.00006733,0.00012854,0.00043211,0.00046618,-0.00007631,0.00
 010815,0.00002352,-0.11171751,0.12606045,0.00001106,-0.00009715,0.0000
 6474,0.00024243,0.00011847,0.00023112,-0.00005421,0.00021687,0.0012398
 1,-0.01902668,0.01283871,0.01125415,0.08164741,-0.05861101,-0.09453385
 ,0.00033902,-0.00052618,0.00100946,-0.00036504,-0.00044579,-0.00027138
 ,-0.00183156,0.00121147,-0.00308434,-0.00051323,0.00081659,0.00028148,
 -0.00000988,-0.00000162,-0.00001468,0.00005910,-0.00000001,0.00001742,
 0.00001566,0.00001548,-0.00000396,0.00000141,-0.00005036,-0.00002902,0
 .00025378,-0.00025024,-0.00017614,0.00004386,-0.00005171,-0.00013000,-
 0.08843611,0.06250428,0.10125603,-0.00000695,-0.00004924,-0.00000783,0
 .00016121,0.00004808,0.00023005,0.00066617,0.00019214,0.00027507,0.011
 78136,0.01143248,-0.00766571,-0.14864123,-0.10523746,0.06980905,-0.001
 17953,0.00154400,-0.00246273,0.00005202,-0.00013257,-0.00030271,0.0011
 4521,-0.00047056,0.00041680,0.00030055,0.00055945,-0.00028379,-0.00000
 896,0.00000213,0.00000487,0.00002502,-0.00000557,0.00001039,-0.0000116
 4,0.00000222,-0.00000316,0.00002882,-0.00001287,0.00004846,-0.00013173
 ,-0.00008477,-0.00000200,0.00004522,-0.00013907,0.00020027,-0.01538196
 ,-0.01592222,0.00937421,0.16004056,-0.00003746,0.00008069,0.00009078,0
 .00028156,-0.00018039,-0.00030317,-0.00009174,0.00050983,-0.00062607,-
 0.01157775,-0.01448710,0.00812413,-0.10538489,-0.15306018,0.07136181,0
 .00251822,0.00042400,0.00153822,-0.00035184,0.00018179,0.00037263,-0.0
 0086005,0.00063341,-0.00027358,-0.00025159,-0.00086613,0.00026100,0.00
 004737,0.00002657,0.00001485,-0.00000546,-0.00000183,-0.00002377,0.000
 01905,-0.00002282,-0.00002025,-0.00003343,0.00010553,-0.00002343,0.000
 03378,0.00010622,-0.00003750,0.00037948,0.00046150,0.00039972,0.010969
 36,0.01166886,-0.00771360,0.11489503,0.16694210,-0.00001244,-0.0000907
 1,-0.00006320,-0.00023901,0.00015094,0.00036382,0.00116655,0.00015584,
 0.00073570,0.01591002,0.01602717,-0.01136468,0.06964376,0.07144166,-0.
 09419104,-0.00299986,-0.00057302,-0.00182474,-0.00009693,-0.00071099,-
 0.00055156,-0.00029788,-0.00024263,0.00079467,0.00031085,0.00107623,-0
 .00002376,-0.00005025,-0.00002076,-0.00003714,0.00002854,-0.00002367,0
 .00002806,-0.00001277,0.00003609,0.00001431,0.00004229,-0.00013730,0.0
 0006761,-0.00001895,-0.00000555,-0.00005022,-0.00070143,-0.00041645,-0
 .00019903,0.00897549,0.00924612,-0.00676929,-0.07572978,-0.08187786,0.
 10163013,0.00005259,0.00017620,-0.00009654,0.00011805,-0.00065947,-0.0
 0083464,-0.00045833,0.00303330,-0.00132016,-0.00792447,-0.01089331,-0.
 01053273,-0.08845038,-0.05973112,-0.07498404,0.00063038,0.00004805,0.0
 0030680,0.00003069,-0.00002050,-0.00051609,-0.00006439,-0.00102393,0.0
 0008499,0.00004859,-0.00044427,0.00007188,0.00002189,-0.00000101,0.000
 01790,-0.00010233,0.00001416,-0.00000980,-0.00001537,-0.00003300,0.000
 01910,-0.00015283,0.00031343,-0.00017043,0.00010715,-0.00019130,-0.000
 33435,0.00027744,0.00017856,0.00034083,0.01042700,0.01408896,0.0173812
 7,-0.00835285,-0.01167711,-0.01512581,0.09303671,-0.00001858,-0.000212
 57,0.00008243,0.00039349,0.00059829,0.00063408,0.00157506,-0.00187298,
 0.00216051,0.00649724,0.01400318,0.01255331,-0.06059254,-0.13397237,-0
 .10834640,-0.00105504,0.00014396,-0.00023633,0.00102756,-0.00143817,0.
 00133091,0.00019688,0.00016048,-0.00108411,-0.00025784,0.00047886,-0.0
 0031102,-0.00003021,-0.00001319,-0.00000860,0.00009987,-0.00000637,0.0
 0000075,0.00001595,0.00001100,-0.00000778,0.00004251,-0.00012421,0.000
 02789,-0.00007751,-0.00002381,0.00012171,0.00019071,0.00002839,0.00002
 044,-0.00722379,-0.01004277,-0.01054637,-0.00674060,-0.01215389,-0.014
 82724,0.06576360,0.14674136,0.00004489,0.00050378,-0.00025554,-0.00069
 096,-0.00105796,-0.00062442,-0.00153213,0.00440005,-0.00116114,-0.0080
 9568,-0.01489195,-0.01716951,-0.07511360,-0.10698738,-0.18046178,0.000
 43568,-0.00108051,0.00002361,-0.00035837,-0.00028669,-0.00025582,0.000
 01440,-0.00048406,0.00068602,0.00008028,-0.00062519,0.00002488,0.00004
 981,-0.00000649,0.00002020,-0.00023142,0.00001953,-0.00003131,-0.00001
 812,-0.00002918,0.00003097,-0.00009870,0.00021015,-0.00014852,0.000218
 97,0.00011542,0.00032298,-0.00021510,-0.00015153,0.00007706,-0.0056860
 8,-0.00783977,-0.01002670,0.00562340,0.00839284,0.01086922,0.08468567,
 0.11846662,0.19626365,0.00005635,-0.00031215,-0.00034911,0.00017609,0.
 00075135,0.00094279,-0.00015630,0.00010089,0.00006256,-0.00203709,0.00
 326247,-0.00117412,0.00047140,-0.00041590,-0.00010022,-0.23334575,-0.0
 1655258,0.11623574,0.00101775,-0.00039880,-0.00284943,-0.00798598,-0.0
 0096518,0.00384586,-0.00579144,-0.00380398,0.01373114,-0.00017569,-0.0
 0006477,-0.00009653,0.00002836,0.00002692,0.00001578,0.00017314,0.0000
 6712,0.00000170,0.00002256,-0.00041827,-0.00076330,-0.00005773,-0.0003
 8850,-0.00018195,0.00003678,-0.00008870,-0.00003958,0.00008523,-0.0003
 0383,0.00028179,-0.00007328,0.00003980,0.00001696,0.00000510,0.0000044
 5,0.00006662,0.24714185,-0.00002112,0.00013882,-0.00007101,-0.00018877
 ,-0.00024815,0.00032004,0.00024643,0.00116809,0.00139334,-0.01542472,0
 .00717370,0.00697076,-0.00060388,0.00119317,-0.00074342,-0.01750562,-0
 .05401732,0.00899947,0.01132558,0.00320648,-0.00152350,-0.00049315,-0.
 00225520,-0.00000797,0.00293322,-0.00144398,-0.00445860,0.00005500,0.0
 0003595,0.00002563,-0.00004911,0.00001186,-0.00001855,0.00002756,-0.00
 003305,0.00001067,-0.00007154,0.00017821,0.00003473,0.00029421,-0.0002
 2647,-0.00051496,-0.00005000,-0.00042107,-0.00043240,0.00049031,-0.000
 24968,-0.00000240,0.00024237,-0.00032225,0.00021967,0.00019632,-0.0000
 9920,0.00027505,0.01892741,0.04250289,0.00008980,-0.00020832,-0.000357
 58,0.00023627,0.00097973,0.00141068,-0.00038640,0.00023590,0.00009015,
 0.00361382,-0.00387212,-0.00378769,0.00020432,-0.00034790,0.00019107,0
 .11667562,0.00821664,-0.12737586,0.01249284,0.00728479,-0.00209559,0.0
 0381100,0.00028458,-0.00438990,-0.00750520,-0.00298432,0.00855999,-0.0
 0013876,-0.00002975,-0.00006168,0.00002111,-0.00000752,0.00002637,0.00
 001424,-0.00000400,0.00002878,0.00038983,0.00003599,-0.00019193,0.0001
 3067,0.00023407,0.00030643,0.00011314,-0.00000826,0.00005812,-0.000211
 34,0.00034359,-0.00003572,-0.00013172,0.00013633,-0.00008710,0.0000883
 4,-0.00002761,-0.00007908,-0.13203592,-0.01057040,0.12559725,-0.000024
 13,0.00001466,0.00004226,0.00006523,0.00004507,0.00029980,0.00191225,-
 0.00081068,-0.00095910,-0.00265849,-0.00207496,-0.00108585,0.00015579,
 0.00009306,-0.00046157,-0.00206494,0.01115115,-0.00278254,-0.05433537,
 0.04422402,-0.00822976,0.00736415,-0.02255993,0.00066189,-0.00116743,-
 0.00214371,0.00240746,0.00001787,0.00001373,-0.00001702,-0.00001833,0.
 00000208,-0.00002432,0.00002819,-0.00000478,-0.00000973,-0.00000208,0.
 00001928,-0.00002475,-0.00027855,-0.00039069,-0.00057316,0.00012688,0.
 00015827,0.00034051,0.00016755,0.00003226,0.00017536,0.00000457,0.0001
 1095,-0.00000166,0.00014799,-0.00013247,0.00040660,-0.00006501,0.00039
 149,-0.00002536,0.05255632,0.00001472,0.00001899,-0.00002839,-0.000128
 29,0.00009189,-0.00011509,0.00074076,-0.00100130,0.00067098,-0.0022451
 9,-0.00392157,-0.00382006,-0.00032387,0.00036006,-0.00052704,-0.001993
 57,-0.00888656,0.00271804,0.04302315,-0.29547163,0.03175316,0.00538611
 ,-0.01135456,-0.00110503,0.00078850,0.00083799,0.00183069,-0.00000079,
 0.00000011,-0.00000013,-0.00006772,0.00004116,-0.00005497,0.00003051,-
 0.00001729,0.00000793,-0.00002515,0.00000602,-0.00006857,-0.00015587,-
 0.00012916,-0.00038174,-0.00020393,-0.00009086,-0.00021518,0.00006662,
 -0.00004868,0.00001528,-0.00001484,-0.00004745,0.00004200,-0.00000348,
 0.00017814,0.00003679,0.00015696,0.00010859,-0.00031547,-0.04465803,0.
 32397407,-0.00001824,0.00004650,0.00000060,0.00023837,0.00010466,0.000
 28351,-0.00072482,-0.00170615,0.00101846,-0.00110891,-0.00356369,-0.00
 447931,-0.00052433,0.00013202,-0.00035308,-0.00072965,-0.02194864,0.00
 472971,-0.00842786,0.03366373,-0.05355260,0.00082592,0.00003088,-0.002
 18372,0.00282591,-0.00282527,0.00122584,0.00002538,0.00001255,0.000012
 16,-0.00003750,0.00000597,-0.00001960,0.00000008,-0.00000686,-0.000006
 79,-0.00000198,-0.00000644,0.00001165,0.00009931,-0.00003029,-0.000033
 46,-0.00035538,-0.00037862,-0.00046181,0.00007022,0.00013035,0.0001003
 4,0.00009282,0.00007237,0.00026183,0.00042708,-0.00016529,0.00052805,0
 .00020819,0.00026763,0.00022546,0.01125294,-0.02965996,0.05490454,0.00
 016285,0.00023832,0.00014750,0.00147966,0.00082725,-0.00149030,0.00004
 454,0.00005376,0.00005121,-0.00203070,0.00091147,0.00085743,-0.0000808
 4,0.00038614,-0.00018109,0.00688447,-0.00446163,0.00941941,-0.12181453
 ,0.02918535,-0.11520442,-0.00735430,0.00632730,-0.01955306,-0.00217141
 ,-0.00284060,-0.00138138,0.00004192,-0.00001179,0.00003207,-0.00000505
 ,0.00000390,-0.00002130,0.00002635,0.00005175,0.00005176,-0.00019139,-
 0.00064304,-0.00042997,0.00005194,-0.00009948,-0.00006651,-0.00000456,
 -0.00001875,0.00000525,0.00019272,0.00010785,0.00030398,0.00001616,-0.
 00001003,0.00005621,0.00072482,0.00046516,0.00035578,0.00028053,-0.000
 23978,0.00008123,-0.00240014,0.00067549,-0.00380128,0.12629991,0.00007
 809,-0.00030383,-0.00011530,-0.00081850,0.00068549,-0.00144879,-0.0000
 5916,0.00025898,-0.00004996,-0.00077250,0.00242975,-0.00048467,-0.0002
 8424,-0.00149474,-0.00067628,-0.00855852,0.00152405,-0.00670167,0.0303
 8590,-0.06272408,0.04583103,-0.00385238,0.00299528,-0.01308622,-0.0018
 7743,-0.00335290,-0.00340510,-0.00015076,-0.00002321,0.00000537,0.0000
 2751,0.00000136,-0.00002201,-0.00000146,0.00001662,0.00003376,-0.00000
 252,-0.00025112,-0.00016049,0.00002395,0.00001304,0.00000976,0.0000038
 9,0.00000905,0.00003377,0.00006830,0.00024369,0.00013730,0.00004737,0.
 00023234,0.00011794,0.00059462,-0.00231009,0.00054949,0.00027198,0.000
 19150,0.00034006,0.01611462,-0.00520372,0.02481994,-0.03104473,0.06659
 324,0.00008115,-0.00070459,-0.00036161,-0.00170757,0.00120699,0.000075
 73,0.00000733,0.00006888,0.00007758,0.00062098,0.00211927,-0.00117227,
 -0.00027446,0.00039150,-0.00029869,-0.01511826,0.00454939,-0.01272928,
 -0.11498735,0.04384002,-0.22259679,0.00284526,-0.00150413,-0.00007367,
 -0.00124937,-0.00492145,-0.00437076,-0.00032296,-0.00006310,-0.0000436
 7,0.00003597,0.00003432,0.00000612,-0.00004365,-0.00000070,0.00003074,
 0.00008700,0.00002620,-0.00004935,0.00004152,-0.00007056,-0.00002583,-
 0.00007637,-0.00012976,0.00002505,0.00015266,0.00008131,0.00020621,0.0
 0021290,0.00014775,0.00039073,0.00038320,0.00034650,0.00118025,0.00018
 686,-0.00003421,-0.00020258,-0.00154458,0.00029708,-0.00234927,0.13071
 040,-0.04559472,0.24182455,-0.00056228,0.00006696,0.00051015,0.0003795
 5,0.00032147,0.00007560,0.00009400,0.00002216,-0.00027492,-0.00529691,
 -0.00689319,0.00334101,0.00028600,-0.00027367,0.00017032,-0.00806827,-
 0.00033106,0.00372676,-0.00534133,0.00495518,0.00871847,-0.23615693,-0
 .01860255,0.11579138,0.00435657,0.00017160,-0.00261706,0.00012214,0.00
 001006,-0.00005669,0.00008507,-0.00001780,-0.00007638,0.00013263,0.000
 00870,-0.00048219,-0.00005109,-0.00020522,-0.00013272,0.00004201,0.000
 09353,0.00015395,0.00032877,0.00039145,0.00030498,-0.00007054,0.000152
 59,-0.00014420,-0.00007247,0.00048705,-0.00028506,-0.00014521,-0.00002
 924,-0.00000821,0.00002969,-0.00040112,0.00207349,0.00014074,-0.000350
 10,-0.00003736,-0.00024528,0.00014485,-0.00010397,0.24988254,-0.000112
 11,0.00022912,-0.00004465,0.00034883,-0.00027362,-0.00002712,0.0009661
 2,0.00127642,0.00086601,0.01134125,0.00884102,-0.00973782,-0.00050063,
 0.00120828,-0.00079582,-0.00080651,-0.00220744,0.00017505,-0.00694143,
 0.00205901,0.01062236,-0.01758323,-0.05431730,0.00913002,-0.00584442,-
 0.00202993,0.00006895,0.00010294,0.00000291,0.00003314,-0.00004534,-0.
 00001715,0.00001855,-0.00004865,0.00004749,-0.00019597,-0.00005766,0.0
 0013117,-0.00001375,-0.00029041,-0.00042423,-0.00025869,-0.00051937,-0
 .00023355,0.00004098,0.00012587,-0.00032284,0.00027750,-0.00020801,-0.
 00023757,0.00038178,0.00015693,-0.00010843,0.00027963,-0.00026335,0.00
 331828,0.00014710,0.00006553,0.00002743,0.00046366,0.00003380,0.000215
 97,-0.00026819,0.02033671,0.04277787,0.00035416,-0.00005462,-0.0003033
 7,0.00094407,0.00087500,0.00034213,0.00023746,0.00035383,-0.00011426,-
 0.00147131,0.00185806,-0.00213859,-0.00019406,-0.00051336,0.00033364,0
 .00375560,-0.00009397,-0.00444542,-0.00674379,0.00169589,0.00519333,0.
 11558224,0.00957316,-0.12471508,0.01752174,-0.00234674,-0.00018702,-0.
 00027367,-0.00006065,0.00020366,-0.00001445,0.00001168,0.00010294,-0.0
 0073261,-0.00027474,-0.00006822,-0.00025736,-0.00048673,-0.00035567,-0
 .00004589,-0.00013592,0.00001717,-0.00003995,-0.00028181,-0.00004305,0
 .00003764,0.00007554,-0.00008411,0.00022689,-0.00013217,0.00011785,0.0
 0001714,-0.00001231,0.00006819,0.00205647,0.00018760,0.00192795,0.0002
 9764,0.00004455,0.00009327,-0.00006503,0.00036975,0.00029719,-0.131045
 02,-0.01099895,0.12346872,0.00095352,0.00010293,0.00059340,0.00170850,
 -0.00815898,0.00370026,0.00040058,-0.00153364,-0.00166484,-0.00416616,
 0.00135221,-0.00253691,0.00214526,0.00128245,-0.00061187,-0.00092150,0
 .02299493,-0.00908299,-0.00121050,0.00157678,0.00198733,0.00098148,-0.
 00847801,0.00195938,-0.06429388,0.06230803,-0.02153457,0.00000189,0.00
 021449,-0.00002219,-0.00006930,0.00015941,-0.00015880,-0.00010136,-0.0
 0005683,0.00006005,0.00010374,0.00035053,0.00000537,0.00015291,-0.0003
 5676,0.00027182,0.00016797,-0.00010152,0.00023726,0.00005947,-0.000128
 96,0.00025058,-0.00040626,0.00049969,-0.00057887,0.00003776,-0.0001146
 7,0.00006626,0.00016341,-0.00008109,0.00039900,0.00032693,-0.00071199,
 -0.00029893,0.00009231,-0.00033887,0.00006332,0.00013059,-0.00025686,-
 0.00014791,0.06374266,0.00082305,0.00026896,0.00054596,0.00708921,-0.0
 1306375,0.00993264,-0.00023573,-0.00225727,-0.00142124,0.00068602,-0.0
 0287034,0.00101672,0.00000390,0.00025085,-0.00037592,-0.00181467,-0.00
 049829,-0.00097296,-0.00060158,0.00177938,-0.00036305,0.00101266,-0.00
 310619,-0.00168270,0.06309443,-0.27287741,0.06731641,-0.00025406,0.000
 27244,-0.00018464,-0.00080640,0.00026195,-0.00047134,-0.00016995,-0.00
 003798,0.00002673,0.00021134,0.00024684,-0.00061152,0.00016881,-0.0007
 5515,0.00047723,0.00035143,-0.00066690,0.00027118,0.00004829,-0.000055
 57,0.00014449,0.00005251,0.00000675,0.00003073,0.00011438,0.00003437,0
 .00019136,0.00036666,0.00008881,0.00013688,0.00033908,0.00052833,0.000
 54095,0.00010228,0.00025334,0.00018220,-0.00005838,0.00003709,0.000346
 90,-0.07052328,0.29215974,0.00100633,0.00032423,0.00053485,0.00567158,
 -0.01517419,0.00717300,-0.00173121,-0.00310882,-0.00151643,-0.00284929
 ,0.00213006,-0.00661130,-0.00077948,0.00169922,0.00164377,0.00197124,0
 .00163105,-0.00334688,0.00168819,0.00311356,0.00081054,-0.01132180,0.0
 2006071,-0.00255569,-0.02151184,0.06570712,-0.06986786,0.00000687,0.00
 012123,-0.00012408,-0.00019780,0.00030930,-0.00002236,-0.00013064,0.00
 006578,0.00001190,0.00038001,0.00083881,0.00018309,0.00027385,-0.00038
 062,0.00046724,0.00044239,-0.00058263,0.00045513,-0.00043930,0.0004940
 8,-0.00050158,0.00006426,0.00011897,-0.00011215,0.00010039,-0.00017209
 ,0.00011872,-0.00006227,-0.00032718,0.00024246,-0.00014510,-0.00112486
 ,0.00004421,0.00012211,-0.00050296,0.00015961,0.00039767,-0.00016375,0
 .00028876,0.02704383,-0.07507701,0.07252503\\0.00000024,-0.00000041,-0
 .00000307,-0.00001241,0.00000127,-0.00000369,0.00001630,0.00000430,-0.
 00000802,0.00000649,-0.00000402,0.00000992,-0.00000772,0.00000053,-0.0
 0000066,-0.00000114,-0.00000708,0.00000403,-0.00000539,0.00000814,-0.0
 0000579,0.00000250,0.00001021,-0.00000426,-0.00000116,-0.00000959,0.00
 000881,0.00000263,-0.00000062,-0.00000252,0.00000573,-0.00000040,-0.00
 000218,0.00000191,-0.00000052,-0.00000258,0.00000643,0.00000204,0.0000
 0111,-0.00000719,-0.00000188,0.00000121,-0.00000454,0.00000124,0.00000
 411,-0.00000006,0.00000080,-0.00000527,0.00000136,0.00000153,0.0000015
 6,-0.00000107,-0.00000110,0.00000079,0.00000314,0.00000363,0.00000327,
 0.00000040,-0.00000285,0.00000408,-0.00000084,-0.00000105,0.00000129,-
 0.00000558,-0.00000627,-0.00000459,-0.00000003,0.00000212,0.00000243\\
 \@


 FROM AN ANONYMOUS WRITER, ON PERSPECTIVE:

 MAN, DESPITE HIS ARTISTIC PRETENSIONS, HIS SOPHISTICATION AND MANY 
 ACCOMPLISHMENTS, OWES THE FACT OF HIS EXISTENCE TO A SIX-INCH LAYER OF 
 TOPSOIL AND THE FACT THAT IT RAINS.
 Job cpu time:       0 days  2 hours 48 minutes 30.8 seconds.
 Elapsed time:       0 days  0 hours 42 minutes  8.7 seconds.
 File lengths (MBytes):  RWF=    175 Int=      0 D2E=      0 Chk=     10 Scr=      1
 Normal termination of Gaussian 16 at Sun May 28 15:47:20 2023.
### All Done ###
