### Starting Gaussian ###
 Entering Gaussian System, Link 0=g16
 Initial command:
 /cluster/software/gaussian/gaussian-16-A.03/avx2/g16/l1.exe "/local/scratch/linjian/Gau-15771.inp" -scrdir="/local/scratch/linjian/"
 Entering Link 1 = /cluster/software/gaussian/gaussian-16-A.03/avx2/g16/l1.exe PID=     15772.
  
 Copyright (c) 1988,1990,1992,1993,1995,1998,2003,2009,2016,
            Gaussian, Inc.  All Rights Reserved.
  
 This is part of the Gaussian(R) 16 program.  It is based on
 the Gaussian(R) 09 system (copyright 2009, Gaussian, Inc.),
 the Gaussian(R) 03 system (copyright 2003, Gaussian, Inc.),
 the Gaussian(R) 98 system (copyright 1998, Gaussian, Inc.),
 the Gaussian(R) 94 system (copyright 1995, Gaussian, Inc.),
 the Gaussian 92(TM) system (copyright 1992, Gaussian, Inc.),
 the Gaussian 90(TM) system (copyright 1990, Gaussian, Inc.),
 the Gaussian 88(TM) system (copyright 1988, Gaussian, Inc.),
 the Gaussian 86(TM) system (copyright 1986, Carnegie Mellon
 University), and the Gaussian 82(TM) system (copyright 1983,
 Carnegie Mellon University). Gaussian is a federally registered
 trademark of Gaussian, Inc.
  
 This software contains proprietary and confidential information,
 including trade secrets, belonging to Gaussian, Inc.
  
 This software is provided under written license and may be
 used, copied, transmitted, or stored only in accord with that
 written license.
  
 The following legend is applicable only to US Government
 contracts under FAR:
  
                    RESTRICTED RIGHTS LEGEND
  
 Use, reproduction and disclosure by the US Government is
 subject to restrictions as set forth in subparagraphs (a)
 and (c) of the Commercial Computer Software - Restricted
 Rights clause in FAR 52.227-19.
  
 Gaussian, Inc.
 340 Quinnipiac St., Bldg. 40, Wallingford CT 06492
  
  
 ---------------------------------------------------------------
 Warning -- This program may not be used in any manner that
 competes with the business of Gaussian, Inc. or will provide
 assistance to any competitor of Gaussian, Inc.  The licensee
 of this program is prohibited from giving any competitor of
 Gaussian, Inc. access to this program.  By using this program,
 the user acknowledges that Gaussian, Inc. is engaged in the
 business of creating and licensing software in the field of
 computational chemistry and represents and warrants to the
 licensee that it is not a competitor of Gaussian, Inc. and that
 it will not use this program in any manner prohibited above.
 ---------------------------------------------------------------
  

 Cite this work as:
 Gaussian 16, Revision A.03,
 M. J. Frisch, G. W. Trucks, H. B. Schlegel, G. E. Scuseria, 
 M. A. Robb, J. R. Cheeseman, G. Scalmani, V. Barone, 
 G. A. Petersson, H. Nakatsuji, X. Li, M. Caricato, A. V. Marenich, 
 J. Bloino, B. G. Janesko, R. Gomperts, B. Mennucci, H. P. Hratchian, 
 J. V. Ortiz, A. F. Izmaylov, J. L. Sonnenberg, D. Williams-Young, 
 F. Ding, F. Lipparini, F. Egidi, J. Goings, B. Peng, A. Petrone, 
 T. Henderson, D. Ranasinghe, V. G. Zakrzewski, J. Gao, N. Rega, 
 G. Zheng, W. Liang, M. Hada, M. Ehara, K. Toyota, R. Fukuda, 
 J. Hasegawa, M. Ishida, T. Nakajima, Y. Honda, O. Kitao, H. Nakai, 
 T. Vreven, K. Throssell, J. A. Montgomery, Jr., J. E. Peralta, 
 F. Ogliaro, M. J. Bearpark, J. J. Heyd, E. N. Brothers, K. N. Kudin, 
 V. N. Staroverov, T. A. Keith, R. Kobayashi, J. Normand, 
 K. Raghavachari, A. P. Rendell, J. C. Burant, S. S. Iyengar, 
 J. Tomasi, M. Cossi, J. M. Millam, M. Klene, C. Adamo, R. Cammi, 
 J. W. Ochterski, R. L. Martin, K. Morokuma, O. Farkas, 
 J. B. Foresman, and D. J. Fox, Gaussian, Inc., Wallingford CT, 2016.
 
 ******************************************
 Gaussian 16:  ES64L-G16RevA.03 25-Dec-2016
                28-May-2023 
 ******************************************
 %chk=CC1CC1CqFrqFrF.chk
 %NProcShared=20
 Will use up to   20 processors via shared memory.
 -----------------------------
 # opt freq b3lyp/6-31g(2df,p)
 -----------------------------
 1/18=20,19=15,26=3,38=1/1,3;
 2/9=110,12=2,17=6,18=5,40=1/2;
 3/5=1,6=6,7=104,11=2,25=1,30=1,71=1,74=-5/1,2,3;
 4//1;
 5/5=2,38=5/2;
 6/7=2,8=2,9=2,10=2,28=1/1;
 7//1,2,3,16;
 1/18=20,19=15,26=3/3(2);
 2/9=110/2;
 99//99;
 2/9=110/2;
 3/5=1,6=6,7=104,11=2,25=1,30=1,71=1,74=-5/1,2,3;
 4/5=5,16=3,69=1/1;
 5/5=2,38=5/2;
 7//1,2,3,16;
 1/18=20,19=15,26=3/3(-5);
 2/9=110/2;
 6/7=2,8=2,9=2,10=2,19=2,28=1/1;
 99/9=1/99;
 -------------------
 Title Card Required
 -------------------
 Symbolic Z-matrix:
 Charge =  0 Multiplicity = 1
 C                     1.05666  -0.05107  -0.00402 
 C                     2.54756  -0.0777    0.01462 
 C                     3.29903  -0.81906  -1.05968 
 C                     3.35101   0.69232  -1.01593 
 C                     4.60454   1.41402  -0.65454 
 F                     5.03736   1.09173   0.58623 
 F                     5.59336   1.11978  -1.52857 
 F                     4.40531   2.75087  -0.68915 
 H                     0.66281  -0.66039   0.81582 
 H                     0.64925  -0.44728  -0.93994 
 H                     0.68908   0.97109   0.12575 
 H                     2.93289  -0.10921   1.02956 
 H                     2.73583  -1.27862  -1.86606 
 H                     4.18307  -1.37885  -0.77289 
 H                     2.82764   1.22467  -1.80118 
 

 GradGradGradGradGradGradGradGradGradGradGradGradGradGradGradGradGradGrad
 Berny optimization.
 Initialization pass.
                           ----------------------------
                           !    Initial Parameters    !
                           ! (Angstroms and Degrees)  !
 --------------------------                            --------------------------
 ! Name  Definition              Value          Derivative Info.                !
 --------------------------------------------------------------------------------
 ! R1    R(1,2)                  1.4913         estimate D2E/DX2                !
 ! R2    R(1,9)                  1.0948         estimate D2E/DX2                !
 ! R3    R(1,10)                 1.0949         estimate D2E/DX2                !
 ! R4    R(1,11)                 1.094          estimate D2E/DX2                !
 ! R5    R(2,3)                  1.5061         estimate D2E/DX2                !
 ! R6    R(2,4)                  1.5167         estimate D2E/DX2                !
 ! R7    R(2,12)                 1.0861         estimate D2E/DX2                !
 ! R8    R(3,4)                  1.5129         estimate D2E/DX2                !
 ! R9    R(3,13)                 1.0857         estimate D2E/DX2                !
 ! R10   R(3,14)                 1.085          estimate D2E/DX2                !
 ! R11   R(4,5)                  1.4909         estimate D2E/DX2                !
 ! R12   R(4,15)                 1.0835         estimate D2E/DX2                !
 ! R13   R(5,6)                  1.353          estimate D2E/DX2                !
 ! R14   R(5,7)                  1.3521         estimate D2E/DX2                !
 ! R15   R(5,8)                  1.3521         estimate D2E/DX2                !
 ! A1    A(2,1,9)              109.8994         estimate D2E/DX2                !
 ! A2    A(2,1,10)             112.0995         estimate D2E/DX2                !
 ! A3    A(2,1,11)             110.5564         estimate D2E/DX2                !
 ! A4    A(9,1,10)             107.749          estimate D2E/DX2                !
 ! A5    A(9,1,11)             108.0789         estimate D2E/DX2                !
 ! A6    A(10,1,11)            108.329          estimate D2E/DX2                !
 ! A7    A(1,2,3)              119.9137         estimate D2E/DX2                !
 ! A8    A(1,2,4)              120.7996         estimate D2E/DX2                !
 ! A9    A(1,2,12)             111.5248         estimate D2E/DX2                !
 ! A10   A(3,2,12)             118.3764         estimate D2E/DX2                !
 ! A11   A(4,2,12)             117.4991         estimate D2E/DX2                !
 ! A12   A(2,3,13)             118.6415         estimate D2E/DX2                !
 ! A13   A(2,3,14)             118.1619         estimate D2E/DX2                !
 ! A14   A(4,3,13)             117.5278         estimate D2E/DX2                !
 ! A15   A(4,3,14)             118.672          estimate D2E/DX2                !
 ! A16   A(13,3,14)            113.6175         estimate D2E/DX2                !
 ! A17   A(2,4,5)              121.7652         estimate D2E/DX2                !
 ! A18   A(2,4,15)             119.0775         estimate D2E/DX2                !
 ! A19   A(3,4,5)              121.2972         estimate D2E/DX2                !
 ! A20   A(3,4,15)             116.9545         estimate D2E/DX2                !
 ! A21   A(5,4,15)             110.1192         estimate D2E/DX2                !
 ! A22   A(4,5,6)              112.0822         estimate D2E/DX2                !
 ! A23   A(4,5,7)              110.6613         estimate D2E/DX2                !
 ! A24   A(4,5,8)              110.3973         estimate D2E/DX2                !
 ! A25   A(6,5,7)              107.8787         estimate D2E/DX2                !
 ! A26   A(6,5,8)              107.8261         estimate D2E/DX2                !
 ! A27   A(7,5,8)              107.841          estimate D2E/DX2                !
 ! D1    D(9,1,2,3)            109.3427         estimate D2E/DX2                !
 ! D2    D(9,1,2,4)           -179.7632         estimate D2E/DX2                !
 ! D3    D(9,1,2,12)           -35.377          estimate D2E/DX2                !
 ! D4    D(10,1,2,3)           -10.4522         estimate D2E/DX2                !
 ! D5    D(10,1,2,4)            60.442          estimate D2E/DX2                !
 ! D6    D(10,1,2,12)         -155.1718         estimate D2E/DX2                !
 ! D7    D(11,1,2,3)          -131.4336         estimate D2E/DX2                !
 ! D8    D(11,1,2,4)           -60.5394         estimate D2E/DX2                !
 ! D9    D(11,1,2,12)           83.8467         estimate D2E/DX2                !
 ! D10   D(1,2,3,13)             3.3611         estimate D2E/DX2                !
 ! D11   D(1,2,3,14)          -140.7507         estimate D2E/DX2                !
 ! D12   D(12,2,3,13)          145.723          estimate D2E/DX2                !
 ! D13   D(12,2,3,14)            1.6112         estimate D2E/DX2                !
 ! D14   D(1,2,4,5)            140.7345         estimate D2E/DX2                !
 ! D15   D(1,2,4,15)            -3.0921         estimate D2E/DX2                !
 ! D16   D(12,2,4,5)            -1.6249         estimate D2E/DX2                !
 ! D17   D(12,2,4,15)         -145.4515         estimate D2E/DX2                !
 ! D18   D(13,3,4,5)          -140.0665         estimate D2E/DX2                !
 ! D19   D(13,3,4,15)           -0.5346         estimate D2E/DX2                !
 ! D20   D(14,3,4,5)             3.0562         estimate D2E/DX2                !
 ! D21   D(14,3,4,15)          142.5882         estimate D2E/DX2                !
 ! D22   D(2,4,5,6)             11.3426         estimate D2E/DX2                !
 ! D23   D(2,4,5,7)            131.8112         estimate D2E/DX2                !
 ! D24   D(2,4,5,8)           -108.8771         estimate D2E/DX2                !
 ! D25   D(3,4,5,6)            -60.0136         estimate D2E/DX2                !
 ! D26   D(3,4,5,7)             60.4549         estimate D2E/DX2                !
 ! D27   D(3,4,5,8)            179.7667         estimate D2E/DX2                !
 ! D28   D(15,4,5,6)           158.0193         estimate D2E/DX2                !
 ! D29   D(15,4,5,7)           -81.5121         estimate D2E/DX2                !
 ! D30   D(15,4,5,8)            37.7996         estimate D2E/DX2                !
 --------------------------------------------------------------------------------
 Trust Radius=3.00D-01 FncErr=1.00D-07 GrdErr=1.00D-06 EigMax=2.50D+02 EigMin=1.00D-04
 Number of steps in this run=     82 maximum allowed number of steps=    100.
 GradGradGradGradGradGradGradGradGradGradGradGradGradGradGradGradGradGrad

                          Input orientation:                          
 ---------------------------------------------------------------------
 Center     Atomic      Atomic             Coordinates (Angstroms)
 Number     Number       Type             X           Y           Z
 ---------------------------------------------------------------------
      1          6           0        1.056660   -0.051070   -0.004020
      2          6           0        2.547560   -0.077700    0.014620
      3          6           0        3.299030   -0.819060   -1.059680
      4          6           0        3.351010    0.692320   -1.015930
      5          6           0        4.604540    1.414020   -0.654540
      6          9           0        5.037360    1.091730    0.586230
      7          9           0        5.593360    1.119780   -1.528570
      8          9           0        4.405310    2.750870   -0.689150
      9          1           0        0.662810   -0.660390    0.815820
     10          1           0        0.649250   -0.447280   -0.939940
     11          1           0        0.689080    0.971090    0.125750
     12          1           0        2.932890   -0.109210    1.029560
     13          1           0        2.735830   -1.278620   -1.866060
     14          1           0        4.183070   -1.378850   -0.772890
     15          1           0        2.827640    1.224670   -1.801180
 ---------------------------------------------------------------------
                    Distance matrix (angstroms):
                    1          2          3          4          5
     1  C    0.000000
     2  C    1.491254   0.000000
     3  C    2.594696   1.506135   0.000000
     4  C    2.615460   1.516739   1.512906   0.000000
     5  C    3.893214   2.627579   2.618232   1.490903   0.000000
     6  F    4.183343   2.809521   3.062994   2.360132   1.353039
     7  F    4.927148   3.618327   3.040215   2.339584   1.352136
     8  F    4.419698   3.456492   3.755735   2.335800   1.352057
     9  H    1.094772   2.129256   3.239187   3.523003   4.690668
    10  H    1.094948   2.156700   2.678412   2.933252   4.380663
    11  H    1.093968   2.136880   3.379604   2.909814   4.016947
    12  H    2.142874   1.086083   2.236709   2.236360   2.819723
    13  H    2.791717   2.239333   1.085651   2.232884   3.494305
    14  H    3.482614   2.233396   1.084961   2.245248   2.826971
    15  H    2.827307   2.252053   2.224604   1.083481   2.123208
                    6          7          8          9         10
     6  F    0.000000
     7  F    2.186847   0.000000
     8  F    2.186053   2.185530   0.000000
     9  H    4.717979   5.742429   5.282796   0.000000
    10  H    4.894206   5.219807   4.939539   1.768698   0.000000
    11  H    4.374258   5.177919   4.200243   1.771613   1.774558
    12  H    2.463248   3.890057   3.647197   2.345794   3.034507
    13  H    4.114526   3.745891   4.517640   3.445591   2.429535
    14  H    2.946317   2.967006   4.136543   3.928411   3.658362
    15  H    3.255804   2.781101   2.460679   3.884408   2.877939
                   11         12         13         14         15
    11  H    0.000000
    12  H    2.649265   0.000000
    13  H    3.635614   3.129052   0.000000
    14  H    4.305547   2.534514   1.816472   0.000000
    15  H    2.889775   3.131039   2.505813   3.110127   0.000000
 Stoichiometry    C5H7F3
 Framework group  C1[X(C5H7F3)]
 Deg. of freedom    39
 Full point group                 C1      NOp   1
 Largest Abelian subgroup         C1      NOp   1
 Largest concise Abelian subgroup C1      NOp   1
                         Standard orientation:                         
 ---------------------------------------------------------------------
 Center     Atomic      Atomic             Coordinates (Angstroms)
 Number     Number       Type             X           Y           Z
 ---------------------------------------------------------------------
      1          6           0        2.778697   -0.649490   -0.127132
      2          6           0        1.517819   -0.041609    0.387171
      3          6           0        1.109929    1.336369   -0.063655
      4          6           0        0.313940    0.132968   -0.518750
      5          6           0       -1.075192   -0.105655   -0.032784
      6          9           0       -1.127547   -0.238870    1.312663
      7          9           0       -1.884950    0.919950   -0.380198
      8          9           0       -1.578571   -1.234718   -0.580401
      9          1           0        3.524738   -0.693044    0.672901
     10          1           0        3.207702   -0.071887   -0.952505
     11          1           0        2.597862   -1.669559   -0.478591
     12          1           0        1.331941   -0.323049    1.419555
     13          1           0        1.720431    1.843507   -0.804423
     14          1           0        0.669608    2.005220    0.668394
     15          1           0        0.396186   -0.143958   -1.563010
 ---------------------------------------------------------------------
 Rotational constants (GHZ):           3.6579505           1.3440601           1.2463044
 Standard basis: 6-31G(2df,p) (6D, 7F)
 There are   283 symmetry adapted cartesian basis functions of A   symmetry.
 There are   259 symmetry adapted basis functions of A   symmetry.
   259 basis functions,   401 primitive gaussians,   283 cartesian basis functions
    32 alpha electrons       32 beta electrons
       nuclear repulsion energy       412.1186877243 Hartrees.
 NAtoms=   15 NActive=   15 NUniq=   15 SFac= 1.00D+00 NAtFMM=   60 NAOKFM=F Big=F
 Integral buffers will be    131072 words long.
 Raffenetti 2 integral format.
 Two-electron integral symmetry is turned on.
 One-electron integrals computed using PRISM.
 PrsmSu:  requested number of processors reduced to:  13 ShMem   1 Linda.
 NBasis=   259 RedAO= T EigKep=  6.19D-04  NBF=   259
 NBsUse=   259 1.00D-06 EigRej= -1.00D+00 NBFU=   259
 ExpMin= 1.61D-01 ExpMax= 7.00D+03 ExpMxC= 1.05D+03 IAcc=3 IRadAn=         5 AccDes= 0.00D+00
 Harris functional with IExCor=  402 and IRadAn=       5 diagonalized for initial guess.
 HarFok:  IExCor=  402 AccDes= 0.00D+00 IRadAn=         5 IDoV= 1 UseB2=F ITyADJ=14
 ICtDFT=  3500011 ScaDFX=  1.000000  1.000000  1.000000  1.000000
 FoFCou: FMM=F IPFlag=           0 FMFlag=      100000 FMFlg1=           0
         NFxFlg=           0 DoJE=T BraDBF=F KetDBF=T FulRan=T
         wScrn=  0.000000 ICntrl=       500 IOpCl=  0 I1Cent=   200000004 NGrid=           0
         NMat0=    1 NMatS0=      1 NMatT0=    0 NMatD0=    1 NMtDS0=    0 NMtDT0=    0
 Petite list used in FoFCou.
 Requested convergence on RMS density matrix=1.00D-08 within 128 cycles.
 Requested convergence on MAX density matrix=1.00D-06.
 Requested convergence on             energy=1.00D-06.
 No special actions if energy rises.
 Integral accuracy reduced to 1.0D-05 until final iterations.
 Initial convergence to 1.0D-05 achieved.  Increase integral accuracy.
 SCF Done:  E(RB3LYP) =  -494.280670659     A.U. after   12 cycles
            NFock= 12  Conv=0.47D-08     -V/T= 2.0067

 **********************************************************************

            Population analysis using the SCF density.

 **********************************************************************

 Orbital symmetries:
       Occupied  (A) (A) (A) (A) (A) (A) (A) (A) (A) (A) (A) (A)
                 (A) (A) (A) (A) (A) (A) (A) (A) (A) (A) (A) (A)
                 (A) (A) (A) (A) (A) (A) (A) (A)
       Virtual   (A) (A) (A) (A) (A) (A) (A) (A) (A) (A) (A) (A)
                 (A) (A) (A) (A) (A) (A) (A) (A) (A) (A) (A) (A)
                 (A) (A) (A) (A) (A) (A) (A) (A) (A) (A) (A) (A)
                 (A) (A) (A) (A) (A) (A) (A) (A) (A) (A) (A) (A)
                 (A) (A) (A) (A) (A) (A) (A) (A) (A) (A) (A) (A)
                 (A) (A) (A) (A) (A) (A) (A) (A) (A) (A) (A) (A)
                 (A) (A) (A) (A) (A) (A) (A) (A) (A) (A) (A) (A)
                 (A) (A) (A) (A) (A) (A) (A) (A) (A) (A) (A) (A)
                 (A) (A) (A) (A) (A) (A) (A) (A) (A) (A) (A) (A)
                 (A) (A) (A) (A) (A) (A) (A) (A) (A) (A) (A) (A)
                 (A) (A) (A) (A) (A) (A) (A) (A) (A) (A) (A) (A)
                 (A) (A) (A) (A) (A) (A) (A) (A) (A) (A) (A) (A)
                 (A) (A) (A) (A) (A) (A) (A) (A) (A) (A) (A) (A)
                 (A) (A) (A) (A) (A) (A) (A) (A) (A) (A) (A) (A)
                 (A) (A) (A) (A) (A) (A) (A) (A) (A) (A) (A) (A)
                 (A) (A) (A) (A) (A) (A) (A) (A) (A) (A) (A) (A)
                 (A) (A) (A) (A) (A) (A) (A) (A) (A) (A) (A) (A)
                 (A) (A) (A) (A) (A) (A) (A) (A) (A) (A) (A) (A)
                 (A) (A) (A) (A) (A) (A) (A) (A) (A) (A) (A)
 The electronic state is 1-A.
 Alpha  occ. eigenvalues --  -24.71447 -24.71165 -24.70882 -10.41378 -10.20928
 Alpha  occ. eigenvalues --  -10.20717 -10.20040 -10.18476  -1.29249  -1.20871
 Alpha  occ. eigenvalues --   -1.20574  -0.88153  -0.74226  -0.70285  -0.62558
 Alpha  occ. eigenvalues --   -0.59175  -0.57562  -0.56793  -0.54507  -0.47442
 Alpha  occ. eigenvalues --   -0.45154  -0.45063  -0.44764  -0.42128  -0.41397
 Alpha  occ. eigenvalues --   -0.41196  -0.39445  -0.39323  -0.36553  -0.36109
 Alpha  occ. eigenvalues --   -0.30652  -0.29608
 Alpha virt. eigenvalues --    0.08683   0.09557   0.09657   0.13160   0.14502
 Alpha virt. eigenvalues --    0.15288   0.16100   0.17905   0.18647   0.21704
 Alpha virt. eigenvalues --    0.22624   0.24898   0.25592   0.27946   0.30588
 Alpha virt. eigenvalues --    0.39142   0.40837   0.43290   0.44793   0.47075
 Alpha virt. eigenvalues --    0.48693   0.50188   0.51078   0.53205   0.56524
 Alpha virt. eigenvalues --    0.58297   0.61715   0.63865   0.64703   0.66424
 Alpha virt. eigenvalues --    0.70303   0.72015   0.72859   0.73607   0.73961
 Alpha virt. eigenvalues --    0.75476   0.77480   0.78637   0.80587   0.82573
 Alpha virt. eigenvalues --    0.85559   0.88494   0.90124   0.91880   0.93885
 Alpha virt. eigenvalues --    0.94859   0.95975   1.00782   1.01101   1.03649
 Alpha virt. eigenvalues --    1.06432   1.06850   1.09235   1.09469   1.10987
 Alpha virt. eigenvalues --    1.14612   1.14794   1.17595   1.18782   1.22213
 Alpha virt. eigenvalues --    1.28043   1.28894   1.29597   1.33042   1.36088
 Alpha virt. eigenvalues --    1.38570   1.41800   1.44365   1.47781   1.51428
 Alpha virt. eigenvalues --    1.52354   1.53336   1.55627   1.58552   1.59427
 Alpha virt. eigenvalues --    1.62339   1.64510   1.66365   1.70638   1.75120
 Alpha virt. eigenvalues --    1.75880   1.76609   1.80673   1.83606   1.87042
 Alpha virt. eigenvalues --    1.88463   1.92513   1.94586   1.98320   2.02127
 Alpha virt. eigenvalues --    2.04293   2.11934   2.15727   2.21580   2.23329
 Alpha virt. eigenvalues --    2.26152   2.28993   2.30040   2.34070   2.37298
 Alpha virt. eigenvalues --    2.42719   2.47519   2.54202   2.64085   2.66984
 Alpha virt. eigenvalues --    2.68718   2.72025   2.80358   2.82439   2.84259
 Alpha virt. eigenvalues --    2.87380   2.90864   2.92072   2.96867   2.99685
 Alpha virt. eigenvalues --    3.02252   3.07237   3.08666   3.10038   3.12232
 Alpha virt. eigenvalues --    3.12749   3.13894   3.17641   3.19908   3.22877
 Alpha virt. eigenvalues --    3.26513   3.28379   3.34082   3.35741   3.43180
 Alpha virt. eigenvalues --    3.44053   3.46984   3.48630   3.53685   3.55938
 Alpha virt. eigenvalues --    3.61469   3.66215   3.68468   3.69141   3.74172
 Alpha virt. eigenvalues --    3.78812   3.84590   3.87681   3.93155   3.95349
 Alpha virt. eigenvalues --    4.00279   4.04318   4.07660   4.14194   4.16425
 Alpha virt. eigenvalues --    4.18034   4.19585   4.20011   4.21979   4.23563
 Alpha virt. eigenvalues --    4.24938   4.25512   4.27551   4.28142   4.29678
 Alpha virt. eigenvalues --    4.37590   4.40836   4.43979   4.45782   4.48864
 Alpha virt. eigenvalues --    4.49622   4.55965   4.58177   4.60195   4.61750
 Alpha virt. eigenvalues --    4.63437   4.65591   4.69013   4.70575   4.70716
 Alpha virt. eigenvalues --    4.72197   4.76236   4.78286   4.80553   4.81561
 Alpha virt. eigenvalues --    4.82728   4.84908   4.85649   4.89398   4.91080
 Alpha virt. eigenvalues --    4.95353   4.97298   5.00808   5.07104   5.14635
 Alpha virt. eigenvalues --    5.32713   5.42731   5.47929   5.52807   5.64815
 Alpha virt. eigenvalues --    5.68077   6.06828   6.42730   6.61844   6.62209
 Alpha virt. eigenvalues --    6.62636   6.62815   6.62971   6.63219   6.66294
 Alpha virt. eigenvalues --    6.69305   6.71558   6.79199   6.79874   6.94777
 Alpha virt. eigenvalues --    7.17899   7.18826   7.21524   7.37726   7.38522
 Alpha virt. eigenvalues --    7.42801   7.44327   7.51208   7.84535   9.58691
 Alpha virt. eigenvalues --    9.65412   9.70315  10.74973  11.56462  11.87123
 Alpha virt. eigenvalues --   12.26850  12.28988
          Condensed to atoms (all electrons):
               1          2          3          4          5          6
     1  C    5.003463   0.388472  -0.018426  -0.016270   0.000223   0.000309
     2  C    0.388472   4.723892   0.338347   0.268971   0.006010   0.006838
     3  C   -0.018426   0.338347   5.040916   0.235125   0.013457   0.000235
     4  C   -0.016270   0.268971   0.235125   5.288574   0.237216  -0.058001
     5  C    0.000223   0.006010   0.013457   0.237216   4.176794   0.433071
     6  F    0.000309   0.006838   0.000235  -0.058001   0.433071   8.777197
     7  F   -0.000026   0.002101   0.000165  -0.045608   0.426958  -0.039241
     8  F   -0.000040   0.000364   0.002100  -0.030184   0.430007  -0.040729
     9  H    0.371603  -0.019683   0.000212   0.003144  -0.000045  -0.000001
    10  H    0.369084  -0.018228  -0.012802  -0.001912   0.000092  -0.000003
    11  H    0.374504  -0.030593   0.004843  -0.007111   0.000105   0.000012
    12  H   -0.052398   0.392649  -0.030043  -0.043163   0.000844   0.008595
    13  H   -0.010378  -0.017745   0.373262  -0.013051   0.000411   0.000009
    14  H    0.003475  -0.017332   0.378996  -0.022912  -0.001380   0.001355
    15  H   -0.003932  -0.030942  -0.031001   0.364250  -0.015854   0.001640
               7          8          9         10         11         12
     1  C   -0.000026  -0.000040   0.371603   0.369084   0.374504  -0.052398
     2  C    0.002101   0.000364  -0.019683  -0.018228  -0.030593   0.392649
     3  C    0.000165   0.002100   0.000212  -0.012802   0.004843  -0.030043
     4  C   -0.045608  -0.030184   0.003144  -0.001912  -0.007111  -0.043163
     5  C    0.426958   0.430007  -0.000045   0.000092   0.000105   0.000844
     6  F   -0.039241  -0.040729  -0.000001  -0.000003   0.000012   0.008595
     7  F    8.787431  -0.042511   0.000000   0.000000   0.000000   0.000096
     8  F   -0.042511   8.769753  -0.000000   0.000000  -0.000006   0.000066
     9  H    0.000000  -0.000000   0.588358  -0.030221  -0.030896  -0.006703
    10  H    0.000000   0.000000  -0.030221   0.597299  -0.032141   0.005444
    11  H    0.000000  -0.000006  -0.030896  -0.032141   0.593094   0.001690
    12  H    0.000096   0.000066  -0.006703   0.005444   0.001690   0.615295
    13  H    0.000096  -0.000011   0.000340   0.006245   0.000015   0.003053
    14  H    0.000698   0.000044   0.000002   0.000006  -0.000133  -0.006005
    15  H   -0.000805  -0.000329  -0.000022   0.000700   0.002217   0.002837
              13         14         15
     1  C   -0.010378   0.003475  -0.003932
     2  C   -0.017745  -0.017332  -0.030942
     3  C    0.373262   0.378996  -0.031001
     4  C   -0.013051  -0.022912   0.364250
     5  C    0.000411  -0.001380  -0.015854
     6  F    0.000009   0.001355   0.001640
     7  F    0.000096   0.000698  -0.000805
     8  F   -0.000011   0.000044  -0.000329
     9  H    0.000340   0.000002  -0.000022
    10  H    0.006245   0.000006   0.000700
    11  H    0.000015  -0.000133   0.002217
    12  H    0.003053  -0.006005   0.002837
    13  H    0.580341  -0.037323  -0.005968
    14  H   -0.037323   0.568996   0.002471
    15  H   -0.005968   0.002471   0.602665
 Mulliken charges:
               1
     1  C   -0.409662
     2  C    0.006879
     3  C   -0.295386
     4  C   -0.159069
     5  C    0.292091
     6  F   -0.091285
     7  F   -0.089354
     8  F   -0.088525
     9  H    0.123912
    10  H    0.116437
    11  H    0.124400
    12  H    0.107744
    13  H    0.120703
    14  H    0.129041
    15  H    0.112072
 Sum of Mulliken charges =  -0.00000
 Mulliken charges with hydrogens summed into heavy atoms:
               1
     1  C   -0.044912
     2  C    0.114623
     3  C   -0.045642
     4  C   -0.046996
     5  C    0.292091
     6  F   -0.091285
     7  F   -0.089354
     8  F   -0.088525
 Electronic spatial extent (au):  <R**2>=            999.3889
 Charge=             -0.0000 electrons
 Dipole moment (field-independent basis, Debye):
    X=              2.2524    Y=              0.3416    Z=             -0.3525  Tot=              2.3052
 Quadrupole moment (field-independent basis, Debye-Ang):
   XX=            -46.3851   YY=            -45.6752   ZZ=            -44.4425
   XY=              0.0561   XZ=             -0.3648   YZ=             -0.1123
 Traceless Quadrupole moment (field-independent basis, Debye-Ang):
   XX=             -0.8842   YY=             -0.1743   ZZ=              1.0585
   XY=              0.0561   XZ=             -0.3648   YZ=             -0.1123
 Octapole moment (field-independent basis, Debye-Ang**2):
  XXX=            -28.5592  YYY=             -2.1919  ZZZ=              1.0325  XYY=             -8.4031
  XXY=             -1.8605  XXZ=              1.8173  XZZ=             -8.2727  YZZ=             -1.1059
  YYZ=              2.0634  XYZ=             -1.7789
 Hexadecapole moment (field-independent basis, Debye-Ang**3):
 XXXX=           -789.7680 YYYY=           -218.1278 ZZZZ=           -140.0635 XXXY=              5.8523
 XXXZ=              1.4456 YYYX=              4.5973 YYYZ=              1.8709 ZZZX=              3.5137
 ZZZY=              0.0211 XXYY=           -171.8453 XXZZ=           -152.4820 YYZZ=            -60.3674
 XXYZ=             -5.4034 YYXZ=             -3.0373 ZZXY=              1.1304
 N-N= 4.121186877243D+02 E-N=-1.989286464525D+03  KE= 4.909783956479D+02
 PrsmSu:  requested number of processors reduced to:  13 ShMem   1 Linda.
 Calling FoFJK, ICntrl=      2127 FMM=F ISym2X=0 I1Cent= 0 IOpClX= 0 NMat=1 NMatS=1 NMatT=0.
 ***** Axes restored to original set *****
 -------------------------------------------------------------------
 Center     Atomic                   Forces (Hartrees/Bohr)
 Number     Number              X              Y              Z
 -------------------------------------------------------------------
      1        6          -0.012646330    0.003089467   -0.000872114
      2        6           0.005416084   -0.000758755   -0.004087150
      3        6           0.007361326   -0.000821693    0.007214207
      4        6          -0.007004774   -0.006225646   -0.000697272
      5        6           0.001291036   -0.002230417    0.002734796
      6        9           0.002423709    0.003312687   -0.008812705
      7        9          -0.001246308    0.006113408    0.007319154
      8        9           0.005082407   -0.007824729    0.001155431
      9        1          -0.001683497   -0.000176190   -0.001316889
     10        1          -0.000734916    0.001653544   -0.000121922
     11        1          -0.003501217   -0.000008237    0.001173362
     12        1           0.008110963    0.000975724   -0.003948054
     13        1          -0.000743780    0.001653605    0.000712975
     14        1           0.001503048    0.001642357   -0.000643962
     15        1          -0.003627752   -0.000395125    0.000190144
 -------------------------------------------------------------------
 Cartesian Forces:  Max     0.012646330 RMS     0.004289427

 GradGradGradGradGradGradGradGradGradGradGradGradGradGradGradGradGradGrad
 Berny optimization.
 FormGI is forming the generalized inverse of G from B-inverse, IUseBI=4.
 Internal  Forces:  Max     0.018656382 RMS     0.004145047
 Search for a local minimum.
 Step number   1 out of a maximum of   82
 All quantities printed in internal units (Hartrees-Bohrs-Radians)
 Mixed Optimization -- RFO/linear search
 Second derivative matrix not updated -- first step.
 ITU=  0
     Eigenvalues ---    0.00882   0.00886   0.01887   0.02182   0.02544
     Eigenvalues ---    0.03060   0.03826   0.04070   0.05782   0.06004
     Eigenvalues ---    0.08687   0.08964   0.09355   0.10115   0.10992
     Eigenvalues ---    0.14598   0.16000   0.16000   0.16000   0.16180
     Eigenvalues ---    0.17604   0.25000   0.25000   0.25000   0.26085
     Eigenvalues ---    0.26414   0.31183   0.33312   0.33351   0.34247
     Eigenvalues ---    0.34267   0.34358   0.35269   0.35320   0.35402
     Eigenvalues ---    0.35577   0.54380   0.54570   0.54586
 RFO step:  Lambda=-5.78878489D-03 EMin= 8.81636240D-03
 Linear search not attempted -- first point.
 Iteration  1 RMS(Cart)=  0.05122657 RMS(Int)=  0.00122318
 Iteration  2 RMS(Cart)=  0.00126373 RMS(Int)=  0.00033815
 Iteration  3 RMS(Cart)=  0.00000063 RMS(Int)=  0.00033815
 Variable       Old X    -DE/DX   Delta X   Delta X   Delta X     New X
                                 (Linear)    (Quad)   (Total)
    R1        2.81806   0.01866   0.00000   0.05505   0.05505   2.87311
    R2        2.06882  -0.00028   0.00000  -0.00081  -0.00081   2.06801
    R3        2.06915  -0.00022   0.00000  -0.00064  -0.00064   2.06852
    R4        2.06730   0.00131   0.00000   0.00374   0.00374   2.07104
    R5        2.84618   0.00054   0.00000   0.00111   0.00111   2.84729
    R6        2.86622  -0.00560   0.00000  -0.01798  -0.01825   2.84797
    R7        2.05240  -0.00084   0.00000  -0.00234  -0.00234   2.05006
    R8        2.85898  -0.00388   0.00000  -0.01165  -0.01138   2.84760
    R9        2.05158  -0.00084   0.00000  -0.00235  -0.00235   2.04923
   R10        2.05028   0.00021   0.00000   0.00058   0.00058   2.05085
   R11        2.81740   0.00662   0.00000   0.01952   0.01952   2.83692
   R12        2.04748   0.00142   0.00000   0.00393   0.00393   2.05141
   R13        2.55687  -0.00810   0.00000  -0.01473  -0.01473   2.54214
   R14        2.55517  -0.00697   0.00000  -0.01264  -0.01264   2.54252
   R15        2.55502  -0.00852   0.00000  -0.01544  -0.01544   2.53958
    A1        1.91811   0.00188   0.00000   0.01155   0.01145   1.92955
    A2        1.95650   0.00003   0.00000  -0.00090  -0.00090   1.95560
    A3        1.92957   0.00405   0.00000   0.02532   0.02520   1.95477
    A4        1.88058  -0.00125   0.00000  -0.00921  -0.00920   1.87137
    A5        1.88633  -0.00272   0.00000  -0.01427  -0.01447   1.87186
    A6        1.89070  -0.00229   0.00000  -0.01422  -0.01423   1.87647
    A7        2.09289   0.00540   0.00000   0.03325   0.03310   2.12599
    A8        2.10835  -0.00050   0.00000  -0.02056  -0.02003   2.08832
    A9        1.94647   0.00489   0.00000   0.04235   0.04204   1.98851
   A10        2.06606  -0.00833   0.00000  -0.04829  -0.04897   2.01708
   A11        2.05075  -0.00437   0.00000  -0.03382  -0.03415   2.01659
   A12        2.07068  -0.00313   0.00000  -0.01066  -0.01068   2.06001
   A13        2.06231   0.00345   0.00000   0.01930   0.01922   2.08154
   A14        2.05125  -0.00105   0.00000  -0.00606  -0.00629   2.04496
   A15        2.07122   0.00024   0.00000  -0.01689  -0.01658   2.05463
   A16        1.98300   0.00087   0.00000   0.01030   0.01003   1.99302
   A17        2.12520   0.00032   0.00000   0.00402   0.00412   2.12932
   A18        2.07829  -0.00333   0.00000  -0.03238  -0.03229   2.04600
   A19        2.11704  -0.00708   0.00000  -0.03116  -0.03091   2.08613
   A20        2.04124   0.00342   0.00000   0.02025   0.02038   2.06162
   A21        1.92194   0.00320   0.00000   0.02183   0.02171   1.94365
   A22        1.95620   0.00579   0.00000   0.02354   0.02324   1.97944
   A23        1.93140   0.00890   0.00000   0.03379   0.03348   1.96489
   A24        1.92680   0.00398   0.00000   0.01567   0.01545   1.94224
   A25        1.88284  -0.00794   0.00000  -0.03123  -0.03159   1.85125
   A26        1.88192  -0.00484   0.00000  -0.01703  -0.01722   1.86470
   A27        1.88218  -0.00695   0.00000  -0.02892  -0.02913   1.85305
    D1        1.90839  -0.00153   0.00000  -0.05110  -0.05033   1.85806
    D2       -3.13746  -0.00006   0.00000  -0.04658  -0.04677   3.09896
    D3       -0.61744  -0.00145   0.00000  -0.07542  -0.07618  -0.69362
    D4       -0.18242  -0.00124   0.00000  -0.04671  -0.04587  -0.22830
    D5        1.05491   0.00023   0.00000  -0.04219  -0.04231   1.01260
    D6       -2.70826  -0.00116   0.00000  -0.07102  -0.07172  -2.77998
    D7       -2.29395  -0.00117   0.00000  -0.04564  -0.04476  -2.33871
    D8       -1.05661   0.00030   0.00000  -0.04112  -0.04120  -1.09781
    D9        1.46340  -0.00109   0.00000  -0.06996  -0.07061   1.39279
   D10        0.05866  -0.00241   0.00000  -0.03406  -0.03337   0.02530
   D11       -2.45656  -0.00472   0.00000  -0.06935  -0.06888  -2.52544
   D12        2.54335   0.00246   0.00000   0.02544   0.02473   2.56807
   D13        0.02812   0.00015   0.00000  -0.00985  -0.01079   0.01733
   D14        2.45628   0.00135   0.00000  -0.01128  -0.01089   2.44540
   D15       -0.05397  -0.00005   0.00000  -0.00661  -0.00645  -0.06042
   D16       -0.02836  -0.00039   0.00000  -0.00669  -0.00689  -0.03525
   D17       -2.53861  -0.00179   0.00000  -0.00202  -0.00246  -2.54106
   D18       -2.44462   0.00020   0.00000   0.00789   0.00777  -2.43686
   D19       -0.00933   0.00093   0.00000   0.03377   0.03377   0.02444
   D20        0.05334   0.00062   0.00000  -0.00861  -0.00854   0.04480
   D21        2.48863   0.00135   0.00000   0.01727   0.01746   2.50609
   D22        0.19797   0.00105   0.00000   0.06021   0.06007   0.25804
   D23        2.30054   0.00101   0.00000   0.05975   0.05969   2.36023
   D24       -1.90026   0.00059   0.00000   0.05536   0.05527  -1.84500
   D25       -1.04744   0.00144   0.00000   0.06444   0.06453  -0.98291
   D26        1.05514   0.00140   0.00000   0.06399   0.06414   1.11928
   D27        3.13752   0.00098   0.00000   0.05960   0.05972  -3.08594
   D28        2.75796   0.00033   0.00000   0.03892   0.03886   2.79681
   D29       -1.42266   0.00029   0.00000   0.03846   0.03847  -1.38418
   D30        0.65973  -0.00013   0.00000   0.03407   0.03405   0.69378
         Item               Value     Threshold  Converged?
 Maximum Force            0.018656     0.000450     NO 
 RMS     Force            0.004145     0.000300     NO 
 Maximum Displacement     0.132180     0.001800     NO 
 RMS     Displacement     0.051151     0.001200     NO 
 Predicted change in Energy=-3.135792D-03
 GradGradGradGradGradGradGradGradGradGradGradGradGradGradGradGradGradGrad

                          Input orientation:                          
 ---------------------------------------------------------------------
 Center     Atomic      Atomic             Coordinates (Angstroms)
 Number     Number       Type             X           Y           Z
 ---------------------------------------------------------------------
      1          6           0        1.024694   -0.030539   -0.011977
      2          6           0        2.543708   -0.088687    0.016001
      3          6           0        3.329261   -0.836685   -1.029762
      4          6           0        3.338028    0.670109   -1.015786
      5          6           0        4.603153    1.399408   -0.667524
      6          9           0        5.107307    1.053052    0.530619
      7          9           0        5.585824    1.184903   -1.561150
      8          9           0        4.407601    2.728667   -0.638090
      9          1           0        0.601343   -0.666102    0.771874
     10          1           0        0.617682   -0.378736   -0.966585
     11          1           0        0.649579    0.985499    0.155534
     12          1           0        2.965353   -0.100042    1.015486
     13          1           0        2.780391   -1.321231   -1.829698
     14          1           0        4.241418   -1.349535   -0.742090
     15          1           0        2.780058    1.192219   -1.786832
 ---------------------------------------------------------------------
                    Distance matrix (angstroms):
                    1          2          3          4          5
     1  C    0.000000
     2  C    1.520384   0.000000
     3  C    2.645144   1.506723   0.000000
     4  C    2.617261   1.507083   1.506884   0.000000
     5  C    3.908946   2.631149   2.598870   1.501234   0.000000
     6  F    4.258674   2.853145   3.027762   2.380832   1.345244
     7  F    4.968012   3.655667   3.075917   2.369603   1.345445
     8  F    4.410135   3.440845   3.745391   2.350383   1.343889
     9  H    1.094344   2.162761   3.273610   3.531378   4.727861
    10  H    1.094612   2.181554   2.750703   2.915953   4.374381
    11  H    1.095949   2.181988   3.450504   2.949445   4.059494
    12  H    2.196968   1.084843   2.204113   2.204107   2.786262
    13  H    2.837687   2.231991   1.084407   2.222352   3.474908
    14  H    3.552482   2.246476   1.085266   2.229346   2.773644
    15  H    2.779667   2.224137   2.234105   1.085560   2.149291
                    6          7          8          9         10
     6  F    0.000000
     7  F    2.149852   0.000000
     8  F    2.159434   2.150222   0.000000
     9  H    4.828809   5.806399   5.291507   0.000000
    10  H    4.944529   5.242224   4.911960   1.762125   0.000000
    11  H    4.473991   5.230037   4.217962   1.763515   1.766722
    12  H    2.480461   3.893200   3.579942   2.443013   3.085099
    13  H    4.077113   3.771376   4.524314   3.456243   2.512085
    14  H    2.853415   2.983566   4.082911   4.001163   3.758232
    15  H    3.287253   2.814837   2.515785   3.840199   2.795814
                   11         12         13         14         15
    11  H    0.000000
    12  H    2.698282   0.000000
    13  H    3.715173   3.101706   0.000000
    14  H    4.377147   2.505723   1.821617   0.000000
    15  H    2.890409   3.091481   2.513815   3.112486   0.000000
 Stoichiometry    C5H7F3
 Framework group  C1[X(C5H7F3)]
 Deg. of freedom    39
 Full point group                 C1      NOp   1
 Largest Abelian subgroup         C1      NOp   1
 Largest concise Abelian subgroup C1      NOp   1
                         Standard orientation:                         
 ---------------------------------------------------------------------
 Center     Atomic      Atomic             Coordinates (Angstroms)
 Number     Number       Type             X           Y           Z
 ---------------------------------------------------------------------
      1          6           0        2.807252   -0.657653   -0.104318
      2          6           0        1.529806   -0.004928    0.399318
      3          6           0        1.086795    1.351433   -0.084665
      4          6           0        0.341781    0.116084   -0.520058
      5          6           0       -1.062449   -0.108983   -0.039240
      6          9           0       -1.175047   -0.108211    1.301283
      7          9           0       -1.917810    0.828870   -0.485346
      8          9           0       -1.542261   -1.288243   -0.469546
      9          1           0        3.583534   -0.628120    0.666462
     10          1           0        3.207768   -0.149600   -0.987293
     11          1           0        2.653434   -1.709599   -0.370507
     12          1           0        1.298767   -0.231023    1.434879
     13          1           0        1.696134    1.850595   -0.829971
     14          1           0        0.588558    2.024378    0.605775
     15          1           0        0.468770   -0.224086   -1.543092
 ---------------------------------------------------------------------
 Rotational constants (GHZ):           3.7023688           1.3320301           1.2347592
 Standard basis: 6-31G(2df,p) (6D, 7F)
 There are   283 symmetry adapted cartesian basis functions of A   symmetry.
 There are   259 symmetry adapted basis functions of A   symmetry.
   259 basis functions,   401 primitive gaussians,   283 cartesian basis functions
    32 alpha electrons       32 beta electrons
       nuclear repulsion energy       412.1505351631 Hartrees.
 NAtoms=   15 NActive=   15 NUniq=   15 SFac= 1.00D+00 NAtFMM=   60 NAOKFM=F Big=F
 Integral buffers will be    131072 words long.
 Raffenetti 2 integral format.
 Two-electron integral symmetry is turned on.
 One-electron integrals computed using PRISM.
 PrsmSu:  requested number of processors reduced to:  13 ShMem   1 Linda.
 NBasis=   259 RedAO= T EigKep=  6.32D-04  NBF=   259
 NBsUse=   259 1.00D-06 EigRej= -1.00D+00 NBFU=   259
 Initial guess from the checkpoint file:  "CC1CC1CqFrqFrF.chk"
 B after Tr=     0.000000   -0.000000   -0.000000
         Rot=    0.999341    0.035640    0.004120   -0.005521 Ang=   4.16 deg.
 ExpMin= 1.61D-01 ExpMax= 7.00D+03 ExpMxC= 1.05D+03 IAcc=2 IRadAn=         4 AccDes= 0.00D+00
 Harris functional with IExCor=  402 and IRadAn=       4 diagonalized for initial guess.
 HarFok:  IExCor=  402 AccDes= 0.00D+00 IRadAn=         4 IDoV= 1 UseB2=F ITyADJ=14
 ICtDFT=  3500011 ScaDFX=  1.000000  1.000000  1.000000  1.000000
 FoFCou: FMM=F IPFlag=           0 FMFlag=      100000 FMFlg1=           0
         NFxFlg=           0 DoJE=T BraDBF=F KetDBF=T FulRan=T
         wScrn=  0.000000 ICntrl=       500 IOpCl=  0 I1Cent=   200000004 NGrid=           0
         NMat0=    1 NMatS0=      1 NMatT0=    0 NMatD0=    1 NMtDS0=    0 NMtDT0=    0
 Petite list used in FoFCou.
 Requested convergence on RMS density matrix=1.00D-08 within 128 cycles.
 Requested convergence on MAX density matrix=1.00D-06.
 Requested convergence on             energy=1.00D-06.
 No special actions if energy rises.
 Integral accuracy reduced to 1.0D-05 until final iterations.
 Initial convergence to 1.0D-05 achieved.  Increase integral accuracy.
 SCF Done:  E(RB3LYP) =  -494.283341521     A.U. after   10 cycles
            NFock= 10  Conv=0.54D-08     -V/T= 2.0067
 PrsmSu:  requested number of processors reduced to:  13 ShMem   1 Linda.
 Calling FoFJK, ICntrl=      2127 FMM=F ISym2X=0 I1Cent= 0 IOpClX= 0 NMat=1 NMatS=1 NMatT=0.
 ***** Axes restored to original set *****
 -------------------------------------------------------------------
 Center     Atomic                   Forces (Hartrees/Bohr)
 Number     Number              X              Y              Z
 -------------------------------------------------------------------
      1        6           0.000501325   -0.000780826    0.000253056
      2        6          -0.003037687    0.001320090    0.002400436
      3        6          -0.000764503   -0.001272671    0.000536132
      4        6           0.001887732    0.001114082   -0.002710768
      5        6           0.004669352    0.003883814    0.002264862
      6        9          -0.002689974   -0.003591584    0.000663413
      7        9          -0.001952860   -0.002018843   -0.002708138
      8        9          -0.003094888    0.000848896    0.000361498
      9        1           0.000215953   -0.000967744   -0.000520007
     10        1           0.001005220    0.000677734   -0.000961977
     11        1           0.001399654   -0.000122555    0.000714446
     12        1           0.001916299    0.001036323   -0.000478165
     13        1           0.000123064    0.000167342   -0.000503233
     14        1          -0.000794125    0.000623830    0.001292184
     15        1           0.000615439   -0.000917891   -0.000603740
 -------------------------------------------------------------------
 Cartesian Forces:  Max     0.004669352 RMS     0.001739902

 GradGradGradGradGradGradGradGradGradGradGradGradGradGradGradGradGradGrad
 Berny optimization.
 Using GEDIIS/GDIIS optimizer.
 FormGI is forming the generalized inverse of G from B-inverse, IUseBI=4.
 Internal  Forces:  Max     0.005869234 RMS     0.001603796
 Search for a local minimum.
 Step number   2 out of a maximum of   82
 All quantities printed in internal units (Hartrees-Bohrs-Radians)
 Mixed Optimization -- RFO/linear search
 Update second derivatives using D2CorX and points    1    2
 DE= -2.67D-03 DEPred=-3.14D-03 R= 8.52D-01
 TightC=F SS=  1.41D+00  RLast= 2.89D-01 DXNew= 5.0454D-01 8.6592D-01
 Trust test= 8.52D-01 RLast= 2.89D-01 DXMaxT set to 5.05D-01
 ITU=  1  0
 Use linear search instead of GDIIS.
     Eigenvalues ---    0.00791   0.00884   0.01872   0.02147   0.02538
     Eigenvalues ---    0.03048   0.03833   0.04127   0.05681   0.05861
     Eigenvalues ---    0.08264   0.08611   0.09450   0.09936   0.10595
     Eigenvalues ---    0.14211   0.15963   0.16000   0.16067   0.16417
     Eigenvalues ---    0.17965   0.24874   0.25000   0.25821   0.26159
     Eigenvalues ---    0.29182   0.31209   0.33246   0.34244   0.34266
     Eigenvalues ---    0.34348   0.35260   0.35314   0.35379   0.35564
     Eigenvalues ---    0.39433   0.54388   0.54568   0.55377
 RFO step:  Lambda=-1.24523419D-03 EMin= 7.91457589D-03
 Quartic linear search produced a step of -0.06571.
 Iteration  1 RMS(Cart)=  0.03592103 RMS(Int)=  0.00071839
 Iteration  2 RMS(Cart)=  0.00074372 RMS(Int)=  0.00003303
 Iteration  3 RMS(Cart)=  0.00000032 RMS(Int)=  0.00003303
 Variable       Old X    -DE/DX   Delta X   Delta X   Delta X     New X
                                 (Linear)    (Quad)   (Total)
    R1        2.87311  -0.00316  -0.00362   0.00376   0.00014   2.87325
    R2        2.06801   0.00011   0.00005   0.00010   0.00015   2.06816
    R3        2.06852   0.00025   0.00004   0.00052   0.00057   2.06908
    R4        2.07104  -0.00048  -0.00025  -0.00044  -0.00069   2.07036
    R5        2.84729  -0.00027  -0.00007  -0.00270  -0.00281   2.84448
    R6        2.84797  -0.00019   0.00120  -0.00262  -0.00138   2.84660
    R7        2.05006   0.00029   0.00015   0.00023   0.00039   2.05044
    R8        2.84760   0.00026   0.00075  -0.00163  -0.00089   2.84671
    R9        2.04923   0.00023   0.00015   0.00008   0.00023   2.04947
   R10        2.05085  -0.00062  -0.00004  -0.00148  -0.00151   2.04934
   R11        2.83692  -0.00288  -0.00128  -0.00350  -0.00478   2.83214
   R12        2.05141  -0.00033  -0.00026   0.00004  -0.00022   2.05119
   R13        2.54214   0.00051   0.00097  -0.00247  -0.00150   2.54064
   R14        2.54252   0.00069   0.00083  -0.00169  -0.00086   2.54166
   R15        2.53958   0.00130   0.00101  -0.00131  -0.00029   2.53929
    A1        1.92955   0.00024  -0.00075   0.00539   0.00465   1.93421
    A2        1.95560  -0.00130   0.00006  -0.00856  -0.00852   1.94708
    A3        1.95477  -0.00159  -0.00166  -0.00394  -0.00561   1.94916
    A4        1.87137   0.00068   0.00060   0.00283   0.00345   1.87482
    A5        1.87186   0.00092   0.00095   0.00362   0.00459   1.87645
    A6        1.87647   0.00126   0.00094   0.00133   0.00221   1.87868
    A7        2.12599  -0.00075  -0.00218   0.00311   0.00092   2.12691
    A8        2.08832  -0.00062   0.00132  -0.00605  -0.00477   2.08355
    A9        1.98851   0.00138  -0.00276   0.02031   0.01758   2.00609
   A10        2.01708  -0.00049   0.00322  -0.01666  -0.01343   2.00366
   A11        2.01659  -0.00054   0.00224  -0.01473  -0.01247   2.00412
   A12        2.06001   0.00152   0.00070   0.00482   0.00553   2.06554
   A13        2.08154  -0.00202  -0.00126  -0.01017  -0.01142   2.07011
   A14        2.04496   0.00019   0.00041  -0.00353  -0.00312   2.04183
   A15        2.05463  -0.00041   0.00109  -0.00136  -0.00028   2.05435
   A16        1.99302   0.00048  -0.00066   0.00629   0.00565   1.99868
   A17        2.12932  -0.00217  -0.00027  -0.01265  -0.01297   2.11635
   A18        2.04600   0.00140   0.00212  -0.00119   0.00094   2.04694
   A19        2.08613  -0.00050   0.00203  -0.00915  -0.00718   2.07895
   A20        2.06162   0.00013  -0.00134   0.00442   0.00306   2.06468
   A21        1.94365   0.00075  -0.00143   0.01172   0.01032   1.95397
   A22        1.97944  -0.00587  -0.00153  -0.01801  -0.01963   1.95981
   A23        1.96489  -0.00449  -0.00220  -0.00901  -0.01128   1.95360
   A24        1.94224  -0.00225  -0.00102  -0.00305  -0.00407   1.93818
   A25        1.85125   0.00526   0.00208   0.00896   0.01090   1.86215
   A26        1.86470   0.00446   0.00113   0.01247   0.01357   1.87827
   A27        1.85305   0.00419   0.00191   0.01190   0.01384   1.86689
    D1        1.85806  -0.00047   0.00331  -0.06593  -0.06265   1.79541
    D2        3.09896  -0.00080   0.00307  -0.06698  -0.06389   3.03507
    D3       -0.69362  -0.00061   0.00501  -0.07263  -0.06761  -0.76123
    D4       -0.22830  -0.00064   0.00301  -0.06750  -0.06451  -0.29280
    D5        1.01260  -0.00097   0.00278  -0.06856  -0.06575   0.94686
    D6       -2.77998  -0.00078   0.00471  -0.07421  -0.06947  -2.84944
    D7       -2.33871  -0.00020   0.00294  -0.06030  -0.05741  -2.39612
    D8       -1.09781  -0.00053   0.00271  -0.06136  -0.05865  -1.15646
    D9        1.39279  -0.00034   0.00464  -0.06700  -0.06237   1.33043
   D10        0.02530   0.00010   0.00219  -0.00209   0.00009   0.02539
   D11       -2.52544  -0.00003   0.00453  -0.00593  -0.00139  -2.52684
   D12        2.56807   0.00082  -0.00162   0.01633   0.01470   2.58278
   D13        0.01733   0.00069   0.00071   0.01249   0.01322   0.03055
   D14        2.44540   0.00040   0.00072   0.00007   0.00076   2.44616
   D15       -0.06042   0.00010   0.00042  -0.00055  -0.00014  -0.06056
   D16       -0.03525  -0.00047   0.00045  -0.00665  -0.00618  -0.04143
   D17       -2.54106  -0.00077   0.00016  -0.00727  -0.00708  -2.54814
   D18       -2.43686  -0.00076  -0.00051  -0.00456  -0.00504  -2.44190
   D19        0.02444   0.00012  -0.00222   0.01079   0.00856   0.03301
   D20        0.04480  -0.00019   0.00056  -0.00010   0.00047   0.04527
   D21        2.50609   0.00069  -0.00115   0.01525   0.01408   2.52017
   D22        0.25804   0.00026  -0.00395   0.06897   0.06503   0.32307
   D23        2.36023  -0.00049  -0.00392   0.06075   0.05691   2.41714
   D24       -1.84500   0.00026  -0.00363   0.06774   0.06414  -1.78085
   D25       -0.98291   0.00149  -0.00424   0.07839   0.07409  -0.90882
   D26        1.11928   0.00073  -0.00422   0.07017   0.06597   1.18525
   D27       -3.08594   0.00149  -0.00392   0.07717   0.07320  -3.01275
   D28        2.79681   0.00084  -0.00255   0.06597   0.06338   2.86020
   D29       -1.38418   0.00008  -0.00253   0.05776   0.05526  -1.32892
   D30        0.69378   0.00084  -0.00224   0.06475   0.06249   0.75627
         Item               Value     Threshold  Converged?
 Maximum Force            0.005869     0.000450     NO 
 RMS     Force            0.001604     0.000300     NO 
 Maximum Displacement     0.118507     0.001800     NO 
 RMS     Displacement     0.035984     0.001200     NO 
 Predicted change in Energy=-6.955583D-04
 GradGradGradGradGradGradGradGradGradGradGradGradGradGradGradGradGradGrad

                          Input orientation:                          
 ---------------------------------------------------------------------
 Center     Atomic      Atomic             Coordinates (Angstroms)
 Number     Number       Type             X           Y           Z
 ---------------------------------------------------------------------
      1          6           0        1.026836   -0.019951   -0.016198
      2          6           0        2.545825   -0.076960    0.018765
      3          6           0        3.336128   -0.842160   -1.008670
      4          6           0        3.337411    0.664143   -1.026827
      5          6           0        4.596640    1.396590   -0.674721
      6          9           0        5.111678    0.990341    0.498835
      7          9           0        5.556513    1.219143   -1.600009
      8          9           0        4.376974    2.719299   -0.586340
      9          1           0        0.595035   -0.689172    0.734440
     10          1           0        0.635089   -0.325546   -0.991891
     11          1           0        0.654898    0.989842    0.189439
     12          1           0        2.981341   -0.066146    1.012514
     13          1           0        2.796551   -1.343505   -1.804732
     14          1           0        4.245708   -1.343410   -0.696459
     15          1           0        2.778771    1.169792   -1.808127
 ---------------------------------------------------------------------
                    Distance matrix (angstroms):
                    1          2          3          4          5
     1  C    0.000000
     2  C    1.520460   0.000000
     3  C    2.644590   1.505235   0.000000
     4  C    2.613065   1.506354   1.506413   0.000000
     5  C    3.896632   2.618800   2.590833   1.498705   0.000000
     6  F    4.239326   2.820142   2.963648   2.362641   1.344447
     7  F    4.955985   3.655756   3.086870   2.358173   1.344991
     8  F    4.364857   3.396811   3.734396   2.344864   1.343734
     9  H    1.094425   2.166236   3.251989   3.529044   4.727471
    10  H    1.094911   2.175806   2.750052   2.878063   4.331308
    11  H    1.095585   2.177798   3.461314   2.963319   4.055804
    12  H    2.209179   1.085048   2.193913   2.195226   2.756003
    13  H    2.842980   2.234309   1.084530   2.219981   3.467761
    14  H    3.546186   2.237195   1.084464   2.228097   2.762468
    15  H    2.774125   2.224002   2.235561   1.085444   2.154227
                    6          7          8          9         10
     6  F    0.000000
     7  F    2.157632   0.000000
     8  F    2.169491   2.160857   0.000000
     9  H    4.824556   5.805824   5.259772   0.000000
    10  H    4.898333   5.193870   4.841204   1.764666   0.000000
    11  H    4.467507   5.223078   4.176926   1.766266   1.768100
    12  H    2.432769   3.886998   3.501832   2.481924   3.096744
    13  H    4.014109   3.771800   4.526433   3.423773   2.523662
    14  H    2.761344   3.016835   4.066320   3.975288   3.762964
    15  H    3.285838   2.785966   2.539289   3.832635   2.738183
                   11         12         13         14         15
    11  H    0.000000
    12  H    2.684195   0.000000
    13  H    3.742713   3.098817   0.000000
    14  H    4.372962   2.480043   1.824370   0.000000
    15  H    2.921213   3.086194   2.513362   3.115108   0.000000
 Stoichiometry    C5H7F3
 Framework group  C1[X(C5H7F3)]
 Deg. of freedom    39
 Full point group                 C1      NOp   1
 Largest Abelian subgroup         C1      NOp   1
 Largest concise Abelian subgroup C1      NOp   1
                         Standard orientation:                         
 ---------------------------------------------------------------------
 Center     Atomic      Atomic             Coordinates (Angstroms)
 Number     Number       Type             X           Y           Z
 ---------------------------------------------------------------------
      1          6           0        2.794496   -0.656273   -0.104470
      2          6           0        1.516697   -0.001758    0.396170
      3          6           0        1.073046    1.351290   -0.091853
      4          6           0        0.333895    0.113768   -0.529431
      5          6           0       -1.063519   -0.113143   -0.037640
      6          9           0       -1.154432   -0.020847    1.300551
      7          9           0       -1.926999    0.783880   -0.546319
      8          9           0       -1.508354   -1.330446   -0.392488
      9          1           0        3.592904   -0.570032    0.639084
     10          1           0        3.152834   -0.186330   -1.026196
     11          1           0        2.649314   -1.722538   -0.310159
     12          1           0        1.266954   -0.217139    1.429885
     13          1           0        1.678218    1.853110   -0.838947
     14          1           0        0.574478    2.016630    0.604433
     15          1           0        0.465664   -0.230272   -1.550442
 ---------------------------------------------------------------------
 Rotational constants (GHZ):           3.6897689           1.3474319           1.2466712
 Standard basis: 6-31G(2df,p) (6D, 7F)
 There are   283 symmetry adapted cartesian basis functions of A   symmetry.
 There are   259 symmetry adapted basis functions of A   symmetry.
   259 basis functions,   401 primitive gaussians,   283 cartesian basis functions
    32 alpha electrons       32 beta electrons
       nuclear repulsion energy       412.9874275618 Hartrees.
 NAtoms=   15 NActive=   15 NUniq=   15 SFac= 1.00D+00 NAtFMM=   60 NAOKFM=F Big=F
 Integral buffers will be    131072 words long.
 Raffenetti 2 integral format.
 Two-electron integral symmetry is turned on.
 One-electron integrals computed using PRISM.
 PrsmSu:  requested number of processors reduced to:  13 ShMem   1 Linda.
 NBasis=   259 RedAO= T EigKep=  6.29D-04  NBF=   259
 NBsUse=   259 1.00D-06 EigRej= -1.00D+00 NBFU=   259
 Initial guess from the checkpoint file:  "CC1CC1CqFrqFrF.chk"
 B after Tr=    -0.000000    0.000000   -0.000000
         Rot=    0.999793    0.020155   -0.000923   -0.002634 Ang=   2.33 deg.
 ExpMin= 1.61D-01 ExpMax= 7.00D+03 ExpMxC= 1.05D+03 IAcc=2 IRadAn=         4 AccDes= 0.00D+00
 Harris functional with IExCor=  402 and IRadAn=       4 diagonalized for initial guess.
 HarFok:  IExCor=  402 AccDes= 0.00D+00 IRadAn=         4 IDoV= 1 UseB2=F ITyADJ=14
 ICtDFT=  3500011 ScaDFX=  1.000000  1.000000  1.000000  1.000000
 FoFCou: FMM=F IPFlag=           0 FMFlag=      100000 FMFlg1=           0
         NFxFlg=           0 DoJE=T BraDBF=F KetDBF=T FulRan=T
         wScrn=  0.000000 ICntrl=       500 IOpCl=  0 I1Cent=   200000004 NGrid=           0
         NMat0=    1 NMatS0=      1 NMatT0=    0 NMatD0=    1 NMtDS0=    0 NMtDT0=    0
 Petite list used in FoFCou.
 Requested convergence on RMS density matrix=1.00D-08 within 128 cycles.
 Requested convergence on MAX density matrix=1.00D-06.
 Requested convergence on             energy=1.00D-06.
 No special actions if energy rises.
 Integral accuracy reduced to 1.0D-05 until final iterations.
 Initial convergence to 1.0D-05 achieved.  Increase integral accuracy.
 SCF Done:  E(RB3LYP) =  -494.284319524     A.U. after   10 cycles
            NFock= 10  Conv=0.30D-08     -V/T= 2.0067
 PrsmSu:  requested number of processors reduced to:  13 ShMem   1 Linda.
 Calling FoFJK, ICntrl=      2127 FMM=F ISym2X=0 I1Cent= 0 IOpClX= 0 NMat=1 NMatS=1 NMatT=0.
 ***** Axes restored to original set *****
 -------------------------------------------------------------------
 Center     Atomic                   Forces (Hartrees/Bohr)
 Number     Number              X              Y              Z
 -------------------------------------------------------------------
      1        6           0.002044318   -0.001012362    0.000403956
      2        6          -0.003731213    0.001722970    0.002124813
      3        6          -0.001227177   -0.001527692   -0.000500598
      4        6           0.001029568    0.000592541   -0.002286701
      5        6          -0.001165602   -0.000063524    0.000059889
      6        9           0.000567224   -0.000445145    0.000456825
      7        9          -0.000446144    0.000903915   -0.000632191
      8        9           0.000578427    0.000111280    0.000876990
      9        1           0.000222183   -0.000795557   -0.000507055
     10        1           0.000615338    0.000656547   -0.000514481
     11        1           0.000872905   -0.000144034    0.000726365
     12        1          -0.000111505    0.000814762    0.000073833
     13        1           0.000131429   -0.000219909   -0.000067828
     14        1          -0.000257830    0.000301422    0.000509523
     15        1           0.000878078   -0.000895213   -0.000723339
 -------------------------------------------------------------------
 Cartesian Forces:  Max     0.003731213 RMS     0.001040497

 GradGradGradGradGradGradGradGradGradGradGradGradGradGradGradGradGradGrad
 Berny optimization.
 Using GEDIIS/GDIIS optimizer.
 FormGI is forming the generalized inverse of G from B-inverse, IUseBI=4.
 Internal  Forces:  Max     0.003802800 RMS     0.000687171
 Search for a local minimum.
 Step number   3 out of a maximum of   82
 All quantities printed in internal units (Hartrees-Bohrs-Radians)
 Mixed Optimization -- En-DIIS/RFO-DIIS
 Update second derivatives using D2CorX and points    1    2    3
 DE= -9.78D-04 DEPred=-6.96D-04 R= 1.41D+00
 TightC=F SS=  1.41D+00  RLast= 2.78D-01 DXNew= 8.4853D-01 8.3508D-01
 Trust test= 1.41D+00 RLast= 2.78D-01 DXMaxT set to 8.35D-01
 ITU=  1  1  0
 Use linear search instead of GDIIS.
     Eigenvalues ---    0.00260   0.00886   0.01885   0.02133   0.02540
     Eigenvalues ---    0.03049   0.03901   0.04127   0.05743   0.05855
     Eigenvalues ---    0.08570   0.08791   0.09543   0.10201   0.10914
     Eigenvalues ---    0.14513   0.15941   0.16000   0.16109   0.16365
     Eigenvalues ---    0.18343   0.24841   0.25094   0.26136   0.26437
     Eigenvalues ---    0.31117   0.32500   0.34244   0.34266   0.34347
     Eigenvalues ---    0.35253   0.35310   0.35379   0.35530   0.36364
     Eigenvalues ---    0.43428   0.54567   0.54630   0.55417
 RFO step:  Lambda=-1.15977681D-03 EMin= 2.59621266D-03
 Quartic linear search produced a step of  0.97360.
 Iteration  1 RMS(Cart)=  0.08458718 RMS(Int)=  0.00410901
 Iteration  2 RMS(Cart)=  0.00432893 RMS(Int)=  0.00007491
 Iteration  3 RMS(Cart)=  0.00001090 RMS(Int)=  0.00007456
 Iteration  4 RMS(Cart)=  0.00000000 RMS(Int)=  0.00007456
 Variable       Old X    -DE/DX   Delta X   Delta X   Delta X     New X
                                 (Linear)    (Quad)   (Total)
    R1        2.87325  -0.00380   0.00014  -0.00976  -0.00962   2.86364
    R2        2.06816   0.00005   0.00015   0.00010   0.00025   2.06841
    R3        2.06908   0.00005   0.00055   0.00013   0.00068   2.06976
    R4        2.07036  -0.00029  -0.00067  -0.00076  -0.00143   2.06893
    R5        2.84448   0.00043  -0.00274   0.00173  -0.00114   2.84334
    R6        2.84660   0.00129  -0.00134   0.00558   0.00433   2.85093
    R7        2.05044   0.00003   0.00038  -0.00033   0.00005   2.05049
    R8        2.84671   0.00076  -0.00087   0.00193   0.00111   2.84781
    R9        2.04947   0.00009   0.00023  -0.00004   0.00018   2.04965
   R10        2.04934  -0.00021  -0.00147  -0.00085  -0.00233   2.04701
   R11        2.83214   0.00003  -0.00465   0.00437  -0.00028   2.83186
   R12        2.05119  -0.00035  -0.00021  -0.00098  -0.00119   2.05000
   R13        2.54064   0.00075  -0.00146  -0.00034  -0.00180   2.53884
   R14        2.54166  -0.00000  -0.00084  -0.00247  -0.00331   2.53836
   R15        2.53929   0.00007  -0.00028  -0.00281  -0.00309   2.53620
    A1        1.93421  -0.00001   0.00453   0.00298   0.00756   1.94177
    A2        1.94708  -0.00069  -0.00830  -0.00816  -0.01656   1.93053
    A3        1.94916  -0.00100  -0.00546  -0.00639  -0.01195   1.93721
    A4        1.87482   0.00042   0.00335   0.00351   0.00692   1.88174
    A5        1.87645   0.00063   0.00447   0.00532   0.00983   1.88628
    A6        1.87868   0.00077   0.00215   0.00357   0.00548   1.88416
    A7        2.12691  -0.00077   0.00090  -0.00476  -0.00392   2.12299
    A8        2.08355   0.00018  -0.00464   0.00275  -0.00192   2.08164
    A9        2.00609  -0.00001   0.01712   0.00726   0.02443   2.03052
   A10        2.00366   0.00064  -0.01307  -0.00514  -0.01827   1.98539
   A11        2.00412   0.00001  -0.01214  -0.00406  -0.01628   1.98784
   A12        2.06554   0.00073   0.00538   0.00261   0.00798   2.07352
   A13        2.07011  -0.00103  -0.01112  -0.00770  -0.01883   2.05128
   A14        2.04183   0.00045  -0.00304   0.00335   0.00024   2.04208
   A15        2.05435  -0.00056  -0.00027  -0.00403  -0.00431   2.05005
   A16        1.99868   0.00015   0.00550   0.00309   0.00861   2.00729
   A17        2.11635  -0.00062  -0.01262  -0.00558  -0.01831   2.09805
   A18        2.04694   0.00059   0.00091   0.00307   0.00402   2.05096
   A19        2.07895   0.00054  -0.00699  -0.00350  -0.01061   2.06834
   A20        2.06468  -0.00047   0.00298  -0.00307  -0.00012   2.06456
   A21        1.95397   0.00006   0.01005   0.00579   0.01591   1.96988
   A22        1.95981   0.00002  -0.01911   0.00669  -0.01255   1.94726
   A23        1.95360  -0.00037  -0.01098   0.00456  -0.00654   1.94707
   A24        1.93818   0.00126  -0.00396   0.01192   0.00796   1.94614
   A25        1.86215   0.00030   0.01061  -0.00377   0.00662   1.86876
   A26        1.87827  -0.00069   0.01321  -0.00909   0.00412   1.88239
   A27        1.86689  -0.00060   0.01347  -0.01226   0.00123   1.86812
    D1        1.79541  -0.00046  -0.06099  -0.09291  -0.15390   1.64151
    D2        3.03507  -0.00072  -0.06220  -0.09432  -0.15653   2.87854
    D3       -0.76123  -0.00044  -0.06582  -0.08674  -0.15258  -0.91381
    D4       -0.29280  -0.00053  -0.06280  -0.09394  -0.15666  -0.44946
    D5        0.94686  -0.00079  -0.06401  -0.09535  -0.15928   0.78757
    D6       -2.84944  -0.00051  -0.06763  -0.08777  -0.15534  -3.00478
    D7       -2.39612  -0.00034  -0.05589  -0.08842  -0.14437  -2.54049
    D8       -1.15646  -0.00060  -0.05710  -0.08982  -0.14700  -1.30346
    D9        1.33043  -0.00032  -0.06072  -0.08224  -0.14305   1.18737
   D10        0.02539   0.00019   0.00009   0.00150   0.00162   0.02701
   D11       -2.52684   0.00039  -0.00136   0.00405   0.00277  -2.52407
   D12        2.58278  -0.00003   0.01432  -0.00086   0.01335   2.59613
   D13        0.03055   0.00017   0.01287   0.00169   0.01450   0.04505
   D14        2.44616   0.00021   0.00074   0.00954   0.01021   2.45637
   D15       -0.06056   0.00011  -0.00013   0.00179   0.00162  -0.05894
   D16       -0.04143  -0.00006  -0.00602  -0.00206  -0.00804  -0.04947
   D17       -2.54814  -0.00016  -0.00689  -0.00981  -0.01663  -2.56477
   D18       -2.44190  -0.00027  -0.00491  -0.00347  -0.00832  -2.45022
   D19        0.03301  -0.00005   0.00834  -0.00257   0.00575   0.03876
   D20        0.04527  -0.00016   0.00046   0.00136   0.00184   0.04711
   D21        2.52017   0.00006   0.01371   0.00225   0.01591   2.53608
   D22        0.32307   0.00038   0.06332   0.09914   0.16250   0.48558
   D23        2.41714   0.00051   0.05541   0.10219   0.15778   2.57492
   D24       -1.78085   0.00035   0.06245   0.09779   0.16034  -1.62051
   D25       -0.90882   0.00066   0.07213   0.10381   0.17580  -0.73302
   D26        1.18525   0.00080   0.06423   0.10687   0.17107   1.35632
   D27       -3.01275   0.00064   0.07126   0.10247   0.17364  -2.83911
   D28        2.86020   0.00066   0.06171   0.10588   0.16751   3.02771
   D29       -1.32892   0.00079   0.05380   0.10894   0.16279  -1.16613
   D30        0.75627   0.00064   0.06084   0.10454   0.16535   0.92163
         Item               Value     Threshold  Converged?
 Maximum Force            0.003803     0.000450     NO 
 RMS     Force            0.000687     0.000300     NO 
 Maximum Displacement     0.238832     0.001800     NO 
 RMS     Displacement     0.084592     0.001200     NO 
 Predicted change in Energy=-1.111970D-03
 GradGradGradGradGradGradGradGradGradGradGradGradGradGradGradGradGradGrad

                          Input orientation:                          
 ---------------------------------------------------------------------
 Center     Atomic      Atomic             Coordinates (Angstroms)
 Number     Number       Type             X           Y           Z
 ---------------------------------------------------------------------
      1          6           0        1.024080   -0.003022   -0.029422
      2          6           0        2.537743   -0.047552    0.027062
      3          6           0        3.340751   -0.856543   -0.955092
      4          6           0        3.336711    0.647623   -1.047364
      5          6           0        4.590104    1.389217   -0.694223
      6          9           0        5.175243    0.876693    0.401181
      7          9           0        5.493344    1.332675   -1.686826
      8          9           0        4.344114    2.687614   -0.459955
      9          1           0        0.580022   -0.750210    0.635844
     10          1           0        0.670022   -0.206568   -1.045703
     11          1           0        0.649284    0.981834    0.267626
     12          1           0        2.984614    0.010596    1.014133
     13          1           0        2.818560   -1.399208   -1.735635
     14          1           0        4.243665   -1.332283   -0.592037
     15          1           0        2.787140    1.111433   -1.859567
 ---------------------------------------------------------------------
                    Distance matrix (angstroms):
                    1          2          3          4          5
     1  C    0.000000
     2  C    1.515371   0.000000
     3  C    2.636726   1.504631   0.000000
     4  C    2.609177   1.508645   1.506999   0.000000
     5  C    3.885462   2.607056   2.583095   1.498554   0.000000
     6  F    4.265146   2.819681   2.865126   2.351798   1.343495
     7  F    4.950292   3.684835   3.156227   2.351440   1.343242
     8  F    4.295056   3.313803   3.716577   2.349781   1.342097
     9  H    1.094558   2.167260   3.188104   3.519440   4.735714
    10  H    1.095270   2.159744   2.750176   2.800157   4.247012
    11  H    1.094829   2.164205   3.481187   3.010509   4.076908
    12  H    2.221010   1.085073   2.180965   2.186217   2.719683
    13  H    2.842650   2.238959   1.084627   2.220746   3.463845
    14  H    3.528341   2.223507   1.083232   2.224840   2.745365
    15  H    2.774855   2.228186   2.235506   1.084814   2.164687
                    6          7          8          9         10
     6  F    0.000000
     7  F    2.160759   0.000000
     8  F    2.170660   2.159120   0.000000
     9  H    4.880362   5.820132   5.214192   0.000000
    10  H    4.854271   5.103405   4.713634   1.769533   0.000000
    11  H    4.529150   5.235254   4.134105   1.772106   1.771317
    12  H    2.434068   3.916222   3.344787   2.550292   3.106030
    13  H    3.911478   3.823615   4.544974   3.325081   2.552374
    14  H    2.594975   3.140424   4.023320   3.907528   3.774118
    15  H    3.296834   2.720722   2.620578   3.816302   2.623297
                   11         12         13         14         15
    11  H    0.000000
    12  H    2.637109   0.000000
    13  H    3.793175   3.094567   0.000000
    14  H    4.360474   2.443013   1.828447   0.000000
    15  H    3.018638   3.083665   2.513894   3.114457   0.000000
 Stoichiometry    C5H7F3
 Framework group  C1[X(C5H7F3)]
 Deg. of freedom    39
 Full point group                 C1      NOp   1
 Largest Abelian subgroup         C1      NOp   1
 Largest concise Abelian subgroup C1      NOp   1
                         Standard orientation:                         
 ---------------------------------------------------------------------
 Center     Atomic      Atomic             Coordinates (Angstroms)
 Number     Number       Type             X           Y           Z
 ---------------------------------------------------------------------
      1          6           0        2.785393   -0.655536   -0.105924
      2          6           0        1.507705   -0.010431    0.391771
      3          6           0        1.068802    1.345808   -0.089783
      4          6           0        0.330709    0.112909   -0.543899
      5          6           0       -1.061560   -0.114079   -0.038203
      6          9           0       -1.165393    0.175574    1.269580
      7          9           0       -1.952998    0.655299   -0.684497
      8          9           0       -1.445363   -1.388730   -0.209046
      9          1           0        3.623875   -0.444836    0.565351
     10          1           0        3.047629   -0.275583   -1.099143
     11          1           0        2.673496   -1.742179   -0.178988
     12          1           0        1.231670   -0.219549    1.420099
     13          1           0        1.673482    1.858412   -0.830063
     14          1           0        0.570309    1.992645    0.621904
     15          1           0        0.467030   -0.220212   -1.567260
 ---------------------------------------------------------------------
 Rotational constants (GHZ):           3.7009427           1.3576921           1.2554798
 Standard basis: 6-31G(2df,p) (6D, 7F)
 There are   283 symmetry adapted cartesian basis functions of A   symmetry.
 There are   259 symmetry adapted basis functions of A   symmetry.
   259 basis functions,   401 primitive gaussians,   283 cartesian basis functions
    32 alpha electrons       32 beta electrons
       nuclear repulsion energy       413.8555351409 Hartrees.
 NAtoms=   15 NActive=   15 NUniq=   15 SFac= 1.00D+00 NAtFMM=   60 NAOKFM=F Big=F
 Integral buffers will be    131072 words long.
 Raffenetti 2 integral format.
 Two-electron integral symmetry is turned on.
 One-electron integrals computed using PRISM.
 PrsmSu:  requested number of processors reduced to:  13 ShMem   1 Linda.
 NBasis=   259 RedAO= T EigKep=  6.34D-04  NBF=   259
 NBsUse=   259 1.00D-06 EigRej= -1.00D+00 NBFU=   259
 Initial guess from the checkpoint file:  "CC1CC1CqFrqFrF.chk"
 B after Tr=    -0.000000    0.000000    0.000000
         Rot=    0.999037    0.043647    0.000408   -0.004500 Ang=   5.03 deg.
 ExpMin= 1.61D-01 ExpMax= 7.00D+03 ExpMxC= 1.05D+03 IAcc=2 IRadAn=         4 AccDes= 0.00D+00
 Harris functional with IExCor=  402 and IRadAn=       4 diagonalized for initial guess.
 HarFok:  IExCor=  402 AccDes= 0.00D+00 IRadAn=         4 IDoV= 1 UseB2=F ITyADJ=14
 ICtDFT=  3500011 ScaDFX=  1.000000  1.000000  1.000000  1.000000
 FoFCou: FMM=F IPFlag=           0 FMFlag=      100000 FMFlg1=           0
         NFxFlg=           0 DoJE=T BraDBF=F KetDBF=T FulRan=T
         wScrn=  0.000000 ICntrl=       500 IOpCl=  0 I1Cent=   200000004 NGrid=           0
         NMat0=    1 NMatS0=      1 NMatT0=    0 NMatD0=    1 NMtDS0=    0 NMtDT0=    0
 Petite list used in FoFCou.
 Requested convergence on RMS density matrix=1.00D-08 within 128 cycles.
 Requested convergence on MAX density matrix=1.00D-06.
 Requested convergence on             energy=1.00D-06.
 No special actions if energy rises.
 Integral accuracy reduced to 1.0D-05 until final iterations.
 Initial convergence to 1.0D-05 achieved.  Increase integral accuracy.
 SCF Done:  E(RB3LYP) =  -494.285522844     A.U. after   10 cycles
            NFock= 10  Conv=0.49D-08     -V/T= 2.0067
 PrsmSu:  requested number of processors reduced to:  13 ShMem   1 Linda.
 Calling FoFJK, ICntrl=      2127 FMM=F ISym2X=0 I1Cent= 0 IOpClX= 0 NMat=1 NMatS=1 NMatT=0.
 ***** Axes restored to original set *****
 -------------------------------------------------------------------
 Center     Atomic                   Forces (Hartrees/Bohr)
 Number     Number              X              Y              Z
 -------------------------------------------------------------------
      1        6           0.002807068   -0.000182134    0.000256127
      2        6          -0.000683622    0.001423355    0.000035154
      3        6          -0.001357883   -0.001534163   -0.000988530
      4        6           0.001463750   -0.000289071    0.000246677
      5        6          -0.004275226   -0.001985054   -0.002467747
      6        9           0.001783664    0.000786551    0.001666285
[...]
 ! D23   D(2,4,5,7)            155.9556         -DE/DX =    0.0                 !
 ! D24   D(2,4,5,8)            -84.5267         -DE/DX =    0.0                 !
 ! D25   D(3,4,5,6)            -34.6207         -DE/DX =    0.0                 !
 ! D26   D(3,4,5,7)             85.6781         -DE/DX =    0.0                 !
 ! D27   D(3,4,5,8)           -154.8043         -DE/DX =    0.0                 !
 ! D28   D(15,4,5,6)          -179.4668         -DE/DX =    0.0                 !
 ! D29   D(15,4,5,7)           -59.168          -DE/DX =    0.0                 !
 ! D30   D(15,4,5,8)            60.3496         -DE/DX =    0.0                 !
 --------------------------------------------------------------------------------
 GradGradGradGradGradGradGradGradGradGradGradGradGradGradGradGradGradGrad


 ----------------------------------------------------------------------

 Electric dipole moment (input orientation):
 (Debye = 10**-18 statcoulomb cm , SI units = C m)
                  (au)            (Debye)         (10**-30 SI)
   Tot        0.918242D+00      0.233394D+01      0.778518D+01
   x         -0.758868D+00     -0.192885D+01     -0.643395D+01
   y         -0.512507D+00     -0.130266D+01     -0.434522D+01
   z         -0.679920D-01     -0.172818D+00     -0.576460D+00

 Dipole polarizability, Alpha (input orientation).
 (esu units = cm**3 , SI units = C**2 m**2 J**-1)
 Alpha(0;0):
               (au)            (10**-24 esu)      (10**-40 SI)
   iso        0.542655D+02      0.804132D+01      0.894718D+01
   aniso      0.107539D+02      0.159356D+01      0.177307D+01
   xx         0.589263D+02      0.873198D+01      0.971564D+01
   yx         0.287641D+01      0.426241D+00      0.474257D+00
   yy         0.539331D+02      0.799206D+01      0.889237D+01
   zx        -0.316017D+01     -0.468289D+00     -0.521041D+00
   zy        -0.635115D-01     -0.941143D-02     -0.104716D-01
   zz         0.499372D+02      0.739993D+01      0.823353D+01

 ----------------------------------------------------------------------

 Dipole orientation:
     6          0.42877667         -0.99135064         -1.61007519
     6          1.32116590         -2.38415442         -3.93867506
     6          1.06076349         -5.21056736         -4.15738943
     6         -0.57804042         -3.50146703         -5.74637797
     6         -0.14075870         -3.33588468         -8.53462901
     9          2.32363314         -3.55076476         -9.12525993
     9         -1.37744195         -5.16414275         -9.79150270
     9         -0.94930518         -1.11962362         -9.47828598
     1          1.88890159         -0.99147585         -0.14367417
     1         -1.26222177         -1.87793400         -0.81166325
     1         -0.03534247          0.97803585         -2.04413355
     1          2.99731122         -1.60227097         -4.82764460
     1          0.14002976         -6.22674906         -2.63428505
     1          2.54883395         -6.24872206         -5.10623817
     1         -2.56507656         -3.34924688         -5.26487998

 Electric dipole moment (dipole orientation):
 (Debye = 10**-18 statcoulomb cm , SI units = C m)
                  (au)            (Debye)         (10**-30 SI)
   Tot        0.918242D+00      0.233394D+01      0.778518D+01
   x          0.000000D+00      0.000000D+00      0.000000D+00
   y          0.000000D+00      0.000000D+00      0.000000D+00
   z          0.918242D+00      0.233394D+01      0.778518D+01

 Dipole polarizability, Alpha (dipole orientation).
 (esu units = cm**3 , SI units = C**2 m**2 J**-1)
 Alpha(0;0):
               (au)            (10**-24 esu)      (10**-40 SI)
   iso        0.542655D+02      0.804132D+01      0.894718D+01
   aniso      0.107539D+02      0.159356D+01      0.177307D+01
   xx         0.494775D+02      0.733181D+01      0.815774D+01
   yx        -0.460173D+00     -0.681906D-01     -0.758722D-01
   yy         0.537360D+02      0.796285D+01      0.885987D+01
   zx         0.217145D+01      0.321775D+00      0.358023D+00
   zy         0.280719D+01      0.415982D+00      0.462843D+00
   zz         0.595831D+02      0.882931D+01      0.982393D+01

 ----------------------------------------------------------------------
 1\1\GINC-LEWIS4-R630-HPC4-NODE539\Freq\RB3LYP\6-31G(2df,p)\C5H7F3\LINJ
 IAN\28-May-2023\0\\#N Geom=AllCheck Guess=TCheck SCRF=Check GenChk RB3
 LYP/6-31G(2df,p) Freq\\Title Card Required\\0,1\C,1.0250025567,0.01440
 52829,-0.0421947473\C,2.5344379813,-0.0221514996,0.0279457875\C,3.3390
 067986,-0.8813894941,-0.9121615315\C,3.3558371345,0.6200760488,-1.0618
 084157\C,4.5922929702,1.3864709246,-0.7124127922\F,5.249416532,0.83582
 07928,0.3250197481\F,5.4522010356,1.4417145617,-1.7439896045\F,4.30848
 63869,2.6565562986,-0.3744559826\H,0.5864688984,-0.8036531389,0.538867
 9617\H,0.6747527878,-0.0869627092,-1.0748624867\H,0.6312347907,0.95649
 43552,0.3535074607\H,2.9498291701,0.0731137065,1.026742504\H,2.8129401
 722,-1.4453574184,-1.674641866\H,4.2342539226,-1.3579577007,-0.5308269
 16\H,2.8292388625,1.0551199897,-1.9047091197\\Version=ES64L-G16RevA.03
 \State=1-A\HF=-494.286103\RMSD=5.911e-10\RMSF=1.811e-05\ZeroPoint=0.11
 48292\Thermal=0.1226544\Dipole=-0.7588681,-0.5125074,-0.067992\DipoleD
 eriv=0.1094827,0.004223,-0.037294,-0.00921,0.1023319,-0.0051767,0.0228
 849,0.0039913,0.0751277,0.1284289,-0.0078126,0.0358761,0.0632263,0.194
 9558,-0.0198705,0.022938,-0.0366528,0.0102924,0.0181585,0.079993,0.052
 2394,0.0845519,-0.0612296,-0.0424578,-0.0169422,-0.0849578,0.0756026,-
 0.2172765,-0.2165397,0.0471985,-0.2268171,-0.1947423,0.0630281,0.00867
 09,0.0639924,0.0051348,1.6373295,0.2502362,-0.1621756,0.2057981,1.6243
 691,-0.0419945,-0.0317165,0.0584941,1.3751004,-0.5213371,0.0483212,-0.
 237989,0.0033943,-0.3860471,0.1255904,-0.2135969,0.1533885,-0.5701106,
 -0.6858389,-0.1496594,0.3693874,-0.1283768,-0.3393098,0.059734,0.29494
 24,0.0417157,-0.6029928,-0.3670191,-0.0368364,0.0266304,0.0034285,-0.9
 256278,-0.1102827,0.012366,-0.1829059,-0.2918965,-0.0506381,-0.0494595
 ,0.0555032,-0.0830328,-0.048881,0.0860868,0.0531241,0.0749204,0.010727
 5,0.0075261,-0.0012019,-0.0072443,-0.0064364,0.0534817,-0.0171888,-0.0
 781411,-0.0171448,-0.1180984,-0.036804,0.0436189,0.041258,0.0881353,-0
 .0806547,-0.0680664,0.0298614,-0.0547121,0.0404706,-0.0311225,0.005597
 3,-0.0389131,0.0059315,0.0604164,-0.0251905,-0.0110234,-0.0173978,-0.0
 638621,0.0182512,-0.042493,-0.0666899,-0.0129087,-0.0185912,-0.0426307
 ,-0.034237,-0.0630608,0.0032613,-0.0266329,0.0748772,-0.0214913,0.0370
 731,0.0231032,-0.0151526,-0.0235907,0.0044085,0.0444114,0.0174922,-0.0
 028644,-0.0562956,-0.0247572,-0.0035745,0.053572,-0.03554,0.0559211,0.
 0068318\Polar=58.9263476,2.8764136,53.9330896,-3.1601677,-0.0635115,49
 .9371988\Quadrupole=-0.0925411,-0.394733,0.4872741,-0.3804977,0.622808
 9,0.0607821\PG=C01 [X(C5H7F3)]\NImag=0\\0.48008787,0.00138151,0.558865
 35,-0.00439640,0.00138921,0.56821855,-0.21256900,0.00336047,-0.0142576
 3,0.56922618,0.00275756,-0.07019623,-0.00151322,-0.00549711,0.26124651
 ,-0.01006532,-0.00193680,-0.08149791,0.00996572,0.04084745,0.64523417,
 -0.01259991,0.02973457,0.01324756,-0.10713286,0.03903892,0.03857410,0.
 53213596,0.00155719,-0.00268022,0.00046421,0.06941876,-0.08193728,-0.0
 8993243,-0.09173162,0.54081062,0.00348669,0.00488343,-0.00104191,0.038
 20934,-0.05451211,-0.11904882,0.17832554,0.12711255,0.43214156,-0.0146
 1261,-0.02689398,0.02000847,-0.10472477,-0.02449008,0.04705544,-0.0500
 1342,-0.01807138,-0.03082019,0.49689213,-0.00027476,-0.00286235,0.0002
 0531,-0.05852659,-0.04693041,0.07259110,0.01650713,-0.21236905,-0.0026
 0874,0.07382675,0.51067783,0.00388263,-0.00437325,-0.00091065,0.049144
 40,0.03928423,-0.14540464,-0.02822242,0.03537552,-0.03690329,0.1221548
 7,-0.15339145,0.51280657,-0.00088469,0.00043405,-0.00123296,-0.0172968
 0,-0.01866121,0.00357623,0.00714705,0.00015770,0.01426103,-0.16498504,
 -0.05217402,-0.04105084,0.57734399,0.00038418,0.00341196,-0.00238347,0
 .00464228,-0.01098663,0.00476542,-0.02634659,-0.02081657,-0.00139183,-
 0.05698602,-0.09934778,-0.01630775,0.04029362,0.53916707,0.00021211,0.
 00442609,-0.00469691,0.02200312,0.01046740,0.00976491,-0.00508833,-0.0
 0754675,-0.00541721,-0.03404983,-0.00990329,-0.08345605,0.02088339,0.0
 0655585,0.52094077,0.00002868,-0.00064764,-0.00026053,-0.00000589,0.00
 297207,-0.00136733,-0.00002136,0.00070251,-0.00209721,-0.02171544,0.01
 479601,-0.03653166,-0.14173234,0.02518067,-0.07796187,0.15327329,0.000
 01573,0.00012364,-0.00060278,-0.00142539,-0.00111917,0.00119556,0.0003
 6701,-0.00085717,-0.00030850,-0.00396123,0.00842572,-0.00521155,0.0307
 1367,-0.09411903,0.04241057,-0.06045701,0.13220583,-0.00019701,-0.0004
 4007,0.00163417,0.00018541,0.00203040,-0.00275859,0.00088847,0.0027844
 9,-0.00165687,-0.02020188,0.01048065,-0.01936954,-0.08268390,0.0377242
 1,-0.17785607,0.11419849,-0.09657509,0.26147913,0.00025167,-0.00303021
 ,0.00173780,-0.00464041,0.00226122,-0.00683744,0.00193503,0.00030226,-
 0.00032149,-0.03345157,-0.01103865,0.04108875,-0.17419140,-0.01846734,
 0.08796232,0.02207385,-0.00155095,0.00089707,0.20008767,0.00002494,-0.
 00151713,0.00114438,-0.00420033,0.00233299,-0.00246849,0.00297033,0.00
 306011,-0.00060852,-0.01903807,0.00182818,0.01643614,-0.01554392,-0.07
 822822,0.01298648,-0.00695316,0.00550374,0.02617698,0.00479293,0.07871
 411,-0.00007056,0.00093651,-0.00018825,0.00067061,-0.00157575,0.002632
 78,-0.00085123,0.00091949,0.00065446,0.01137768,0.00189824,-0.00463563
 ,0.09244497,0.01406372,-0.16214823,0.01679340,0.02459490,-0.07445630,-
 0.15480448,-0.00907803,0.26233795,0.00022874,0.00021461,0.00016999,0.0
 0248085,0.00243646,-0.00070987,-0.00293991,-0.00120299,-0.00428608,0.0
 0688328,-0.02898385,-0.00554596,-0.07946738,0.01389169,0.00420936,-0.0
 0415244,0.04136840,-0.00904129,-0.01233390,0.03910860,0.03252203,0.088
 99702,0.00054989,-0.00045943,0.00020389,0.00176639,0.00265136,0.000544
 03,-0.00524010,0.00136600,-0.00694259,0.00266064,-0.04707471,-0.011399
 98,0.00945510,-0.24580551,-0.04876193,0.03202967,-0.05211360,0.0231895
 6,0.02694994,-0.01152928,-0.03154441,-0.06552615,0.35398665,0.00004391
 ,-0.00019353,0.00026102,-0.00100995,-0.00151262,0.00039939,-0.00200601
 ,0.00096386,-0.00012904,0.00215846,-0.01753255,0.00456496,0.00109716,-
 0.04838301,-0.08857980,-0.01187523,0.03692242,0.00932125,0.03054674,-0
 .04399630,-0.02535298,-0.01953104,0.07318510,0.09777584,-0.08476334,-0
 .07513120,0.05340771,-0.01551552,-0.02528847,0.02007072,0.00235285,0.0
 0019093,-0.00016516,-0.00599231,-0.00136875,-0.00311738,0.00100594,0.0
 0192989,0.00226059,-0.00031671,0.00003389,-0.00043062,-0.00137769,-0.0
 0072676,0.00033728,-0.00005064,-0.00037747,-0.00012470,0.09561139,-0.0
 7601495,-0.19499113,0.10512100,0.00053675,0.00156550,-0.00163500,-0.00
 100645,0.00100013,0.00036309,0.00133391,0.00112384,-0.00102522,0.00050
 450,0.00013651,-0.00007832,-0.00012157,0.00000848,-0.00007610,0.000002
 49,0.00001405,-0.00000943,-0.00010441,0.00000571,0.00000815,0.08384774
 ,0.20899792,0.05380739,0.10485076,-0.12203069,-0.00081754,-0.00231270,
 0.00106396,0.00008378,-0.00005722,-0.00017454,-0.00042537,0.00027966,0
 .00089546,0.00014268,-0.00038267,0.00005124,0.00013604,0.00006560,0.00
 011187,-0.00003420,0.00002155,-0.00002159,-0.00001704,0.00000509,0.000
 00991,-0.05979483,-0.11594816,0.12850181,-0.07112061,-0.00716548,-0.07
 350676,-0.01354395,-0.00329149,-0.03314389,0.00182426,-0.00046954,-0.0
 0143585,0.00169496,0.00021094,-0.00173715,-0.00007545,-0.00015324,-0.0
 0065982,0.00001352,-0.00020846,0.00062038,-0.00004336,0.00002720,0.000
 13234,0.00004153,-0.00002176,0.00009049,0.00362028,0.00227690,0.012059
 04,0.08036801,-0.00746109,-0.04863723,-0.02321637,0.00022430,-0.001382
 50,0.00084312,0.00025025,0.00059293,0.00097716,-0.00018370,0.00036735,
 -0.00083590,-0.00009432,-0.00011179,-0.00005129,0.00007095,-0.00001247
 ,0.00011449,0.00003853,0.00000653,0.00001170,-0.00000818,-0.00001512,0
 .00003131,0.00832338,0.00269243,0.02352522,0.00814136,0.04811846,-0.07
 652754,-0.02311920,-0.28116782,-0.00000718,-0.00003038,-0.00206986,0.0
 0041719,0.00005905,0.00063020,0.00049179,0.00004388,0.00078567,0.00010
 160,-0.00003360,-0.00008306,0.00018954,0.00004790,0.00018977,-0.000162
 15,-0.00006270,0.00007370,-0.00001549,-0.00004639,0.00004092,-0.004948
 43,-0.00255310,-0.01563801,0.08406772,0.02548953,0.30517065,-0.0769557
 1,0.07701091,0.03231984,-0.01427909,0.02998383,0.01490690,-0.00545849,
 0.00072413,-0.00338159,0.00236876,-0.00044960,-0.00020143,0.00013506,0
 .00097233,0.00038158,0.00001602,-0.00021398,-0.00006950,0.00003216,-0.
 00013693,-0.00010890,0.00004822,-0.00059774,-0.00024614,0.00423085,-0.
 01060211,-0.00553821,0.00310450,-0.00931006,-0.00301406,0.08682061,0.0
 7797615,-0.24290707,-0.08248436,0.00010274,0.00085425,0.00072174,-0.00
 111293,0.00129566,0.00114494,0.00103475,0.00095587,-0.00054345,-0.0003
 0833,-0.00035841,-0.00037365,0.00006486,0.00005849,0.00006127,0.000199
 25,0.00010291,-0.00004322,0.00005131,0.00022479,0.00008032,0.00801228,
 -0.02060758,-0.00970116,0.00000912,-0.00192156,-0.00008459,-0.08654020
 ,0.26196204,0.03247628,-0.08220885,-0.08225600,-0.00054127,0.00242379,
 0.00037709,0.00005094,-0.00044688,0.00079910,-0.00021152,-0.00027101,0
 .00001384,0.00011192,-0.00032241,0.00014444,-0.00001011,0.00010337,-0.
 00009334,-0.00003418,0.00004685,-0.00000806,-0.00005543,0.00017190,0.0
 0000743,-0.00684256,0.01584473,0.00661803,0.01096328,-0.02694732,-0.01
 043436,-0.03640917,0.09095125,0.08441423,-0.01045209,-0.00265375,-0.02
 909915,-0.09098366,-0.01008060,-0.10416645,0.00205112,0.00121286,0.012
 42067,0.00246586,0.00226196,0.01246745,0.00225319,-0.00148641,0.001894
 99,-0.00161589,-0.00010994,-0.00057090,0.00019142,0.00027391,-0.000568
 88,-0.00048664,-0.00035996,-0.00040601,0.00116099,-0.00043570,0.000444
 14,-0.00610101,0.00023529,0.00013249,0.00109955,0.00045505,0.00035751,
 0.10138073,0.00046415,0.00023136,0.00102572,-0.00940825,-0.04027318,-0
 .02342361,-0.01141406,-0.00366072,-0.02556637,0.01039168,-0.00021723,0
 .02249701,0.00179283,0.00106801,0.00035480,-0.00045034,-0.00031146,-0.
 00081346,0.00051748,0.00011242,-0.00049600,-0.00006200,-0.00049121,-0.
 00029659,0.00018540,0.00002029,-0.00029187,0.00023804,0.00078591,0.000
 03270,-0.00036369,0.00011134,0.00029090,0.00954359,0.04213035,0.000936
 34,0.00010989,0.00201015,-0.09931941,-0.02236773,-0.28525015,-0.001616
 11,0.00011367,-0.01014311,-0.00337921,-0.00225351,-0.01507626,-0.00311
 379,0.00037399,-0.00284738,-0.00030816,-0.00117360,0.00240196,-0.00001
 279,0.00002812,0.00072029,0.00055596,0.00085237,0.00052941,-0.00055581
 ,-0.00010273,0.00033360,0.00072479,0.00005164,0.00138120,-0.00049227,0
 .00015794,0.00022619,0.10417570,0.02486785,0.30634747,0.00174783,-0.00
 168501,0.00044919,0.01133182,0.01032119,0.01463378,-0.11865607,-0.0703
 6609,-0.10725953,-0.00605481,-0.00008916,-0.00441514,0.00025996,0.0000
 0267,-0.00084854,0.00028325,-0.00097561,0.00022471,-0.00004517,-0.0000
 1073,0.00032578,-0.00026325,-0.00101697,-0.00029646,-0.00022108,-0.000
 18702,0.00022382,-0.00001317,0.00011495,-0.00044645,0.00024066,-0.0001
 3020,-0.00026324,-0.00109217,0.00329098,0.00114874,0.11995166,-0.00057
 297,0.00097499,-0.00116929,-0.00102396,-0.00592770,-0.00097242,-0.0681
 8358,-0.11773111,-0.10506526,-0.01249634,-0.01462871,-0.01951587,0.006
 09099,-0.00168579,-0.00133490,-0.00062646,0.00077522,-0.00036844,-0.00
 048009,0.00008602,0.00033197,-0.00157703,-0.00211090,-0.00028835,0.000
 49951,0.00001078,0.00009016,0.00045879,-0.00020804,0.00021673,0.000015
 82,-0.00000923,0.00022783,-0.00044099,-0.00022607,0.00088298,0.0735000
 6,0.12956217,-0.00185394,0.00263736,0.00148090,-0.01316084,-0.00931501
 ,-0.01646629,-0.10681292,-0.10855434,-0.18521122,0.01078543,0.00736376
 ,0.00963505,-0.00239173,0.00207964,0.00013284,0.00018552,-0.00027572,0
 .00043425,0.00003657,-0.00012892,-0.00007143,0.00090337,0.00173190,0.0
 0052774,0.00043504,-0.00000803,-0.00011727,0.00084874,-0.00001372,0.00
 049995,-0.00036356,0.00017558,0.00035353,0.00173730,-0.00416968,-0.000
 53556,0.11127583,0.11504927,0.19495222,-0.00003620,0.00351802,0.001209
 72,-0.01301947,0.00520854,-0.00838077,-0.24565240,0.10773179,-0.093529
 58,0.00883644,-0.00377735,0.00620891,-0.00002878,0.00068581,-0.0002236
 1,-0.00054516,-0.00126967,0.00007394,0.00009168,0.00013281,-0.00002050
 ,0.00016836,0.00039842,0.00008700,0.00002573,-0.00010758,-0.00000733,0
 .00029691,-0.00008025,0.00007531,-0.00115881,-0.00008941,0.00023574,0.
 00135196,-0.00179515,-0.00037386,-0.00848377,0.00610627,-0.00204648,0.
 25778975,-0.00107175,-0.00008939,0.00042531,0.00164700,-0.00606129,0.0
 0017764,0.10289590,-0.09756235,0.04031215,0.02225522,-0.01237899,0.007
 70497,0.00343344,0.00041467,0.00400385,-0.00142203,0.00148478,-0.00147
 534,-0.00135561,-0.00032476,0.00010179,-0.00038822,0.00105020,-0.00008
 727,0.00001623,0.00011023,-0.00000016,0.00027477,-0.00008022,0.0001586
 2,-0.00006288,0.00023417,0.00024261,0.00099109,0.00065425,-0.00049548,
 -0.01409818,0.00888591,-0.00491009,-0.11425878,0.10696354,0.00024894,-
 0.00469050,-0.00149316,0.02105573,-0.00980156,0.01033712,-0.09482363,0
 .04177616,-0.08097753,-0.00913488,0.00307076,-0.00793311,-0.00101255,-
 0.00146025,0.00124299,0.00017835,-0.00075880,-0.00027258,0.00008760,-0
 .00001749,-0.00032474,0.00004842,-0.00013758,-0.00022809,-0.00012662,0
 .00020758,-0.00001202,0.00014937,-0.00009575,0.00009310,0.00171901,-0.
 00000665,-0.00004942,-0.00012960,0.00250356,0.00102829,-0.01500958,0.0
 1063524,-0.00563983,0.09696820,-0.04383370,0.08326648,0.00164936,0.001
 55314,0.00020316,0.01067255,-0.00767083,0.01588817,-0.00497185,-0.0001
 5651,-0.00340660,-0.11759145,0.04907995,-0.11412502,-0.00948330,0.0154
 5648,-0.02097546,-0.00558338,-0.00232646,-0.00389337,0.00142002,-0.000
 72082,0.00182048,0.00084616,-0.00066991,0.00147178,0.00022925,0.000077
 50,-0.00026236,-0.00006641,-0.00026140,-0.00035432,-0.00024428,0.00027
 557,0.00017181,-0.00122335,-0.00293066,0.00162987,0.00101432,-0.001270
 00,0.00042166,0.00036376,0.00114380,-0.00021876,0.12296861,0.00028422,
 0.00073287,0.00139046,-0.00161705,-0.00383623,-0.00131733,0.01327122,-
 0.01051098,0.02221060,0.05061786,-0.08756956,0.09130654,-0.00609410,0.
 00726149,-0.01315491,-0.00513853,-0.00005300,-0.00281356,0.00085876,-0
 .00016167,-0.00011146,0.00078178,0.00031506,0.00109905,-0.00014658,-0.
 00008718,-0.00014409,-0.00032716,-0.00019469,-0.00011845,-0.00042984,0
 .00000434,-0.00010676,0.00059361,0.00006594,-0.00104542,0.00132913,0.0
 0223247,-0.00166201,-0.00240348,-0.00330074,0.00260898,-0.05157984,0.0
 9510189,-0.00198353,-0.00227106,0.00167852,-0.01212052,0.00788780,-0.0
 1731316,0.00783306,-0.00303139,0.00647821,-0.11580927,0.09002719,-0.21
 501238,-0.00113322,0.00510215,-0.00719247,-0.00126924,-0.00043429,0.00
 089088,-0.00015012,-0.00048003,0.00078804,0.00079309,-0.00105097,0.000
 85204,-0.00040524,-0.00010847,0.00040823,0.00082734,0.00011619,0.00052
 796,0.00049751,-0.00005595,-0.00011270,0.00131074,0.00348503,-0.001126
 09,0.00025710,0.00128036,0.00002514,-0.00027668,-0.00232491,0.00096250
 ,0.12162898,-0.09814163,0.22814529\\-0.00000323,0.00000966,-0.00000005
 ,0.00004256,-0.00000266,-0.00005328,-0.00001278,0.00004435,0.00000606,
 0.00001008,-0.00005091,0.00005524,0.00000629,0.00000673,-0.00002458,-0
 .00000733,0.00000357,-0.00000922,-0.00000660,-0.00000284,0.00000622,0.
 00000139,0.00000369,0.00001812,-0.00000401,0.00000241,0.00000816,-0.00
 000490,-0.00000578,-0.00000003,0.00000083,0.00000282,-0.00000446,-0.00
 001397,-0.00000933,0.00001235,-0.00000224,-0.00000405,-0.00000189,-0.0
 0000293,0.00000471,-0.00000126,-0.00000317,-0.00000237,-0.00001138\\\@


 LIFE IS SO UNCERTAIN - EAT DESSERT FIRST.
 Job cpu time:       0 days  1 hours  5 minutes 16.4 seconds.
 Elapsed time:       0 days  0 hours 16 minutes 19.5 seconds.
 File lengths (MBytes):  RWF=     90 Int=      0 D2E=      0 Chk=      7 Scr=      1
 Normal termination of Gaussian 16 at Sun May 28 10:50:18 2023.
### All Done ###
