### Starting Gaussian ###
 Entering Gaussian System, Link 0=g16
 Initial command:
 /cluster/software/gaussian/gaussian-16-A.03/avx2/g16/l1.exe "/local/scratch/linjian/Gau-1526.inp" -scrdir="/local/scratch/linjian/"
 Entering Link 1 = /cluster/software/gaussian/gaussian-16-A.03/avx2/g16/l1.exe PID=      1527.
  
 Copyright (c) 1988,1990,1992,1993,1995,1998,2003,2009,2016,
            Gaussian, Inc.  All Rights Reserved.
  
 This is part of the Gaussian(R) 16 program.  It is based on
 the Gaussian(R) 09 system (copyright 2009, Gaussian, Inc.),
 the Gaussian(R) 03 system (copyright 2003, Gaussian, Inc.),
 the Gaussian(R) 98 system (copyright 1998, Gaussian, Inc.),
 the Gaussian(R) 94 system (copyright 1995, Gaussian, Inc.),
 the Gaussian 92(TM) system (copyright 1992, Gaussian, Inc.),
 the Gaussian 90(TM) system (copyright 1990, Gaussian, Inc.),
 the Gaussian 88(TM) system (copyright 1988, Gaussian, Inc.),
 the Gaussian 86(TM) system (copyright 1986, Carnegie Mellon
 University), and the Gaussian 82(TM) system (copyright 1983,
 Carnegie Mellon University). Gaussian is a federally registered
 trademark of Gaussian, Inc.
  
 This software contains proprietary and confidential information,
 including trade secrets, belonging to Gaussian, Inc.
  
 This software is provided under written license and may be
 used, copied, transmitted, or stored only in accord with that
 written license.
  
 The following legend is applicable only to US Government
 contracts under FAR:
  
                    RESTRICTED RIGHTS LEGEND
  
 Use, reproduction and disclosure by the US Government is
 subject to restrictions as set forth in subparagraphs (a)
 and (c) of the Commercial Computer Software - Restricted
 Rights clause in FAR 52.227-19.
  
 Gaussian, Inc.
 340 Quinnipiac St., Bldg. 40, Wallingford CT 06492
  
  
 ---------------------------------------------------------------
 Warning -- This program may not be used in any manner that
 competes with the business of Gaussian, Inc. or will provide
 assistance to any competitor of Gaussian, Inc.  The licensee
 of this program is prohibited from giving any competitor of
 Gaussian, Inc. access to this program.  By using this program,
 the user acknowledges that Gaussian, Inc. is engaged in the
 business of creating and licensing software in the field of
 computational chemistry and represents and warrants to the
 licensee that it is not a competitor of Gaussian, Inc. and that
 it will not use this program in any manner prohibited above.
 ---------------------------------------------------------------
  

 Cite this work as:
 Gaussian 16, Revision A.03,
 M. J. Frisch, G. W. Trucks, H. B. Schlegel, G. E. Scuseria, 
 M. A. Robb, J. R. Cheeseman, G. Scalmani, V. Barone, 
 G. A. Petersson, H. Nakatsuji, X. Li, M. Caricato, A. V. Marenich, 
 J. Bloino, B. G. Janesko, R. Gomperts, B. Mennucci, H. P. Hratchian, 
 J. V. Ortiz, A. F. Izmaylov, J. L. Sonnenberg, D. Williams-Young, 
 F. Ding, F. Lipparini, F. Egidi, J. Goings, B. Peng, A. Petrone, 
 T. Henderson, D. Ranasinghe, V. G. Zakrzewski, J. Gao, N. Rega, 
 G. Zheng, W. Liang, M. Hada, M. Ehara, K. Toyota, R. Fukuda, 
 J. Hasegawa, M. Ishida, T. Nakajima, Y. Honda, O. Kitao, H. Nakai, 
 T. Vreven, K. Throssell, J. A. Montgomery, Jr., J. E. Peralta, 
 F. Ogliaro, M. J. Bearpark, J. J. Heyd, E. N. Brothers, K. N. Kudin, 
 V. N. Staroverov, T. A. Keith, R. Kobayashi, J. Normand, 
 K. Raghavachari, A. P. Rendell, J. C. Burant, S. S. Iyengar, 
 J. Tomasi, M. Cossi, J. M. Millam, M. Klene, C. Adamo, R. Cammi, 
 J. W. Ochterski, R. L. Martin, K. Morokuma, O. Farkas, 
 J. B. Foresman, and D. J. Fox, Gaussian, Inc., Wallingford CT, 2016.
 
 ******************************************
 Gaussian 16:  ES64L-G16RevA.03 25-Dec-2016
                28-May-2023 
 ******************************************
 %chk=CC1CCCqCrC1.chk
 %NProcShared=20
 Will use up to   20 processors via shared memory.
 -----------------------------
 # opt freq b3lyp/6-31g(2df,p)
 -----------------------------
 1/18=20,19=15,26=3,38=1/1,3;
 2/9=110,12=2,17=6,18=5,40=1/2;
 3/5=1,6=6,7=104,11=2,25=1,30=1,71=1,74=-5/1,2,3;
 4//1;
 5/5=2,38=5/2;
 6/7=2,8=2,9=2,10=2,28=1/1;
 7//1,2,3,16;
 1/18=20,19=15,26=3/3(2);
 2/9=110/2;
 99//99;
 2/9=110/2;
 3/5=1,6=6,7=104,11=2,25=1,30=1,71=1,74=-5/1,2,3;
 4/5=5,16=3,69=1/1;
 5/5=2,38=5/2;
 7//1,2,3,16;
 1/18=20,19=15,26=3/3(-5);
 2/9=110/2;
 6/7=2,8=2,9=2,10=2,19=2,28=1/1;
 99/9=1/99;
 -------------------
 Title Card Required
 -------------------
 Symbolic Z-matrix:
 Charge =  0 Multiplicity = 1
 C                     1.07773   0.01669  -0.04778 
 C                     2.59721   0.01032   0.00663 
 C                     3.16028   1.13551   0.86866 
 C                     4.56623   0.65912   1.19599 
 C                     4.42975  -0.85434   1.38892 
 C                     5.66     -1.60879   0.90511 
 C                     3.15531  -1.26746   0.63814 
 H                     0.71039   0.93175  -0.52286 
 H                     0.64472  -0.03836   0.95675 
 H                     0.70711  -0.83974  -0.62055 
 H                     2.99411   0.10358  -1.01211 
 H                     2.57831   1.26294   1.78742 
 H                     3.17103   2.09324   0.33672 
 H                     4.95571   1.14786   2.09598 
 H                     5.24536   0.89563   0.3696 
 H                     4.28906  -1.06897   2.45599 
 H                     5.83944  -1.43171  -0.1609 
 H                     5.53376  -2.68681   1.05036 
 H                     6.55096  -1.29284   1.45669 
 H                     2.44193  -1.70112   1.34913 
 H                     3.34163  -2.02799  -0.12904 
 

 GradGradGradGradGradGradGradGradGradGradGradGradGradGradGradGradGradGrad
 Berny optimization.
 Initialization pass.
                           ----------------------------
                           !    Initial Parameters    !
                           ! (Angstroms and Degrees)  !
 --------------------------                            --------------------------
 ! Name  Definition              Value          Derivative Info.                !
 --------------------------------------------------------------------------------
 ! R1    R(1,2)                  1.5205         estimate D2E/DX2                !
 ! R2    R(1,8)                  1.0945         estimate D2E/DX2                !
 ! R3    R(1,9)                  1.0953         estimate D2E/DX2                !
 ! R4    R(1,10)                 1.0949         estimate D2E/DX2                !
 ! R5    R(2,3)                  1.5252         estimate D2E/DX2                !
 ! R6    R(2,7)                  1.5307         estimate D2E/DX2                !
 ! R7    R(2,11)                 1.0973         estimate D2E/DX2                !
 ! R8    R(3,4)                  1.5201         estimate D2E/DX2                !
 ! R9    R(3,12)                 1.095          estimate D2E/DX2                !
 ! R10   R(3,13)                 1.0956         estimate D2E/DX2                !
 ! R11   R(4,5)                  1.5318         estimate D2E/DX2                !
 ! R12   R(4,14)                 1.0957         estimate D2E/DX2                !
 ! R13   R(4,15)                 1.0955         estimate D2E/DX2                !
 ! R14   R(5,6)                  1.5221         estimate D2E/DX2                !
 ! R15   R(5,7)                  1.5358         estimate D2E/DX2                !
 ! R16   R(5,16)                 1.0975         estimate D2E/DX2                !
 ! R17   R(6,17)                 1.0954         estimate D2E/DX2                !
 ! R18   R(6,18)                 1.0951         estimate D2E/DX2                !
 ! R19   R(6,19)                 1.0945         estimate D2E/DX2                !
 ! R20   R(7,20)                 1.0966         estimate D2E/DX2                !
 ! R21   R(7,21)                 1.0962         estimate D2E/DX2                !
 ! A1    A(2,1,8)              110.7588         estimate D2E/DX2                !
 ! A2    A(2,1,9)              111.2267         estimate D2E/DX2                !
 ! A3    A(2,1,10)             110.7142         estimate D2E/DX2                !
 ! A4    A(8,1,9)              107.9044         estimate D2E/DX2                !
 ! A5    A(8,1,10)             108.2562         estimate D2E/DX2                !
 ! A6    A(9,1,10)             107.8567         estimate D2E/DX2                !
 ! A7    A(1,2,3)              112.7106         estimate D2E/DX2                !
 ! A8    A(1,2,7)              112.4968         estimate D2E/DX2                !
 ! A9    A(1,2,11)             109.141          estimate D2E/DX2                !
 ! A10   A(3,2,7)              104.3627         estimate D2E/DX2                !
 ! A11   A(3,2,11)             109.1776         estimate D2E/DX2                !
 ! A12   A(7,2,11)             108.7898         estimate D2E/DX2                !
 ! A13   A(2,3,4)              103.4123         estimate D2E/DX2                !
 ! A14   A(2,3,12)             111.3378         estimate D2E/DX2                !
 ! A15   A(2,3,13)             111.9694         estimate D2E/DX2                !
 ! A16   A(4,3,12)             110.3255         estimate D2E/DX2                !
 ! A17   A(4,3,13)             111.6803         estimate D2E/DX2                !
 ! A18   A(12,3,13)            108.1113         estimate D2E/DX2                !
 ! A19   A(3,4,5)              104.7352         estimate D2E/DX2                !
 ! A20   A(3,4,14)             111.4597         estimate D2E/DX2                !
 ! A21   A(3,4,15)             110.0767         estimate D2E/DX2                !
 ! A22   A(5,4,14)             111.6498         estimate D2E/DX2                !
 ! A23   A(5,4,15)             111.3189         estimate D2E/DX2                !
 ! A24   A(14,4,15)            107.6354         estimate D2E/DX2                !
 ! A25   A(4,5,6)              112.1902         estimate D2E/DX2                !
 ! A26   A(4,5,7)              106.1496         estimate D2E/DX2                !
 ! A27   A(4,5,16)             109.093          estimate D2E/DX2                !
 ! A28   A(6,5,7)              112.4581         estimate D2E/DX2                !
 ! A29   A(6,5,16)             108.4045         estimate D2E/DX2                !
 ! A30   A(7,5,16)             108.441          estimate D2E/DX2                !
 ! A31   A(5,6,17)             111.1984         estimate D2E/DX2                !
 ! A32   A(5,6,18)             110.6472         estimate D2E/DX2                !
 ! A33   A(5,6,19)             110.7744         estimate D2E/DX2                !
 ! A34   A(17,6,18)            107.8848         estimate D2E/DX2                !
 ! A35   A(17,6,19)            108.0847         estimate D2E/DX2                !
 ! A36   A(18,6,19)            108.1305         estimate D2E/DX2                !
 ! A37   A(2,7,5)              106.2425         estimate D2E/DX2                !
 ! A38   A(2,7,20)             111.1264         estimate D2E/DX2                !
 ! A39   A(2,7,21)             110.6334         estimate D2E/DX2                !
 ! A40   A(5,7,20)             109.2246         estimate D2E/DX2                !
 ! A41   A(5,7,21)             112.8123         estimate D2E/DX2                !
 ! A42   A(20,7,21)            106.8559         estimate D2E/DX2                !
 ! D1    D(8,1,2,3)             63.5367         estimate D2E/DX2                !
 ! D2    D(8,1,2,7)           -178.7926         estimate D2E/DX2                !
 ! D3    D(8,1,2,11)           -57.9439         estimate D2E/DX2                !
 ! D4    D(9,1,2,3)            -56.4585         estimate D2E/DX2                !
 ! D5    D(9,1,2,7)             61.2123         estimate D2E/DX2                !
 ! D6    D(9,1,2,11)          -177.939          estimate D2E/DX2                !
 ! D7    D(10,1,2,3)          -176.3638         estimate D2E/DX2                !
 ! D8    D(10,1,2,7)           -58.693          estimate D2E/DX2                !
 ! D9    D(10,1,2,11)           62.1557         estimate D2E/DX2                !
 ! D10   D(1,2,3,4)            160.105          estimate D2E/DX2                !
 ! D11   D(1,2,3,12)            41.6463         estimate D2E/DX2                !
 ! D12   D(1,2,3,13)           -79.5158         estimate D2E/DX2                !
 ! D13   D(7,2,3,4)             37.7378         estimate D2E/DX2                !
 ! D14   D(7,2,3,12)           -80.7209         estimate D2E/DX2                !
 ! D15   D(7,2,3,13)           158.117          estimate D2E/DX2                !
 ! D16   D(11,2,3,4)           -78.4352         estimate D2E/DX2                !
 ! D17   D(11,2,3,12)          163.106          estimate D2E/DX2                !
 ! D18   D(11,2,3,13)           41.9439         estimate D2E/DX2                !
 ! D19   D(1,2,7,5)           -146.3802         estimate D2E/DX2                !
 ! D20   D(1,2,7,20)           -27.679          estimate D2E/DX2                !
 ! D21   D(1,2,7,21)            90.8538         estimate D2E/DX2                !
 ! D22   D(3,2,7,5)            -23.873          estimate D2E/DX2                !
 ! D23   D(3,2,7,20)            94.8283         estimate D2E/DX2                !
 ! D24   D(3,2,7,21)          -146.639          estimate D2E/DX2                !
 ! D25   D(11,2,7,5)            92.5698         estimate D2E/DX2                !
 ! D26   D(11,2,7,20)         -148.7289         estimate D2E/DX2                !
 ! D27   D(11,2,7,21)          -30.1961         estimate D2E/DX2                !
 ! D28   D(2,3,4,5)            -37.171          estimate D2E/DX2                !
 ! D29   D(2,3,4,14)          -158.0535         estimate D2E/DX2                !
 ! D30   D(2,3,4,15)            82.589          estimate D2E/DX2                !
 ! D31   D(12,3,4,5)            81.9882         estimate D2E/DX2                !
 ! D32   D(12,3,4,14)          -38.8943         estimate D2E/DX2                !
 ! D33   D(12,3,4,15)         -158.2519         estimate D2E/DX2                !
 ! D34   D(13,3,4,5)          -157.7468         estimate D2E/DX2                !
 ! D35   D(13,3,4,14)           81.3707         estimate D2E/DX2                !
 ! D36   D(13,3,4,15)          -37.9869         estimate D2E/DX2                !
 ! D37   D(3,4,5,6)            145.5437         estimate D2E/DX2                !
 ! D38   D(3,4,5,7)             22.3393         estimate D2E/DX2                !
 ! D39   D(3,4,5,16)           -94.3228         estimate D2E/DX2                !
 ! D40   D(14,4,5,6)           -93.6996         estimate D2E/DX2                !
 ! D41   D(14,4,5,7)           143.096          estimate D2E/DX2                !
 ! D42   D(14,4,5,16)           26.4339         estimate D2E/DX2                !
 ! D43   D(15,4,5,6)            26.6187         estimate D2E/DX2                !
 ! D44   D(15,4,5,7)           -96.5857         estimate D2E/DX2                !
 ! D45   D(15,4,5,16)          146.7522         estimate D2E/DX2                !
 ! D46   D(4,5,6,17)           -59.8609         estimate D2E/DX2                !
 ! D47   D(4,5,6,18)          -179.7385         estimate D2E/DX2                !
 ! D48   D(4,5,6,19)            60.3533         estimate D2E/DX2                !
 ! D49   D(7,5,6,17)            59.7199         estimate D2E/DX2                !
 ! D50   D(7,5,6,18)           -60.1577         estimate D2E/DX2                !
 ! D51   D(7,5,6,19)           179.9341         estimate D2E/DX2                !
 ! D52   D(16,5,6,17)          179.6062         estimate D2E/DX2                !
 ! D53   D(16,5,6,18)           59.7286         estimate D2E/DX2                !
 ! D54   D(16,5,6,19)          -60.1796         estimate D2E/DX2                !
 ! D55   D(4,5,7,2)              1.0131         estimate D2E/DX2                !
 ! D56   D(4,5,7,20)          -118.9323         estimate D2E/DX2                !
 ! D57   D(4,5,7,21)           122.3937         estimate D2E/DX2                !
 ! D58   D(6,5,7,2)           -122.0226         estimate D2E/DX2                !
 ! D59   D(6,5,7,20)           118.032          estimate D2E/DX2                !
 ! D60   D(6,5,7,21)            -0.642          estimate D2E/DX2                !
 ! D61   D(16,5,7,2)           118.1122         estimate D2E/DX2                !
 ! D62   D(16,5,7,20)           -1.8332         estimate D2E/DX2                !
 ! D63   D(16,5,7,21)         -120.5071         estimate D2E/DX2                !
 --------------------------------------------------------------------------------
 Trust Radius=3.00D-01 FncErr=1.00D-07 GrdErr=1.00D-06 EigMax=2.50D+02 EigMin=1.00D-04
 Number of steps in this run=    126 maximum allowed number of steps=    126.
 GradGradGradGradGradGradGradGradGradGradGradGradGradGradGradGradGradGrad

                          Input orientation:                          
 ---------------------------------------------------------------------
 Center     Atomic      Atomic             Coordinates (Angstroms)
 Number     Number       Type             X           Y           Z
 ---------------------------------------------------------------------
      1          6           0        1.077730    0.016690   -0.047780
      2          6           0        2.597210    0.010320    0.006630
      3          6           0        3.160280    1.135510    0.868660
      4          6           0        4.566230    0.659120    1.195990
      5          6           0        4.429750   -0.854340    1.388920
      6          6           0        5.660000   -1.608790    0.905110
      7          6           0        3.155310   -1.267460    0.638140
      8          1           0        0.710390    0.931750   -0.522860
      9          1           0        0.644720   -0.038360    0.956750
     10          1           0        0.707110   -0.839740   -0.620550
     11          1           0        2.994110    0.103580   -1.012110
     12          1           0        2.578310    1.262940    1.787420
     13          1           0        3.171030    2.093240    0.336720
     14          1           0        4.955710    1.147860    2.095980
     15          1           0        5.245360    0.895630    0.369600
     16          1           0        4.289060   -1.068970    2.455990
     17          1           0        5.839440   -1.431710   -0.160900
     18          1           0        5.533760   -2.686810    1.050360
     19          1           0        6.550960   -1.292840    1.456690
     20          1           0        2.441930   -1.701120    1.349130
     21          1           0        3.341630   -2.027990   -0.129040
 ---------------------------------------------------------------------
                    Distance matrix (angstroms):
                    1          2          3          4          5
     1  C    0.000000
     2  C    1.520467   0.000000
     3  C    2.535475   1.525187   0.000000
     4  C    3.758898   2.390096   1.520128   0.000000
     5  C    3.749512   2.452869   2.416967   1.531800   0.000000
     6  C    4.954532   3.579031   3.712292   2.534632   1.522098
     7  C    2.536901   1.530687   2.414007   2.452265   1.535753
     8  H    1.094520   2.165521   2.824855   4.230399   4.547379
     9  H    1.095266   2.171938   2.777368   3.990232   3.896030
    10  H    1.094942   2.165279   3.483877   4.520974   4.230394
    11  H    2.147090   1.097296   2.151694   2.766928   2.956961
    12  H    2.678216   2.177298   1.095010   2.160142   2.840688
    13  H    2.973517   2.185586   1.095592   2.177528   3.373385
    14  H    4.573181   3.349911   2.174865   1.095693   2.187549
    15  H    4.279706   2.815709   2.157351   1.095479   2.183261
    16  H    4.214281   3.166479   2.941682   2.156552   1.097496
    17  H    4.978407   3.552404   3.850781   2.798890   2.173137
    18  H    5.326446   4.121554   4.502949   3.486054   2.165966
    19  H    5.825337   4.408292   4.211814   2.795937   2.167119
    20  H    2.600629   2.180698   2.965358   3.179125   2.161029
    21  H    3.051649   2.174230   3.322051   3.236651   2.205825
                    6          7          8          9         10
     6  C    0.000000
     7  C    2.541899   0.000000
     8  H    5.743873   3.487417   0.000000
     9  H    5.255659   2.813407   1.770500   0.000000
    10  H    5.239293   2.785844   1.774185   1.770304   0.000000
    11  H    3.703365   2.151525   2.478025   3.068581   2.504704
    12  H    4.303733   2.838432   2.989349   2.474301   3.704183
    13  H    4.497006   3.374227   2.853539   3.363094   3.948372
    14  H    3.084366   3.346716   4.992772   4.614065   5.420396
    15  H    2.594382   3.019831   4.622093   4.731064   4.958590
    16  H    2.139185   2.151596   5.067870   4.073216   4.727368
    17  H    1.095415   2.805351   5.658985   5.493240   5.186764
    18  H    1.095062   2.800269   6.231685   5.561094   5.431405
    19  H    1.094475   3.493008   6.555889   6.058658   6.218586
    20  H    3.249870   1.096576   3.665322   2.479657   2.762465
    21  H    2.572943   1.096214   3.979771   3.522909   2.931589
                   11         12         13         14         15
    11  H    0.000000
    12  H    3.058492   0.000000
    13  H    2.410268   1.773484   0.000000
    14  H    3.820814   2.400101   2.678399   0.000000
    15  H    2.757643   3.042743   2.395453   1.768588   0.000000
    16  H    3.883231   2.968410   3.967476   2.342726   3.021123
    17  H    3.343288   4.657473   4.448967   3.539586   2.459852
    18  H    4.299986   4.987832   5.379652   4.016486   3.657935
    19  H    4.549302   4.735329   4.913634   2.985051   2.770516
    20  H    3.022797   2.999391   3.994212   3.872152   3.944846
    21  H    2.333275   3.884031   4.150973   4.200237   3.524256
                   16         17         18         19         20
    16  H    0.000000
    17  H    3.063229   0.000000
    18  H    2.478403   1.770838   0.000000
    19  H    2.482924   1.772609   1.772837   0.000000
    20  H    2.244246   3.727713   3.258874   4.130665   0.000000
    21  H    2.915428   2.568194   2.574968   3.654420   1.761048
                   21
    21  H    0.000000
 Stoichiometry    C7H14
 Framework group  C1[X(C7H14)]
 Deg. of freedom    57
 Full point group                 C1      NOp   1
 Largest Abelian subgroup         C1      NOp   1
 Largest concise Abelian subgroup C1      NOp   1
                         Standard orientation:                         
 ---------------------------------------------------------------------
 Center     Atomic      Atomic             Coordinates (Angstroms)
 Number     Number       Type             X           Y           Z
 ---------------------------------------------------------------------
      1          6           0       -2.506897   -0.556434    0.014353
      2          6           0       -1.107055   -0.139881   -0.408431
      3          6           0       -0.749824    1.271205    0.047003
      4          6           0        0.769121    1.286492   -0.010961
      5          6           0        1.190692   -0.112294    0.449568
      6          6           0        2.439259   -0.602409   -0.269911
      7          6           0       -0.021163   -1.024491    0.209068
      8          1           0       -3.260766    0.080164   -0.459355
      9          1           0       -2.633340   -0.477656    1.099441
     10          1           0       -2.705266   -1.594400   -0.272306
     11          1           0       -1.029613   -0.196287   -1.501536
     12          1           0       -1.093336    1.458750    1.069683
     13          1           0       -1.187445    2.035381   -0.604798
     14          1           0        1.187042    2.067465    0.633994
     15          1           0        1.104394    1.486704   -1.034476
     16          1           0        1.398604   -0.088061    1.526918
     17          1           0        2.279265   -0.650915   -1.352492
     18          1           0        2.715044   -1.604641    0.074523
     19          1           0        3.284183    0.067138   -0.081004
     20          1           0       -0.351487   -1.445854    1.166052
     21          1           0        0.207912   -1.870923   -0.448779
 ---------------------------------------------------------------------
 Rotational constants (GHZ):           4.9033351           1.8864386           1.5124227
 Standard basis: 6-31G(2df,p) (6D, 7F)
 There are   287 symmetry adapted cartesian basis functions of A   symmetry.
 There are   266 symmetry adapted basis functions of A   symmetry.
   266 basis functions,   406 primitive gaussians,   287 cartesian basis functions
    28 alpha electrons       28 beta electrons
       nuclear repulsion energy       327.3498677599 Hartrees.
 NAtoms=   21 NActive=   21 NUniq=   21 SFac= 1.00D+00 NAtFMM=   60 NAOKFM=F Big=F
 Integral buffers will be    131072 words long.
 Raffenetti 2 integral format.
 Two-electron integral symmetry is turned on.
 One-electron integrals computed using PRISM.
 PrsmSu:  requested number of processors reduced to:  13 ShMem   1 Linda.
 NBasis=   266 RedAO= T EigKep=  5.00D-04  NBF=   266
 NBsUse=   266 1.00D-06 EigRej= -1.00D+00 NBFU=   266
 ExpMin= 1.61D-01 ExpMax= 3.05D+03 ExpMxC= 4.57D+02 IAcc=3 IRadAn=         5 AccDes= 0.00D+00
 Harris functional with IExCor=  402 and IRadAn=       5 diagonalized for initial guess.
 HarFok:  IExCor=  402 AccDes= 0.00D+00 IRadAn=         5 IDoV= 1 UseB2=F ITyADJ=14
 ICtDFT=  3500011 ScaDFX=  1.000000  1.000000  1.000000  1.000000
 FoFCou: FMM=F IPFlag=           0 FMFlag=      100000 FMFlg1=           0
         NFxFlg=           0 DoJE=T BraDBF=F KetDBF=T FulRan=T
         wScrn=  0.000000 ICntrl=       500 IOpCl=  0 I1Cent=   200000004 NGrid=           0
         NMat0=    1 NMatS0=      1 NMatT0=    0 NMatD0=    1 NMtDS0=    0 NMtDT0=    0
 Petite list used in FoFCou.
 Requested convergence on RMS density matrix=1.00D-08 within 128 cycles.
 Requested convergence on MAX density matrix=1.00D-06.
 Requested convergence on             energy=1.00D-06.
 No special actions if energy rises.
 Integral accuracy reduced to 1.0D-05 until final iterations.
 Initial convergence to 1.0D-05 achieved.  Increase integral accuracy.
 SCF Done:  E(RB3LYP) =  -275.206993616     A.U. after   11 cycles
            NFock= 11  Conv=0.93D-08     -V/T= 2.0085

 **********************************************************************

            Population analysis using the SCF density.

 **********************************************************************

 Orbital symmetries:
       Occupied  (A) (A) (A) (A) (A) (A) (A) (A) (A) (A) (A) (A)
                 (A) (A) (A) (A) (A) (A) (A) (A) (A) (A) (A) (A)
                 (A) (A) (A) (A)
       Virtual   (A) (A) (A) (A) (A) (A) (A) (A) (A) (A) (A) (A)
                 (A) (A) (A) (A) (A) (A) (A) (A) (A) (A) (A) (A)
                 (A) (A) (A) (A) (A) (A) (A) (A) (A) (A) (A) (A)
                 (A) (A) (A) (A) (A) (A) (A) (A) (A) (A) (A) (A)
                 (A) (A) (A) (A) (A) (A) (A) (A) (A) (A) (A) (A)
                 (A) (A) (A) (A) (A) (A) (A) (A) (A) (A) (A) (A)
                 (A) (A) (A) (A) (A) (A) (A) (A) (A) (A) (A) (A)
                 (A) (A) (A) (A) (A) (A) (A) (A) (A) (A) (A) (A)
                 (A) (A) (A) (A) (A) (A) (A) (A) (A) (A) (A) (A)
                 (A) (A) (A) (A) (A) (A) (A) (A) (A) (A) (A) (A)
                 (A) (A) (A) (A) (A) (A) (A) (A) (A) (A) (A) (A)
                 (A) (A) (A) (A) (A) (A) (A) (A) (A) (A) (A) (A)
                 (A) (A) (A) (A) (A) (A) (A) (A) (A) (A) (A) (A)
                 (A) (A) (A) (A) (A) (A) (A) (A) (A) (A) (A) (A)
                 (A) (A) (A) (A) (A) (A) (A) (A) (A) (A) (A) (A)
                 (A) (A) (A) (A) (A) (A) (A) (A) (A) (A) (A) (A)
                 (A) (A) (A) (A) (A) (A) (A) (A) (A) (A) (A) (A)
                 (A) (A) (A) (A) (A) (A) (A) (A) (A) (A) (A) (A)
                 (A) (A) (A) (A) (A) (A) (A) (A) (A) (A) (A) (A)
                 (A) (A) (A) (A) (A) (A) (A) (A) (A) (A)
 The electronic state is 1-A.
 Alpha  occ. eigenvalues --  -10.17348 -10.17292 -10.16591 -10.16552 -10.16512
 Alpha  occ. eigenvalues --  -10.16500 -10.16360  -0.83992  -0.75594  -0.71612
 Alpha  occ. eigenvalues --   -0.67096  -0.62536  -0.55745  -0.53769  -0.47139
 Alpha  occ. eigenvalues --   -0.46377  -0.42049  -0.41396  -0.40213  -0.39152
 Alpha  occ. eigenvalues --   -0.38033  -0.35813  -0.32482  -0.31894  -0.31147
 Alpha  occ. eigenvalues --   -0.30953  -0.30147  -0.29905
 Alpha virt. eigenvalues --    0.08367   0.09553   0.11137   0.13509   0.15587
 Alpha virt. eigenvalues --    0.15860   0.16274   0.17068   0.17384   0.17951
 Alpha virt. eigenvalues --    0.19078   0.19322   0.20583   0.21306   0.21573
 Alpha virt. eigenvalues --    0.22375   0.25574   0.27702   0.29043   0.29754
 Alpha virt. eigenvalues --    0.32552   0.45787   0.46267   0.47614   0.49477
 Alpha virt. eigenvalues --    0.51022   0.51875   0.53440   0.55453   0.56248
 Alpha virt. eigenvalues --    0.57819   0.58500   0.59545   0.61739   0.62169
 Alpha virt. eigenvalues --    0.63669   0.67360   0.68954   0.69889   0.72866
 Alpha virt. eigenvalues --    0.72880   0.73467   0.74703   0.75393   0.75871
 Alpha virt. eigenvalues --    0.77212   0.77922   0.79532   0.80134   0.81305
 Alpha virt. eigenvalues --    0.81784   0.83653   0.85542   0.85752   0.86835
 Alpha virt. eigenvalues --    0.88679   0.89939   0.91914   1.06658   1.09025
 Alpha virt. eigenvalues --    1.11619   1.13546   1.14067   1.14989   1.22865
 Alpha virt. eigenvalues --    1.24760   1.30517   1.32523   1.33999   1.35657
 Alpha virt. eigenvalues --    1.37803   1.40733   1.42851   1.45612   1.47435
 Alpha virt. eigenvalues --    1.49202   1.52395   1.55146   1.55958   1.57295
 Alpha virt. eigenvalues --    1.59387   1.59636   1.61179   1.67495   1.68128
 Alpha virt. eigenvalues --    1.70928   1.73965   1.76283   1.79109   1.79653
 Alpha virt. eigenvalues --    1.85031   1.87220   1.90915   1.92595   1.94720
 Alpha virt. eigenvalues --    1.96233   1.96811   1.97524   2.02200   2.11903
 Alpha virt. eigenvalues --    2.17966   2.22982   2.26853   2.28039   2.29110
 Alpha virt. eigenvalues --    2.30353   2.32775   2.34822   2.36079   2.37904
 Alpha virt. eigenvalues --    2.39927   2.41681   2.44041   2.48343   2.49472
 Alpha virt. eigenvalues --    2.55814   2.58775   2.63546   2.68755   2.70337
 Alpha virt. eigenvalues --    2.71656   2.72118   2.73774   2.77956   2.81295
 Alpha virt. eigenvalues --    2.82240   2.83434   2.86156   2.87936   2.88914
 Alpha virt. eigenvalues --    2.89844   2.90919   2.92428   2.93707   2.94227
 Alpha virt. eigenvalues --    2.97075   2.99410   2.99551   3.04054   3.05372
 Alpha virt. eigenvalues --    3.06125   3.14944   3.16256   3.19948   3.22356
 Alpha virt. eigenvalues --    3.23185   3.27869   3.29480   3.32176   3.33942
 Alpha virt. eigenvalues --    3.36819   3.40542   3.41662   3.43419   3.45411
 Alpha virt. eigenvalues --    3.46664   3.50623   3.52917   3.53208   3.54533
 Alpha virt. eigenvalues --    3.62385   3.65458   3.66540   3.67810   3.69352
 Alpha virt. eigenvalues --    3.71393   3.75209   3.77058   3.78719   3.85126
 Alpha virt. eigenvalues --    3.86736   3.89583   3.94342   3.98851   3.99817
 Alpha virt. eigenvalues --    3.99855   4.02166   4.06941   4.19385   4.25656
 Alpha virt. eigenvalues --    4.39372   4.40591   4.41991   4.43094   4.45227
 Alpha virt. eigenvalues --    4.47484   4.50413   4.51309   4.55038   4.55931
 Alpha virt. eigenvalues --    4.57225   4.59191   4.61284   4.62723   4.65012
 Alpha virt. eigenvalues --    4.65578   4.67634   4.69062   4.72765   4.73772
 Alpha virt. eigenvalues --    4.74777   4.77825   4.79999   4.82023   4.82968
 Alpha virt. eigenvalues --    4.84653   4.85810   4.86494   4.88077   4.88807
 Alpha virt. eigenvalues --    4.90973   4.93573   4.96299   4.98111   5.00778
 Alpha virt. eigenvalues --    5.04717   5.07122   5.14579   5.20083   5.26735
 Alpha virt. eigenvalues --    5.30748   5.38842   5.41541   5.42850   5.51015
 Alpha virt. eigenvalues --    5.52609   5.60550   5.63311   5.71336   6.29427
 Alpha virt. eigenvalues --    6.86884  11.00428  11.57693  11.83735  11.91191
 Alpha virt. eigenvalues --   12.17590  12.68925  12.98137
          Condensed to atoms (all electrons):
               1          2          3          4          5          6
     1  C    5.018043   0.403593  -0.034341   0.003504   0.004281  -0.000095
     2  C    0.403593   4.571744   0.431229  -0.050616  -0.051025   0.003251
     3  C   -0.034341   0.431229   4.896830   0.394937  -0.051897   0.002380
     4  C    0.003504  -0.050616   0.394937   4.897770   0.435558  -0.035115
     5  C    0.004281  -0.051025  -0.051897   0.435558   4.580683   0.402847
     6  C   -0.000095   0.003251   0.002380  -0.035115   0.402847   5.016429
     7  C   -0.035411   0.425380  -0.060041  -0.059779   0.418581  -0.031594
     8  H    0.367703  -0.021388  -0.002530   0.000085  -0.000197   0.000003
     9  H    0.370815  -0.022198  -0.008812   0.000349   0.000211   0.000002
    10  H    0.368441  -0.021504   0.004676  -0.000231   0.000035  -0.000005
    11  H   -0.050112   0.366460  -0.049145   0.004676   0.002007   0.000402
    12  H   -0.009187  -0.028507   0.360020  -0.028488   0.000534   0.000021
    13  H    0.001812  -0.026418   0.358802  -0.024633   0.004386  -0.000242
    14  H   -0.000249   0.004331  -0.024618   0.357311  -0.025907   0.003337
    15  H    0.000015  -0.000317  -0.028382   0.360741  -0.029482  -0.012548
    16  H   -0.000168   0.003609   0.005394  -0.045916   0.365702  -0.052189
    17  H   -0.000019   0.000447   0.000416  -0.007914  -0.025417   0.371393
    18  H    0.000000  -0.000006  -0.000206   0.004582  -0.021374   0.368316
    19  H    0.000002  -0.000164   0.000112  -0.003079  -0.022896   0.369161
    20  H   -0.012991  -0.029821  -0.001739   0.005766  -0.021480   0.005113
    21  H    0.003265  -0.023588   0.006679   0.003322  -0.030971  -0.014376
               7          8          9         10         11         12
     1  C   -0.035411   0.367703   0.370815   0.368441  -0.050112  -0.009187
     2  C    0.425380  -0.021388  -0.022198  -0.021504   0.366460  -0.028507
     3  C   -0.060041  -0.002530  -0.008812   0.004676  -0.049145   0.360020
     4  C   -0.059779   0.000085   0.000349  -0.000231   0.004676  -0.028488
     5  C    0.418581  -0.000197   0.000211   0.000035   0.002007   0.000534
     6  C   -0.031594   0.000003   0.000002  -0.000005   0.000402   0.000021
     7  C    4.937218   0.004600  -0.007283  -0.003820  -0.042945  -0.004535
     8  H    0.004600   0.613856  -0.033287  -0.032640  -0.003288  -0.000014
     9  H   -0.007283  -0.033287   0.605197  -0.033453   0.006408   0.006867
    10  H   -0.003820  -0.032640  -0.033453   0.612741  -0.002461   0.000044
    11  H   -0.042945  -0.003288   0.006408  -0.002461   0.708993   0.006832
    12  H   -0.004535  -0.000014   0.006867   0.000044   0.006832   0.649558
    13  H    0.006829   0.001813  -0.000280  -0.000176  -0.008558  -0.041734
    14  H    0.006564   0.000001  -0.000003   0.000004  -0.000134  -0.007805
    15  H   -0.001825  -0.000005   0.000004   0.000007   0.001902   0.005892
    16  H   -0.040490   0.000005  -0.000040   0.000005  -0.000162   0.001159
    17  H   -0.006338   0.000000   0.000000   0.000001   0.000241   0.000012
    18  H   -0.004225   0.000000   0.000000   0.000001   0.000021   0.000009
    19  H    0.004441  -0.000000   0.000000   0.000000  -0.000012  -0.000002
    20  H    0.352503   0.000145   0.006759   0.000508   0.006951   0.001468
    21  H    0.357222  -0.000221  -0.000266   0.001485  -0.011564  -0.000123
              13         14         15         16         17         18
     1  C    0.001812  -0.000249   0.000015  -0.000168  -0.000019   0.000000
     2  C   -0.026418   0.004331  -0.000317   0.003609   0.000447  -0.000006
     3  C    0.358802  -0.024618  -0.028382   0.005394   0.000416  -0.000206
     4  C   -0.024633   0.357311   0.360741  -0.045916  -0.007914   0.004582
     5  C    0.004386  -0.025907  -0.029482   0.365702  -0.025417  -0.021374
     6  C   -0.000242   0.003337  -0.012548  -0.052189   0.371393   0.368316
     7  C    0.006829   0.006564  -0.001825  -0.040490  -0.006338  -0.004225
     8  H    0.001813   0.000001  -0.000005   0.000005   0.000000   0.000000
     9  H   -0.000280  -0.000003   0.000004  -0.000040   0.000000   0.000000
    10  H   -0.000176   0.000004   0.000007   0.000005   0.000001   0.000001
    11  H   -0.008558  -0.000134   0.001902  -0.000162   0.000241   0.000021
    12  H   -0.041734  -0.007805   0.005892   0.001159   0.000012   0.000009
    13  H    0.648152   0.002263  -0.007657  -0.000177  -0.000019   0.000004
    14  H    0.002263   0.651799  -0.042324  -0.011254  -0.000217  -0.000218
    15  H   -0.007657  -0.042324   0.650583   0.006813   0.006998   0.000138
    16  H   -0.000177  -0.011254   0.006813   0.713302   0.006564  -0.003037
    17  H   -0.000019  -0.000217   0.006998   0.006564   0.608242  -0.033662
    18  H    0.000004  -0.000218   0.000138  -0.003037  -0.033662   0.612717
    19  H    0.000000   0.001080   0.000802  -0.003046  -0.033403  -0.032573
    20  H   -0.000167  -0.000175  -0.000190  -0.014843  -0.000097   0.000419
    21  H   -0.000206  -0.000168   0.000184   0.006109   0.004261   0.002385
              19         20         21
     1  C    0.000002  -0.012991   0.003265
     2  C   -0.000164  -0.029821  -0.023588
     3  C    0.000112  -0.001739   0.006679
     4  C   -0.003079   0.005766   0.003322
     5  C   -0.022896  -0.021480  -0.030971
     6  C    0.369161   0.005113  -0.014376
     7  C    0.004441   0.352503   0.357222
     8  H   -0.000000   0.000145  -0.000221
     9  H    0.000000   0.006759  -0.000266
    10  H    0.000000   0.000508   0.001485
    11  H   -0.000012   0.006951  -0.011564
    12  H   -0.000002   0.001468  -0.000123
    13  H    0.000000  -0.000167  -0.000206
    14  H    0.001080  -0.000175  -0.000168
    15  H    0.000802  -0.000190   0.000184
    16  H   -0.003046  -0.014843   0.006109
    17  H   -0.033403  -0.000097   0.004261
    18  H   -0.032573   0.000419   0.002385
    19  H    0.613591  -0.000258   0.000183
    20  H   -0.000258   0.658826  -0.043651
    21  H    0.000183  -0.043651   0.652637
 Mulliken charges:
               1
     1  C   -0.398902
     2  C    0.065508
     3  C   -0.199765
     4  C   -0.212831
     5  C    0.065821
     6  C   -0.396492
     7  C   -0.215050
     8  H    0.105360
     9  H    0.109010
    10  H    0.106342
    11  H    0.063488
    12  H    0.087979
    13  H    0.086206
    14  H    0.086381
    15  H    0.088649
    16  H    0.062659
    17  H    0.108511
    18  H    0.106709
    19  H    0.106060
    20  H    0.086954
    21  H    0.087401
 Sum of Mulliken charges =  -0.00000
 Mulliken charges with hydrogens summed into heavy atoms:
               1
     1  C   -0.078189
     2  C    0.128996
     3  C   -0.025580
     4  C   -0.037800
     5  C    0.128480
     6  C   -0.075212
     7  C   -0.040695
 Electronic spatial extent (au):  <R**2>=            898.8862
 Charge=             -0.0000 electrons
 Dipole moment (field-independent basis, Debye):
    X=             -0.0006    Y=              0.0411    Z=              0.0164  Tot=              0.0443
 Quadrupole moment (field-independent basis, Debye-Ang):
   XX=            -47.9632   YY=            -46.6813   ZZ=            -45.3668
   XY=             -0.0320   XZ=              0.3363   YZ=              0.0633
 Traceless Quadrupole moment (field-independent basis, Debye-Ang):
   XX=             -1.2928   YY=             -0.0108   ZZ=              1.3036
   XY=             -0.0320   XZ=              0.3363   YZ=              0.0633
 Octapole moment (field-independent basis, Debye-Ang**2):
  XXX=              0.6355  YYY=             -1.0231  ZZZ=              0.3596  XYY=              0.0801
  XXY=              1.9859  XXZ=              0.5415  XZZ=             -0.4290  YZZ=              0.4648
  YYZ=             -0.2606  XYZ=              0.1397
 Hexadecapole moment (field-independent basis, Debye-Ang**3):
 XXXX=           -831.3110 YYYY=           -316.2215 ZZZZ=           -116.4694 XXXY=              0.0670
 XXXZ=              6.8039 YYYX=             -0.2056 YYYZ=              0.9328 ZZZX=             -1.3660
 ZZZY=             -0.1738 XXYY=           -187.3480 XXZZ=           -154.4822 YYZZ=            -71.2338
 XXYZ=             -1.0624 YYXZ=              2.8567 ZZXY=             -0.0671
 N-N= 3.273498677599D+02 E-N=-1.290705977194D+03  KE= 2.728927613840D+02
 PrsmSu:  requested number of processors reduced to:  13 ShMem   1 Linda.
 Calling FoFJK, ICntrl=      2127 FMM=F ISym2X=0 I1Cent= 0 IOpClX= 0 NMat=1 NMatS=1 NMatT=0.
 ***** Axes restored to original set *****
 -------------------------------------------------------------------
 Center     Atomic                   Forces (Hartrees/Bohr)
 Number     Number              X              Y              Z
 -------------------------------------------------------------------
      1        6          -0.003413890    0.000389544   -0.007170851
      2        6          -0.013257349   -0.000012138    0.002602387
      3        6           0.004534415    0.009034335   -0.006404316
      4        6           0.002316206    0.008111326    0.009227126
      5        6           0.010386501   -0.007594300    0.001524776
      6        6           0.003561816   -0.004154278    0.004239864
      7        6          -0.003160153   -0.005794839   -0.001107057
      8        1          -0.002352979   -0.000024851   -0.000435883
      9        1           0.000599269   -0.000274721    0.000558657
     10        1          -0.002241754    0.000484323   -0.000487562
     11        1           0.000518090    0.001384417    0.000004821
     12        1          -0.002575131   -0.000765640    0.000127906
     13        1          -0.002844623    0.001316818    0.002268917
     14        1           0.003383695    0.000305608   -0.001974158
     15        1           0.001093045   -0.001332389   -0.000579434
     16        1           0.001384079    0.000689987   -0.000433405
     17        1          -0.000182538    0.000333867   -0.000445578
     18        1           0.001868642   -0.000706713   -0.000362155
     19        1           0.002001579   -0.000815808   -0.000726590
     20        1          -0.002288741    0.000402342   -0.002473447
     21        1           0.000669820   -0.000976889    0.002045981
 -------------------------------------------------------------------
 Cartesian Forces:  Max     0.013257349 RMS     0.003759231

 GradGradGradGradGradGradGradGradGradGradGradGradGradGradGradGradGradGrad
 Berny optimization.
 FormGI is forming the generalized inverse of G from B-inverse, IUseBI=4.
 Internal  Forces:  Max     0.014565337 RMS     0.002957067
 Search for a local minimum.
 Step number   1 out of a maximum of  126
 All quantities printed in internal units (Hartrees-Bohrs-Radians)
 Mixed Optimization -- RFO/linear search
 Second derivative matrix not updated -- first step.
 ITU=  0
     Eigenvalues ---    0.00360   0.00474   0.00495   0.00601   0.02119
     Eigenvalues ---    0.02256   0.04045   0.04113   0.04229   0.04310
     Eigenvalues ---    0.04428   0.04953   0.05138   0.05569   0.05592
     Eigenvalues ---    0.05609   0.05644   0.05647   0.05689   0.06092
     Eigenvalues ---    0.06150   0.06911   0.07101   0.07296   0.09067
     Eigenvalues ---    0.09942   0.13525   0.14158   0.16000   0.16000
     Eigenvalues ---    0.16000   0.16000   0.16000   0.16000   0.18476
     Eigenvalues ---    0.19166   0.26202   0.27400   0.28927   0.29251
     Eigenvalues ---    0.29692   0.30165   0.30322   0.33961   0.33983
     Eigenvalues ---    0.34064   0.34104   0.34163   0.34174   0.34187
     Eigenvalues ---    0.34194   0.34211   0.34234   0.34240   0.34248
     Eigenvalues ---    0.34295   0.34301
 RFO step:  Lambda=-5.76378540D-03 EMin= 3.60444129D-03
 Linear search not attempted -- first point.
 Iteration  1 RMS(Cart)=  0.03797704 RMS(Int)=  0.00042363
 Iteration  2 RMS(Cart)=  0.00040984 RMS(Int)=  0.00024104
 Iteration  3 RMS(Cart)=  0.00000016 RMS(Int)=  0.00024104
 Variable       Old X    -DE/DX   Delta X   Delta X   Delta X     New X
                                 (Linear)    (Quad)   (Total)
    R1        2.87327   0.00768   0.00000   0.02485   0.02485   2.89812
    R2        2.06834   0.00096   0.00000   0.00274   0.00274   2.07109
    R3        2.06975   0.00029   0.00000   0.00083   0.00083   2.07059
    R4        2.06914   0.00064   0.00000   0.00182   0.00182   2.07096
    R5        2.88219   0.00885   0.00000   0.02773   0.02787   2.91005
    R6        2.89258   0.01147   0.00000   0.03836   0.03845   2.93103
    R7        2.07359   0.00030   0.00000   0.00087   0.00087   2.07446
    R8        2.87262   0.01223   0.00000   0.03983   0.03973   2.91235
    R9        2.06927   0.00139   0.00000   0.00398   0.00398   2.07325
   R10        2.07037   0.00002   0.00000   0.00006   0.00006   2.07043
   R11        2.89468   0.01040   0.00000   0.03519   0.03509   2.92978
   R12        2.07056  -0.00028   0.00000  -0.00081  -0.00081   2.06975
   R13        2.07016   0.00083   0.00000   0.00238   0.00238   2.07254
   R14        2.87635   0.00765   0.00000   0.02488   0.02488   2.90123
   R15        2.90215   0.01457   0.00000   0.05007   0.05006   2.95221
   R16        2.07397  -0.00073   0.00000  -0.00213  -0.00213   2.07184
   R17        2.07003   0.00046   0.00000   0.00132   0.00132   2.07135
   R18        2.06937   0.00043   0.00000   0.00124   0.00124   2.07061
   R19        2.06826   0.00103   0.00000   0.00295   0.00295   2.07121
   R20        2.07223  -0.00027   0.00000  -0.00079  -0.00079   2.07144
   R21        2.07155  -0.00064   0.00000  -0.00185  -0.00185   2.06970
    A1        1.93311   0.00285   0.00000   0.01816   0.01808   1.95119
    A2        1.94127  -0.00219   0.00000  -0.01479  -0.01471   1.92656
    A3        1.93233   0.00284   0.00000   0.01776   0.01768   1.95000
    A4        1.88329  -0.00052   0.00000  -0.00438  -0.00430   1.87898
    A5        1.88943  -0.00259   0.00000  -0.01258  -0.01281   1.87662
    A6        1.88245  -0.00058   0.00000  -0.00531  -0.00523   1.87722
    A7        1.96717   0.00351   0.00000   0.03564   0.03512   2.00229
    A8        1.96344   0.00275   0.00000   0.03254   0.03205   1.99549
    A9        1.90487  -0.00227   0.00000  -0.02234  -0.02174   1.88313
   A10        1.82147  -0.00301   0.00000  -0.01041  -0.01119   1.81028
   A11        1.90551  -0.00119   0.00000  -0.02916  -0.02911   1.87640
   A12        1.89874   0.00008   0.00000  -0.00809  -0.00831   1.89043
   A13        1.80489   0.00272   0.00000   0.01306   0.01331   1.81819
   A14        1.94321  -0.00206   0.00000  -0.02876  -0.02878   1.91443
   A15        1.95423  -0.00062   0.00000   0.00962   0.00888   1.96312
   A16        1.92554  -0.00021   0.00000   0.00267   0.00264   1.92818
   A17        1.94919   0.00068   0.00000   0.02151   0.02113   1.97032
   A18        1.88690  -0.00045   0.00000  -0.01687  -0.01685   1.87005
   A19        1.82797   0.00164   0.00000   0.01136   0.01128   1.83926
   A20        1.94534   0.00126   0.00000   0.02555   0.02526   1.97060
   A21        1.92120  -0.00038   0.00000  -0.00423  -0.00422   1.91699
   A22        1.94866  -0.00060   0.00000   0.00898   0.00830   1.95695
   A23        1.94288  -0.00128   0.00000  -0.02467  -0.02461   1.91827
   A24        1.87859  -0.00060   0.00000  -0.01631  -0.01626   1.86234
   A25        1.95809   0.00273   0.00000   0.02114   0.02106   1.97915
   A26        1.85266  -0.00394   0.00000  -0.01740  -0.01767   1.83499
   A27        1.90403  -0.00026   0.00000  -0.01591  -0.01590   1.88813
   A28        1.96276   0.00303   0.00000   0.02715   0.02710   1.98986
   A29        1.89202  -0.00236   0.00000  -0.01938  -0.01923   1.87279
   A30        1.89265   0.00073   0.00000   0.00326   0.00311   1.89576
   A31        1.94078  -0.00158   0.00000  -0.01166  -0.01159   1.92919
   A32        1.93116   0.00256   0.00000   0.01698   0.01689   1.94805
   A33        1.93338   0.00257   0.00000   0.01610   0.01601   1.94938
   A34        1.88295  -0.00067   0.00000  -0.00516  -0.00509   1.87785
   A35        1.88643  -0.00091   0.00000  -0.00844  -0.00838   1.87806
   A36        1.88723  -0.00215   0.00000  -0.00888  -0.00911   1.87813
   A37        1.85428   0.00420   0.00000   0.01940   0.01992   1.87420
   A38        1.93952  -0.00352   0.00000  -0.02501  -0.02541   1.91411
   A39        1.93092   0.00064   0.00000   0.01259   0.01250   1.94342
   A40        1.90633   0.00162   0.00000   0.02279   0.02289   1.92922
   A41        1.96895  -0.00320   0.00000  -0.01788  -0.01820   1.95075
   A42        1.86499   0.00011   0.00000  -0.01244  -0.01226   1.85273
    D1        1.10892  -0.00075   0.00000  -0.03485  -0.03546   1.07347
    D2       -3.12052  -0.00030   0.00000  -0.00129  -0.00078  -3.12130
    D3       -1.01131   0.00003   0.00000  -0.00572  -0.00586  -1.01717
    D4       -0.98539  -0.00055   0.00000  -0.03166  -0.03218  -1.01757
    D5        1.06836  -0.00010   0.00000   0.00191   0.00249   1.07085
    D6       -3.10562   0.00023   0.00000  -0.00252  -0.00259  -3.10821
    D7       -3.07813  -0.00026   0.00000  -0.02703  -0.02747  -3.10560
    D8       -1.02439   0.00019   0.00000   0.00653   0.00720  -1.01719
    D9        1.08482   0.00052   0.00000   0.00210   0.00212   1.08694
   D10        2.79436   0.00099   0.00000   0.03282   0.03275   2.82711
   D11        0.72686   0.00067   0.00000   0.03608   0.03608   0.76295
   D12       -1.38781   0.00313   0.00000   0.07138   0.07141  -1.31640
   D13        0.65865  -0.00240   0.00000  -0.02041  -0.02029   0.63836
   D14       -1.40885  -0.00272   0.00000  -0.01716  -0.01696  -1.42581
   D15        2.75966  -0.00025   0.00000   0.01814   0.01837   2.77803
   D16       -1.36895  -0.00040   0.00000   0.00757   0.00725  -1.36170
   D17        2.84674  -0.00073   0.00000   0.01082   0.01059   2.85732
   D18        0.73206   0.00174   0.00000   0.04613   0.04592   0.77798
   D19       -2.55482  -0.00292   0.00000  -0.04713  -0.04695  -2.60177
   D20       -0.48309  -0.00037   0.00000  -0.02168  -0.02165  -0.50474
   D21        1.58570  -0.00207   0.00000  -0.04505  -0.04508   1.54062
   D22       -0.41666   0.00096   0.00000   0.00808   0.00799  -0.40867
   D23        1.65507   0.00352   0.00000   0.03352   0.03329   1.68836
   D24       -2.55933   0.00182   0.00000   0.01015   0.00986  -2.54947
   D25        1.61565  -0.00190   0.00000  -0.03443  -0.03430   1.58135
   D26       -2.59581   0.00065   0.00000  -0.00898  -0.00900  -2.60481
   D27       -0.52702  -0.00104   0.00000  -0.03236  -0.03243  -0.55945
   D28       -0.64876   0.00068   0.00000   0.01466   0.01466  -0.63409
   D29       -2.75855  -0.00029   0.00000  -0.01698  -0.01715  -2.77570
   D30        1.44145  -0.00010   0.00000  -0.01016  -0.01014   1.43131
   D31        1.43096  -0.00031   0.00000  -0.01041  -0.01035   1.42061
   D32       -0.67883  -0.00128   0.00000  -0.04205  -0.04216  -0.72100
   D33       -2.76202  -0.00108   0.00000  -0.03523  -0.03515  -2.79717
   D34       -2.75320  -0.00057   0.00000  -0.01569  -0.01583  -2.76903
   D35        1.42019  -0.00153   0.00000  -0.04732  -0.04764   1.37255
   D36       -0.66300  -0.00134   0.00000  -0.04051  -0.04063  -0.70363
   D37        2.54022   0.00064   0.00000   0.01690   0.01682   2.55703
   D38        0.38990  -0.00213   0.00000  -0.01801  -0.01791   0.37199
   D39       -1.64624  -0.00076   0.00000  -0.00463  -0.00480  -1.65105
   D40       -1.63537   0.00284   0.00000   0.05958   0.05955  -1.57582
   D41        2.49750   0.00008   0.00000   0.02468   0.02482   2.52232
   D42        0.46136   0.00145   0.00000   0.03805   0.03793   0.49929
   D43        0.46458   0.00078   0.00000   0.02796   0.02791   0.49249
   D44       -1.68574  -0.00198   0.00000  -0.00695  -0.00682  -1.69255
   D45        2.56131  -0.00061   0.00000   0.00643   0.00629   2.56760
   D46       -1.04477   0.00025   0.00000  -0.02046  -0.02072  -1.06549
   D47       -3.13703   0.00043   0.00000  -0.01758  -0.01777   3.12839
   D48        1.05336  -0.00022   0.00000  -0.02807  -0.02841   1.02495
   D49        1.04231  -0.00078   0.00000  -0.00886  -0.00853   1.03378
   D50       -1.04995  -0.00059   0.00000  -0.00598  -0.00558  -1.05553
   D51        3.14044  -0.00125   0.00000  -0.01648  -0.01622   3.12422
   D52        3.13472   0.00045   0.00000  -0.00087  -0.00094   3.13378
   D53        1.04246   0.00063   0.00000   0.00201   0.00202   1.04448
   D54       -1.05033  -0.00003   0.00000  -0.00848  -0.00862  -1.05896
   D55        0.01768   0.00073   0.00000   0.00645   0.00654   0.02422
   D56       -2.07576   0.00164   0.00000   0.01284   0.01258  -2.06318
   D57        2.13617   0.00243   0.00000   0.02436   0.02430   2.16048
   D58       -2.12970  -0.00184   0.00000  -0.02468  -0.02441  -2.15411
   D59        2.06005  -0.00093   0.00000  -0.01830  -0.01837   2.04167
   D60       -0.01121  -0.00014   0.00000  -0.00677  -0.00665  -0.01785
   D61        2.06145  -0.00127   0.00000  -0.01956  -0.01945   2.04200
   D62       -0.03199  -0.00035   0.00000  -0.01317  -0.01341  -0.04541
   D63       -2.10325   0.00043   0.00000  -0.00165  -0.00169  -2.10493
         Item               Value     Threshold  Converged?
 Maximum Force            0.014565     0.000450     NO 
 RMS     Force            0.002957     0.000300     NO 
 Maximum Displacement     0.122968     0.001800     NO 
 RMS     Displacement     0.037856     0.001200     NO 
 Predicted change in Energy=-3.074018D-03
 GradGradGradGradGradGradGradGradGradGradGradGradGradGradGradGradGradGrad

                          Input orientation:                          
 ---------------------------------------------------------------------
 Center     Atomic      Atomic             Coordinates (Angstroms)
 Number     Number       Type             X           Y           Z
 ---------------------------------------------------------------------
      1          6           0        1.028486    0.029167   -0.081648
      2          6           0        2.558733    0.019898    0.019533
      3          6           0        3.154255    1.150858    0.878414
      4          6           0        4.581712    0.667885    1.201285
      5          6           0        4.463799   -0.866377    1.390454
      6          6           0        5.707189   -1.635705    0.922319
      7          6           0        3.149901   -1.269239    0.647504
      8          1           0        0.657143    0.948337   -0.548968
      9          1           0        0.579648   -0.041538    0.915408
     10          1           0        0.655861   -0.815218   -0.672560
     11          1           0        2.964516    0.126857   -0.994848
     12          1           0        2.569240    1.262466    1.799809
     13          1           0        3.137647    2.119124    0.365988
     14          1           0        5.009601    1.160317    2.081070
     15          1           0        5.249051    0.890238    0.359826
     16          1           0        4.337663   -1.070479    2.460250
     17          1           0        5.878715   -1.474340   -0.148196
     18          1           0        5.598064   -2.714314    1.081351
     19          1           0        6.608533   -1.311524    1.455026
     20          1           0        2.428175   -1.701968    1.349941
     21          1           0        3.332098   -2.035934   -0.113106
 ---------------------------------------------------------------------
                    Distance matrix (angstroms):
                    1          2          3          4          5
     1  C    0.000000
     2  C    1.533617   0.000000
     3  C    2.588205   1.539933   0.000000
     4  C    3.831357   2.430817   1.541150   0.000000
     5  C    3.843236   2.508822   2.458928   1.550370   0.000000
     6  C    5.066558   3.669989   3.779462   2.578962   1.535264
     7  C    2.591896   1.551032   2.431091   2.471680   1.562242
     8  H    1.095973   2.191173   2.883401   4.306308   4.641678
     9  H    1.095708   2.173279   2.837565   4.074496   3.999082
    10  H    1.095907   2.190282   3.537364   4.595998   4.331170
    11  H    2.142822   1.097756   2.143288   2.780473   2.987312
    12  H    2.726689   2.171053   1.097119   2.182156   2.879045
    13  H    3.002808   2.204977   1.095625   2.211140   3.423657
    14  H    4.669703   3.399595   2.211059   1.095263   2.209601
    15  H    4.330071   2.848000   2.173713   1.096739   2.182777
    16  H    4.315220   3.211014   2.972709   2.160199   1.096371
    17  H    5.078355   3.644608   3.920240   2.844722   2.176937
    18  H    5.455301   4.223850   4.577439   3.533642   2.190200
    19  H    5.941023   4.498245   4.281103   2.844371   2.191395
    20  H    2.646773   2.179874   2.981299   3.205624   2.200822
    21  H    3.093908   2.200485   3.342212   3.255733   2.215695
                    6          7          8          9         10
     6  C    0.000000
     7  C    2.597988   0.000000
     8  H    5.860454   3.544437   0.000000
     9  H    5.369645   2.860982   1.769252   0.000000
    10  H    5.360294   2.858136   1.767881   1.768059   0.000000
    11  H    3.782117   2.163509   2.489500   3.060233   2.514212
    12  H    4.360746   2.841567   3.044922   2.537926   3.753718
    13  H    4.583752   3.400059   2.891503   3.393181   3.980981
    14  H    3.105973   3.378807   5.089787   4.735790   5.517270
    15  H    2.628056   3.025315   4.681336   4.793767   5.007175
    16  H    2.135490   2.176311   5.165001   4.191411   4.841004
    17  H    1.096112   2.849848   5.770165   5.591448   5.290332
    18  H    1.095718   2.875756   6.362834   5.688213   5.577468
    19  H    1.096035   3.551903   6.673980   6.184780   6.340919
    20  H    3.307444   1.096157   3.710327   2.522478   2.831595
    21  H    2.621706   1.095238   4.031282   3.551259   2.994225
                   11         12         13         14         15
    11  H    0.000000
    12  H    3.042360   0.000000
    13  H    2.418879   1.764311   0.000000
    14  H    3.835581   2.458639   2.713858   0.000000
    15  H    2.763511   3.064881   2.442995   1.758681   0.000000
    16  H    3.906001   3.001022   3.999942   2.360451   3.014436
    17  H    3.431211   4.715662   4.548717   3.558990   2.499159
    18  H    4.395274   5.050222   5.470605   4.044563   3.692588
    19  H    4.620572   4.802103   5.000239   3.009736   2.809877
    20  H    3.021638   3.001691   4.009022   3.923135   3.956918
    21  H    2.364372   3.888527   4.187105   4.224269   3.529994
                   16         17         18         19         20
    16  H    0.000000
    17  H    3.056459   0.000000
    18  H    2.488407   1.768640   0.000000
    19  H    2.495082   1.769029   1.768757   0.000000
    20  H    2.297327   3.768615   3.338441   4.199868   0.000000
    21  H    2.926675   2.608041   2.649817   3.703895   1.751889
                   21
    21  H    0.000000
 Stoichiometry    C7H14
 Framework group  C1[X(C7H14)]
 Deg. of freedom    57
 Full point group                 C1      NOp   1
 Largest Abelian subgroup         C1      NOp   1
 Largest concise Abelian subgroup C1      NOp   1
                         Standard orientation:                         
 ---------------------------------------------------------------------
 Center     Atomic      Atomic             Coordinates (Angstroms)
 Number     Number       Type             X           Y           Z
 ---------------------------------------------------------------------
      1          6           0       -2.564985   -0.564751   -0.000694
      2          6           0       -1.143026   -0.138190   -0.385478
      3          6           0       -0.756708    1.286173    0.054230
      4          6           0        0.782772    1.298463   -0.016428
      5          6           0        1.226607   -0.115727    0.438244
      6          6           0        2.494155   -0.614067   -0.270287
      7          6           0       -0.023919   -1.026004    0.218745
      8          1           0       -3.322144    0.076909   -0.465601
      9          1           0       -2.700511   -0.505732    1.084997
     10          1           0       -2.775227   -1.596508   -0.304483
     11          1           0       -1.062957   -0.179245   -1.479539
     12          1           0       -1.095081    1.459887    1.083306
     13          1           0       -1.218251    2.057587   -0.572102
     14          1           0        1.231339    2.088257    0.595629
     15          1           0        1.106500    1.477554   -1.048882
     16          1           0        1.446994   -0.076543    1.511521
     17          1           0        2.328956   -0.681064   -1.351805
     18          1           0        2.788821   -1.608891    0.081982
     19          1           0        3.342102    0.060594   -0.105635
     20          1           0       -0.362956   -1.449827    1.171105
     21          1           0        0.203037   -1.878367   -0.430495
 ---------------------------------------------------------------------
 Rotational constants (GHZ):           4.8561885           1.8098309           1.4549764
 Standard basis: 6-31G(2df,p) (6D, 7F)
 There are   287 symmetry adapted cartesian basis functions of A   symmetry.
 There are   266 symmetry adapted basis functions of A   symmetry.
   266 basis functions,   406 primitive gaussians,   287 cartesian basis functions
    28 alpha electrons       28 beta electrons
       nuclear repulsion energy       323.3899902721 Hartrees.
 NAtoms=   21 NActive=   21 NUniq=   21 SFac= 1.00D+00 NAtFMM=   60 NAOKFM=F Big=F
 Integral buffers will be    131072 words long.
 Raffenetti 2 integral format.
 Two-electron integral symmetry is turned on.
 One-electron integrals computed using PRISM.
 PrsmSu:  requested number of processors reduced to:  13 ShMem   1 Linda.
 NBasis=   266 RedAO= T EigKep=  5.36D-04  NBF=   266
 NBsUse=   266 1.00D-06 EigRej= -1.00D+00 NBFU=   266
 Initial guess from the checkpoint file:  "CC1CCCqCrC1.chk"
 B after Tr=     0.000000    0.000000    0.000000
         Rot=    0.999999    0.000296   -0.000844    0.000568 Ang=   0.12 deg.
 ExpMin= 1.61D-01 ExpMax= 3.05D+03 ExpMxC= 4.57D+02 IAcc=2 IRadAn=         4 AccDes= 0.00D+00
 Harris functional with IExCor=  402 and IRadAn=       4 diagonalized for initial guess.
 HarFok:  IExCor=  402 AccDes= 0.00D+00 IRadAn=         4 IDoV= 1 UseB2=F ITyADJ=14
 ICtDFT=  3500011 ScaDFX=  1.000000  1.000000  1.000000  1.000000
 FoFCou: FMM=F IPFlag=           0 FMFlag=      100000 FMFlg1=           0
         NFxFlg=           0 DoJE=T BraDBF=F KetDBF=T FulRan=T
         wScrn=  0.000000 ICntrl=       500 IOpCl=  0 I1Cent=   200000004 NGrid=           0
         NMat0=    1 NMatS0=      1 NMatT0=    0 NMatD0=    1 NMtDS0=    0 NMtDT0=    0
 Petite list used in FoFCou.
 Requested convergence on RMS density matrix=1.00D-08 within 128 cycles.
 Requested convergence on MAX density matrix=1.00D-06.
 Requested convergence on             energy=1.00D-06.
 No special actions if energy rises.
 Integral accuracy reduced to 1.0D-05 until final iterations.
 Initial convergence to 1.0D-05 achieved.  Increase integral accuracy.
 SCF Done:  E(RB3LYP) =  -275.209452582     A.U. after   10 cycles
            NFock= 10  Conv=0.23D-08     -V/T= 2.0094
 PrsmSu:  requested number of processors reduced to:  13 ShMem   1 Linda.
 Calling FoFJK, ICntrl=      2127 FMM=F ISym2X=0 I1Cent= 0 IOpClX= 0 NMat=1 NMatS=1 NMatT=0.
 ***** Axes restored to original set *****
 -------------------------------------------------------------------
 Center     Atomic                   Forces (Hartrees/Bohr)
 Number     Number              X              Y              Z
 -------------------------------------------------------------------
      1        6           0.002235824   -0.000260489    0.000729652
      2        6          -0.000602736   -0.000332722   -0.000376414
      3        6           0.002074165   -0.000063412   -0.000395621
      4        6          -0.002199815    0.001178297    0.000118202
      5        6           0.000533233   -0.001231176    0.000265604
      6        6          -0.001871884    0.000907782   -0.000487549
      7        6          -0.000390635   -0.000205177   -0.000535709
      8        1           0.000766265   -0.000068125    0.000179685
      9        1          -0.000655459   -0.000133773    0.000459328
     10        1           0.000684961    0.000146802    0.000002558
     11        1           0.000972458   -0.000235220   -0.000516033
     12        1          -0.000100044   -0.000255338    0.001031386
     13        1          -0.000205813   -0.000105720    0.000858997
     14        1           0.000009928    0.000064826   -0.000775633
     15        1          -0.000122288   -0.000156308   -0.001003058
     16        1          -0.001066855    0.000020144   -0.000011431
     17        1           0.000372265   -0.000158522   -0.000458444
     18        1          -0.000325218    0.000336042    0.000242089
     19        1          -0.000580354    0.000427968    0.000115336
     20        1           0.000279520    0.000133533    0.000606329
     21        1           0.000192483   -0.000009412   -0.000049274
 -------------------------------------------------------------------
 Cartesian Forces:  Max     0.002235824 RMS     0.000726875

 GradGradGradGradGradGradGradGradGradGradGradGradGradGradGradGradGradGrad
 Berny optimization.
 Using GEDIIS/GDIIS optimizer.
 FormGI is forming the generalized inverse of G from B-inverse, IUseBI=4.
 Internal  Forces:  Max     0.003209955 RMS     0.000663047
 Search for a local minimum.
 Step number   2 out of a maximum of  126
 All quantities printed in internal units (Hartrees-Bohrs-Radians)
 Mixed Optimization -- En-DIIS/RFO-DIIS
 Update second derivatives using D2CorX and points    1    2
 DE= -2.46D-03 DEPred=-3.07D-03 R= 8.00D-01
 TightC=F SS=  1.41D+00  RLast= 2.53D-01 DXNew= 5.0454D-01 7.5878D-01
 Trust test= 8.00D-01 RLast= 2.53D-01 DXMaxT set to 5.05D-01
 ITU=  1  0
 Use linear search instead of GDIIS.
     Eigenvalues ---    0.00359   0.00474   0.00495   0.00580   0.02061
     Eigenvalues ---    0.02215   0.03881   0.03947   0.04088   0.04273
     Eigenvalues ---    0.04383   0.04970   0.05214   0.05478   0.05494
     Eigenvalues ---    0.05551   0.05607   0.05631   0.05748   0.06159
     Eigenvalues ---    0.06281   0.07086   0.07250   0.07524   0.09234
     Eigenvalues ---    0.10055   0.13696   0.14197   0.15990   0.16000
     Eigenvalues ---    0.16000   0.16000   0.16000   0.16311   0.19180
     Eigenvalues ---    0.19805   0.26398   0.27423   0.28455   0.29149
     Eigenvalues ---    0.29847   0.30229   0.32915   0.33959   0.34020
     Eigenvalues ---    0.34065   0.34103   0.34167   0.34177   0.34191
     Eigenvalues ---    0.34201   0.34224   0.34230   0.34242   0.34277
     Eigenvalues ---    0.34298   0.34909
 RFO step:  Lambda=-3.43374484D-04 EMin= 3.59161671D-03
 Quartic linear search produced a step of -0.11858.
 Iteration  1 RMS(Cart)=  0.02140171 RMS(Int)=  0.00026214
 Iteration  2 RMS(Cart)=  0.00033810 RMS(Int)=  0.00007493
 Iteration  3 RMS(Cart)=  0.00000005 RMS(Int)=  0.00007493
 Variable       Old X    -DE/DX   Delta X   Delta X   Delta X     New X
                                 (Linear)    (Quad)   (Total)
    R1        2.89812  -0.00312  -0.00295  -0.00517  -0.00811   2.89000
    R2        2.07109  -0.00039  -0.00033  -0.00058  -0.00091   2.07018
    R3        2.07059   0.00070  -0.00010   0.00192   0.00182   2.07241
    R4        2.07096  -0.00035  -0.00022  -0.00061  -0.00082   2.07014
    R5        2.91005  -0.00004  -0.00330   0.00345   0.00007   2.91012
    R6        2.93103  -0.00142  -0.00456   0.00203  -0.00248   2.92855
    R7        2.07446   0.00081  -0.00010   0.00224   0.00214   2.07659
    R8        2.91235  -0.00321  -0.00471  -0.00459  -0.00932   2.90303
    R9        2.07325   0.00089  -0.00047   0.00292   0.00244   2.07570
   R10        2.07043  -0.00049  -0.00001  -0.00126  -0.00126   2.06917
   R11        2.92978   0.00023  -0.00416   0.00666   0.00248   2.93226
   R12        2.06975  -0.00059   0.00010  -0.00165  -0.00155   2.06820
   R13        2.07254   0.00066  -0.00028   0.00208   0.00180   2.07433
   R14        2.90123  -0.00253  -0.00295  -0.00349  -0.00644   2.89479
   R15        2.95221  -0.00216  -0.00594   0.00271  -0.00316   2.94905
   R16        2.07184   0.00011   0.00025  -0.00005   0.00020   2.07204
   R17        2.07135   0.00048  -0.00016   0.00145   0.00129   2.07264
   R18        2.07061  -0.00026  -0.00015  -0.00049  -0.00063   2.06997
   R19        2.07121  -0.00029  -0.00035  -0.00030  -0.00065   2.07056
   R20        2.07144   0.00015   0.00009   0.00027   0.00036   2.07180
   R21        2.06970   0.00007   0.00022  -0.00010   0.00012   2.06982
    A1        1.95119  -0.00096  -0.00214  -0.00308  -0.00522   1.94596
    A2        1.92656   0.00094   0.00174   0.00399   0.00573   1.93229
    A3        1.95000  -0.00081  -0.00210  -0.00222  -0.00432   1.94569
    A4        1.87898   0.00012   0.00051   0.00091   0.00142   1.88041
    A5        1.87662   0.00071   0.00152  -0.00021   0.00132   1.87793
    A6        1.87722   0.00007   0.00062   0.00074   0.00136   1.87858
    A7        2.00229  -0.00040  -0.00416   0.00394  -0.00007   2.00222
    A8        1.99549  -0.00098  -0.00380   0.00096  -0.00272   1.99277
    A9        1.88313   0.00058   0.00258   0.00180   0.00426   1.88739
   A10        1.81028   0.00103   0.00133  -0.00283  -0.00159   1.80870
   A11        1.87640  -0.00021   0.00345  -0.00335   0.00011   1.87651
   A12        1.89043   0.00001   0.00099  -0.00115  -0.00009   1.89033
   A13        1.81819  -0.00079  -0.00158  -0.01021  -0.01210   1.80610
   A14        1.91443   0.00038   0.00341   0.00034   0.00374   1.91817
   A15        1.96312   0.00043  -0.00105   0.00587   0.00507   1.96818
   A16        1.92818   0.00016  -0.00031  -0.00017  -0.00038   1.92781
   A17        1.97032   0.00005  -0.00251   0.00563   0.00325   1.97357
   A18        1.87005  -0.00020   0.00200  -0.00155   0.00038   1.87043
   A19        1.83926  -0.00012  -0.00134  -0.00560  -0.00718   1.83207
   A20        1.97060  -0.00018  -0.00300   0.00585   0.00294   1.97354
   A21        1.91699   0.00002   0.00050  -0.00260  -0.00202   1.91497
   A22        1.95695   0.00022  -0.00098   0.00477   0.00402   1.96097
   A23        1.91827  -0.00000   0.00292  -0.00265   0.00023   1.91851
   A24        1.86234   0.00007   0.00193  -0.00003   0.00185   1.86418
   A25        1.97915  -0.00030  -0.00250   0.00083  -0.00160   1.97754
   A26        1.83499   0.00074   0.00209  -0.00315  -0.00116   1.83383
   A27        1.88813  -0.00014   0.00189   0.00015   0.00205   1.89018
   A28        1.98986  -0.00083  -0.00321  -0.00047  -0.00365   1.98621
   A29        1.87279   0.00066   0.00228   0.00454   0.00677   1.87955
   A30        1.89576  -0.00012  -0.00037  -0.00214  -0.00243   1.89333
   A31        1.92919   0.00085   0.00137   0.00378   0.00515   1.93434
   A32        1.94805  -0.00056  -0.00200  -0.00060  -0.00260   1.94545
   A33        1.94938  -0.00098  -0.00190  -0.00367  -0.00557   1.94382
   A34        1.87785   0.00003   0.00060   0.00089   0.00149   1.87934
   A35        1.87806   0.00010   0.00099  -0.00050   0.00050   1.87856
   A36        1.87813   0.00061   0.00108   0.00017   0.00126   1.87939
   A37        1.87420  -0.00127  -0.00236  -0.00538  -0.00792   1.86628
   A38        1.91411   0.00066   0.00301  -0.00088   0.00220   1.91631
   A39        1.94342   0.00038  -0.00148   0.00520   0.00375   1.94717
   A40        1.92922   0.00000  -0.00271   0.00102  -0.00169   1.92753
   A41        1.95075   0.00033   0.00216  -0.00188   0.00038   1.95113
   A42        1.85273  -0.00005   0.00145   0.00208   0.00348   1.85620
    D1        1.07347  -0.00004   0.00420  -0.01105  -0.00673   1.06674
    D2       -3.12130   0.00026   0.00009  -0.01103  -0.01106  -3.13236
    D3       -1.01717   0.00007   0.00070  -0.01059  -0.00988  -1.02705
    D4       -1.01757  -0.00019   0.00382  -0.01287  -0.00893  -1.02650
    D5        1.07085   0.00011  -0.00030  -0.01284  -0.01326   1.05758
    D6       -3.10821  -0.00008   0.00031  -0.01240  -0.01209  -3.12029
    D7       -3.10560  -0.00038   0.00326  -0.01502  -0.01165  -3.11725
    D8       -1.01719  -0.00007  -0.00085  -0.01500  -0.01598  -1.03317
    D9        1.08694  -0.00027  -0.00025  -0.01456  -0.01480   1.07214
   D10        2.82711   0.00001  -0.00388   0.03328   0.02941   2.85652
   D11        0.76295   0.00007  -0.00428   0.03885   0.03461   0.79756
   D12       -1.31640  -0.00021  -0.00847   0.03680   0.02831  -1.28809
   D13        0.63836   0.00075   0.00241   0.03168   0.03407   0.67243
   D14       -1.42581   0.00081   0.00201   0.03724   0.03927  -1.38653
   D15        2.77803   0.00053  -0.00218   0.03520   0.03297   2.81100
   D16       -1.36170   0.00034  -0.00086   0.03566   0.03486  -1.32684
   D17        2.85732   0.00041  -0.00126   0.04123   0.04006   2.89738
   D18        0.77798   0.00012  -0.00544   0.03918   0.03376   0.81173
   D19       -2.60177   0.00015   0.00557  -0.01820  -0.01264  -2.61441
   D20       -0.50474  -0.00022   0.00257  -0.02068  -0.01813  -0.52287
   D21        1.54062   0.00035   0.00535  -0.01554  -0.01017   1.53045
   D22       -0.40867  -0.00021  -0.00095  -0.01469  -0.01558  -0.42425
   D23        1.68836  -0.00059  -0.00395  -0.01717  -0.02107   1.66729
   D24       -2.54947  -0.00002  -0.00117  -0.01202  -0.01311  -2.56258
   D25        1.58135   0.00004   0.00407  -0.02029  -0.01624   1.56511
   D26       -2.60481  -0.00034   0.00107  -0.02277  -0.02173  -2.62654
   D27       -0.55945   0.00024   0.00385  -0.01763  -0.01377  -0.57322
   D28       -0.63409  -0.00015  -0.00174  -0.03540  -0.03700  -0.67109
   D29       -2.77570  -0.00022   0.00203  -0.04100  -0.03885  -2.81455
   D30        1.43131  -0.00021   0.00120  -0.04297  -0.04171   1.38960
   D31        1.42061  -0.00006   0.00123  -0.04074  -0.03947   1.38115
   D32       -0.72100  -0.00014   0.00500  -0.04634  -0.04132  -0.76232
   D33       -2.79717  -0.00012   0.00417  -0.04831  -0.04418  -2.84135
   D34       -2.76903  -0.00017   0.00188  -0.03904  -0.03705  -2.80608
   D35        1.37255  -0.00025   0.00565  -0.04465  -0.03891   1.33364
   D36       -0.70363  -0.00024   0.00482  -0.04661  -0.04176  -0.74539
   D37        2.55703  -0.00009  -0.00199   0.02454   0.02257   2.57960
   D38        0.37199   0.00062   0.00212   0.02688   0.02901   0.40100
   D39       -1.65105   0.00045   0.00057   0.03083   0.03144  -1.61960
   D40       -1.57582  -0.00026  -0.00706   0.03086   0.02379  -1.55203
   D41        2.52232   0.00044  -0.00294   0.03319   0.03023   2.55255
   D42        0.49929   0.00028  -0.00450   0.03714   0.03266   0.53195
   D43        0.49249  -0.00004  -0.00331   0.03209   0.02882   0.52131
   D44       -1.69255   0.00067   0.00081   0.03442   0.03526  -1.65729
   D45        2.56760   0.00050  -0.00075   0.03837   0.03769   2.60529
   D46       -1.06549  -0.00000   0.00246  -0.00765  -0.00512  -1.07061
   D47        3.12839  -0.00024   0.00211  -0.01091  -0.00873   3.11966
   D48        1.02495   0.00004   0.00337  -0.00816  -0.00471   1.02024
   D49        1.03378   0.00012   0.00101  -0.01157  -0.01064   1.02313
   D50       -1.05553  -0.00012   0.00066  -0.01483  -0.01426  -1.06979
   D51        3.12422   0.00017   0.00192  -0.01208  -0.01024   3.11398
   D52        3.13378  -0.00009   0.00011  -0.01139  -0.01127   3.12252
   D53        1.04448  -0.00033  -0.00024  -0.01464  -0.01488   1.02960
   D54       -1.05896  -0.00004   0.00102  -0.01189  -0.01086  -1.06982
   D55        0.02422  -0.00006  -0.00078  -0.00697  -0.00775   0.01647
   D56       -2.06318  -0.00008  -0.00149  -0.00322  -0.00466  -2.06784
   D57        2.16048  -0.00023  -0.00288  -0.00528  -0.00815   2.15233
   D58       -2.15411   0.00031   0.00289  -0.00542  -0.00256  -2.15667
   D59        2.04167   0.00029   0.00218  -0.00167   0.00053   2.04220
   D60       -0.01785   0.00014   0.00079  -0.00373  -0.00296  -0.02081
   D61        2.04200   0.00010   0.00231  -0.00938  -0.00709   2.03490
   D62       -0.04541   0.00007   0.00159  -0.00562  -0.00401  -0.04941
   D63       -2.10493  -0.00008   0.00020  -0.00769  -0.00749  -2.11243
         Item               Value     Threshold  Converged?
 Maximum Force            0.003210     0.000450     NO 
 RMS     Force            0.000663     0.000300     NO 
 Maximum Displacement     0.083458     0.001800     NO 
 RMS     Displacement     0.021466     0.001200     NO 
 Predicted change in Energy=-2.329639D-04
 GradGradGradGradGradGradGradGradGradGradGradGradGradGradGradGradGradGrad

                          Input orientation:                          
 ---------------------------------------------------------------------
 Center     Atomic      Atomic             Coordinates (Angstroms)
 Number     Number       Type             X           Y           Z
 ---------------------------------------------------------------------
      1          6           0        1.039583    0.028705   -0.090807
      2          6           0        2.564549    0.021954    0.024366
      3          6           0        3.149298    1.146832    0.898564
      4          6           0        4.581803    0.670845    1.183745
      5          6           0        4.461030   -0.862214    1.390789
      6          6           0        5.698008   -1.636066    0.924287
      7          6           0        3.147932   -1.269213    0.652210
      8          1           0        0.675632    0.955436   -0.547765
      9          1           0        0.575475   -0.060592    0.898797
     10          1           0        0.679821   -0.805759   -0.702606
     11          1           0        2.984369    0.135225   -0.984827
     12          1           0        2.578710    1.228716    1.833568
     13          1           0        3.111658    2.126100    0.410152
     14          1           0        5.037358    1.172368    2.043250
     15          1           0        5.221665    0.881983    0.317189
     16          1           0        4.331408   -1.055755    2.462238
     17          1           0        5.864902   -1.493505   -0.150322
     18          1           0        5.589780   -2.711113    1.104359
     19          1           0        6.600068   -1.300126    1.447714
     20          1           0        2.427459   -1.696439    1.359585
     21          1           0        3.329521   -2.038873   -0.105637
 ---------------------------------------------------------------------
                    Distance matrix (angstroms):
                    1          2          3          4          5
     1  C    0.000000
     2  C    1.529323   0.000000
     3  C    2.584562   1.539969   0.000000
     4  C    3.818920   2.415478   1.536217   0.000000
     5  C    3.833427   2.499102   2.449325   1.551684   0.000000
     6  C    5.050029   3.657520   3.773738   2.575863   1.531857
     7  C    2.584917   1.549721   2.428572   2.470292   1.560569
     8  H    1.095492   2.183284   2.871851   4.282207   4.625050
     9  H    1.096671   2.174364   2.842963   4.082507   3.997774
    10  H    1.095471   2.183070   3.531951   4.578662   4.322388
    11  H    2.143084   1.098886   2.144228   2.746159   2.969674
    12  H    2.740831   2.174783   1.098411   2.178502   2.848012
[...]
 73,-0.00009126,-0.00004241,0.00003450,0.00003416,-0.00003002,-0.000031
 37,0.00063510,0.00061640,-0.00995274,-0.02010775,-0.01734215,0.0029088
 1,0.00433248,0.00414493,0.07390619,0.19798468,-0.05407608,-0.11130458,
 -0.13771071,0.00125289,0.00231327,0.00047661,0.00037624,-0.00004964,0.
 00052341,0.00013793,-0.00014128,0.00051545,-0.00002704,0.00008012,-0.0
 0018535,0.00002226,0.00001149,0.00002566,0.00001879,-0.00021954,0.0004
 9151,0.00444995,0.00806756,0.00611971,-0.01074473,-0.02254944,-0.01737
 223,0.05954882,0.12310380,0.14634354,-0.01357302,-0.00583968,0.0335357
 9,-0.06664144,-0.01244295,0.06358514,0.00332163,0.00121489,-0.01242364
 ,0.00075641,-0.00008178,-0.00007812,-0.00036619,0.00053666,0.00014836,
 -0.00005906,-0.00003822,-0.00017653,0.00322136,0.00474055,-0.01199009,
 0.00136181,0.00051658,-0.00032517,-0.00706924,-0.00014881,0.00037159,0
 .00153385,-0.00033802,-0.00048924,0.07750386,-0.00058729,-0.00002617,0
 .00133987,-0.01248017,-0.05142940,0.04035959,0.00620677,0.00071531,-0.
 02608021,0.00090699,0.00020440,0.00027335,-0.00029637,-0.00160198,0.00
 006424,0.00010017,0.00027334,0.00037867,-0.00585231,-0.01021539,0.0263
 6377,-0.00020672,0.00027354,-0.00046478,-0.00028458,0.00075751,-0.0001
 9873,0.00011016,0.00003024,0.00034593,0.01203720,0.06439773,0.00055727
 ,0.00029764,-0.00158290,0.06420785,0.04067447,-0.26920492,0.00575585,0
 .00095963,-0.02052899,0.00093106,0.00045252,0.00002052,-0.00040716,0.0
 0054574,0.00023245,-0.00003066,-0.00011239,-0.00038610,0.00304412,0.00
 164158,-0.00791493,0.00049836,-0.00039175,0.00035800,0.00004395,-0.000
 23065,0.00168479,0.00048052,0.00028877,0.00069394,-0.06994938,-0.04163
 125,0.29295623,0.00140778,0.00055858,-0.00105223,0.00536357,-0.0010468
 3,-0.01415580,-0.09919623,0.00527840,0.10277051,-0.01779611,0.00088327
 ,0.02910011,0.00064621,-0.00125649,0.00077340,-0.00002606,0.00011940,-
 0.00028783,-0.00004494,0.00044093,0.00007671,-0.00002077,0.00011882,-0
 .00003619,0.00021003,-0.00008507,0.00041403,0.00017478,0.00011988,0.00
 006438,-0.00081827,-0.00260585,-0.00224716,0.11294075,0.00143918,0.001
 25676,0.00003098,0.00975623,-0.00071053,-0.02104933,0.00518925,-0.0512
 0856,-0.00669098,0.00359738,-0.00073409,-0.00784327,0.00013191,0.00066
 943,-0.00042069,0.00002320,-0.00000765,0.00005237,-0.00032293,0.000696
 94,0.00020891,-0.00020684,0.00002848,0.00011459,-0.00045784,-0.0000451
 5,0.00053656,0.00027064,-0.00001792,0.00026283,-0.00144685,-0.00267748
 ,-0.00287436,-0.00528233,0.05118548,0.00152307,0.00105829,0.00105827,0
 .00759369,-0.00061291,-0.02002368,0.10322109,-0.00665525,-0.24044948,-
 0.00284378,0.00070977,0.00465323,-0.00015522,-0.00022520,0.00009642,-0
 .00008016,-0.00016500,0.00033787,-0.00009567,0.00016883,0.00004017,-0.
 00021409,0.00007218,-0.00016372,-0.00117778,-0.00040983,0.00053580,-0.
 00000677,0.00005349,0.00058407,-0.00163237,-0.00395659,-0.00107300,-0.
 11198392,0.01088741,0.26405439,0.00065860,-0.00042684,0.00033757,0.000
 52802,-0.01252671,0.00749224,-0.04798820,0.01042422,-0.00464498,0.0012
 8160,0.02821869,-0.01278386,-0.00604186,0.00134828,-0.00017158,0.00087
 223,0.00189308,-0.00049579,-0.00165828,-0.00099213,-0.00221417,-0.0002
 8483,0.00025584,-0.00018583,0.00011002,-0.00001333,-0.00012293,-0.0001
 4755,0.00029439,-0.00029079,0.00060280,0.00091507,0.00008680,0.0007218
 7,-0.01385096,0.00652216,0.04949921,0.00050794,-0.00037159,-0.00007086
 ,0.00271038,-0.01739255,0.01016196,0.01184785,-0.25727414,0.10060656,-
 0.00133923,-0.00543575,0.00220649,0.00085803,-0.00058063,-0.00100780,-
 0.00028173,-0.00033267,0.00040671,-0.00068092,-0.00185754,-0.00228676,
 -0.00066340,0.00030217,-0.00008815,0.00002808,0.00006742,-0.00006714,-
 0.00030698,0.00021501,-0.00025121,0.00046568,0.00125722,-0.00023284,-0
 .00021235,0.00140353,-0.00054644,-0.01412232,0.28113006,0.00061451,0.0
 0010316,-0.00006850,0.00156936,-0.01801190,0.00754900,-0.00541651,0.10
 292540,-0.09585712,0.00114305,0.00319297,-0.00270130,-0.00193529,-0.00
 093884,0.00011366,0.00041865,0.00032198,0.00026653,-0.00129497,-0.0031
 0951,-0.00113337,-0.00002972,0.00022989,0.00013841,-0.00014797,-0.0000
 5011,0.00003502,0.00000538,0.00008292,-0.00002123,0.00048104,0.0003772
 9,0.00143365,-0.00144175,0.02590918,-0.01254618,0.00590528,-0.10898558
 ,0.10145359,-0.00015456,-0.00144551,-0.00139759,-0.00525897,0.00152600
 ,0.00038000,-0.01123049,-0.01552065,-0.02111357,-0.10482934,-0.0563329
 5,-0.09031306,-0.00163457,-0.00015139,-0.00049109,0.00021512,-0.000114
 64,0.00034059,-0.00095590,0.00023324,-0.00054622,0.00006376,0.00004206
 ,-0.00001448,0.00000582,-0.00002893,0.00011755,-0.00076781,-0.00002579
 ,0.00007066,0.00010284,0.00008351,-0.00034117,0.00153094,-0.00041438,0
 .00064925,0.00003958,0.00053535,-0.00011731,0.11442906,0.00014643,0.00
 095705,0.00029020,0.00269114,-0.00221269,0.00026045,0.00580290,0.00676
 246,0.01079834,-0.05702391,-0.10298035,-0.09031630,-0.01509862,-0.0124
 2757,-0.02369465,-0.00105076,0.00022945,-0.00015931,-0.00052693,-0.004
 72148,0.00152402,-0.00015712,0.00003845,-0.00000367,0.00003589,-0.0000
 2448,-0.00003880,0.00034416,0.00008640,0.00001885,-0.00005837,-0.00006
 207,-0.00018954,-0.00093291,0.00035422,-0.00028564,-0.00046288,-0.0000
 4983,0.00009128,0.06430093,0.11107942,0.00020030,-0.00040357,0.0000014
 8,-0.00076287,0.00109379,0.00096772,0.00055258,-0.00121924,-0.00238835
 ,-0.09270632,-0.09165426,-0.19331447,0.00418343,0.00486933,0.00474749,
 0.00007558,-0.00033481,-0.00022129,0.00045067,0.00174586,0.00102479,0.
 00002719,0.00002012,-0.00001283,-0.00012029,-0.00001712,0.00001025,-0.
 00014168,-0.00003727,0.00000143,0.00025920,0.00019622,0.00041671,-0.00
 014484,0.00033720,0.00105974,-0.00033425,0.00013646,-0.00020185,0.1005
 3907,0.09852050,0.20657540,-0.00004862,0.00004569,-0.00032773,0.001041
 46,0.00041241,0.00127039,-0.01770310,-0.00314957,0.02691474,-0.1144546
 4,-0.01926717,0.10714981,-0.00148580,0.00041421,0.00224930,0.00048564,
 0.00055384,-0.00081768,0.00014629,-0.00003657,-0.00005351,0.00002201,0
 .00000246,0.00005483,0.00025850,0.00008147,-0.00016393,-0.00004349,-0.
 00004788,-0.00013845,-0.00029810,-0.00021810,-0.00087129,-0.00560177,0
 .00137786,-0.00137178,0.00173801,0.00010031,-0.00019582,0.00820623,0.0
 0220441,-0.01289300,0.12682790,0.00002237,-0.00001360,-0.00002398,-0.0
 0044810,0.00006334,-0.00019278,0.00831278,0.00053927,-0.01158465,-0.01
 936442,-0.05091120,0.02580625,-0.01559400,-0.00646778,0.02945867,-0.00
 115125,0.00249161,0.00107601,0.00072033,0.00053417,0.00010154,-0.00001
 344,0.00000667,-0.00002519,-0.00004168,-0.00008838,0.00003011,0.000008
 76,0.00001855,0.00006521,-0.00028199,0.00039261,0.00009413,0.00327115,
 0.00016161,0.00067606,-0.00076760,0.00039803,-0.00058809,0.00806859,0.
 00199025,-0.01271664,0.01805232,0.05728177,-0.00001840,0.00003281,0.00
 036562,-0.00007621,0.00031757,0.00030763,-0.00242086,-0.00114677,0.003
 29221,0.10749883,0.02552218,-0.22549319,0.00297574,0.00205537,-0.00741
 533,0.00017925,-0.00105471,0.00074269,0.00014555,0.00013097,0.00001768
 ,0.00001196,-0.00001947,-0.00000811,-0.00013886,-0.00003380,-0.0000979
 9,0.00007586,0.00002212,-0.00002660,0.00000457,0.00019397,0.00037115,-
 0.00115419,-0.00003313,0.00126038,0.00051902,-0.00043295,0.00080902,0.
 01275076,0.00332375,-0.02061622,-0.12019660,-0.03158082,0.24406560,0.0
 0004387,0.00029592,-0.00019509,-0.00074875,-0.00088846,-0.00042915,0.0
 0017458,0.00024993,-0.00010420,-0.00214520,-0.00220075,0.00565564,-0.0
 6213482,-0.00456545,0.06109306,-0.01002476,-0.00145243,0.02819576,0.00
 248746,-0.00045004,-0.02543973,-0.00014791,0.00002841,0.00003087,-0.00
 006350,-0.00001565,0.00002331,0.00005396,-0.00000775,0.00002258,-0.000
 01132,0.00011029,0.00007504,0.00024838,0.00041110,0.00005270,0.0000574
 2,-0.00007518,0.00003803,0.00013561,0.00018720,0.00012107,0.00040138,-
 0.00134875,0.00045578,0.07529635,0.00005237,0.00012874,0.00003190,0.00
 014758,-0.00072086,-0.00054430,-0.00103544,0.00106773,0.00014585,-0.01
 069725,-0.00793425,0.03277733,-0.00474282,-0.04920259,0.02622095,0.006
 94345,0.00110459,-0.01887466,0.00004053,0.00001137,-0.01086053,-0.0000
 4415,0.00001809,0.00000581,0.00001972,0.00002087,0.00000278,0.00006937
 ,0.00000575,-0.00000150,-0.00008129,0.00009235,-0.00009425,0.00069277,
 -0.00011427,-0.00028076,-0.00001068,0.00005831,-0.00047516,-0.00013803
 ,0.00181223,-0.00044546,0.00008403,-0.00637091,0.00185934,0.00755530,0
 .05968018,0.00012113,0.00037890,-0.00034533,-0.00076521,-0.00074843,-0
 .00025577,0.00014916,-0.00042635,-0.00025730,0.00251543,0.00108408,-0.
 00642161,0.06139959,0.02561858,-0.27592224,0.00224566,0.00041766,-0.00
 626028,0.00327984,0.00030493,-0.01741047,-0.00018048,0.00003685,0.0000
 5622,-0.00010021,-0.00002333,0.00008835,0.00002985,-0.00002219,0.00004
 080,0.00007439,0.00004978,0.00008933,-0.00056669,0.00028333,0.00033268
 ,-0.00025455,0.00018740,0.00034318,-0.00002238,0.00033267,0.00134312,-
 0.00011404,0.00114520,0.00140019,-0.06632436,-0.02690307,0.29986807,0.
 00000161,-0.00006641,0.00000310,0.00010947,-0.00006971,-0.00002228,0.0
 0013723,-0.00009472,0.00000534,0.00060036,-0.00163841,-0.00003992,-0.0
 1024858,-0.00173965,0.02770085,-0.06687137,-0.00651685,0.06806911,0.00
 165960,0.00035296,0.00170918,0.00003188,0.00000208,0.00000531,0.000034
 31,0.00000021,-0.00001610,-0.00002006,-0.00000064,-0.00000978,-0.00003
 176,0.00005479,-0.00007019,0.00016583,-0.00007609,-0.00010494,-0.00000
 949,-0.00000134,-0.00010380,0.00010997,-0.00001741,-0.00010371,0.00047
 245,0.00055654,-0.00060064,-0.00453693,0.00363516,0.00092844,0.0731749
 0,-0.00000546,-0.00000272,-0.00000581,-0.00010596,0.00004227,-0.000107
 42,0.00012288,0.00002065,0.00011863,0.00007312,0.00165460,-0.00175970,
 0.00589704,0.00019015,-0.01824955,-0.00663332,-0.04860420,0.02116617,-
 0.00095952,0.00022533,0.00026670,0.00000101,-0.00001095,0.00000113,-0.
 00001440,-0.00000008,0.00000162,-0.00001691,-0.00000535,-0.00000189,0.
 00004041,-0.00001377,0.00003860,-0.00016953,-0.00004012,0.00011273,-0.
 00004116,-0.00002450,0.00006450,0.00000777,-0.00001359,0.00010819,-0.0
 0030511,-0.00022118,0.00065643,0.00338563,-0.00157799,-0.00081667,0.00
 400721,0.04992949,-0.00000752,-0.00003477,0.00004112,0.00011625,0.0000
 6720,0.00009549,-0.00016102,-0.00005404,0.00039908,-0.00024305,0.00055
 831,0.00028401,0.00221573,0.00006854,-0.00694525,0.06895874,0.02056164
 ,-0.28119851,-0.00069029,-0.00016389,0.00091735,0.00002607,-0.00001524
 ,-0.00000658,-0.00001825,0.00000542,0.00000633,0.00000524,0.00000631,0
 .00000156,0.00002145,-0.00005387,0.00009106,-0.00020745,0.00008802,-0.
 00005336,0.00011004,-0.00005384,0.00002559,-0.00005874,0.00010380,0.00
 011503,-0.00008217,-0.00094292,0.00044892,0.00109989,-0.00100309,0.001
 48817,-0.07808051,-0.02193249,0.30663380,0.00000102,-0.00012481,-0.000
 02093,0.00029070,0.00017960,0.00017162,0.00043109,0.00172377,-0.000381
 19,-0.00488158,0.00136361,0.00126426,0.00516716,0.02841709,-0.00639112
 ,-0.05435336,-0.04435300,0.00893470,0.00159806,-0.00005773,0.00016339,
 0.00006118,-0.00001608,0.00001447,-0.00000680,0.00001599,0.00000699,-0
 .00005025,-0.00000765,-0.00001569,0.00000514,-0.00007844,0.00000095,0.
 00000475,-0.00001765,0.00005300,-0.00064475,0.00020571,-0.00010553,-0.
 00001590,0.00039800,0.00013358,-0.00003466,-0.00014554,-0.00018808,0.0
 0122962,-0.00090733,-0.00005816,-0.00249873,-0.00837750,0.00098016,0.0
 5811058,-0.00002043,0.00013021,0.00005526,-0.00001260,-0.00036166,-0.0
 0004651,-0.00068694,-0.00102904,0.00013544,0.00416658,0.00037013,-0.00
 092141,-0.00378722,-0.01706308,0.00373666,-0.04330629,-0.28847014,0.04
 983054,-0.00058472,0.00082363,-0.00069605,-0.00003094,0.00000518,-0.00
 001302,0.00000624,-0.00001519,-0.00001485,0.00007060,0.00003075,0.0000
 2539,-0.00000293,0.00005453,0.00000604,0.00012514,-0.00000992,-0.00003
 857,0.00046294,-0.00006964,0.00014681,-0.00006887,-0.00004486,-0.00009
 116,-0.00001198,0.00039770,-0.00012316,-0.00010290,0.00067043,-0.00054
 562,-0.00051740,-0.00182803,0.00014807,0.04532310,0.31551228,0.0000011
 8,0.00000640,0.00003895,-0.00001241,-0.00010243,-0.00021344,-0.0001052
 7,-0.00041274,0.00056639,0.00147310,-0.00006277,0.00026036,-0.00125588
 ,-0.00647696,0.00004942,0.00878765,0.04987034,-0.05746484,0.00004165,0
 .00030604,0.00029945,0.00000224,-0.00000936,-0.00000038,-0.00000619,0.
 00000215,-0.00000190,-0.00000390,0.00000518,-0.00000901,0.00001544,-0.
 00001688,0.00004088,-0.00010608,0.00003400,-0.00004633,0.00016951,-0.0
 0006036,0.00003385,-0.00014699,0.00042226,0.00010801,-0.00018711,-0.00
 035578,0.00037770,-0.00062634,-0.00012702,0.00035612,0.00536048,0.0305
 2652,-0.00567638,-0.01054985,-0.05444444,0.05783136,-0.00000450,0.0006
 2106,-0.00017487,-0.00095942,-0.00111226,-0.00026071,-0.00019653,-0.00
 019165,0.00002649,0.00117113,-0.00099219,-0.00004734,-0.02058033,-0.00
 948233,-0.01672438,-0.19170952,-0.06098663,-0.11268667,-0.00231833,0.0
 0428871,0.00185932,-0.00026493,0.00004573,-0.00000132,0.00001316,-0.00
 003066,0.00002223,0.00006177,-0.00001401,0.00000986,-0.00007155,0.0001
 8372,-0.00012409,0.00001179,-0.00000538,0.00002305,0.00010673,0.000088
 98,0.00006903,0.00010784,0.00077796,0.00017681,0.00006910,0.00026943,-
 0.00008686,0.00081506,-0.00052439,0.00052120,0.00745601,0.00338610,0.0
 0556479,-0.00429747,-0.00167801,-0.00289537,0.21083935,0.00002609,-0.0
 0026747,0.00011314,0.00069053,0.00030850,0.00039139,-0.00002958,0.0003
 2189,-0.00006073,-0.00030433,0.00118471,0.00046767,0.01424030,0.005723
 35,0.01205243,-0.06169192,-0.07286642,-0.04777957,0.00246792,-0.001442
 76,-0.00142185,0.00011787,-0.00002271,0.00000658,-0.00002113,0.0000060
 5,-0.00000044,-0.00003292,-0.00000126,0.00000144,0.00002847,-0.0000501
 4,0.00003412,-0.00003776,0.00000549,0.00000954,-0.00007786,-0.00000073
 ,-0.00003793,-0.00003291,-0.00006249,-0.00026343,-0.00009111,-0.000051
 12,0.00010548,-0.00085727,0.00050993,-0.00002822,0.00295700,0.00011045
 ,0.00225572,-0.02323782,-0.00934775,-0.01931936,0.06534966,0.07599310,
 0.00000335,-0.00001223,0.00006271,0.00035712,0.00004822,0.00037464,-0.
 00006048,0.00027914,-0.00010263,-0.00001590,0.00002975,0.00018743,0.00
 555295,0.00241438,0.00313462,-0.11317448,-0.04742643,-0.13584905,0.000
 71701,-0.00152292,0.00052381,0.00001270,-0.00000043,-0.00001775,-0.000
 00241,-0.00000271,-0.00000493,0.00001504,-0.00000032,0.00000538,0.0000
 2004,-0.00004504,0.00004726,0.00005112,-0.00000674,0.00000288,-0.00002
 911,0.00002930,-0.00001651,-0.00013695,0.00020143,0.00011090,-0.000109
 75,0.00001524,-0.00017409,-0.00033967,0.00056716,0.00066915,-0.0234003
 7,-0.01036072,-0.01728176,0.00608315,0.00216713,0.00373062,0.12471001,
 0.05306818,0.14407354,0.00113679,0.00057757,-0.00123144,0.00829909,0.0
 0896327,-0.00897335,-0.00050264,0.00064675,-0.00019723,-0.00274612,0.0
 0026992,-0.00255232,-0.01473399,-0.01363763,0.01294981,-0.00091047,-0.
 00148559,-0.00107302,-0.15111838,-0.09128859,0.08979569,0.00016016,0.0
 0001636,-0.00012747,0.00047940,-0.00017141,0.00036052,0.00016271,-0.00
 007754,-0.00001471,-0.00066191,0.00249940,-0.00127982,0.00011646,-0.00
 002516,0.00005791,0.00017918,0.00005095,0.00026173,-0.00000443,-0.0010
 8274,0.00016169,0.00003177,0.00012868,0.00008043,0.00170304,0.00046663
 ,-0.00012031,0.00031083,-0.00007479,-0.00018488,-0.00014361,0.00046755
 ,0.00001212,-0.00054991,0.00060539,-0.00037305,0.16523199,-0.00219994,
 0.00171653,0.00020715,-0.01566337,-0.01360047,0.01612364,-0.00019586,-
 0.00073753,0.00067481,-0.00053545,-0.00101140,-0.00126917,-0.00413184,
 -0.00375083,0.00325747,-0.00009846,-0.00031237,-0.00045469,-0.08998284
 ,-0.12581767,0.07541670,-0.00024602,0.00039433,-0.00041892,0.00088872,
 -0.00015957,-0.00074647,0.00046450,0.00020018,0.00017630,0.00146006,-0
 .00368812,0.00080372,-0.00001378,-0.00027419,-0.00045195,-0.00001701,-
 0.00045647,-0.00056324,-0.00023183,-0.00050674,0.00005491,0.00003955,0
 .00006152,0.00006894,0.00017009,0.00088612,-0.00019926,-0.00015388,0.0
 0003916,0.00014866,-0.00007131,0.00002327,0.00008591,-0.00014539,0.000
 00870,0.00022039,0.09895559,0.13669879,0.00092268,-0.00044268,0.001299
 52,0.00463615,0.00538037,-0.00746397,-0.00021904,0.00005387,-0.0005910
 1,-0.00253055,-0.00071607,-0.00147739,-0.01441246,-0.01216736,0.008014
 55,-0.00018806,-0.00071267,-0.00044997,0.09036809,0.07624478,-0.118495
 78,-0.00005086,-0.00031239,0.00016889,-0.00063148,0.00010199,0.0002613
 7,-0.00025313,-0.00003742,-0.00044473,-0.00114686,0.00246269,0.0002363
 7,0.00012382,-0.00003937,0.00016039,0.00015134,0.00010384,0.00016491,-
 0.00005961,-0.00079546,0.00008572,-0.00012015,-0.00021409,0.00012557,-
 0.00027012,-0.00029017,0.00193545,-0.00024553,-0.00003055,0.00011597,0
 .00015177,0.00018094,0.00005076,-0.00020521,0.00023158,0.00004145,-0.0
 9334400,-0.08354038,0.13053950,0.00003097,0.00133826,-0.00006039,-0.00
 367464,0.00699281,0.01147242,-0.00170785,0.00077593,-0.00127338,-0.000
 67532,-0.00034520,-0.00074486,0.00661619,-0.01224620,-0.02135428,0.002
 05305,-0.00027545,-0.00127438,-0.07053649,0.04122990,0.06279373,-0.000
 49716,0.00001871,-0.00053923,0.00038475,-0.00004198,-0.00024035,-0.000
 26851,-0.00019082,-0.00016785,0.00119215,-0.00059823,-0.00036086,-0.00
 003901,-0.00009033,-0.00002941,0.00037970,0.00028418,0.00028262,-0.000
 09478,-0.00047737,0.00032579,-0.00003055,-0.00025419,0.00018294,-0.002
 83353,-0.00152552,-0.00275830,-0.00004753,-0.00021752,0.00063555,0.000
 02780,0.00018910,0.00003201,0.00030057,-0.00006860,0.00011964,-0.00643
 997,0.01170848,0.01732322,0.07586014,-0.00031292,-0.00176802,0.0003838
 0,0.00750117,-0.01506627,-0.01959091,0.00156939,-0.00338558,0.00191304
 ,0.00034595,-0.00033523,-0.00027349,0.00323838,-0.00344391,-0.00560451
 ,0.00129139,0.00069556,0.00047542,0.03992290,-0.11966718,-0.10990679,0
 .00063417,0.00004442,0.00012887,0.00003219,-0.00001919,-0.00006759,0.0
 0025172,0.00025197,0.00004688,-0.00027960,0.00131574,-0.00007993,0.000
 03456,0.00007796,-0.00012016,-0.00050302,-0.00098568,-0.00068503,-0.00
 029157,-0.00020380,0.00010036,-0.00024105,-0.00021292,0.00013592,-0.00
 042923,-0.00014580,-0.00012625,-0.00067345,0.00013038,0.00024248,-0.00
 023199,0.00022120,0.00012929,0.00015158,-0.00005931,0.00033722,-0.0058
 0461,0.01028676,0.01453858,-0.04620597,0.13226890,0.00017517,0.0002956
 6,0.00005500,-0.00430334,0.00917447,0.00826552,-0.00123275,0.00133864,
 -0.00013272,-0.00008983,0.00015007,-0.00080622,0.00445166,-0.00704837,
 -0.01595082,0.00178952,-0.00049205,0.00140313,0.06224779,-0.11073589,-
 0.20523005,-0.00011994,-0.00006307,-0.00004969,-0.00015628,0.00010515,
 0.00010098,0.00010001,-0.00017408,-0.00005323,-0.00030562,0.00004200,0
 .00201851,0.00001002,0.00021250,0.00017948,0.00023388,0.00024520,0.000
 17966,-0.00008872,-0.00040418,0.00018721,0.00000393,-0.00024348,0.0002
 4718,-0.00313506,-0.00171117,-0.00113782,-0.00098401,0.00020357,0.0004
 9835,-0.00024750,0.00050252,-0.00033159,0.00022401,0.00017425,0.000482
 31,0.00579169,-0.00959451,-0.01427755,-0.06436462,0.11802277,0.2243523
 6\\0.00000093,-0.00000035,-0.00000113,-0.00000428,0.00000173,0.0000019
 5,0.00000340,-0.00000077,-0.00000874,-0.00000070,0.00000516,0.00000707
 ,-0.00000459,-0.00000446,-0.00000349,0.00000198,0.00000013,0.00000150,
 0.00000668,0.00000237,0.00000193,0.00000011,-0.00000044,0.00000031,-0.
 00000116,0.00000018,0.00000003,0.00000011,-0.00000005,-0.00000030,0.00
 000030,0.00000095,-0.00000099,-0.00000072,-0.00000125,0.00000038,-0.00
 000025,0.00000198,0.00000131,-0.00000018,-0.00000007,-0.00000037,-0.00
 000134,-0.00000282,-0.00000023,0.00000005,0.00000270,0.00000035,0.0000
 0121,-0.00000053,-0.00000064,0.00000043,-0.00000117,-0.00000016,-0.000
 00033,-0.00000183,-0.00000020,-0.00000156,-0.00000142,0.00000014,-0.00
 000009,-0.00000005,0.00000128\\\@


 ONLY A FOOL KNOWS EVERYTHING.

               -- THE CHEMIST ANALYST, SEPTEMBER 1946
 Job cpu time:       0 days  1 hours 27 minutes 55.2 seconds.
 Elapsed time:       0 days  0 hours 21 minutes 59.5 seconds.
 File lengths (MBytes):  RWF=    111 Int=      0 D2E=      0 Chk=      7 Scr=      1
 Normal termination of Gaussian 16 at Sun May 28 04:14:12 2023.
### All Done ###
