### Starting Gaussian ###
 Entering Gaussian System, Link 0=g16
 Initial command:
 /cluster/software/gaussian/gaussian-16-A.03/avx2/g16/l1.exe "/local/scratch/linjian/Gau-1246.inp" -scrdir="/local/scratch/linjian/"
 Entering Link 1 = /cluster/software/gaussian/gaussian-16-A.03/avx2/g16/l1.exe PID=      1247.
  
 Copyright (c) 1988,1990,1992,1993,1995,1998,2003,2009,2016,
            Gaussian, Inc.  All Rights Reserved.
  
 This is part of the Gaussian(R) 16 program.  It is based on
 the Gaussian(R) 09 system (copyright 2009, Gaussian, Inc.),
 the Gaussian(R) 03 system (copyright 2003, Gaussian, Inc.),
 the Gaussian(R) 98 system (copyright 1998, Gaussian, Inc.),
 the Gaussian(R) 94 system (copyright 1995, Gaussian, Inc.),
 the Gaussian 92(TM) system (copyright 1992, Gaussian, Inc.),
 the Gaussian 90(TM) system (copyright 1990, Gaussian, Inc.),
 the Gaussian 88(TM) system (copyright 1988, Gaussian, Inc.),
 the Gaussian 86(TM) system (copyright 1986, Carnegie Mellon
 University), and the Gaussian 82(TM) system (copyright 1983,
 Carnegie Mellon University). Gaussian is a federally registered
 trademark of Gaussian, Inc.
  
 This software contains proprietary and confidential information,
 including trade secrets, belonging to Gaussian, Inc.
  
 This software is provided under written license and may be
 used, copied, transmitted, or stored only in accord with that
 written license.
  
 The following legend is applicable only to US Government
 contracts under FAR:
  
                    RESTRICTED RIGHTS LEGEND
  
 Use, reproduction and disclosure by the US Government is
 subject to restrictions as set forth in subparagraphs (a)
 and (c) of the Commercial Computer Software - Restricted
 Rights clause in FAR 52.227-19.
  
 Gaussian, Inc.
 340 Quinnipiac St., Bldg. 40, Wallingford CT 06492
  
  
 ---------------------------------------------------------------
 Warning -- This program may not be used in any manner that
 competes with the business of Gaussian, Inc. or will provide
 assistance to any competitor of Gaussian, Inc.  The licensee
 of this program is prohibited from giving any competitor of
 Gaussian, Inc. access to this program.  By using this program,
 the user acknowledges that Gaussian, Inc. is engaged in the
 business of creating and licensing software in the field of
 computational chemistry and represents and warrants to the
 licensee that it is not a competitor of Gaussian, Inc. and that
 it will not use this program in any manner prohibited above.
 ---------------------------------------------------------------
  

 Cite this work as:
 Gaussian 16, Revision A.03,
 M. J. Frisch, G. W. Trucks, H. B. Schlegel, G. E. Scuseria, 
 M. A. Robb, J. R. Cheeseman, G. Scalmani, V. Barone, 
 G. A. Petersson, H. Nakatsuji, X. Li, M. Caricato, A. V. Marenich, 
 J. Bloino, B. G. Janesko, R. Gomperts, B. Mennucci, H. P. Hratchian, 
 J. V. Ortiz, A. F. Izmaylov, J. L. Sonnenberg, D. Williams-Young, 
 F. Ding, F. Lipparini, F. Egidi, J. Goings, B. Peng, A. Petrone, 
 T. Henderson, D. Ranasinghe, V. G. Zakrzewski, J. Gao, N. Rega, 
 G. Zheng, W. Liang, M. Hada, M. Ehara, K. Toyota, R. Fukuda, 
 J. Hasegawa, M. Ishida, T. Nakajima, Y. Honda, O. Kitao, H. Nakai, 
 T. Vreven, K. Throssell, J. A. Montgomery, Jr., J. E. Peralta, 
 F. Ogliaro, M. J. Bearpark, J. J. Heyd, E. N. Brothers, K. N. Kudin, 
 V. N. Staroverov, T. A. Keith, R. Kobayashi, J. Normand, 
 K. Raghavachari, A. P. Rendell, J. C. Burant, S. S. Iyengar, 
 J. Tomasi, M. Cossi, J. M. Millam, M. Klene, C. Adamo, R. Cammi, 
 J. W. Ochterski, R. L. Martin, K. Morokuma, O. Farkas, 
 J. B. Foresman, and D. J. Fox, Gaussian, Inc., Wallingford CT, 2016.
 
 ******************************************
 Gaussian 16:  ES64L-G16RevA.03 25-Dec-2016
                27-May-2023 
 ******************************************
 %chk=CC1CCqCqFrqFrFrC1.chk
 %NProcShared=20
 Will use up to   20 processors via shared memory.
 -----------------------------
 # opt freq b3lyp/6-31g(2df,p)
 -----------------------------
 1/18=20,19=15,26=3,38=1/1,3;
 2/9=110,12=2,17=6,18=5,40=1/2;
 3/5=1,6=6,7=104,11=2,25=1,30=1,71=1,74=-5/1,2,3;
 4//1;
 5/5=2,38=5/2;
 6/7=2,8=2,9=2,10=2,28=1/1;
 7//1,2,3,16;
 1/18=20,19=15,26=3/3(2);
 2/9=110/2;
 99//99;
 2/9=110/2;
 3/5=1,6=6,7=104,11=2,25=1,30=1,71=1,74=-5/1,2,3;
 4/5=5,16=3,69=1/1;
 5/5=2,38=5/2;
 7//1,2,3,16;
 1/18=20,19=15,26=3/3(-5);
 2/9=110/2;
 6/7=2,8=2,9=2,10=2,19=2,28=1/1;
 99/9=1/99;
 -------------------
 Title Card Required
 -------------------
 Symbolic Z-matrix:
 Charge =  0 Multiplicity = 1
 C                    -1.82467   0.02521  -0.40329 
 C                    -0.58916   0.00809   0.4831 
 C                     0.49349   1.07049   0.18286 
 C                     1.33366  -0.01692  -0.53297 
 C                     1.3487   -0.04017  -2.04428 
 F                     0.13063  -0.27779  -2.57885 
 F                     1.79154   1.1408   -2.52773 
 F                     2.17921  -1.01045  -2.48644 
 C                     0.47577  -1.07835   0.19495 
 H                    -2.52575   0.79627  -0.07044 
 H                    -2.33725  -0.94097  -0.36749 
 H                    -1.59434   0.24291  -1.4467 
 H                    -0.90772   0.00807   1.53427 
 H                     0.97924   1.45288   1.09021 
 H                     0.18477   1.92512  -0.42514 
 H                     2.37609  -0.01404  -0.18393 
 H                     0.95124  -1.45939   1.1081 
 H                     0.14532  -1.93353  -0.40087 
 

 GradGradGradGradGradGradGradGradGradGradGradGradGradGradGradGradGradGrad
 Berny optimization.
 Initialization pass.
                           ----------------------------
                           !    Initial Parameters    !
                           ! (Angstroms and Degrees)  !
 --------------------------                            --------------------------
 ! Name  Definition              Value          Derivative Info.                !
 --------------------------------------------------------------------------------
 ! R1    R(1,2)                  1.5207         estimate D2E/DX2                !
 ! R2    R(1,10)                 1.094          estimate D2E/DX2                !
 ! R3    R(1,11)                 1.0943         estimate D2E/DX2                !
 ! R4    R(1,12)                 1.0905         estimate D2E/DX2                !
 ! R5    R(2,3)                  1.5463         estimate D2E/DX2                !
 ! R6    R(2,9)                  1.5484         estimate D2E/DX2                !
 ! R7    R(2,13)                 1.0984         estimate D2E/DX2                !
 ! R8    R(3,4)                  1.5494         estimate D2E/DX2                !
 ! R9    R(3,14)                 1.0979         estimate D2E/DX2                !
 ! R10   R(3,15)                 1.0933         estimate D2E/DX2                !
 ! R11   R(4,5)                  1.5116         estimate D2E/DX2                !
 ! R12   R(4,9)                  1.5468         estimate D2E/DX2                !
 ! R13   R(4,16)                 1.0993         estimate D2E/DX2                !
 ! R14   R(5,6)                  1.3513         estimate D2E/DX2                !
 ! R15   R(5,7)                  1.3507         estimate D2E/DX2                !
 ! R16   R(5,8)                  1.3516         estimate D2E/DX2                !
 ! R17   R(9,17)                 1.0978         estimate D2E/DX2                !
 ! R18   R(9,18)                 1.0934         estimate D2E/DX2                !
 ! A1    A(2,1,10)             110.5641         estimate D2E/DX2                !
 ! A2    A(2,1,11)             110.5825         estimate D2E/DX2                !
 ! A3    A(2,1,12)             112.853          estimate D2E/DX2                !
 ! A4    A(10,1,11)            108.1892         estimate D2E/DX2                !
 ! A5    A(10,1,12)            106.6048         estimate D2E/DX2                !
 ! A6    A(11,1,12)            107.8484         estimate D2E/DX2                !
 ! A7    A(1,2,3)              116.6123         estimate D2E/DX2                !
 ! A8    A(1,2,9)              117.2724         estimate D2E/DX2                !
 ! A9    A(1,2,13)             108.7959         estimate D2E/DX2                !
 ! A10   A(3,2,9)               87.96           estimate D2E/DX2                !
 ! A11   A(3,2,13)             112.8863         estimate D2E/DX2                !
 ! A12   A(9,2,13)             112.1826         estimate D2E/DX2                !
 ! A13   A(2,3,4)               89.265          estimate D2E/DX2                !
 ! A14   A(2,3,14)             112.8673         estimate D2E/DX2                !
 ! A15   A(2,3,15)             116.5732         estimate D2E/DX2                !
 ! A16   A(4,3,14)             112.7261         estimate D2E/DX2                !
 ! A17   A(4,3,15)             116.4096         estimate D2E/DX2                !
 ! A18   A(14,3,15)            108.195          estimate D2E/DX2                !
 ! A19   A(3,4,5)              118.5618         estimate D2E/DX2                !
 ! A20   A(3,4,9)               87.9045         estimate D2E/DX2                !
 ! A21   A(3,4,16)             111.4481         estimate D2E/DX2                !
 ! A22   A(5,4,9)              117.7421         estimate D2E/DX2                !
 ! A23   A(5,4,16)             107.9422         estimate D2E/DX2                !
 ! A24   A(9,4,16)             112.2291         estimate D2E/DX2                !
 ! A25   A(4,5,6)              112.9094         estimate D2E/DX2                !
 ! A26   A(4,5,7)              110.3447         estimate D2E/DX2                !
 ! A27   A(4,5,8)              110.1361         estimate D2E/DX2                !
 ! A28   A(6,5,7)              107.9198         estimate D2E/DX2                !
 ! A29   A(6,5,8)              107.3525         estimate D2E/DX2                !
 ! A30   A(7,5,8)              108.006          estimate D2E/DX2                !
 ! A31   A(2,9,4)               89.2862         estimate D2E/DX2                !
 ! A32   A(2,9,17)             112.7456         estimate D2E/DX2                !
 ! A33   A(2,9,18)             116.2533         estimate D2E/DX2                !
 ! A34   A(4,9,17)             112.9189         estimate D2E/DX2                !
 ! A35   A(4,9,18)             116.6086         estimate D2E/DX2                !
 ! A36   A(17,9,18)            108.2219         estimate D2E/DX2                !
 ! D1    D(10,1,2,3)           -80.8006         estimate D2E/DX2                !
 ! D2    D(10,1,2,9)           176.8718         estimate D2E/DX2                !
 ! D3    D(10,1,2,13)           48.2507         estimate D2E/DX2                !
 ! D4    D(11,1,2,3)           159.3966         estimate D2E/DX2                !
 ! D5    D(11,1,2,9)            57.069          estimate D2E/DX2                !
 ! D6    D(11,1,2,13)          -71.5521         estimate D2E/DX2                !
 ! D7    D(12,1,2,3)            38.4959         estimate D2E/DX2                !
 ! D8    D(12,1,2,9)           -63.8317         estimate D2E/DX2                !
 ! D9    D(12,1,2,13)          167.5472         estimate D2E/DX2                !
 ! D10   D(1,2,3,4)           -101.9373         estimate D2E/DX2                !
 ! D11   D(1,2,3,14)           143.6126         estimate D2E/DX2                !
 ! D12   D(1,2,3,15)            17.4655         estimate D2E/DX2                !
 ! D13   D(9,2,3,4)             17.7323         estimate D2E/DX2                !
 ! D14   D(9,2,3,14)           -96.7179         estimate D2E/DX2                !
 ! D15   D(9,2,3,15)           137.135          estimate D2E/DX2                !
 ! D16   D(13,2,3,4)           131.0011         estimate D2E/DX2                !
 ! D17   D(13,2,3,14)           16.5509         estimate D2E/DX2                !
 ! D18   D(13,2,3,15)         -109.5962         estimate D2E/DX2                !
 ! D19   D(1,2,9,4)            101.3095         estimate D2E/DX2                !
 ! D20   D(1,2,9,17)          -144.0403         estimate D2E/DX2                !
 ! D21   D(1,2,9,18)           -18.2484         estimate D2E/DX2                !
 ! D22   D(3,2,9,4)            -17.7639         estimate D2E/DX2                !
 ! D23   D(3,2,9,17)            96.8862         estimate D2E/DX2                !
 ! D24   D(3,2,9,18)          -137.3218         estimate D2E/DX2                !
 ! D25   D(13,2,9,4)          -131.7009         estimate D2E/DX2                !
 ! D26   D(13,2,9,17)          -17.0508         estimate D2E/DX2                !
 ! D27   D(13,2,9,18)          108.7412         estimate D2E/DX2                !
 ! D28   D(2,3,4,5)            102.9404         estimate D2E/DX2                !
 ! D29   D(2,3,4,9)            -17.752          estimate D2E/DX2                !
 ! D30   D(2,3,4,16)          -130.8532         estimate D2E/DX2                !
 ! D31   D(14,3,4,5)          -142.4793         estimate D2E/DX2                !
 ! D32   D(14,3,4,9)            96.8283         estimate D2E/DX2                !
 ! D33   D(14,3,4,16)          -16.2729         estimate D2E/DX2                !
 ! D34   D(15,3,4,5)           -16.6066         estimate D2E/DX2                !
 ! D35   D(15,3,4,9)          -137.299          estimate D2E/DX2                !
 ! D36   D(15,3,4,16)          109.5998         estimate D2E/DX2                !
 ! D37   D(3,4,5,6)            -62.8857         estimate D2E/DX2                !
 ! D38   D(3,4,5,7)             57.9756         estimate D2E/DX2                !
 ! D39   D(3,4,5,8)            177.1259         estimate D2E/DX2                !
 ! D40   D(9,4,5,6)             40.9575         estimate D2E/DX2                !
 ! D41   D(9,4,5,7)            161.8187         estimate D2E/DX2                !
 ! D42   D(9,4,5,8)            -79.0309         estimate D2E/DX2                !
 ! D43   D(16,4,5,6)           169.2445         estimate D2E/DX2                !
 ! D44   D(16,4,5,7)           -69.8943         estimate D2E/DX2                !
 ! D45   D(16,4,5,8)            49.2561         estimate D2E/DX2                !
 ! D46   D(3,4,9,2)             17.7271         estimate D2E/DX2                !
 ! D47   D(3,4,9,17)           -96.7634         estimate D2E/DX2                !
 ! D48   D(3,4,9,18)           136.9716         estimate D2E/DX2                !
 ! D49   D(5,4,9,2)           -103.6937         estimate D2E/DX2                !
 ! D50   D(5,4,9,17)           141.8158         estimate D2E/DX2                !
 ! D51   D(5,4,9,18)            15.5508         estimate D2E/DX2                !
 ! D52   D(16,4,9,2)           130.081          estimate D2E/DX2                !
 ! D53   D(16,4,9,17)           15.5905         estimate D2E/DX2                !
 ! D54   D(16,4,9,18)         -110.6745         estimate D2E/DX2                !
 --------------------------------------------------------------------------------
 Trust Radius=3.00D-01 FncErr=1.00D-07 GrdErr=1.00D-06 EigMax=2.50D+02 EigMin=1.00D-04
 Number of steps in this run=    108 maximum allowed number of steps=    108.
 GradGradGradGradGradGradGradGradGradGradGradGradGradGradGradGradGradGrad

                          Input orientation:                          
 ---------------------------------------------------------------------
 Center     Atomic      Atomic             Coordinates (Angstroms)
 Number     Number       Type             X           Y           Z
 ---------------------------------------------------------------------
      1          6           0       -1.824670    0.025210   -0.403290
      2          6           0       -0.589160    0.008090    0.483100
      3          6           0        0.493490    1.070490    0.182860
      4          6           0        1.333660   -0.016920   -0.532970
      5          6           0        1.348700   -0.040170   -2.044280
      6          9           0        0.130630   -0.277790   -2.578850
      7          9           0        1.791540    1.140800   -2.527730
      8          9           0        2.179210   -1.010450   -2.486440
      9          6           0        0.475770   -1.078350    0.194950
     10          1           0       -2.525750    0.796270   -0.070440
     11          1           0       -2.337250   -0.940970   -0.367490
     12          1           0       -1.594340    0.242910   -1.446700
     13          1           0       -0.907720    0.008070    1.534270
     14          1           0        0.979240    1.452880    1.090210
     15          1           0        0.184770    1.925120   -0.425140
     16          1           0        2.376090   -0.014040   -0.183930
     17          1           0        0.951240   -1.459390    1.108100
     18          1           0        0.145320   -1.933530   -0.400870
 ---------------------------------------------------------------------
                    Distance matrix (angstroms):
                    1          2          3          4          5
     1  C    0.000000
     2  C    1.520679   0.000000
     3  C    2.609607   1.546276   0.000000
     4  C    3.161272   2.174916   1.549438   0.000000
     5  C    3.573150   3.185166   2.631559   1.511564   0.000000
     6  F    2.940760   3.158380   3.094603   2.387668   1.351267
     7  F    4.339903   4.001982   3.006190   2.351390   1.350748
     8  F    4.630676   4.185626   3.781154   2.349064   1.351553
     9  C    2.620641   1.548373   2.148947   1.546763   2.618010
    10  H    1.094000   2.162872   3.042231   3.971178   4.427984
    11  H    1.094314   2.163339   3.515956   3.789041   4.148408
    12  H    1.090481   2.188528   2.774777   3.078246   3.016409
    13  H    2.143649   1.098380   2.217754   3.049244   4.230813
    14  H    3.482915   2.217178   1.097934   2.218251   3.491522
    15  H    2.765499   2.258068   1.093327   2.259003   2.799770
    16  H    4.206667   3.039429   2.203389   1.099317   2.125351
    17  H    3.491993   2.217421   2.732379   2.218124   3.479894
    18  H    2.778044   2.256269   3.079951   2.258981   2.780959
                    6          7          8          9         10
     6  F    0.000000
     7  F    2.184864   0.000000
     8  F    2.177616   2.186291   0.000000
     9  C    2.907574   3.750848   3.177447   0.000000
    10  H    3.808160   4.979555   5.589091   3.548768   0.000000
    11  H    3.379401   5.103657   4.989307   2.871984   1.772505
    12  H    2.128007   3.665926   4.109945   2.953997   1.751520
    13  H    4.251781   5.006888   5.170361   2.210912   2.411301
    14  H    4.144558   3.721117   4.505591   2.731684   3.750093
    15  H    3.081268   2.760028   4.104183   3.080588   2.957538
    16  H    3.293523   2.677453   2.516574   2.210774   4.969660
    17  H    3.957674   4.548225   3.824941   1.097773   4.308877
    18  H    2.735925   4.084737   3.055878   1.093404   3.833485
                   11         12         13         14         15
    11  H    0.000000
    12  H    1.765837   0.000000
    13  H    2.561430   3.068025   0.000000
    14  H    4.342178   3.810939   2.417702   0.000000
    15  H    3.818165   2.653045   2.950916   1.774959   0.000000
    16  H    4.807127   4.174317   3.706226   2.393006   2.936053
    17  H    3.641468   3.988083   2.406406   2.912460   3.793838
    18  H    2.673844   2.976083   2.936575   3.792956   3.858928
                   16         17         18
    16  H    0.000000
    17  H    2.405946   0.000000
    18  H    2.950905   1.775192   0.000000
 Stoichiometry    C6H9F3
 Framework group  C1[X(C6H9F3)]
 Deg. of freedom    48
 Full point group                 C1      NOp   1
 Largest Abelian subgroup         C1      NOp   1
 Largest concise Abelian subgroup C1      NOp   1
                         Standard orientation:                         
 ---------------------------------------------------------------------
 Center     Atomic      Atomic             Coordinates (Angstroms)
 Number     Number       Type             X           Y           Z
 ---------------------------------------------------------------------
      1          6           0       -2.183604    1.229491    0.005437
      2          6           0       -1.959228   -0.274465   -0.010000
      3          6           0       -1.010447   -0.844358    1.069817
      4          6           0        0.109020   -0.947092    0.003516
      5          6           0        1.204474    0.094447    0.003106
      6          9           0        0.744658    1.341364   -0.241211
      7          9           0        1.837033    0.111148    1.196468
      8          9           0        2.118578   -0.192109   -0.950306
      9          6           0       -0.990217   -0.836312   -1.079020
     10          1           0       -2.925336    1.499604    0.762873
     11          1           0       -2.547596    1.574162   -0.967309
     12          1           0       -1.278666    1.790293    0.241527
     13          1           0       -2.935337   -0.777720   -0.029635
     14          1           0       -1.330746   -1.825449    1.444419
     15          1           0       -0.805464   -0.200920    1.929663
     16          1           0        0.584203   -1.938351    0.013791
     17          1           0       -1.307182   -1.812733   -1.467917
     18          1           0       -0.776286   -0.182777   -1.929113
 ---------------------------------------------------------------------
 Rotational constants (GHZ):           2.6956298           1.2041753           1.1641924
 Standard basis: 6-31G(2df,p) (6D, 7F)
 There are   324 symmetry adapted cartesian basis functions of A   symmetry.
 There are   297 symmetry adapted basis functions of A   symmetry.
   297 basis functions,   459 primitive gaussians,   324 cartesian basis functions
    36 alpha electrons       36 beta electrons
       nuclear repulsion energy       515.0276599121 Hartrees.
 NAtoms=   18 NActive=   18 NUniq=   18 SFac= 1.00D+00 NAtFMM=   60 NAOKFM=F Big=F
 Integral buffers will be    131072 words long.
 Raffenetti 2 integral format.
 Two-electron integral symmetry is turned on.
 One-electron integrals computed using PRISM.
 PrsmSu:  requested number of processors reduced to:  13 ShMem   1 Linda.
 NBasis=   297 RedAO= T EigKep=  4.98D-04  NBF=   297
 NBsUse=   297 1.00D-06 EigRej= -1.00D+00 NBFU=   297
 ExpMin= 1.61D-01 ExpMax= 7.00D+03 ExpMxC= 1.05D+03 IAcc=3 IRadAn=         5 AccDes= 0.00D+00
 Harris functional with IExCor=  402 and IRadAn=       5 diagonalized for initial guess.
 HarFok:  IExCor=  402 AccDes= 0.00D+00 IRadAn=         5 IDoV= 1 UseB2=F ITyADJ=14
 ICtDFT=  3500011 ScaDFX=  1.000000  1.000000  1.000000  1.000000
 FoFCou: FMM=F IPFlag=           0 FMFlag=      100000 FMFlg1=           0
         NFxFlg=           0 DoJE=T BraDBF=F KetDBF=T FulRan=T
         wScrn=  0.000000 ICntrl=       500 IOpCl=  0 I1Cent=   200000004 NGrid=           0
         NMat0=    1 NMatS0=      1 NMatT0=    0 NMatD0=    1 NMtDS0=    0 NMtDT0=    0
 Petite list used in FoFCou.
 Requested convergence on RMS density matrix=1.00D-08 within 128 cycles.
 Requested convergence on MAX density matrix=1.00D-06.
 Requested convergence on             energy=1.00D-06.
 No special actions if energy rises.
 Integral accuracy reduced to 1.0D-05 until final iterations.
 Initial convergence to 1.0D-05 achieved.  Increase integral accuracy.
 SCF Done:  E(RB3LYP) =  -533.598493235     A.U. after   12 cycles
            NFock= 12  Conv=0.51D-08     -V/T= 2.0068

 **********************************************************************

            Population analysis using the SCF density.

 **********************************************************************

 Orbital symmetries:
       Occupied  (A) (A) (A) (A) (A) (A) (A) (A) (A) (A) (A) (A)
                 (A) (A) (A) (A) (A) (A) (A) (A) (A) (A) (A) (A)
                 (A) (A) (A) (A) (A) (A) (A) (A) (A) (A) (A) (A)
       Virtual   (A) (A) (A) (A) (A) (A) (A) (A) (A) (A) (A) (A)
                 (A) (A) (A) (A) (A) (A) (A) (A) (A) (A) (A) (A)
                 (A) (A) (A) (A) (A) (A) (A) (A) (A) (A) (A) (A)
                 (A) (A) (A) (A) (A) (A) (A) (A) (A) (A) (A) (A)
                 (A) (A) (A) (A) (A) (A) (A) (A) (A) (A) (A) (A)
                 (A) (A) (A) (A) (A) (A) (A) (A) (A) (A) (A) (A)
                 (A) (A) (A) (A) (A) (A) (A) (A) (A) (A) (A) (A)
                 (A) (A) (A) (A) (A) (A) (A) (A) (A) (A) (A) (A)
                 (A) (A) (A) (A) (A) (A) (A) (A) (A) (A) (A) (A)
                 (A) (A) (A) (A) (A) (A) (A) (A) (A) (A) (A) (A)
                 (A) (A) (A) (A) (A) (A) (A) (A) (A) (A) (A) (A)
                 (A) (A) (A) (A) (A) (A) (A) (A) (A) (A) (A) (A)
                 (A) (A) (A) (A) (A) (A) (A) (A) (A) (A) (A) (A)
                 (A) (A) (A) (A) (A) (A) (A) (A) (A) (A) (A) (A)
                 (A) (A) (A) (A) (A) (A) (A) (A) (A) (A) (A) (A)
                 (A) (A) (A) (A) (A) (A) (A) (A) (A) (A) (A) (A)
                 (A) (A) (A) (A) (A) (A) (A) (A) (A) (A) (A) (A)
                 (A) (A) (A) (A) (A) (A) (A) (A) (A) (A) (A) (A)
                 (A) (A) (A) (A) (A) (A) (A) (A) (A) (A) (A) (A)
                 (A) (A) (A) (A) (A) (A) (A) (A) (A) (A) (A) (A)
                 (A) (A) (A) (A) (A) (A) (A) (A) (A) (A) (A) (A)
                 (A) (A) (A) (A) (A) (A) (A) (A) (A)
 The electronic state is 1-A.
 Alpha  occ. eigenvalues --  -24.71955 -24.71447 -24.71324 -10.41546 -10.20631
 Alpha  occ. eigenvalues --  -10.19071 -10.19041 -10.19027 -10.17055  -1.29703
 Alpha  occ. eigenvalues --   -1.21325  -1.20959  -0.86652  -0.75051  -0.69699
 Alpha  occ. eigenvalues --   -0.67090  -0.63744  -0.58050  -0.57545  -0.55510
 Alpha  occ. eigenvalues --   -0.51786  -0.50122  -0.45661  -0.45257  -0.43976
 Alpha  occ. eigenvalues --   -0.42338  -0.42158  -0.41679  -0.39882  -0.39328
 Alpha  occ. eigenvalues --   -0.38545  -0.36274  -0.34610  -0.32431  -0.30759
 Alpha  occ. eigenvalues --   -0.30156
 Alpha virt. eigenvalues --    0.06621   0.10451   0.11128   0.12495   0.13892
 Alpha virt. eigenvalues --    0.15438   0.16036   0.16632   0.18395   0.18796
 Alpha virt. eigenvalues --    0.19758   0.20215   0.21497   0.23069   0.25162
 Alpha virt. eigenvalues --    0.26804   0.27093   0.34244   0.39381   0.40942
 Alpha virt. eigenvalues --    0.43299   0.45336   0.47054   0.49851   0.50341
 Alpha virt. eigenvalues --    0.51493   0.52276   0.53526   0.55710   0.59799
 Alpha virt. eigenvalues --    0.61338   0.62078   0.64157   0.66161   0.67454
 Alpha virt. eigenvalues --    0.68780   0.69988   0.70748   0.71893   0.74356
 Alpha virt. eigenvalues --    0.75001   0.76174   0.77579   0.79842   0.80451
 Alpha virt. eigenvalues --    0.82207   0.83576   0.84281   0.87325   0.88564
 Alpha virt. eigenvalues --    0.91911   0.93046   0.95272   0.95581   0.98572
 Alpha virt. eigenvalues --    0.99653   1.02213   1.02687   1.04656   1.07178
 Alpha virt. eigenvalues --    1.08297   1.09214   1.10180   1.15112   1.17755
 Alpha virt. eigenvalues --    1.18241   1.20564   1.21347   1.23471   1.27725
 Alpha virt. eigenvalues --    1.31194   1.32685   1.35468   1.38253   1.38965
 Alpha virt. eigenvalues --    1.39715   1.42649   1.45217   1.47368   1.49412
 Alpha virt. eigenvalues --    1.51165   1.54074   1.55091   1.55451   1.58672
 Alpha virt. eigenvalues --    1.60750   1.62808   1.63322   1.68298   1.69134
 Alpha virt. eigenvalues --    1.70524   1.71235   1.73710   1.76532   1.79763
 Alpha virt. eigenvalues --    1.80651   1.85394   1.86141   1.89368   1.91677
 Alpha virt. eigenvalues --    1.93090   1.95470   1.98183   2.04094   2.08184
 Alpha virt. eigenvalues --    2.09012   2.16793   2.20361   2.22502   2.24283
 Alpha virt. eigenvalues --    2.25770   2.29090   2.34282   2.35781   2.37983
 Alpha virt. eigenvalues --    2.39798   2.42478   2.47378   2.52914   2.60147
 Alpha virt. eigenvalues --    2.62290   2.65547   2.69133   2.71035   2.73590
 Alpha virt. eigenvalues --    2.75393   2.79733   2.83567   2.84472   2.88852
 Alpha virt. eigenvalues --    2.91748   2.94031   2.94788   2.97751   2.98691
 Alpha virt. eigenvalues --    3.00725   3.07599   3.09609   3.12850   3.13594
 Alpha virt. eigenvalues --    3.14192   3.17120   3.19713   3.20847   3.23642
 Alpha virt. eigenvalues --    3.26751   3.26926   3.33723   3.35209   3.37008
 Alpha virt. eigenvalues --    3.41678   3.43413   3.45705   3.49622   3.51157
 Alpha virt. eigenvalues --    3.53813   3.56392   3.57727   3.63247   3.64308
 Alpha virt. eigenvalues --    3.69574   3.72262   3.79069   3.81328   3.84867
 Alpha virt. eigenvalues --    3.91145   3.91556   3.94955   3.97484   3.99574
 Alpha virt. eigenvalues --    4.05871   4.07266   4.13390   4.16520   4.17642
 Alpha virt. eigenvalues --    4.18818   4.19307   4.19838   4.23146   4.24074
 Alpha virt. eigenvalues --    4.25453   4.26445   4.29433   4.30350   4.37241
 Alpha virt. eigenvalues --    4.39381   4.44854   4.47917   4.49924   4.52306
 Alpha virt. eigenvalues --    4.53210   4.56295   4.57236   4.58027   4.61059
 Alpha virt. eigenvalues --    4.62553   4.62715   4.63762   4.65208   4.68926
 Alpha virt. eigenvalues --    4.70273   4.72249   4.72965   4.73826   4.76973
 Alpha virt. eigenvalues --    4.77362   4.79845   4.81382   4.83200   4.84795
 Alpha virt. eigenvalues --    4.87193   4.88359   4.89458   4.90649   4.92916
 Alpha virt. eigenvalues --    4.97018   5.01451   5.03205   5.05128   5.12975
 Alpha virt. eigenvalues --    5.21374   5.29085   5.38902   5.46658   5.48698
 Alpha virt. eigenvalues --    5.52478   5.59570   5.60196   5.68415   6.39876
 Alpha virt. eigenvalues --    6.61325   6.62025   6.62143   6.62422   6.62476
 Alpha virt. eigenvalues --    6.62752   6.65501   6.68996   6.70501   6.78998
 Alpha virt. eigenvalues --    6.79203   6.81982   6.96896   7.17936   7.18570
 Alpha virt. eigenvalues --    7.23362   7.38192   7.38428   7.42648   7.43384
 Alpha virt. eigenvalues --    7.51017   7.94554   9.62636   9.67807   9.78719
 Alpha virt. eigenvalues --   11.08898  11.59906  12.06796  12.13366  12.56811
 Alpha virt. eigenvalues --   12.94980
          Condensed to atoms (all electrons):
               1          2          3          4          5          6
     1  C    5.010931   0.426566  -0.031501   0.001228   0.001637  -0.005903
     2  C    0.426566   4.603192   0.386797  -0.063065  -0.003463  -0.002161
     3  C   -0.031501   0.386797   5.060215   0.310357   0.001305   0.000254
     4  C    0.001228  -0.063065   0.310357   5.148815   0.262133  -0.047843
     5  C    0.001637  -0.003463   0.001305   0.262133   4.200118   0.404201
     6  F   -0.005903  -0.002161   0.000254  -0.047843   0.404201   8.787164
     7  F   -0.000029   0.000146   0.000393  -0.039918   0.428993  -0.038378
     8  F   -0.000037   0.000182   0.001888  -0.032380   0.434031  -0.040067
     9  C   -0.032428   0.390216  -0.125200   0.318274   0.000563   0.003452
    10  H    0.366021  -0.023106  -0.001671  -0.000077  -0.000083   0.000216
    11  H    0.370136  -0.023416   0.004622  -0.000011  -0.000171   0.000087
    12  H    0.365243  -0.023742  -0.005885  -0.001119   0.001648   0.017725
    13  H   -0.051924   0.368854  -0.039045   0.005271   0.000176  -0.000024
    14  H    0.004449  -0.021187   0.352485  -0.011533   0.001715   0.000015
    15  H   -0.008672  -0.026026   0.362715  -0.032282  -0.003556  -0.000089
    16  H   -0.000025   0.006835  -0.036171   0.348298  -0.019426   0.001843
    17  H    0.004505  -0.021229   0.003903  -0.011268   0.002045   0.000105
    18  H   -0.008165  -0.027546   0.010395  -0.031727  -0.003127   0.002094
               7          8          9         10         11         12
     1  C   -0.000029  -0.000037  -0.032428   0.366021   0.370136   0.365243
     2  C    0.000146   0.000182   0.390216  -0.023106  -0.023416  -0.023742
     3  C    0.000393   0.001888  -0.125200  -0.001671   0.004622  -0.005885
     4  C   -0.039918  -0.032380   0.318274  -0.000077  -0.000011  -0.001119
     5  C    0.428993   0.434031   0.000563  -0.000083  -0.000171   0.001648
     6  F   -0.038378  -0.040067   0.003452   0.000216   0.000087   0.017725
     7  F    8.772196  -0.040478   0.001936   0.000001  -0.000000  -0.000108
     8  F   -0.040478   8.763683  -0.000405   0.000000   0.000001   0.000066
     9  C    0.001936  -0.000405   5.045681   0.004501  -0.007073  -0.001277
    10  H    0.000001   0.000000   0.004501   0.610040  -0.030919  -0.030486
    11  H   -0.000000   0.000001  -0.007073  -0.030919   0.601251  -0.030378
    12  H   -0.000108   0.000066  -0.001277  -0.030486  -0.030378   0.563541
    13  H   -0.000000   0.000000  -0.039571  -0.006601  -0.000701   0.006069
    14  H    0.000043  -0.000015   0.004050  -0.000081  -0.000167   0.000025
    15  H    0.003608   0.000052   0.010518   0.001693  -0.000017   0.002526
    16  H   -0.001213  -0.000858  -0.034320   0.000014   0.000017  -0.000117
    17  H   -0.000014  -0.000041   0.351180  -0.000161   0.000045  -0.000077
    18  H    0.000060   0.000771   0.363211   0.000004   0.003748   0.000588
              13         14         15         16         17         18
     1  C   -0.051924   0.004449  -0.008672  -0.000025   0.004505  -0.008165
     2  C    0.368854  -0.021187  -0.026026   0.006835  -0.021229  -0.027546
     3  C   -0.039045   0.352485   0.362715  -0.036171   0.003903   0.010395
     4  C    0.005271  -0.011533  -0.032282   0.348298  -0.011268  -0.031727
     5  C    0.000176   0.001715  -0.003556  -0.019426   0.002045  -0.003127
     6  F   -0.000024   0.000015  -0.000089   0.001843   0.000105   0.002094
     7  F   -0.000000   0.000043   0.003608  -0.001213  -0.000014   0.000060
     8  F    0.000000  -0.000015   0.000052  -0.000858  -0.000041   0.000771
     9  C   -0.039571   0.004050   0.010518  -0.034320   0.351180   0.363211
    10  H   -0.006601  -0.000081   0.001693   0.000014  -0.000161   0.000004
    11  H   -0.000701  -0.000167  -0.000017   0.000017   0.000045   0.003748
    12  H    0.006069   0.000025   0.002526  -0.000117  -0.000077   0.000588
    13  H    0.703151  -0.008464   0.003245  -0.001005  -0.008572   0.003433
    14  H   -0.008464   0.616571  -0.037360  -0.008806   0.000731  -0.000466
    15  H    0.003245  -0.037360   0.612455   0.003133  -0.000469  -0.000573
    16  H   -0.001005  -0.008806   0.003133   0.648334  -0.008212   0.003008
    17  H   -0.008572   0.000731  -0.000469  -0.008212   0.616812  -0.037072
    18  H    0.003433  -0.000466  -0.000573   0.003008  -0.037072   0.612760
 Mulliken charges:
               1
     1  C   -0.412033
     2  C    0.052151
     3  C   -0.255856
     4  C   -0.123154
     5  C    0.291262
     6  F   -0.082692
     7  F   -0.087234
     8  F   -0.086394
     9  C   -0.253308
    10  H    0.110693
    11  H    0.112945
    12  H    0.135756
    13  H    0.065708
    14  H    0.107995
    15  H    0.109100
    16  H    0.098672
    17  H    0.107788
    18  H    0.108602
 Sum of Mulliken charges =  -0.00000
 Mulliken charges with hydrogens summed into heavy atoms:
               1
     1  C   -0.052638
     2  C    0.117859
     3  C   -0.038761
     4  C   -0.024482
     5  C    0.291262
     6  F   -0.082692
     7  F   -0.087234
     8  F   -0.086394
     9  C   -0.036919
 Electronic spatial extent (au):  <R**2>=           1139.0401
 Charge=             -0.0000 electrons
 Dipole moment (field-independent basis, Debye):
    X=             -1.6505    Y=             -1.2225    Z=              0.0023  Tot=              2.0540
 Quadrupole moment (field-independent basis, Debye-Ang):
   XX=            -54.1585   YY=            -50.6071   ZZ=            -52.3121
   XY=              0.3444   XZ=              0.0263   YZ=              0.0027
 Traceless Quadrupole moment (field-independent basis, Debye-Ang):
   XX=             -1.7993   YY=              1.7521   ZZ=              0.0472
   XY=              0.3444   XZ=              0.0263   YZ=              0.0027
 Octapole moment (field-independent basis, Debye-Ang**2):
  XXX=             29.6519  YYY=              3.7980  ZZZ=             -0.8460  XYY=             10.9378
  XXY=              2.5509  XXZ=              0.5124  XZZ=              8.3340  YZZ=              3.7663
  YYZ=              0.4016  XYZ=             -0.2884
 Hexadecapole moment (field-independent basis, Debye-Ang**3):
 XXXX=           -803.3055 YYYY=           -295.6867 ZZZZ=           -241.6662 XXXY=              9.8961
 XXXZ=             -0.4135 YYYX=             10.3742 YYYZ=              0.2358 ZZZX=             -0.1578
 ZZZY=             -0.6736 XXYY=           -179.7379 XXZZ=           -175.9649 YYZZ=            -88.9852
 XXYZ=             -0.4811 YYXZ=              0.4710 ZZXY=              2.0815
 N-N= 5.150276599121D+02 E-N=-2.286063129445D+03  KE= 5.299721384986D+02
 PrsmSu:  requested number of processors reduced to:  13 ShMem   1 Linda.
 Calling FoFJK, ICntrl=      2127 FMM=F ISym2X=0 I1Cent= 0 IOpClX= 0 NMat=1 NMatS=1 NMatT=0.
 ***** Axes restored to original set *****
 -------------------------------------------------------------------
 Center     Atomic                   Forces (Hartrees/Bohr)
 Number     Number              X              Y              Z
 -------------------------------------------------------------------
      1        6          -0.002766521    0.002024444   -0.002203316
      2        6          -0.003616386   -0.000771915    0.019163887
      3        6          -0.006975558    0.011188980   -0.010409153
      4        6           0.019478132    0.000770441    0.019240561
      5        6           0.003892288    0.000604055    0.006242773
      6        9           0.010203307    0.001254417   -0.003518699
      7        9          -0.003357233   -0.008064913   -0.001314822
      8        9          -0.006218919    0.006313627   -0.000967250
      9        6          -0.007991139   -0.011348455   -0.009784232
     10        1          -0.000898085    0.000002792    0.001856639
     11        1          -0.001395861   -0.000143195    0.000585157
     12        1           0.000177402   -0.001625358    0.001218326
     13        1          -0.001276303    0.000005112   -0.002193674
     14        1           0.000690098   -0.002914066   -0.004452355
     15        1           0.000056893    0.001123686    0.000242619
     16        1          -0.000874805   -0.000287529   -0.009456973
     17        1           0.000370729    0.002946068   -0.004164310
     18        1           0.000501962   -0.001078193   -0.000085177
 -------------------------------------------------------------------
 Cartesian Forces:  Max     0.019478132 RMS     0.006402418

 GradGradGradGradGradGradGradGradGradGradGradGradGradGradGradGradGradGrad
 Berny optimization.
 FormGI is forming the generalized inverse of G from B-inverse, IUseBI=4.
 Internal  Forces:  Max     0.010666011 RMS     0.003522996
 Search for a local minimum.
 Step number   1 out of a maximum of  108
 All quantities printed in internal units (Hartrees-Bohrs-Radians)
 Mixed Optimization -- RFO/linear search
 Second derivative matrix not updated -- first step.
 ITU=  0
     Eigenvalues ---    0.00304   0.00492   0.00613   0.02217   0.02582
     Eigenvalues ---    0.02820   0.03386   0.04233   0.04693   0.04814
     Eigenvalues ---    0.04835   0.05436   0.05499   0.05655   0.06047
     Eigenvalues ---    0.06235   0.06642   0.07045   0.07860   0.08390
     Eigenvalues ---    0.08841   0.09990   0.10648   0.16000   0.16000
     Eigenvalues ---    0.16000   0.19218   0.22870   0.25000   0.25000
     Eigenvalues ---    0.25000   0.25619   0.27083   0.27860   0.30301
     Eigenvalues ---    0.31194   0.33758   0.33862   0.33912   0.33930
     Eigenvalues ---    0.34319   0.34354   0.34422   0.34431   0.34757
     Eigenvalues ---    0.54692   0.54753   0.54862
 RFO step:  Lambda=-1.32598630D-02 EMin= 3.04418774D-03
 Linear search not attempted -- first point.
 Iteration  1 RMS(Cart)=  0.13768987 RMS(Int)=  0.00436558
 Iteration  2 RMS(Cart)=  0.00658339 RMS(Int)=  0.00135731
 Iteration  3 RMS(Cart)=  0.00000629 RMS(Int)=  0.00135729
 Iteration  4 RMS(Cart)=  0.00000000 RMS(Int)=  0.00135729
 Variable       Old X    -DE/DX   Delta X   Delta X   Delta X     New X
                                 (Linear)    (Quad)   (Total)
    R1        2.87367   0.00312   0.00000   0.00986   0.00986   2.88353
    R2        2.06736   0.00114   0.00000   0.00320   0.00320   2.07056
    R3        2.06795   0.00080   0.00000   0.00224   0.00224   2.07020
    R4        2.06071  -0.00145   0.00000  -0.00403  -0.00403   2.05668
    R5        2.92204   0.00865   0.00000   0.03147   0.03140   2.95343
    R6        2.92600   0.00825   0.00000   0.03029   0.03017   2.95617
    R7        2.07564  -0.00173   0.00000  -0.00491  -0.00491   2.07072
    R8        2.92801   0.00662   0.00000   0.02068   0.02077   2.94878
    R9        2.07479  -0.00439   0.00000  -0.01246  -0.01246   2.06234
   R10        2.06609   0.00073   0.00000   0.00203   0.00203   2.06812
   R11        2.85644  -0.00040   0.00000  -0.00122  -0.00122   2.85522
   R12        2.92296   0.00779   0.00000   0.02483   0.02495   2.94791
   R13        2.07741  -0.00383   0.00000  -0.01093  -0.01093   2.06648
   R14        2.55352  -0.00803   0.00000  -0.01431  -0.01431   2.53921
   R15        2.55254  -0.00768   0.00000  -0.01367  -0.01367   2.53887
   R16        2.55407  -0.00804   0.00000  -0.01435  -0.01435   2.53972
   R17        2.07449  -0.00433   0.00000  -0.01227  -0.01227   2.06222
   R18        2.06623   0.00074   0.00000   0.00206   0.00206   2.06830
    A1        1.92971  -0.00122   0.00000  -0.00747  -0.00748   1.92222
    A2        1.93003   0.00070   0.00000   0.00147   0.00145   1.93148
    A3        1.96966  -0.00006   0.00000   0.00268   0.00268   1.97234
    A4        1.88826  -0.00061   0.00000  -0.00945  -0.00949   1.87877
    A5        1.86061   0.00141   0.00000   0.01295   0.01295   1.87356
    A6        1.88231  -0.00021   0.00000  -0.00023  -0.00023   1.88208
    A7        2.03527   0.00071   0.00000  -0.00528  -0.00350   2.03177
    A8        2.04679   0.00132   0.00000   0.00026   0.00190   2.04869
    A9        1.89885  -0.00325   0.00000  -0.03034  -0.03147   1.86738
   A10        1.53519  -0.00259   0.00000   0.00691   0.00306   1.53825
   A11        1.97024   0.00232   0.00000   0.01821   0.01863   1.98887
   A12        1.95796   0.00221   0.00000   0.02077   0.02143   1.97939
   A13        1.55797   0.00398   0.00000   0.03715   0.02996   1.58792
   A14        1.96991  -0.00266   0.00000  -0.02811  -0.02629   1.94362
   A15        2.03459   0.00104   0.00000   0.02902   0.02958   2.06417
   A16        1.96744  -0.00566   0.00000  -0.06526  -0.06365   1.90379
   A17        2.03173   0.00200   0.00000   0.03216   0.03284   2.06457
   A18        1.88836   0.00111   0.00000  -0.00399  -0.00462   1.88374
   A19        2.06929   0.00072   0.00000  -0.00360  -0.00195   2.06735
   A20        1.53422  -0.00177   0.00000   0.01227   0.00827   1.54249
   A21        1.94514   0.00416   0.00000   0.04427   0.04395   1.98909
   A22        2.05499   0.00051   0.00000  -0.00466  -0.00288   2.05211
   A23        1.88395  -0.00610   0.00000  -0.06890  -0.06950   1.81445
   A24        1.95877   0.00428   0.00000   0.04459   0.04415   2.00292
   A25        1.97064   0.01067   0.00000   0.04188   0.04149   2.01213
   A26        1.92588   0.00459   0.00000   0.01794   0.01764   1.94352
   A27        1.92224   0.00328   0.00000   0.01062   0.01048   1.93272
   A28        1.88356  -0.00755   0.00000  -0.02533  -0.02582   1.85774
   A29        1.87365  -0.00754   0.00000  -0.02945  -0.02966   1.84399
   A30        1.88506  -0.00455   0.00000  -0.01999  -0.02002   1.86505
   A31        1.55834   0.00372   0.00000   0.03615   0.02894   1.58728
   A32        1.96778  -0.00286   0.00000  -0.03139  -0.02966   1.93812
   A33        2.02900   0.00136   0.00000   0.03267   0.03350   2.06250
   A34        1.97081  -0.00534   0.00000  -0.06221  -0.06053   1.91028
   A35        2.03520   0.00179   0.00000   0.02866   0.02910   2.06430
   A36        1.88883   0.00112   0.00000  -0.00295  -0.00360   1.88522
    D1       -1.41024  -0.00142   0.00000   0.00668   0.00527  -1.40497
    D2        3.08700   0.00064   0.00000   0.00099   0.00238   3.08938
    D3        0.84213  -0.00056   0.00000  -0.00021  -0.00016   0.84197
    D4        2.78200  -0.00032   0.00000   0.02237   0.02094   2.80294
    D5        0.99604   0.00173   0.00000   0.01668   0.01806   1.01410
    D6       -1.24882   0.00053   0.00000   0.01548   0.01551  -1.23331
    D7        0.67188  -0.00051   0.00000   0.01977   0.01834   0.69022
    D8       -1.11407   0.00155   0.00000   0.01408   0.01546  -1.09862
    D9        2.92425   0.00034   0.00000   0.01288   0.01291   2.93716
   D10       -1.77914  -0.00547   0.00000  -0.14748  -0.14801  -1.92715
   D11        2.50651  -0.00060   0.00000  -0.08771  -0.08711   2.41940
   D12        0.30483  -0.00064   0.00000  -0.08170  -0.08190   0.22293
   D13        0.30949  -0.00523   0.00000  -0.14462  -0.14500   0.16449
   D14       -1.68805  -0.00035   0.00000  -0.08486  -0.08410  -1.77215
   D15        2.39346  -0.00039   0.00000  -0.07885  -0.07889   2.31456
   D16        2.28640  -0.00363   0.00000  -0.11622  -0.11709   2.16932
   D17        0.28887   0.00124   0.00000  -0.05645  -0.05619   0.23268
   D18       -1.91281   0.00120   0.00000  -0.05044  -0.05098  -1.96380
   D19        1.76818   0.00503   0.00000   0.14327   0.14369   1.91187
   D20       -2.51398   0.00034   0.00000   0.08576   0.08515  -2.42883
   D21       -0.31849   0.00052   0.00000   0.08151   0.08165  -0.23684
   D22       -0.31004   0.00536   0.00000   0.14535   0.14550  -0.16454
   D23        1.69098   0.00068   0.00000   0.08784   0.08696   1.77795
   D24       -2.39672   0.00086   0.00000   0.08359   0.08346  -2.31325
   D25       -2.29861   0.00364   0.00000   0.11959   0.12038  -2.17823
   D26       -0.29759  -0.00104   0.00000   0.06208   0.06185  -0.23575
   D27        1.89789  -0.00086   0.00000   0.05783   0.05835   1.95624
   D28        1.79665   0.00492   0.00000   0.14529   0.14603   1.94268
   D29       -0.30983   0.00519   0.00000   0.14427   0.14490  -0.16494
   D30       -2.28382   0.00076   0.00000   0.08532   0.08590  -2.19792
   D31       -2.48673   0.00280   0.00000   0.11971   0.11917  -2.36756
   D32        1.68997   0.00308   0.00000   0.11869   0.11804   1.80801
   D33       -0.28402  -0.00136   0.00000   0.05974   0.05904  -0.22498
   D34       -0.28984   0.00095   0.00000   0.08246   0.08277  -0.20707
   D35       -2.39632   0.00122   0.00000   0.08143   0.08164  -2.31468
   D36        1.91288  -0.00321   0.00000   0.02249   0.02264   1.93552
   D37       -1.09756   0.00029   0.00000  -0.01381  -0.01241  -1.10997
   D38        1.01186   0.00117   0.00000  -0.00484  -0.00325   1.00861
   D39        3.09143   0.00048   0.00000  -0.01165  -0.01022   3.08121
   D40        0.71484  -0.00121   0.00000  -0.00321  -0.00477   0.71008
   D41        2.82427  -0.00033   0.00000   0.00576   0.00439   2.82866
   D42       -1.37935  -0.00102   0.00000  -0.00105  -0.00258  -1.38193
   D43        2.95387  -0.00043   0.00000  -0.00841  -0.00847   2.94541
   D44       -1.21988   0.00045   0.00000   0.00056   0.00069  -1.21919
   D45        0.85968  -0.00024   0.00000  -0.00625  -0.00628   0.85340
   D46        0.30940  -0.00514   0.00000  -0.14391  -0.14462   0.16478
   D47       -1.68884  -0.00275   0.00000  -0.11483  -0.11426  -1.80310
   D48        2.39060  -0.00098   0.00000  -0.07822  -0.07859   2.31201
   D49       -1.80980  -0.00507   0.00000  -0.14571  -0.14646  -1.95625
   D50        2.47515  -0.00268   0.00000  -0.11663  -0.11610   2.35905
   D51        0.27141  -0.00091   0.00000  -0.08002  -0.08043   0.19098
   D52        2.27034  -0.00082   0.00000  -0.08478  -0.08535   2.18499
   D53        0.27211   0.00157   0.00000  -0.05570  -0.05500   0.21711
   D54       -1.93163   0.00334   0.00000  -0.01909  -0.01932  -1.95096
         Item               Value     Threshold  Converged?
 Maximum Force            0.010666     0.000450     NO 
 RMS     Force            0.003523     0.000300     NO 
 Maximum Displacement     0.508418     0.001800     NO 
 RMS     Displacement     0.136770     0.001200     NO 
 Predicted change in Energy=-9.475226D-03
 GradGradGradGradGradGradGradGradGradGradGradGradGradGradGradGradGradGrad

                          Input orientation:                          
 ---------------------------------------------------------------------
 Center     Atomic      Atomic             Coordinates (Angstroms)
 Number     Number       Type             X           Y           Z
 ---------------------------------------------------------------------
      1          6           0       -1.944405    0.030310   -0.258051
      2          6           0       -0.619491    0.006376    0.498515
      3          6           0        0.436471    1.081993    0.085457
      4          6           0        1.349881   -0.016750   -0.541741
      5          6           0        1.519809   -0.040835   -2.042881
      6          9           0        0.399673   -0.285826   -2.743444
      7          9           0        2.006079    1.125590   -2.498979
      8          9           0        2.391942   -0.996059   -2.407791
      9          6           0        0.418531   -1.092909    0.096977
     10          1           0       -2.598907    0.807513    0.151986
     11          1           0       -2.464348   -0.928697   -0.157607
     12          1           0       -1.824053    0.234587   -1.320261
     13          1           0       -0.860985    0.007481    1.567352
     14          1           0        0.935633    1.504979    0.958926
     15          1           0        0.110563    1.910795   -0.550618
     16          1           0        2.374708   -0.013395   -0.160248
     17          1           0        0.902875   -1.515400    0.978909
     18          1           0        0.076793   -1.921524   -0.531142
 ---------------------------------------------------------------------
                    Distance matrix (angstroms):
                    1          2          3          4          5
     1  C    0.000000
     2  C    1.525897   0.000000
     3  C    2.625378   1.562890   0.000000
     4  C    3.306814   2.227351   1.560427   0.000000
     5  C    3.897623   3.322277   2.638974   1.510919   0.000000
     6  F    3.431009   3.410920   3.142445   2.413046   1.343694
     7  F    4.672015   4.138989   3.024050   2.359304   1.343514
     8  F    4.947598   4.303513   3.789255   2.350974   1.343960
     9  C    2.640291   1.564338   2.175007   1.559965   2.626530
    10  H    1.095695   2.163328   3.048489   4.093115   4.743517
    11  H    1.095501   2.169874   3.537895   3.940500   4.496227
    12  H    1.088349   2.193398   2.793583   3.277669   3.432120
    13  H    2.122832   1.095780   2.243654   3.055616   4.324847
    14  H    3.456921   2.208212   1.091343   2.176985   3.426609
    15  H    2.800842   2.293572   1.094404   2.291597   2.832257
    16  H    4.320442   3.065875   2.239868   1.093535   2.067828
    17  H    3.467895   2.205489   2.786080   2.181317   3.418503
    18  H    2.823026   2.293862   3.087180   2.291076   2.811519
                    6          7          8          9         10
     6  F    0.000000
     7  F    2.152301   0.000000
     8  F    2.141549   2.158379   0.000000
     9  C    2.952918   3.765770   3.190233   0.000000
    10  H    4.309337   5.323033   5.891851   3.566449   0.000000
    11  H    3.911834   5.448562   5.352702   2.898753   1.768722
    12  H    2.690954   4.105261   4.524580   2.966478   1.759590
    13  H    4.500917   5.099536   5.233583   2.238309   2.379849
    14  H    4.147503   3.639629   4.439686   2.785565   3.691962
    15  H    3.117245   2.829423   4.135648   3.088116   3.008673
    16  H    3.263109   2.627324   2.453034   2.249031   5.050567
    17  H    3.952338   4.504174   3.735876   1.091280   4.282780
    18  H    2.770205   4.108458   3.120610   1.094496   3.882483
                   11         12         13         14         15
    11  H    0.000000
    12  H    1.764928   0.000000
    13  H    2.534301   3.052439   0.000000
    14  H    4.327735   3.797954   2.416717   0.000000
    15  H    3.853224   2.672969   3.008706   1.767527   0.000000
    16  H    4.924860   4.363109   3.668072   2.372541   2.996873
    17  H    3.601955   3.973005   2.403463   3.020623   3.834844
    18  H    2.753658   2.980727   3.000694   3.833906   3.832517
                   16         17         18
    16  H    0.000000
    17  H    2.391650   0.000000
    18  H    3.009806   1.768503   0.000000
 Stoichiometry    C6H9F3
 Framework group  C1[X(C6H9F3)]
 Deg. of freedom    48
 Full point group                 C1      NOp   1
 Largest Abelian subgroup         C1      NOp   1
 Largest concise Abelian subgroup C1      NOp   1
                         Standard orientation:                         
 ---------------------------------------------------------------------
 Center     Atomic      Atomic             Coordinates (Angstroms)
 Number     Number       Type             X           Y           Z
 ---------------------------------------------------------------------
      1          6           0       -2.502947    1.103318    0.009173
      2          6           0       -2.030275   -0.347355   -0.013014
      3          6           0       -0.991496   -0.756869    1.080541
      4          6           0        0.127074   -0.901166    0.002158
      5          6           0        1.262245    0.095958    0.004658
      6          9           0        0.908630    1.368846   -0.240754
      7          9           0        1.906533    0.100852    1.183598
      8          9           0        2.171244   -0.215469   -0.935003
      9          6           0       -0.971123   -0.742474   -1.094323
     10          1           0       -3.277796    1.235916    0.772438
     11          1           0       -2.937068    1.383306   -0.956885
     12          1           0       -1.703827    1.807706    0.232220
     13          1           0       -2.927427   -0.976232   -0.032128
     14          1           0       -1.217130   -1.741166    1.494397
     15          1           0       -0.820998   -0.071036    1.916175
     16          1           0        0.629190   -1.872574    0.010219
     17          1           0       -1.197322   -1.718852   -1.526079
     18          1           0       -0.786145   -0.043611   -1.916086
 ---------------------------------------------------------------------
 Rotational constants (GHZ):           2.8160238           1.0966058           1.0804518
 Standard basis: 6-31G(2df,p) (6D, 7F)
 There are   324 symmetry adapted cartesian basis functions of A   symmetry.
 There are   297 symmetry adapted basis functions of A   symmetry.
   297 basis functions,   459 primitive gaussians,   324 cartesian basis functions
    36 alpha electrons       36 beta electrons
       nuclear repulsion energy       508.5686126378 Hartrees.
 NAtoms=   18 NActive=   18 NUniq=   18 SFac= 1.00D+00 NAtFMM=   60 NAOKFM=F Big=F
 Integral buffers will be    131072 words long.
 Raffenetti 2 integral format.
 Two-electron integral symmetry is turned on.
 One-electron integrals computed using PRISM.
 PrsmSu:  requested number of processors reduced to:  13 ShMem   1 Linda.
 NBasis=   297 RedAO= T EigKep=  4.68D-04  NBF=   297
 NBsUse=   297 1.00D-06 EigRej= -1.00D+00 NBFU=   297
 Initial guess from the checkpoint file:  "CC1CCqCqFrqFrFrC1.chk"
 B after Tr=    -0.000000   -0.000000   -0.000000
         Rot=    0.999940   -0.000582    0.000305   -0.010946 Ang=  -1.26 deg.
 ExpMin= 1.61D-01 ExpMax= 7.00D+03 ExpMxC= 1.05D+03 IAcc=2 IRadAn=         4 AccDes= 0.00D+00
 Harris functional with IExCor=  402 and IRadAn=       4 diagonalized for initial guess.
 HarFok:  IExCor=  402 AccDes= 0.00D+00 IRadAn=         4 IDoV= 1 UseB2=F ITyADJ=14
 ICtDFT=  3500011 ScaDFX=  1.000000  1.000000  1.000000  1.000000
 FoFCou: FMM=F IPFlag=           0 FMFlag=      100000 FMFlg1=           0
         NFxFlg=           0 DoJE=T BraDBF=F KetDBF=T FulRan=T
         wScrn=  0.000000 ICntrl=       500 IOpCl=  0 I1Cent=   200000004 NGrid=           0
         NMat0=    1 NMatS0=      1 NMatT0=    0 NMatD0=    1 NMtDS0=    0 NMtDT0=    0
 Petite list used in FoFCou.
 Requested convergence on RMS density matrix=1.00D-08 within 128 cycles.
 Requested convergence on MAX density matrix=1.00D-06.
 Requested convergence on             energy=1.00D-06.
 No special actions if energy rises.
 Integral accuracy reduced to 1.0D-05 until final iterations.
 Initial convergence to 1.0D-05 achieved.  Increase integral accuracy.
 SCF Done:  E(RB3LYP) =  -533.601760492     A.U. after   10 cycles
            NFock= 10  Conv=0.66D-08     -V/T= 2.0069
 PrsmSu:  requested number of processors reduced to:  13 ShMem   1 Linda.
 Calling FoFJK, ICntrl=      2127 FMM=F ISym2X=0 I1Cent= 0 IOpClX= 0 NMat=1 NMatS=1 NMatT=0.
 ***** Axes restored to original set *****
 -------------------------------------------------------------------
 Center     Atomic                   Forces (Hartrees/Bohr)
 Number     Number              X              Y              Z
 -------------------------------------------------------------------
      1        6          -0.000591048   -0.000258992    0.001601799
      2        6           0.001306453   -0.000300598   -0.003387110
      3        6           0.001551532    0.001389174    0.001990128
      4        6          -0.003930295    0.000344914    0.001093887
      5        6           0.000042573   -0.000607893   -0.005990627
      6        9          -0.006399786    0.001288544    0.004933644
      7        9           0.000810626    0.002811128    0.001966034
      8        9           0.002768426   -0.002473761    0.002163834
      9        6           0.000878947   -0.001308155    0.002131590
     10        1          -0.000070075    0.000116962   -0.000444303
     11        1          -0.000515035    0.000116979    0.000357045
     12        1           0.002811077   -0.000964883   -0.004151887
     13        1           0.003773417   -0.000260945   -0.000513307
     14        1          -0.000144876    0.002831705    0.000037655
     15        1          -0.000549801   -0.002863568   -0.001287494
     16        1          -0.001186555   -0.000185600    0.000847869
     17        1          -0.000289097   -0.002714562    0.000153554
     18        1          -0.000266482    0.003039551   -0.001502312
 -------------------------------------------------------------------
 Cartesian Forces:  Max     0.006399786 RMS     0.002207382

 GradGradGradGradGradGradGradGradGradGradGradGradGradGradGradGradGradGrad
 Berny optimization.
 Using GEDIIS/GDIIS optimizer.
 FormGI is forming the generalized inverse of G from B-inverse, IUseBI=4.
 Internal  Forces:  Max     0.011365050 RMS     0.002485642
 Search for a local minimum.
 Step number   2 out of a maximum of  108
 All quantities printed in internal units (Hartrees-Bohrs-Radians)
 Mixed Optimization -- RFO/linear search
 Update second derivatives using D2CorX and points    1    2
 DE= -3.27D-03 DEPred=-9.48D-03 R= 3.45D-01
 Trust test= 3.45D-01 RLast= 6.37D-01 DXMaxT set to 3.00D-01
 ITU=  0  0
 Use linear search instead of GDIIS.
     Eigenvalues ---    0.00440   0.00491   0.00619   0.02131   0.02531
     Eigenvalues ---    0.02942   0.03481   0.04386   0.04499   0.04963
     Eigenvalues ---    0.05154   0.05381   0.05675   0.05755   0.06014
     Eigenvalues ---    0.06153   0.06437   0.06970   0.07962   0.07975
     Eigenvalues ---    0.08639   0.10084   0.10891   0.15944   0.16000
     Eigenvalues ---    0.16033   0.20496   0.23373   0.24908   0.25000
     Eigenvalues ---    0.25915   0.26811   0.27603   0.29316   0.30259
     Eigenvalues ---    0.31602   0.33543   0.33826   0.33920   0.33957
     Eigenvalues ---    0.34316   0.34350   0.34426   0.34466   0.35286
     Eigenvalues ---    0.54410   0.54721   0.54823
 RFO step:  Lambda=-1.49947673D-03 EMin= 4.39702721D-03
 Quartic linear search produced a step of -0.33408.
 Iteration  1 RMS(Cart)=  0.05763228 RMS(Int)=  0.00156480
 Iteration  2 RMS(Cart)=  0.00173929 RMS(Int)=  0.00049914
 Iteration  3 RMS(Cart)=  0.00000136 RMS(Int)=  0.00049914
 Iteration  4 RMS(Cart)=  0.00000000 RMS(Int)=  0.00049914
 Variable       Old X    -DE/DX   Delta X   Delta X   Delta X     New X
                                 (Linear)    (Quad)   (Total)
    R1        2.88353  -0.00013  -0.00329   0.00390   0.00060   2.88413
    R2        2.07056  -0.00004  -0.00107   0.00128   0.00021   2.07077
    R3        2.07020   0.00017  -0.00075   0.00128   0.00053   2.07073
    R4        2.05668   0.00418   0.00135   0.00621   0.00755   2.06424
    R5        2.95343  -0.00203  -0.01049   0.00870  -0.00190   2.95154
    R6        2.95617  -0.00320  -0.01008   0.00494  -0.00522   2.95095
    R7        2.07072  -0.00133   0.00164  -0.00467  -0.00303   2.06769
    R8        2.94878  -0.00349  -0.00694   0.00032  -0.00652   2.94226
    R9        2.06234   0.00106   0.00416  -0.00322   0.00094   2.06328
   R10        2.06812  -0.00126  -0.00068  -0.00154  -0.00222   2.06591
   R11        2.85522  -0.00338   0.00041  -0.00764  -0.00724   2.84799
   R12        2.94791  -0.00258  -0.00833   0.00480  -0.00345   2.94446
   R13        2.06648  -0.00082   0.00365  -0.00622  -0.00257   2.06391
   R14        2.53921   0.00253   0.00478  -0.00303   0.00175   2.54097
   R15        2.53887   0.00207   0.00457  -0.00332   0.00125   2.54012
   R16        2.53972   0.00297   0.00479  -0.00251   0.00228   2.54200
   R17        2.06222   0.00105   0.00410  -0.00317   0.00093   2.06315
   R18        2.06830  -0.00136  -0.00069  -0.00172  -0.00241   2.06589
    A1        1.92222   0.00120   0.00250   0.00421   0.00673   1.92895
    A2        1.93148   0.00065  -0.00048   0.00235   0.00184   1.93331
    A3        1.97234  -0.00342  -0.00089  -0.01441  -0.01531   1.95702
    A4        1.87877  -0.00043   0.00317  -0.00274   0.00042   1.87919
    A5        1.87356   0.00140  -0.00433   0.01278   0.00849   1.88204
    A6        1.88208   0.00072   0.00008  -0.00159  -0.00155   1.88052
    A7        2.03177  -0.00269   0.00117  -0.01110  -0.01059   2.02118
    A8        2.04869  -0.00422  -0.00063  -0.02090  -0.02210   2.02659
    A9        1.86738   0.00398   0.01051   0.01270   0.02364   1.89102
   A10        1.53825   0.00409  -0.00102   0.00739   0.00751   1.54576
   A11        1.98887  -0.00128  -0.00623   0.00070  -0.00565   1.98322
   A12        1.97939  -0.00053  -0.00716   0.00907   0.00177   1.98116
   A13        1.58792  -0.00434  -0.01001  -0.00325  -0.01080   1.57712
   A14        1.94362   0.00263   0.00878   0.00911   0.01735   1.96097
   A15        2.06417   0.00009  -0.00988  -0.00263  -0.01310   2.05107
   A16        1.90379   0.00307   0.02126  -0.00470   0.01602   1.91981
   A17        2.06457  -0.00021  -0.01097  -0.00249  -0.01406   2.05051
   A18        1.88374  -0.00102   0.00154   0.00329   0.00521   1.88895
   A19        2.06735  -0.00469   0.00065  -0.03095  -0.03104   2.03630
   A20        1.54249   0.00439  -0.00276   0.01022   0.00850   1.55099
   A21        1.98909   0.00000  -0.01468   0.03101   0.01638   2.00547
   A22        2.05211  -0.00326   0.00096  -0.02068  -0.02058   2.03152
   A23        1.81445   0.00372   0.02322  -0.00742   0.01632   1.83077
   A24        2.00292  -0.00076  -0.01475   0.02259   0.00784   2.01076
   A25        2.01213  -0.01137  -0.01386  -0.01456  -0.02842   1.98371
   A26        1.94352  -0.00208  -0.00589   0.00045  -0.00547   1.93805
   A27        1.93272  -0.00171  -0.00350   0.00337  -0.00008   1.93264
   A28        1.85774   0.00606   0.00863  -0.00125   0.00730   1.86504
   A29        1.84399   0.00765   0.00991   0.00979   0.01977   1.86376
   A30        1.86505   0.00304   0.00669   0.00364   0.01035   1.87540
   A31        1.58728  -0.00424  -0.00967  -0.00349  -0.01071   1.57657
   A32        1.93812   0.00315   0.00991   0.00731   0.01671   1.95483
   A33        2.06250  -0.00046  -0.01119  -0.00050  -0.01241   2.05010
   A34        1.91028   0.00246   0.02022  -0.00326   0.01638   1.92666
   A35        2.06430   0.00022  -0.00972  -0.00550  -0.01571   2.04859
   A36        1.88522  -0.00091   0.00120   0.00450   0.00609   1.89131
    D1       -1.40497   0.00113  -0.00176   0.05846   0.05725  -1.34772
    D2        3.08938   0.00022  -0.00080   0.06908   0.06774  -3.12607
    D3        0.84197   0.00075   0.00005   0.06185   0.06193   0.90390
    D4        2.80294   0.00049  -0.00700   0.05771   0.05127   2.85421
    D5        1.01410  -0.00041  -0.00603   0.06833   0.06175   1.07585
    D6       -1.23331   0.00012  -0.00518   0.06110   0.05594  -1.17736
    D7        0.69022   0.00147  -0.00613   0.06809   0.06248   0.75270
    D8       -1.09862   0.00056  -0.00516   0.07871   0.07296  -1.02565
    D9        2.93716   0.00109  -0.00431   0.07147   0.06715   3.00432
   D10       -1.92715   0.00355   0.04945  -0.01014   0.03941  -1.88774
   D11        2.41940   0.00162   0.02910  -0.00518   0.02369   2.44309
   D12        0.22293   0.00050   0.02736  -0.01622   0.01133   0.23425
   D13        0.16449   0.00032   0.04844  -0.03269   0.01578   0.18027
   D14       -1.77215  -0.00161   0.02810  -0.02773   0.00007  -1.77208
   D15        2.31456  -0.00273   0.02636  -0.03877  -0.01230   2.30226
   D16        2.16932   0.00145   0.03912  -0.01902   0.02031   2.18963
   D17        0.23268  -0.00048   0.01877  -0.01406   0.00460   0.23727
   D18       -1.96380  -0.00160   0.01703  -0.02510  -0.00777  -1.97157
   D19        1.91187  -0.00208  -0.04800   0.01918  -0.02888   1.88299
   D20       -2.42883  -0.00067  -0.02845   0.01540  -0.01281  -2.44164
   D21       -0.23684   0.00058  -0.02728   0.02820   0.00075  -0.23609
   D22       -0.16454  -0.00027  -0.04861   0.03295  -0.01560  -0.18014
   D23        1.77795   0.00114  -0.02905   0.02917   0.00047   1.77842
   D24       -2.31325   0.00240  -0.02788   0.04197   0.01404  -2.29922
   D25       -2.17823  -0.00066  -0.04022   0.02722  -0.01317  -2.19141
   D26       -0.23575   0.00075  -0.02066   0.02344   0.00289  -0.23285
   D27        1.95624   0.00200  -0.01949   0.03623   0.01646   1.97270
   D28        1.94268  -0.00278  -0.04879   0.00583  -0.04309   1.89958
   D29       -0.16494  -0.00029  -0.04841   0.03278  -0.01572  -0.18065
   D30       -2.19792  -0.00156  -0.02870  -0.00313  -0.03205  -2.22998
   D31       -2.36756  -0.00111  -0.03981   0.01357  -0.02601  -2.39357
   D32        1.80801   0.00138  -0.03943   0.04052   0.00136   1.80937
   D33       -0.22498   0.00011  -0.01972   0.00460  -0.01497  -0.23995
   D34       -0.20707   0.00002  -0.02765   0.01203  -0.01581  -0.22288
   D35       -2.31468   0.00252  -0.02727   0.03898   0.01156  -2.30312
   D36        1.93552   0.00124  -0.00756   0.00306  -0.00477   1.93074
   D37       -1.10997   0.00115   0.00415   0.05250   0.05584  -1.05414
   D38        1.00861  -0.00089   0.00109   0.04033   0.04066   1.04928
   D39        3.08121   0.00046   0.00342   0.04739   0.05004   3.13125
   D40        0.71008   0.00153   0.00159   0.03077   0.03311   0.74319
   D41        2.82866  -0.00051  -0.00147   0.01860   0.01794   2.84660
   D42       -1.38193   0.00084   0.00086   0.02566   0.02732  -1.35461
   D43        2.94541   0.00133   0.00283   0.03971   0.04249   2.98790
   D44       -1.21919  -0.00071  -0.00023   0.02754   0.02732  -1.19187
   D45        0.85340   0.00064   0.00210   0.03460   0.03670   0.89010
   D46        0.16478   0.00035   0.04831  -0.03254   0.01591   0.18069
   D47       -1.80310  -0.00178   0.03817  -0.03848  -0.00055  -1.80366
   D48        2.31201  -0.00288   0.02626  -0.03745  -0.01096   2.30105
   D49       -1.95625   0.00414   0.04893   0.00334   0.05245  -1.90380
   D50        2.35905   0.00200   0.03879  -0.00260   0.03599   2.39504
   D51        0.19098   0.00090   0.02687  -0.00156   0.02558   0.21656
   D52        2.18499   0.00240   0.02851   0.01154   0.04022   2.22522
   D53        0.21711   0.00026   0.01837   0.00559   0.02376   0.24087
   D54       -1.95096  -0.00084   0.00646   0.00663   0.01335  -1.93761
         Item               Value     Threshold  Converged?
 Maximum Force            0.011365     0.000450     NO 
 RMS     Force            0.002486     0.000300     NO 
 Maximum Displacement     0.238168     0.001800     NO 
 RMS     Displacement     0.057923     0.001200     NO 
 Predicted change in Energy=-1.499373D-03
 GradGradGradGradGradGradGradGradGradGradGradGradGradGradGradGradGradGrad

                          Input orientation:                          
 ---------------------------------------------------------------------
 Center     Atomic      Atomic             Coordinates (Angstroms)
 Number     Number       Type             X           Y           Z
 ---------------------------------------------------------------------
      1          6           0       -1.898724    0.015415   -0.306108
      2          6           0       -0.604907    0.004363    0.503368
      3          6           0        0.452176    1.084961    0.110467
      4          6           0        1.356959   -0.014752   -0.518959
      5          6           0        1.459831   -0.027354   -2.022481
      6          9           0        0.281510   -0.215212   -2.642382
      7          9           0        1.961392    1.132128   -2.481657
      8          9           0        2.277501   -1.012356   -2.435594
      9          6           0        0.435480   -1.095750    0.121449
     10          1           0       -2.552655    0.829601    0.025954
     11          1           0       -2.446265   -0.924869   -0.176467
     12          1           0       -1.714532    0.148858   -1.374513
     13          1           0       -0.863706    0.010155    1.566483
     14          1           0        0.944974    1.520090    0.982206
     15          1           0        0.123353    1.900526   -0.539057
     16          1           0        2.390795   -0.016907   -0.166787
     17          1           0        0.913472   -1.529955    1.001766
     18          1           0        0.094115   -1.910709   -0.522326
 ---------------------------------------------------------------------
                    Distance matrix (angstroms):
                    1          2          3          4          5
     1  C    0.000000
     2  C    1.526217   0.000000
     3  C    2.616141   1.561886   0.000000
     4  C    3.262773   2.212337   1.556977   0.000000
     5  C    3.771956   3.262524   2.608079   1.507090   0.000000
     6  F    3.203871   3.275622   3.049222   2.388661   1.344622
     7  F    4.569525   4.094890   2.999844   2.352202   1.344174
     8  F    4.799154   4.240224   3.770010   2.348639   1.345168
     9  C    2.620306   1.561575   2.180803   1.558141   2.605225
    10  H    1.095805   2.168563   3.016846   4.036699   4.585902
    11  H    1.095784   2.171693   3.538744   3.925574   4.412582
    12  H    1.092347   2.185998   2.788562   3.192617   3.244610
    13  H    2.139600   1.094177   2.237574   3.046480   4.275616
    14  H    3.465605   2.220100   1.091841   2.186085   3.418743
    15  H    2.774293   2.283079   1.093230   2.278262   2.775508
    16  H    4.291902   3.069819   2.247048   1.092175   2.076151
    17  H    3.465133   2.215401   2.800891   2.192059   3.420875
    18  H    2.779948   2.282144   3.082641   2.278035   2.768153
                    6          7          8          9         10
     6  F    0.000000
     7  F    2.159435   0.000000
     8  F    2.159208   2.168146   0.000000
     9  C    2.904792   3.750734   3.152534   0.000000
    10  H    4.030402   5.172645   5.725594   3.555987   0.000000
    11  H    3.745011   5.382618   5.236915   2.902139   1.769310
    12  H    2.392536   3.962954   4.290763   2.899915   1.768380
    13  H    4.367706   5.062355   5.189348   2.235852   2.428430
    14  H    4.072972   3.630698   4.457608   2.800554   3.691152
    15  H    2.987531   2.782539   4.089266   3.084050   2.937198
    16  H    3.258370   2.619788   2.480169   2.251719   5.019105
    17  H    3.925269   4.507666   3.734157   1.091772   4.305083
    18  H    2.721115   4.072415   3.038883   1.093222   3.849065
                   11         12         13         14         15
    11  H    0.000000
    12  H    1.767381   0.000000
    13  H    2.533109   3.064735   0.000000
    14  H    4.338301   3.808855   2.427469   0.000000
    15  H    3.836309   2.672854   2.996846   1.770321   0.000000
    16  H    4.921548   4.282498   3.687375   2.402695   2.992729
    17  H    3.611397   3.920652   2.418513   3.050270   3.842736
    18  H    2.746821   2.870408   2.995040   3.841609   3.811384
                   16         17         18
    16  H    0.000000
    17  H    2.416053   0.000000
    18  H    2.997938   1.771772   0.000000
 Stoichiometry    C6H9F3
 Framework group  C1[X(C6H9F3)]
 Deg. of freedom    48
 Full point group                 C1      NOp   1
 Largest Abelian subgroup         C1      NOp   1
 Largest concise Abelian subgroup C1      NOp   1
                         Standard orientation:                         
 ---------------------------------------------------------------------
 Center     Atomic      Atomic             Coordinates (Angstroms)
 Number     Number       Type             X           Y           Z
 ---------------------------------------------------------------------
      1          6           0       -2.392210    1.130457   -0.001558
      2          6           0       -1.997465   -0.343826   -0.003065
      3          6           0       -0.968733   -0.773354    1.090875
      4          6           0        0.134845   -0.933435    0.004290
      5          6           0        1.235225    0.096357    0.000806
      6          9           0        0.798013    1.352534   -0.196356
      7          9           0        1.901857    0.094302    1.168026
      8          9           0        2.126297   -0.162197   -0.973163
      9          6           0       -0.963416   -0.777427   -1.089917
     10          1           0       -3.106289    1.336100    0.803794
     11          1           0       -2.870340    1.405690   -0.948331
     12          1           0       -1.530647    1.786978    0.139545
     13          1           0       -2.911597   -0.945142   -0.005713
     14          1           0       -1.207516   -1.745589    1.526604
     15          1           0       -0.775837   -0.071223    1.906322
     16          1           0        0.651060   -1.895888    0.011332
     17          1           0       -1.208904   -1.748801   -1.523664
     18          1           0       -0.764908   -0.076499   -1.905043
 ---------------------------------------------------------------------
 Rotational constants (GHZ):           2.7853243           1.1431130           1.1230138
 Standard basis: 6-31G(2df,p) (6D, 7F)
 There are   324 symmetry adapted cartesian basis functions of A   symmetry.
 There are   297 symmetry adapted basis functions of A   symmetry.
   297 basis functions,   459 primitive gaussians,   324 cartesian basis functions
    36 alpha electrons       36 beta electrons
       nuclear repulsion energy       512.2060861129 Hartrees.
 NAtoms=   18 NActive=   18 NUniq=   18 SFac= 1.00D+00 NAtFMM=   60 NAOKFM=F Big=F
 Integral buffers will be    131072 words long.
 Raffenetti 2 integral format.
 Two-electron integral symmetry is turned on.
 One-electron integrals computed using PRISM.
 PrsmSu:  requested number of processors reduced to:  13 ShMem   1 Linda.
 NBasis=   297 RedAO= T EigKep=  4.69D-04  NBF=   297
 NBsUse=   297 1.00D-06 EigRej= -1.00D+00 NBFU=   297
 Initial guess from the checkpoint file:  "CC1CCqCqFrqFrFrC1.chk"
 B after Tr=     0.000000    0.000000    0.000000
         Rot=    0.999992   -0.002115   -0.003406   -0.000953 Ang=  -0.47 deg.
 ExpMin= 1.61D-01 ExpMax= 7.00D+03 ExpMxC= 1.05D+03 IAcc=2 IRadAn=         4 AccDes= 0.00D+00
 Harris functional with IExCor=  402 and IRadAn=       4 diagonalized for initial guess.
 HarFok:  IExCor=  402 AccDes= 0.00D+00 IRadAn=         4 IDoV= 1 UseB2=F ITyADJ=14
 ICtDFT=  3500011 ScaDFX=  1.000000  1.000000  1.000000  1.000000
 FoFCou: FMM=F IPFlag=           0 FMFlag=      100000 FMFlg1=           0
         NFxFlg=           0 DoJE=T BraDBF=F KetDBF=T FulRan=T
         wScrn=  0.000000 ICntrl=       500 IOpCl=  0 I1Cent=   200000004 NGrid=           0
         NMat0=    1 NMatS0=      1 NMatT0=    0 NMatD0=    1 NMtDS0=    0 NMtDT0=    0
 Petite list used in FoFCou.
 Requested convergence on RMS density matrix=1.00D-08 within 128 cycles.
 Requested convergence on MAX density matrix=1.00D-06.
 Requested convergence on             energy=1.00D-06.
 No special actions if energy rises.
 Integral accuracy reduced to 1.0D-05 until final iterations.
 Initial convergence to 1.0D-05 achieved.  Increase integral accuracy.
 SCF Done:  E(RB3LYP) =  -533.603869232     A.U. after   10 cycles
            NFock= 10  Conv=0.54D-08     -V/T= 2.0069
 PrsmSu:  requested number of processors reduced to:  13 ShMem   1 Linda.
 Calling FoFJK, ICntrl=      2127 FMM=F ISym2X=0 I1Cent= 0 IOpClX= 0 NMat=1 NMatS=1 NMatT=0.
 ***** Axes restored to original set *****
 -------------------------------------------------------------------
 Center     Atomic                   Forces (Hartrees/Bohr)
 Number     Number              X              Y              Z
 -------------------------------------------------------------------
      1        6          -0.000578416    0.000440205    0.000168181
      2        6           0.000282836   -0.000080779   -0.001598419
      3        6           0.000625677    0.000272418    0.000984071
      4        6          -0.001511678   -0.000101294    0.001935303
      5        6           0.000708992    0.000080783   -0.000278833
      6        9          -0.001624382    0.000021051   -0.000166320
      7        9           0.000740355    0.000028017   -0.000387640
      8        9          -0.000375857    0.000153337   -0.000509389
      9        6           0.001023855   -0.000245918    0.000944292
     10        1           0.000111793    0.000100190   -0.000400768
     11        1          -0.000225116    0.000159657    0.000499428
     12        1           0.000970341   -0.000689809   -0.000160811
     13        1           0.001515189   -0.000427150    0.000042360
     14        1          -0.000620812    0.001697663    0.000013672
     15        1          -0.000251932   -0.001478324   -0.000970959
     16        1          -0.000261129    0.000210864    0.000956571
     17        1          -0.000251203   -0.001660255   -0.000169055
     18        1          -0.000278515    0.001519343   -0.000901684
 -------------------------------------------------------------------
 Cartesian Forces:  Max     0.001935303 RMS     0.000805269

 GradGradGradGradGradGradGradGradGradGradGradGradGradGradGradGradGradGrad
 Berny optimization.
 Using GEDIIS/GDIIS optimizer.
 FormGI is forming the generalized inverse of G from B-inverse, IUseBI=4.
 Internal  Forces:  Max     0.001515935 RMS     0.000668657
 Search for a local minimum.
 Step number   3 out of a maximum of  108
 All quantities printed in internal units (Hartrees-Bohrs-Radians)
 Mixed Optimization -- En-DIIS/RFO-DIIS
 Update second derivatives using D2CorX and points    2    3
 DE= -2.11D-03 DEPred=-1.50D-03 R= 1.41D+00
 TightC=F SS=  1.41D+00  RLast= 2.70D-01 DXNew= 5.0454D-01 8.0895D-01
 Trust test= 1.41D+00 RLast= 2.70D-01 DXMaxT set to 5.05D-01
 ITU=  1  0  0
 Use linear search instead of GDIIS.
     Eigenvalues ---    0.00444   0.00455   0.00594   0.02193   0.02515
[...]
 0.0017368,-0.2623059,-0.0014936,-0.2055082,-0.0017963,-0.6895842,-0.57
 23741,-0.2955366,0.1236088,-0.3133938,-0.629258,0.0788172,0.2072841,0.
 1221474,-0.3788128,-0.5790559,0.2964298,0.123505,0.3145864,-0.6231732,
 -0.0766337,0.207619,-0.1190306,-0.378165,0.0061659,0.0151782,0.0382851
 ,-0.0117757,0.1032834,-0.1216445,0.0522126,-0.0260201,0.0947652,-0.043
 4002,0.0520528,0.0381409,0.0989376,-0.0724799,-0.0739181,0.0333725,-0.
 0661632,0.0277941,-0.0416984,-0.0515857,0.0374819,-0.0984794,-0.073677
 6,0.0747146,0.0329794,0.0669086,0.0272824,0.0122112,-0.0002119,-0.0014
 499,-0.0003292,0.0489353,-0.0003349,-0.0645839,-0.0006944,-0.1317276,-
 0.0486813,-0.0004347,-0.0444034,-0.0003833,0.0141213,-0.0005518,-0.015
 4768,-0.0003848,-0.1641695,-0.0013336,-0.0485548,0.0004798,-0.0311774,
 -0.1217483,-0.0579398,0.000499,-0.0898876,0.0005312,0.0169276,0.028828
 3,-0.0628549,0.0023274,0.0202385,0.018342,-0.0598276,0.0591518,-0.0547
 014,-0.0768494,-0.000718,-0.0390883,-0.0007483,0.0378963,-0.0003323,-0
 .0592899,-0.0004446,-0.0258217,-0.0022621,0.0499258,-0.0003501,0.03254
 33,-0.1203292,0.0583391,-0.0006384,0.0902814,0.0000422,0.0172816,-0.02
 90682,-0.0625439,-0.0025574,0.019619,-0.0193053,-0.0591342,-0.0600809,
 -0.0544598\Polar=70.4947891,0.0360006,62.4447134,-5.9306975,-0.0352455
 ,61.4788403\Quadrupole=-0.6412547,0.2832666,0.3579881,-0.0033693,1.221
 4524,0.0071672\PG=C01 [X(C6H9F3)]\NImag=0\\0.47272926,-0.00052442,0.56
 147021,-0.01241229,-0.00006606,0.56358212,-0.19568574,-0.00068151,-0.0
 2317902,0.52761960,-0.00067627,-0.08291718,-0.00012773,0.00089717,0.37
 349996,-0.01954275,-0.00010867,-0.08070088,0.01087290,0.00041338,0.585
 85065,-0.01483033,-0.02299581,0.01349650,-0.08861864,-0.05090046,0.011
 69514,0.39632318,-0.00194528,0.00129316,-0.00006916,-0.03882070,-0.103
 14845,0.02946444,0.01281041,0.57663235,0.00048589,-0.00701027,0.001196
 80,0.01373784,0.03694457,-0.09607359,0.10227947,0.03217871,0.54269318,
 -0.00306935,0.00000202,0.00321783,-0.06088387,-0.00027257,0.02915090,-
 0.10253959,0.05416886,0.00031077,0.58401479,0.00000027,-0.00249553,0.0
 0001653,-0.00024401,-0.00469704,0.00016178,0.06135994,-0.10513034,-0.0
 2015680,0.00116546,0.38916497,0.00202257,0.00000946,-0.00373173,0.0462
 2617,0.00025935,-0.00757488,-0.00047988,-0.01579237,-0.08003885,0.0367
 1265,0.00050804,0.56389811,-0.00002837,-0.00000216,0.00149566,-0.00695
 684,-0.00003243,0.00031363,-0.01169624,-0.00061706,0.01472947,-0.08904
 759,-0.00000618,0.04975340,0.53493739,-0.00000567,0.00077662,0.0000102
 6,-0.00003469,-0.00119579,0.00000068,0.00629904,-0.00210463,-0.0235531
 9,-0.00002251,-0.07249204,0.00010296,0.00003033,0.51623091,-0.00061166
 ,-0.00000150,0.00186648,-0.00116625,-0.00000754,-0.00170204,0.00900403
 ,-0.00657225,0.00107803,0.04101462,0.00005624,-0.17788563,-0.03465398,
 -0.00007047,0.58828791,0.00004432,-0.00000107,-0.00048853,0.00081711,0
 .00000775,0.00094847,-0.00124325,0.00157248,-0.00085972,0.00196337,-0.
 00003062,-0.00323784,-0.13178433,-0.00044771,-0.08491756,0.21703618,-0
 .00000018,0.00006011,-0.00000346,0.00000536,-0.00022423,0.00000629,0.0
 0003125,0.00007081,0.00092604,-0.00008145,0.00668367,-0.00009551,-0.00
 043211,-0.07500969,-0.00067556,0.00098806,0.08088153,-0.00003869,-0.00
 000110,-0.00035756,-0.00023800,0.00000004,0.00052024,-0.00268694,0.001
 17319,0.00003259,-0.03529297,-0.00027346,-0.04157067,-0.07504228,-0.00
 062091,-0.20558169,0.15259848,0.00110202,0.24583081,-0.00003388,0.0005
 1950,0.00019290,-0.00019423,-0.00082815,-0.00022912,0.00123314,-0.0000
 0659,-0.00182026,-0.01544030,-0.03023791,0.00739483,-0.14474932,-0.084
 25657,0.03357940,-0.04470978,-0.04085196,-0.02304009,0.17973189,-0.000
 04312,0.00054674,0.00029362,-0.00115671,-0.00068545,0.00003307,-0.0006
 7821,0.00056534,0.00059601,-0.01612637,-0.01555182,0.00377524,-0.08681
 619,-0.18100465,0.03978973,-0.03406198,-0.00802670,-0.01867511,0.14526
 957,0.28205328,0.00003393,-0.00055619,-0.00057889,0.00107403,0.0009597
 1,0.00045612,-0.00065189,0.00035452,0.00044107,0.02575211,0.03302154,-
 0.00247400,0.03027866,0.03383330,-0.09221219,-0.03440087,-0.02913777,0
 .00527465,-0.01934847,-0.03197250,0.07781532,-0.00002840,-0.00052509,0
 .00019774,-0.00021556,0.00083254,-0.00023137,0.00221595,-0.00153629,0.
 00508578,-0.01595461,0.03025367,0.00734206,-0.14664156,0.08476088,0.03
 374208,-0.04552926,0.04036832,-0.02337647,0.02239660,-0.00717357,-0.00
 376990,0.18294899,0.00003673,0.00054257,-0.00029512,0.00116515,-0.0006
 6686,-0.00003146,-0.00118932,0.00303871,-0.00223964,0.01620858,-0.0151
 6204,-0.00365319,0.08731197,-0.17938346,-0.03914251,0.03354114,-0.0070
 5861,0.01846268,0.00830644,-0.08216671,-0.00326513,-0.14643984,0.27908
 312,0.00002752,0.00055279,-0.00057971,0.00108029,-0.00094398,0.0004597
 4,-0.00087794,0.00288185,-0.00521785,0.02606814,-0.03269507,-0.0023562
 7,0.03037073,-0.03322211,-0.09197631,-0.03482983,0.02880057,0.00512179
 ,-0.00383240,0.00353219,0.01386062,-0.01922940,0.03111193,0.07761215,-
 0.01511222,0.02285351,0.01341615,-0.08964593,0.05109532,0.01186170,-0.
 00097331,0.00298567,0.00688553,-0.10121771,-0.06131280,-0.00045780,-0.
 01163517,-0.00637839,0.00894973,-0.00122368,-0.00005399,-0.00267263,0.
 00218500,0.00117488,-0.00084669,0.00122608,0.00068140,-0.00065098,0.39
 663646,0.00175999,0.00160011,0.00022224,0.03902055,-0.10233808,-0.0293
 0566,-0.00207402,-0.07867186,-0.00785626,-0.05412411,-0.10633047,0.015
 87317,0.00055299,-0.00207181,0.00668372,-0.00158938,0.00004570,-0.0012
 0383,0.00154605,0.00306744,-0.00291969,0.00000992,0.00057174,-0.000362
 42,-0.01453593,0.57611031,0.00039846,0.00701461,0.00117312,0.01403141,
 -0.03676390,-0.09585325,0.00680214,0.00822399,0.00867612,0.00025941,0.
 02024460,-0.08015963,0.01445994,0.02373081,0.00097609,-0.00084497,-0.0
 0093660,0.00003848,0.00505618,0.00226815,-0.00521452,-0.00181440,-0.00
 061530,0.00044536,0.10268410,-0.03111919,0.54289786,-0.09081557,0.0867
 4402,0.04447031,-0.01423664,0.02954309,0.01507060,0.00132115,-0.000534
 21,0.00041389,-0.00029434,0.00086500,0.00065724,-0.00001754,-0.0002103
 2,-0.00055942,0.00003024,-0.00003827,0.00015464,-0.00029658,-0.0002894
 1,0.00034933,0.00002971,-0.00005079,0.00000335,-0.00450381,-0.00138166
 ,-0.00291080,0.10038006,0.08712416,-0.21713994,-0.08769308,-0.00069087
 ,0.00052998,0.00084240,0.00083136,0.00041193,0.00002785,0.00032358,0.0
 0030192,-0.00016039,-0.00009018,0.00000582,0.00027636,0.00001852,0.000
 00855,-0.00006745,0.00009189,0.00007041,-0.00010065,0.00006591,-0.0000
 6272,-0.00007088,-0.00124519,0.00166690,0.00056552,-0.09691688,0.23416
 429,0.04455861,-0.08786151,-0.09229749,-0.00229058,0.00540607,0.001426
 96,0.00003748,-0.00014599,0.00020496,-0.00008746,0.00007340,0.00022886
 ,-0.00016030,-0.00015120,-0.00016689,0.00009821,0.00003433,0.00006898,
 -0.00000425,0.00002661,0.00004864,0.00001542,0.00000075,0.00002746,-0.
 00096696,-0.00063018,0.00045410,-0.04880948,0.09699698,0.09592764,-0.0
 8886325,-0.08513032,0.04378444,-0.01390559,-0.02965252,0.01518485,-0.0
 0453291,0.00130167,-0.00290803,-0.00028118,-0.00086931,0.00065848,-0.0
 0002103,0.00020820,-0.00055710,0.00002994,0.00003900,0.00015370,0.0000
 2982,0.00005162,0.00000248,-0.00029863,0.00028648,0.00034725,0.0013231
 8,0.00054622,0.00041246,0.00547993,0.01092229,-0.00662235,0.09820146,-
 0.08550978,-0.21844560,0.08864913,0.00051889,0.00017856,-0.00066709,0.
 00117041,0.00169641,-0.00060232,-0.00033085,0.00028841,0.00016780,0.00
 008937,0.00000882,-0.00028343,-0.00001793,0.00000889,0.00006943,-0.000
 06488,-0.00006267,0.00007127,-0.00009611,0.00007289,0.00010458,-0.0008
 2105,0.00040820,-0.00002368,-0.01064873,-0.02075798,0.01171447,0.09520
 148,0.23562775,0.04387304,0.08882001,-0.09294320,-0.00223220,-0.005428
 24,0.00144894,-0.00097928,0.00061461,0.00045450,-0.00008557,-0.0000748
 0,0.00022869,-0.00016249,0.00014879,-0.00016653,0.00009873,-0.00003299
 ,0.00006889,0.00001571,-0.00000022,0.00002720,-0.00000362,-0.00002673,
 0.00004842,0.00003862,0.00014551,0.00020409,-0.00645015,-0.01169196,0.
 00561796,-0.04805336,-0.09805155,0.09664087,-0.05821546,-0.00015880,-0
 .05259697,-0.01027947,-0.00011319,-0.03425479,0.00169263,0.00099645,-0
 .00115149,0.00041862,0.00000155,-0.00013587,-0.00016869,-0.00000230,-0
 .00018566,0.00014398,0.00000164,0.00021925,0.00004323,0.00005178,0.000
 02401,0.00004341,-0.00005040,0.00002453,0.00170335,-0.00098509,-0.0011
 6311,0.00240957,-0.00102763,0.01330356,0.00232617,0.00109817,0.0130024
 6,0.06594021,-0.00016230,-0.04728071,-0.00074924,-0.00005313,-0.001209
 92,-0.00020245,-0.00010102,0.00036750,-0.00128426,0.00000262,0.0000942
 3,0.00000007,-0.00000246,0.00018676,-0.00000207,0.00000158,-0.00008134
 ,0.00000167,-0.00002594,-0.00006498,0.00002588,0.00002713,-0.00006537,
 -0.00002505,0.00011767,0.00036214,0.00127265,-0.00628301,0.00030887,-0
 .02616449,0.00629600,0.00048522,0.02626681,0.00022292,0.04633310,-0.05
 431547,-0.00075859,-0.29412790,-0.00143484,-0.00001581,-0.00574261,0.0
 0038910,-0.00003507,0.00074174,0.00039080,0.00000296,0.00052754,-0.000
 21526,-0.00000209,-0.00033413,0.00013354,0.00000111,0.00012791,-0.0000
 1019,-0.00001121,0.00008326,-0.00001041,0.00001159,0.00008332,0.000388
 89,0.00004071,0.00073761,-0.00251564,0.00076564,-0.01235409,-0.0025294
 9,-0.00084104,-0.01244688,0.06135247,0.00084781,0.32007213,-0.00946166
 ,-0.00011440,-0.03431186,-0.05942872,-0.00017308,-0.05167860,0.0024032
 8,-0.00095915,0.01406667,0.00037453,0.00000810,-0.00060295,0.00034533,
 0.00000615,-0.00025309,-0.00028166,-0.00000418,-0.00000973,-0.00006383
 ,-0.00002800,0.00002593,-0.00006295,0.00002373,0.00002406,0.00245000,0
 .00106399,0.01438226,0.00138254,0.00040026,0.00052613,0.00138516,-0.00
 038417,0.00053174,-0.00683416,-0.00004517,-0.00096689,0.06915427,-0.00
 005818,0.00036940,-0.00020356,-0.00017375,-0.04404887,-0.00070499,0.00
 512822,-0.00255754,0.02798820,0.00000809,-0.00122713,-0.00000119,0.000
 00631,-0.00078591,-0.00000015,-0.00000396,0.00045758,-0.00000026,0.000
 10085,0.00030872,-0.00015418,-0.00010440,0.00030824,0.00015316,-0.0050
 7914,-0.00270077,-0.02785809,-0.00021468,0.00014518,0.00038252,0.00022
 729,0.00014098,-0.00037565,-0.00004555,0.00088164,-0.00000463,0.000198
 04,0.05067713,-0.00090491,-0.00001305,-0.00432242,-0.05218236,-0.00070
 790,-0.29130139,-0.00263702,0.00128351,-0.01256329,-0.00065893,-0.0000
 0152,0.00014041,-0.00009372,0.00000054,-0.00007587,0.00025303,0.000001
 14,0.00031690,0.00014868,0.00010515,-0.00007225,0.00015008,-0.00010457
 ,-0.00007238,-0.00260510,-0.00134615,-0.01246642,-0.00040551,0.0003718
 2,0.00047564,-0.00040189,-0.00037540,0.00047885,-0.00082009,-0.0000033
 4,0.00157884,0.05560267,0.00075648,0.31551261,-0.00007981,-0.00207410,
 0.00065755,-0.00388551,-0.00794721,-0.01405054,-0.07281747,-0.06272695
 ,-0.04074246,0.00833574,0.01532513,0.01556460,0.00067761,0.00313952,-0
 .00218828,0.00030518,-0.00018956,0.00039323,-0.00030188,-0.00058528,0.
 00005822,-0.00132185,0.00046466,0.00117954,-0.00076733,0.00043038,0.00
 094828,-0.00021445,0.00019936,0.00010250,-0.00089291,0.00010218,0.0003
 4247,0.00022837,0.00005003,0.00016601,0.00136216,0.00124987,-0.0002212
 4,0.06983961,0.00040819,-0.00119024,0.00048362,-0.00149760,-0.01051823
 ,-0.00921911,-0.06081999,-0.21486079,-0.11620650,-0.00575133,-0.010521
 65,-0.00755309,-0.00079757,-0.00217923,0.00215244,-0.00024316,0.000288
 78,-0.00022147,0.00039229,0.00068182,-0.00027291,0.00057126,-0.0000452
 8,-0.00064671,0.00070157,-0.00537074,0.00258616,-0.00028000,0.00018226
 ,-0.00005420,-0.00043341,0.00001333,-0.00005326,-0.00008190,0.00000635
 ,-0.00005167,0.00016308,0.00147152,0.00015832,0.06519425,0.23331603,-0
 .00034684,0.00107697,-0.00045881,0.00417550,0.01201108,0.01025464,-0.0
 3964959,-0.11584408,-0.12701321,-0.00343794,-0.00007527,-0.00393107,-0
 .00160416,-0.00152648,-0.00004657,0.00090364,-0.00028417,0.00001400,0.
 00041658,0.00069568,0.00006784,0.00065878,-0.00020751,-0.00041746,0.00
 089411,0.00196773,0.00012520,0.00000349,-0.00021598,0.00002995,0.00049
 633,-0.00004468,0.00004081,0.00021039,0.00009939,0.00008738,-0.0003786
 3,-0.00107767,0.00138234,0.04549581,0.12402185,0.13154811,0.00188123,0
 .00103919,0.00053657,0.00931475,-0.00634461,0.01958641,-0.09440112,0.0
 3239604,-0.09925228,-0.01423907,0.00729964,-0.02163138,-0.00093598,0.0
 0071314,-0.00409930,0.00150933,-0.00092258,0.00156307,0.00001306,-0.00
 055279,0.00059209,0.00075558,-0.00063972,0.00019680,-0.00094467,-0.000
 15376,0.00022025,-0.00004019,0.00015127,0.00009494,0.00029589,0.000141
 67,-0.00014828,0.00006292,-0.00000717,-0.00058509,-0.00179330,-0.00357
 128,0.00217205,-0.00337162,0.00285102,-0.00722283,0.10366182,0.0012203
 0,0.00179194,0.00034561,0.00755039,-0.00536713,0.01575375,0.03278598,-
 0.07121433,0.06303323,0.00777216,-0.00527205,0.01507270,0.00190751,0.0
 0112626,0.00265572,-0.00129410,0.00020616,-0.00114603,0.00012501,0.000
 10529,-0.00055214,-0.00058734,0.00029073,-0.00015160,-0.00038465,0.000
 46150,-0.00049500,-0.00036404,0.00006347,-0.00007421,0.00024679,0.0000
 3806,-0.00027787,-0.00051409,-0.00010587,-0.00045950,-0.00081085,-0.00
 271319,0.00088198,-0.01146359,0.00879790,-0.02207601,-0.03695896,0.075
 12263,-0.00145401,-0.00134300,0.00133599,-0.00618964,0.00427529,-0.015
 78988,-0.10117687,0.06381956,-0.23847494,0.00350315,-0.00270255,0.0083
 5990,0.00054502,0.00070515,-0.00028944,0.00117760,-0.00075583,-0.00070
 979,-0.00020104,-0.00022067,0.00009370,-0.00056613,0.00019849,0.000361
 59,0.00026226,-0.00006587,-0.00053471,0.00025440,-0.00002112,-0.000129
 36,-0.00020989,-0.00014080,0.00040390,0.00095089,0.00020946,0.00050212
 ,0.00160931,0.00299649,-0.00016505,-0.00684446,0.00562632,-0.01331102,
 0.10677139,-0.07157068,0.25767581,-0.00023865,-0.00000329,0.00032265,0
 .00085332,0.00001210,-0.00025918,-0.01183091,0.00115037,-0.01245430,-0
 .18651644,-0.00104937,-0.13388039,0.00792349,0.00006587,0.00912122,0.0
 0110902,0.00000797,0.00537906,0.00072546,0.00079293,-0.00053903,0.0007
 3218,-0.00078527,-0.00053884,-0.01160359,-0.00130692,-0.01222932,-0.00
 001768,0.00009260,0.00001332,-0.00001808,-0.00009333,0.00001495,0.0002
 0050,0.00000220,0.00018734,-0.00046573,-0.00000439,0.00064947,0.001650
 44,-0.00005280,-0.00003272,-0.00235348,0.00106870,0.00167153,0.2005104
 7,-0.00000375,0.00042538,0.00000107,0.00001172,-0.00132832,0.00000037,
 0.01861816,-0.00145967,0.01927746,-0.00103790,-0.04156253,-0.00099282,
 0.00000161,-0.00098482,0.00001807,0.00000203,0.00115565,0.00001535,-0.
 00008676,-0.00008630,-0.00014784,0.00010185,-0.00009290,0.00015044,-0.
 01871944,-0.00175269,-0.01939904,-0.00012028,0.00004868,0.00011202,0.0
 0011948,0.00004863,-0.00011197,0.00000197,-0.00012541,0.00000113,-0.00
 000516,0.00049028,0.00000278,-0.00162509,0.00141379,0.00040602,0.00434
 747,-0.00254393,-0.00135533,0.00110775,0.04752274,0.00002499,-0.000000
 44,0.00006542,-0.00047645,-0.00000088,-0.00021873,0.00425656,0.0003381
 8,0.00425919,-0.12685777,-0.00095215,-0.17810518,-0.02894998,-0.000198
 46,-0.02144907,0.00130478,-0.00000805,-0.00849307,0.00158897,-0.000244
 69,0.00244195,0.00158702,0.00027034,0.00243915,0.00432230,-0.00026980,
 0.00432481,-0.00001013,-0.00001500,-0.00000646,-0.00001068,0.00001470,
 -0.00000615,0.00005742,0.00000030,-0.00012536,0.00018262,0.00000011,-0
 .00007344,-0.00032320,0.00010394,0.00105072,0.00133896,-0.00037870,0.0
 0018127,0.14094313,0.00104631,0.19248692,-0.00009938,0.00208879,0.0006
 5585,-0.00399388,0.00797424,-0.01418191,-0.00075494,-0.00037427,0.0009
 7909,0.00844204,-0.01505754,0.01552749,0.00070429,-0.00311431,-0.00215
 328,0.00030015,0.00019097,0.00039028,-0.00131002,-0.00047448,0.0011731
 0,-0.00030385,0.00057453,0.00005315,-0.07424875,0.06419759,-0.04228172
 ,-0.00089669,-0.00011129,0.00034222,-0.00021534,-0.00020336,0.00010265
 ,0.00022795,-0.00004683,0.00016564,0.00137831,-0.00125168,-0.00021529,
 0.00112963,-0.00018816,-0.00057257,0.00012527,-0.00023871,0.00002625,0
 .00163128,0.00162645,-0.00032744,0.07135218,-0.00039681,-0.00117635,-0
 .00047346,0.00158563,-0.01041802,0.00912580,-0.00064538,-0.00539799,-0
 .00255696,0.00595675,-0.01060341,0.00775326,0.00082510,-0.00220824,-0.
 00216994,0.00024611,0.00029551,0.00022504,-0.00058361,-0.00005415,0.00
 065871,-0.00040200,0.00068287,0.00027144,0.06229397,-0.21266586,0.1160
 1735,0.00042469,0.00001735,0.00005724,0.00027542,0.00018400,0.00005484
 ,0.00008517,0.00000662,0.00005379,-0.00016537,0.00145829,-0.00016111,0
 .00021528,-0.00140612,0.00060458,0.00013805,-0.00008143,0.00024978,0.0
 0005524,0.00143139,-0.00010894,-0.06689221,0.23098720,-0.00033301,-0.0
 0107855,-0.00045366,0.00430671,-0.01189354,0.01026402,0.00091865,-0.00
 193910,0.00014013,-0.00345789,0.00005812,-0.00395664,-0.00162428,0.001
 51598,-0.00004410,0.00089928,0.00029327,0.00001243,0.00065842,0.000213
 42,-0.00042025,0.00042563,-0.00069329,0.00006926,-0.04117861,0.1156670
 4,-0.12777909,0.00049449,0.00005036,0.00004050,0.00000018,0.00021535,0
 .00002911,0.00021126,-0.00009664,0.00008755,-0.00039041,0.00107309,0.0
 0137928,-0.00056631,-0.00060499,0.00043558,-0.00000446,-0.00046792,0.0
 0014228,-0.00002827,-0.00040762,0.00105249,0.04713358,-0.12382334,0.13
 236640,0.00190725,-0.00103605,0.00054452,0.00932582,0.00657827,0.01974
 366,-0.00095062,0.00013853,0.00021414,-0.01406505,-0.00747102,-0.02143
 336,-0.00090544,-0.00075065,-0.00406548,0.00148314,0.00094170,0.001546
 08,0.00074162,0.00064533,0.00019293,0.00000817,0.00055454,0.00058404,-
 0.09364791,-0.03297683,-0.09841057,0.00030029,-0.00013916,-0.00015102,
 -0.00004265,-0.00015196,0.00009460,0.00005687,0.00000687,-0.00059053,-
 0.00184359,0.00358833,0.00217007,0.00012408,-0.00013573,-0.00000935,0.
 00045959,-0.00006050,-0.00012976,-0.00229161,-0.00434010,0.00134890,-0
 .00346827,-0.00301603,-0.00746495,0.10280831,-0.00122387,0.00176930,-0
 .00034123,-0.00740188,-0.00544493,-0.01556253,0.00036944,0.00046939,0.
 00049413,-0.00786103,-0.00548716,-0.01527352,-0.00192882,0.00108508,-0
 .00270687,0.00131222,0.00023761,0.00116021,0.00059077,0.00030438,0.000
 15408,-0.00012683,0.00011308,0.00055886,-0.03337341,-0.07239174,-0.064
 71304,-0.00024453,0.00003505,0.00027740,0.00036361,0.00006609,0.000074
 66,0.00051930,-0.00009885,0.00045486,0.00082618,-0.00267555,-0.0008486
 9,0.00024114,-0.00007951,0.00046857,0.00007336,-0.00070599,0.00009530,
 -0.00106036,-0.00259998,0.00040323,0.01130028,0.00894835,0.02191837,0.
 03762444,0.07645541,-0.00146536,0.00132509,0.00133233,-0.00611550,-0.0
 0437996,-0.01572408,0.00026035,0.00006548,-0.00053659,0.00349814,0.002
 78840,0.00840103,0.00055994,-0.00070356,-0.00027803,0.00116354,0.00076
 516,-0.00071490,-0.00056583,-0.00020448,0.00036172,-0.00020290,0.00021
 866,0.00009113,-0.10032463,-0.06552107,-0.23804521,-0.00021063,0.00013
 958,0.00040263,0.00025262,0.00002324,-0.00012949,0.00095173,-0.0001965
 0,0.00050156,0.00164075,-0.00296969,-0.00015236,0.00002827,-0.00024874
 ,0.00014157,-0.00012888,-0.00009333,0.00034764,0.00165939,0.00138360,0
 .00017555,-0.00681709,-0.00577807,-0.01336530,0.10581609,0.07338619,0.
 25719079\\-0.00000047,0.00000183,0.00000188,0.00000355,-0.00000053,0.0
 0000245,-0.00000174,0.00000062,-0.00000494,-0.00000129,0.00000435,0.00
 000080,0.00000418,-0.00000978,0.00000436,-0.00000295,-0.00000078,-0.00
 000349,0.00000437,0.00000082,0.00000125,-0.00000432,0.00000717,0.00000
 070,-0.00000056,-0.00000239,-0.00000554,0.00000117,-0.00000046,-0.0000
 0055,0.00000041,0.00000010,0.00000107,-0.00000143,-0.00000066,-0.00000
 014,0.00000245,-0.00000034,-0.00000175,-0.00000157,0.00000062,0.,0.000
 00023,-0.00000150,0.00000201,-0.00000122,0.00000041,0.00000213,-0.0000
 0065,-0.00000016,-0.00000103,-0.00000014,0.00000068,0.00000079\\\@


 THERE IS MUCH PLEASURE TO BE GAINED FROM USELESS KNOWLEDGE

                                       -- BERTRAND RUSSELL
 Job cpu time:       0 days  1 hours 39 minutes 42.3 seconds.
 Elapsed time:       0 days  0 hours 24 minutes 56.0 seconds.
 File lengths (MBytes):  RWF=    134 Int=      0 D2E=      0 Chk=      8 Scr=      1
 Normal termination of Gaussian 16 at Sun May 28 00:22:08 2023.
### All Done ###
