### Starting Gaussian ###
 Entering Gaussian System, Link 0=g16
 Initial command:
 /cluster/software/gaussian/gaussian-16-A.03/avx2/g16/l1.exe "/local/scratch/linjian/Gau-27168.inp" -scrdir="/local/scratch/linjian/"
 Entering Link 1 = /cluster/software/gaussian/gaussian-16-A.03/avx2/g16/l1.exe PID=     27169.
  
 Copyright (c) 1988,1990,1992,1993,1995,1998,2003,2009,2016,
            Gaussian, Inc.  All Rights Reserved.
  
 This is part of the Gaussian(R) 16 program.  It is based on
 the Gaussian(R) 09 system (copyright 2009, Gaussian, Inc.),
 the Gaussian(R) 03 system (copyright 2003, Gaussian, Inc.),
 the Gaussian(R) 98 system (copyright 1998, Gaussian, Inc.),
 the Gaussian(R) 94 system (copyright 1995, Gaussian, Inc.),
 the Gaussian 92(TM) system (copyright 1992, Gaussian, Inc.),
 the Gaussian 90(TM) system (copyright 1990, Gaussian, Inc.),
 the Gaussian 88(TM) system (copyright 1988, Gaussian, Inc.),
 the Gaussian 86(TM) system (copyright 1986, Carnegie Mellon
 University), and the Gaussian 82(TM) system (copyright 1983,
 Carnegie Mellon University). Gaussian is a federally registered
 trademark of Gaussian, Inc.
  
 This software contains proprietary and confidential information,
 including trade secrets, belonging to Gaussian, Inc.
  
 This software is provided under written license and may be
 used, copied, transmitted, or stored only in accord with that
 written license.
  
 The following legend is applicable only to US Government
 contracts under FAR:
  
                    RESTRICTED RIGHTS LEGEND
  
 Use, reproduction and disclosure by the US Government is
 subject to restrictions as set forth in subparagraphs (a)
 and (c) of the Commercial Computer Software - Restricted
 Rights clause in FAR 52.227-19.
  
 Gaussian, Inc.
 340 Quinnipiac St., Bldg. 40, Wallingford CT 06492
  
  
 ---------------------------------------------------------------
 Warning -- This program may not be used in any manner that
 competes with the business of Gaussian, Inc. or will provide
 assistance to any competitor of Gaussian, Inc.  The licensee
 of this program is prohibited from giving any competitor of
 Gaussian, Inc. access to this program.  By using this program,
 the user acknowledges that Gaussian, Inc. is engaged in the
 business of creating and licensing software in the field of
 computational chemistry and represents and warrants to the
 licensee that it is not a competitor of Gaussian, Inc. and that
 it will not use this program in any manner prohibited above.
 ---------------------------------------------------------------
  

 Cite this work as:
 Gaussian 16, Revision A.03,
 M. J. Frisch, G. W. Trucks, H. B. Schlegel, G. E. Scuseria, 
 M. A. Robb, J. R. Cheeseman, G. Scalmani, V. Barone, 
 G. A. Petersson, H. Nakatsuji, X. Li, M. Caricato, A. V. Marenich, 
 J. Bloino, B. G. Janesko, R. Gomperts, B. Mennucci, H. P. Hratchian, 
 J. V. Ortiz, A. F. Izmaylov, J. L. Sonnenberg, D. Williams-Young, 
 F. Ding, F. Lipparini, F. Egidi, J. Goings, B. Peng, A. Petrone, 
 T. Henderson, D. Ranasinghe, V. G. Zakrzewski, J. Gao, N. Rega, 
 G. Zheng, W. Liang, M. Hada, M. Ehara, K. Toyota, R. Fukuda, 
 J. Hasegawa, M. Ishida, T. Nakajima, Y. Honda, O. Kitao, H. Nakai, 
 T. Vreven, K. Throssell, J. A. Montgomery, Jr., J. E. Peralta, 
 F. Ogliaro, M. J. Bearpark, J. J. Heyd, E. N. Brothers, K. N. Kudin, 
 V. N. Staroverov, T. A. Keith, R. Kobayashi, J. Normand, 
 K. Raghavachari, A. P. Rendell, J. C. Burant, S. S. Iyengar, 
 J. Tomasi, M. Cossi, J. M. Millam, M. Klene, C. Adamo, R. Cammi, 
 J. W. Ochterski, R. L. Martin, K. Morokuma, O. Farkas, 
 J. B. Foresman, and D. J. Fox, Gaussian, Inc., Wallingford CT, 2016.
 
 ******************************************
 Gaussian 16:  ES64L-G16RevA.03 25-Dec-2016
                28-May-2023 
 ******************************************
 %chk=CC1CCqCrC1.chk
 %NProcShared=20
 Will use up to   20 processors via shared memory.
 -----------------------------
 # opt freq b3lyp/6-31g(2df,p)
 -----------------------------
 1/18=20,19=15,26=3,38=1/1,3;
 2/9=110,12=2,17=6,18=5,40=1/2;
 3/5=1,6=6,7=104,11=2,25=1,30=1,71=1,74=-5/1,2,3;
 4//1;
 5/5=2,38=5/2;
 6/7=2,8=2,9=2,10=2,28=1/1;
 7//1,2,3,16;
 1/18=20,19=15,26=3/3(2);
 2/9=110/2;
 99//99;
 2/9=110/2;
 3/5=1,6=6,7=104,11=2,25=1,30=1,71=1,74=-5/1,2,3;
 4/5=5,16=3,69=1/1;
 5/5=2,38=5/2;
 7//1,2,3,16;
 1/18=20,19=15,26=3/3(-5);
 2/9=110/2;
 6/7=2,8=2,9=2,10=2,19=2,28=1/1;
 99/9=1/99;
 -------------------
 Title Card Required
 -------------------
 Symbolic Z-matrix:
 Charge =  0 Multiplicity = 1
 C                     0.93828  -0.05604  -0.06367 
 C                     2.45226  -0.05687  -0.04837 
 C                     3.14526   1.01383   0.83628 
 C                     4.22392  -0.05154   1.16468 
 C                     5.45272  -0.05438   0.2661 
 C                     3.14227  -1.11755   0.84849 
 H                     0.56255   0.74605  -0.70705 
 H                     0.5236    0.08992   0.93837 
 H                     0.5577   -1.00543  -0.45357 
 H                     2.84286  -0.06982  -1.07546 
 H                     2.56045   1.31774   1.71334 
 H                     3.48977   1.91389   0.31929 
 H                     4.5323   -0.048     2.21802 
 H                     5.18801  -0.05536  -0.79666 
 H                     6.06644  -0.9398    0.45888 
 H                     6.0677    0.83076   0.45653 
 H                     2.55374  -1.41265   1.72569 
 H                     3.4853   -2.02236   0.33826 
 

 GradGradGradGradGradGradGradGradGradGradGradGradGradGradGradGradGradGrad
 Berny optimization.
 Initialization pass.
                           ----------------------------
                           !    Initial Parameters    !
                           ! (Angstroms and Degrees)  !
 --------------------------                            --------------------------
 ! Name  Definition              Value          Derivative Info.                !
 --------------------------------------------------------------------------------
 ! R1    R(1,2)                  1.5141         estimate D2E/DX2                !
 ! R2    R(1,7)                  1.0947         estimate D2E/DX2                !
 ! R3    R(1,8)                  1.0942         estimate D2E/DX2                !
 ! R4    R(1,9)                  1.0946         estimate D2E/DX2                !
 ! R5    R(2,3)                  1.5522         estimate D2E/DX2                !
 ! R6    R(2,6)                  1.551          estimate D2E/DX2                !
 ! R7    R(2,10)                 1.0989         estimate D2E/DX2                !
 ! R8    R(3,4)                  1.5512         estimate D2E/DX2                !
 ! R9    R(3,11)                 1.0971         estimate D2E/DX2                !
 ! R10   R(3,12)                 1.0937         estimate D2E/DX2                !
 ! R11   R(4,5)                  1.5223         estimate D2E/DX2                !
 ! R12   R(4,6)                  1.5512         estimate D2E/DX2                !
 ! R13   R(4,13)                 1.0976         estimate D2E/DX2                !
 ! R14   R(5,14)                 1.0952         estimate D2E/DX2                !
 ! R15   R(5,15)                 1.0944         estimate D2E/DX2                !
 ! R16   R(5,16)                 1.0945         estimate D2E/DX2                !
 ! R17   R(6,17)                 1.0968         estimate D2E/DX2                !
 ! R18   R(6,18)                 1.0939         estimate D2E/DX2                !
 ! A1    A(2,1,7)              110.459          estimate D2E/DX2                !
 ! A2    A(2,1,8)              111.7013         estimate D2E/DX2                !
 ! A3    A(2,1,9)              110.5354         estimate D2E/DX2                !
 ! A4    A(7,1,8)              108.0825         estimate D2E/DX2                !
 ! A5    A(7,1,9)              107.8664         estimate D2E/DX2                !
 ! A6    A(8,1,9)              108.0662         estimate D2E/DX2                !
 ! A7    A(1,2,3)              116.861          estimate D2E/DX2                !
 ! A8    A(1,2,6)              116.8133         estimate D2E/DX2                !
 ! A9    A(1,2,10)             110.2416         estimate D2E/DX2                !
 ! A10   A(3,2,6)               86.7635         estimate D2E/DX2                !
 ! A11   A(3,2,10)             112.465          estimate D2E/DX2                !
 ! A12   A(6,2,10)             111.9789         estimate D2E/DX2                !
 ! A13   A(2,3,4)               87.5564         estimate D2E/DX2                !
 ! A14   A(2,3,11)             114.1251         estimate D2E/DX2                !
 ! A15   A(2,3,12)             116.035          estimate D2E/DX2                !
 ! A16   A(4,3,11)             113.0583         estimate D2E/DX2                !
 ! A17   A(4,3,12)             116.5031         estimate D2E/DX2                !
 ! A18   A(11,3,12)            108.533          estimate D2E/DX2                !
 ! A19   A(3,4,5)              115.9512         estimate D2E/DX2                !
 ! A20   A(3,4,6)               86.7869         estimate D2E/DX2                !
 ! A21   A(3,4,13)             113.3488         estimate D2E/DX2                !
 ! A22   A(5,4,6)              116.1835         estimate D2E/DX2                !
 ! A23   A(5,4,13)             109.8588         estimate D2E/DX2                !
 ! A24   A(6,4,13)             113.1881         estimate D2E/DX2                !
 ! A25   A(4,5,14)             112.1903         estimate D2E/DX2                !
 ! A26   A(4,5,15)             110.4985         estimate D2E/DX2                !
 ! A27   A(4,5,16)             110.4469         estimate D2E/DX2                !
 ! A28   A(14,5,15)            107.8023         estimate D2E/DX2                !
 ! A29   A(14,5,16)            107.7796         estimate D2E/DX2                !
 ! A30   A(15,5,16)            107.9711         estimate D2E/DX2                !
 ! A31   A(2,6,4)               87.5996         estimate D2E/DX2                !
 ! A32   A(2,6,17)             114.0645         estimate D2E/DX2                !
 ! A33   A(2,6,18)             115.8137         estimate D2E/DX2                !
 ! A34   A(4,6,17)             113.3306         estimate D2E/DX2                !
 ! A35   A(4,6,18)             116.4116         estimate D2E/DX2                !
 ! A36   A(17,6,18)            108.5879         estimate D2E/DX2                !
 ! D1    D(7,1,2,3)             77.9043         estimate D2E/DX2                !
 ! D2    D(7,1,2,6)            178.5699         estimate D2E/DX2                !
 ! D3    D(7,1,2,10)           -52.1335         estimate D2E/DX2                !
 ! D4    D(8,1,2,3)            -42.4287         estimate D2E/DX2                !
 ! D5    D(8,1,2,6)             58.2369         estimate D2E/DX2                !
 ! D6    D(8,1,2,10)          -172.4665         estimate D2E/DX2                !
 ! D7    D(9,1,2,3)           -162.7931         estimate D2E/DX2                !
 ! D8    D(9,1,2,6)            -62.1275         estimate D2E/DX2                !
 ! D9    D(9,1,2,10)            67.1691         estimate D2E/DX2                !
 ! D10   D(1,2,3,4)            143.5673         estimate D2E/DX2                !
 ! D11   D(1,2,3,11)            29.3354         estimate D2E/DX2                !
 ! D12   D(1,2,3,12)           -97.9921         estimate D2E/DX2                !
 ! D13   D(6,2,3,4)             25.0249         estimate D2E/DX2                !
 ! D14   D(6,2,3,11)           -89.207          estimate D2E/DX2                !
 ! D15   D(6,2,3,12)           143.4656         estimate D2E/DX2                !
 ! D16   D(10,2,3,4)           -87.4491         estimate D2E/DX2                !
 ! D17   D(10,2,3,11)          158.319          estimate D2E/DX2                !
 ! D18   D(10,2,3,12)           30.9916         estimate D2E/DX2                !
 ! D19   D(1,2,6,4)           -143.6111         estimate D2E/DX2                !
 ! D20   D(1,2,6,17)           -29.067          estimate D2E/DX2                !
 ! D21   D(1,2,6,18)            98.0764         estimate D2E/DX2                !
 ! D22   D(3,2,6,4)            -25.0244         estimate D2E/DX2                !
 ! D23   D(3,2,6,17)            89.5197         estimate D2E/DX2                !
 ! D24   D(3,2,6,18)          -143.3368         estimate D2E/DX2                !
 ! D25   D(10,2,6,4)            87.9242         estimate D2E/DX2                !
 ! D26   D(10,2,6,17)         -157.5317         estimate D2E/DX2                !
 ! D27   D(10,2,6,18)          -30.3883         estimate D2E/DX2                !
 ! D28   D(2,3,4,5)             92.6374         estimate D2E/DX2                !
 ! D29   D(2,3,4,6)            -25.0198         estimate D2E/DX2                !
 ! D30   D(2,3,4,13)          -138.9306         estimate D2E/DX2                !
 ! D31   D(11,3,4,5)          -152.1196         estimate D2E/DX2                !
 ! D32   D(11,3,4,6)            90.2232         estimate D2E/DX2                !
 ! D33   D(11,3,4,13)          -23.6876         estimate D2E/DX2                !
 ! D34   D(12,3,4,5)           -25.3728         estimate D2E/DX2                !
 ! D35   D(12,3,4,6)          -143.0301         estimate D2E/DX2                !
 ! D36   D(12,3,4,13)          103.0592         estimate D2E/DX2                !
 ! D37   D(3,4,5,14)           -49.7316         estimate D2E/DX2                !
 ! D38   D(3,4,5,15)          -170.0631         estimate D2E/DX2                !
 ! D39   D(3,4,5,16)            70.5354         estimate D2E/DX2                !
 ! D40   D(6,4,5,14)            50.0468         estimate D2E/DX2                !
 ! D41   D(6,4,5,15)           -70.2847         estimate D2E/DX2                !
 ! D42   D(6,4,5,16)           170.3139         estimate D2E/DX2                !
 ! D43   D(13,4,5,14)         -179.8539         estimate D2E/DX2                !
 ! D44   D(13,4,5,15)           59.8146         estimate D2E/DX2                !
 ! D45   D(13,4,5,16)          -59.5869         estimate D2E/DX2                !
 ! D46   D(3,4,6,2)             25.0398         estimate D2E/DX2                !
 ! D47   D(3,4,6,17)           -90.1986         estimate D2E/DX2                !
 ! D48   D(3,4,6,18)           142.8019         estimate D2E/DX2                !
 ! D49   D(5,4,6,2)            -92.3996         estimate D2E/DX2                !
 ! D50   D(5,4,6,17)           152.3621         estimate D2E/DX2                !
 ! D51   D(5,4,6,18)            25.3626         estimate D2E/DX2                !
 ! D52   D(13,4,6,2)           139.1059         estimate D2E/DX2                !
 ! D53   D(13,4,6,17)           23.8675         estimate D2E/DX2                !
 ! D54   D(13,4,6,18)         -103.132          estimate D2E/DX2                !
 --------------------------------------------------------------------------------
 Trust Radius=3.00D-01 FncErr=1.00D-07 GrdErr=1.00D-06 EigMax=2.50D+02 EigMin=1.00D-04
 Number of steps in this run=    108 maximum allowed number of steps=    108.
 GradGradGradGradGradGradGradGradGradGradGradGradGradGradGradGradGradGrad

                          Input orientation:                          
 ---------------------------------------------------------------------
 Center     Atomic      Atomic             Coordinates (Angstroms)
 Number     Number       Type             X           Y           Z
 ---------------------------------------------------------------------
      1          6           0        0.938280   -0.056040   -0.063670
      2          6           0        2.452260   -0.056870   -0.048370
      3          6           0        3.145260    1.013830    0.836280
      4          6           0        4.223920   -0.051540    1.164680
      5          6           0        5.452720   -0.054380    0.266100
      6          6           0        3.142270   -1.117550    0.848490
      7          1           0        0.562550    0.746050   -0.707050
      8          1           0        0.523600    0.089920    0.938370
      9          1           0        0.557700   -1.005430   -0.453570
     10          1           0        2.842860   -0.069820   -1.075460
     11          1           0        2.560450    1.317740    1.713340
     12          1           0        3.489770    1.913890    0.319290
     13          1           0        4.532300   -0.048000    2.218020
     14          1           0        5.188010   -0.055360   -0.796660
     15          1           0        6.066440   -0.939800    0.458880
     16          1           0        6.067700    0.830760    0.456530
     17          1           0        2.553740   -1.412650    1.725690
     18          1           0        3.485300   -2.022360    0.338260
 ---------------------------------------------------------------------
                    Distance matrix (angstroms):
                    1          2          3          4          5
     1  C    0.000000
     2  C    1.514058   0.000000
     3  C    2.612526   1.552177   0.000000
     4  C    3.507748   2.147160   1.551247   0.000000
     5  C    4.526469   3.016895   2.605868   1.522302   0.000000
     6  C    2.610826   1.550972   2.131417   1.551232   2.609155
     7  H    1.094742   2.156280   3.020590   4.188694   5.049898
     8  H    1.094234   2.171390   2.781570   3.709932   4.976846
     9  H    1.094625   2.157153   3.526555   4.119443   5.038218
    10  H    2.156695   1.098931   2.218218   2.631708   2.934517
    11  H    2.770645   2.237159   1.097086   2.223306   3.513181
    12  H    3.246134   2.257321   1.093652   2.261985   2.780304
    13  H    4.257130   3.076226   2.227233   1.097559   2.158056
    14  H    4.312480   2.836242   2.825330   2.185484   1.095231
    15  H    5.229925   3.754885   3.534458   2.163802   1.094434
    16  H    5.231441   3.756889   2.952690   2.163205   1.094503
    17  H    2.766209   2.235112   2.651179   2.226399   3.518435
    18  H    3.242726   2.253842   3.095497   2.261119   2.783683
                    6          7          8          9         10
     6  C    0.000000
     7  H    3.542268   0.000000
     8  H    2.885047   1.771844   0.000000
     9  H    2.896193   1.769734   1.771567   0.000000
    10  H    2.211101   2.449731   3.075711   2.546384   0.000000
    11  H    2.648984   3.190097   2.501375   3.755479   3.127696
    12  H    3.096843   3.314490   3.536706   4.209130   2.509766
    13  H    2.225249   4.994544   4.210250   4.883801   3.701580
    14  H    2.831928   4.695228   4.978771   4.739210   2.361709
    15  H    2.955361   5.873184   5.658031   5.584182   3.674579
    16  H    3.536621   5.627412   5.614095   5.878773   3.682069
    17  H    1.096782   3.813535   2.645573   2.983149   3.119812
    18  H    1.093931   4.159235   3.686940   3.198747   2.494744
                   11         12         13         14         15
    11  H    0.000000
    12  H    1.778315   0.000000
    13  H    2.451151   2.922509   0.000000
    14  H    3.884530   2.829719   3.085175   0.000000
    15  H    4.354552   3.847371   2.498693   1.769252   0.000000
    16  H    3.757329   2.799594   2.496501   1.769053   1.770562
    17  H    2.730426   3.730949   2.453438   3.891512   3.763968
    18  H    3.728600   3.936298   2.920240   2.838372   2.801565
                   16         17         18
    16  H    0.000000
    17  H    4.357932   0.000000
    18  H    3.850074   1.778908   0.000000
 Stoichiometry    C6H12
 Framework group  C1[X(C6H12)]
 Deg. of freedom    48
 Full point group                 C1      NOp   1
 Largest Abelian subgroup         C1      NOp   1
 Largest concise Abelian subgroup C1      NOp   1
                         Standard orientation:                         
 ---------------------------------------------------------------------
 Center     Atomic      Atomic             Coordinates (Angstroms)
 Number     Number       Type             X           Y           Z
 ---------------------------------------------------------------------
      1          6           0        2.335874   -0.001809   -0.219183
      2          6           0        0.834841   -0.000488   -0.417349
      3          6           0        0.022931   -1.065670    0.367151
      4          6           0       -1.090057    0.001939    0.533997
      5          6           0       -2.179997   -0.000296   -0.528749
      6          6           0        0.026532    1.065744    0.367061
      7          1           0        2.797612   -0.807850   -0.798455
      8          1           0        2.605080   -0.141856    0.832132
      9          1           0        2.768642    0.945120   -0.557178
     10          1           0        0.592857    0.006394   -1.489285
     11          1           0        0.478003   -1.364459    1.319639
     12          1           0       -0.246302   -1.968729   -0.187891
     13          1           0       -1.543768    0.004809    1.533384
     14          1           0       -1.768195   -0.005772   -1.543600
     15          1           0       -2.813774    0.886428   -0.429598
     16          1           0       -2.816652   -0.884114   -0.421636
     17          1           0        0.485931    1.365954    1.316671
     18          1           0       -0.240188    1.967562   -0.191749
 ---------------------------------------------------------------------
 Rotational constants (GHZ):           7.5163369           2.3469378           2.1778081
 Standard basis: 6-31G(2df,p) (6D, 7F)
 There are   246 symmetry adapted cartesian basis functions of A   symmetry.
 There are   228 symmetry adapted basis functions of A   symmetry.
   228 basis functions,   348 primitive gaussians,   246 cartesian basis functions
    24 alpha electrons       24 beta electrons
       nuclear repulsion energy       250.3641939245 Hartrees.
 NAtoms=   18 NActive=   18 NUniq=   18 SFac= 1.00D+00 NAtFMM=   60 NAOKFM=F Big=F
 Integral buffers will be    131072 words long.
 Raffenetti 2 integral format.
 Two-electron integral symmetry is turned on.
 One-electron integrals computed using PRISM.
 PrsmSu:  requested number of processors reduced to:  13 ShMem   1 Linda.
 NBasis=   228 RedAO= T EigKep=  5.11D-04  NBF=   228
 NBsUse=   228 1.00D-06 EigRej= -1.00D+00 NBFU=   228
 ExpMin= 1.61D-01 ExpMax= 3.05D+03 ExpMxC= 4.57D+02 IAcc=3 IRadAn=         5 AccDes= 0.00D+00
 Harris functional with IExCor=  402 and IRadAn=       5 diagonalized for initial guess.
 HarFok:  IExCor=  402 AccDes= 0.00D+00 IRadAn=         5 IDoV= 1 UseB2=F ITyADJ=14
 ICtDFT=  3500011 ScaDFX=  1.000000  1.000000  1.000000  1.000000
 FoFCou: FMM=F IPFlag=           0 FMFlag=      100000 FMFlg1=           0
         NFxFlg=           0 DoJE=T BraDBF=F KetDBF=T FulRan=T
         wScrn=  0.000000 ICntrl=       500 IOpCl=  0 I1Cent=   200000004 NGrid=           0
         NMat0=    1 NMatS0=      1 NMatT0=    0 NMatD0=    1 NMtDS0=    0 NMtDT0=    0
 Petite list used in FoFCou.
 Requested convergence on RMS density matrix=1.00D-08 within 128 cycles.
 Requested convergence on MAX density matrix=1.00D-06.
 Requested convergence on             energy=1.00D-06.
 No special actions if energy rises.
 Integral accuracy reduced to 1.0D-05 until final iterations.
 Initial convergence to 1.0D-05 achieved.  Increase integral accuracy.
 SCF Done:  E(RB3LYP) =  -235.860280618     A.U. after   11 cycles
            NFock= 11  Conv=0.88D-08     -V/T= 2.0090

 **********************************************************************

            Population analysis using the SCF density.

 **********************************************************************

 Orbital symmetries:
       Occupied  (A) (A) (A) (A) (A) (A) (A) (A) (A) (A) (A) (A)
                 (A) (A) (A) (A) (A) (A) (A) (A) (A) (A) (A) (A)
       Virtual   (A) (A) (A) (A) (A) (A) (A) (A) (A) (A) (A) (A)
                 (A) (A) (A) (A) (A) (A) (A) (A) (A) (A) (A) (A)
                 (A) (A) (A) (A) (A) (A) (A) (A) (A) (A) (A) (A)
                 (A) (A) (A) (A) (A) (A) (A) (A) (A) (A) (A) (A)
                 (A) (A) (A) (A) (A) (A) (A) (A) (A) (A) (A) (A)
                 (A) (A) (A) (A) (A) (A) (A) (A) (A) (A) (A) (A)
                 (A) (A) (A) (A) (A) (A) (A) (A) (A) (A) (A) (A)
                 (A) (A) (A) (A) (A) (A) (A) (A) (A) (A) (A) (A)
                 (A) (A) (A) (A) (A) (A) (A) (A) (A) (A) (A) (A)
                 (A) (A) (A) (A) (A) (A) (A) (A) (A) (A) (A) (A)
                 (A) (A) (A) (A) (A) (A) (A) (A) (A) (A) (A) (A)
                 (A) (A) (A) (A) (A) (A) (A) (A) (A) (A) (A) (A)
                 (A) (A) (A) (A) (A) (A) (A) (A) (A) (A) (A) (A)
                 (A) (A) (A) (A) (A) (A) (A) (A) (A) (A) (A) (A)
                 (A) (A) (A) (A) (A) (A) (A) (A) (A) (A) (A) (A)
                 (A) (A) (A) (A) (A) (A) (A) (A) (A) (A) (A) (A)
                 (A) (A) (A) (A) (A) (A) (A) (A) (A) (A) (A) (A)
 The electronic state is 1-A.
 Alpha  occ. eigenvalues --  -10.17914 -10.17840 -10.17020 -10.16897 -10.16868
 Alpha  occ. eigenvalues --  -10.16471  -0.84578  -0.73607  -0.68306  -0.64798
 Alpha  occ. eigenvalues --   -0.58562  -0.52451  -0.46628  -0.45931  -0.41871
 Alpha  occ. eigenvalues --   -0.39976  -0.39612  -0.37756  -0.36983  -0.35106
 Alpha  occ. eigenvalues --   -0.31244  -0.30707  -0.28544  -0.27716
 Alpha virt. eigenvalues --    0.09223   0.09920   0.11123   0.14795   0.15371
 Alpha virt. eigenvalues --    0.16286   0.16545   0.17405   0.17617   0.18299
 Alpha virt. eigenvalues --    0.19732   0.20132   0.21276   0.23193   0.24153
 Alpha virt. eigenvalues --    0.25837   0.28259   0.33999   0.44742   0.45107
 Alpha virt. eigenvalues --    0.48029   0.48171   0.49031   0.51976   0.54381
 Alpha virt. eigenvalues --    0.54688   0.56371   0.57809   0.60823   0.62057
 Alpha virt. eigenvalues --    0.64831   0.65198   0.67991   0.68928   0.72582
 Alpha virt. eigenvalues --    0.73610   0.74214   0.74857   0.75374   0.75761
 Alpha virt. eigenvalues --    0.78350   0.79111   0.81014   0.81361   0.82687
 Alpha virt. eigenvalues --    0.84521   0.85423   0.87526   0.89220   0.95500
 Alpha virt. eigenvalues --    1.05399   1.06633   1.10765   1.11518   1.14898
 Alpha virt. eigenvalues --    1.15888   1.26355   1.32039   1.33454   1.34972
 Alpha virt. eigenvalues --    1.36007   1.38827   1.42713   1.44079   1.47312
 Alpha virt. eigenvalues --    1.49203   1.50656   1.55415   1.55745   1.56739
 Alpha virt. eigenvalues --    1.61890   1.64153   1.65353   1.67634   1.68804
 Alpha virt. eigenvalues --    1.71990   1.81048   1.81501   1.83072   1.86620
 Alpha virt. eigenvalues --    1.90001   1.92460   1.96542   1.96757   1.99559
 Alpha virt. eigenvalues --    2.05132   2.20870   2.23577   2.23879   2.26457
 Alpha virt. eigenvalues --    2.28853   2.29514   2.31000   2.35074   2.36971
 Alpha virt. eigenvalues --    2.40031   2.44724   2.47777   2.54581   2.58764
 Alpha virt. eigenvalues --    2.67502   2.68546   2.70549   2.72416   2.74047
 Alpha virt. eigenvalues --    2.77502   2.78145   2.80799   2.82798   2.85279
 Alpha virt. eigenvalues --    2.87274   2.87421   2.88894   2.91746   2.92737
 Alpha virt. eigenvalues --    2.94902   2.98077   2.99032   3.02324   3.03616
 Alpha virt. eigenvalues --    3.06252   3.11020   3.16815   3.19705   3.21612
 Alpha virt. eigenvalues --    3.23035   3.24909   3.27427   3.34207   3.35308
 Alpha virt. eigenvalues --    3.37558   3.39125   3.42093   3.42701   3.45994
 Alpha virt. eigenvalues --    3.48787   3.50951   3.54272   3.58204   3.60787
 Alpha virt. eigenvalues --    3.64613   3.65987   3.68116   3.72804   3.83510
 Alpha virt. eigenvalues --    3.84129   3.88481   3.91676   3.94149   3.97568
 Alpha virt. eigenvalues --    4.00139   4.01730   4.13052   4.16776   4.20894
 Alpha virt. eigenvalues --    4.25842   4.36010   4.39811   4.42414   4.45291
 Alpha virt. eigenvalues --    4.49119   4.50986   4.53281   4.57016   4.57092
 Alpha virt. eigenvalues --    4.59652   4.61598   4.62856   4.65227   4.69241
 Alpha virt. eigenvalues --    4.69861   4.73882   4.75609   4.76779   4.79728
 Alpha virt. eigenvalues --    4.80642   4.81770   4.82544   4.84086   4.85322
 Alpha virt. eigenvalues --    4.88486   4.89242   4.91237   4.98661   5.04079
 Alpha virt. eigenvalues --    5.05542   5.11628   5.14284   5.22442   5.32241
 Alpha virt. eigenvalues --    5.37185   5.43138   5.51279   5.52416   5.61616
 Alpha virt. eigenvalues --    5.62879   5.85855   6.53008  11.07791  11.55154
 Alpha virt. eigenvalues --   11.81706  12.01958  12.29443  12.85446
          Condensed to atoms (all electrons):
               1          2          3          4          5          6
     1  C    5.014509   0.409103  -0.031861   0.002194   0.000329  -0.032114
     2  C    0.409103   4.578969   0.392942  -0.063373   0.000466   0.392466
     3  C   -0.031861   0.392942   5.005158   0.389216  -0.031291  -0.123814
     4  C    0.002194  -0.063373   0.389216   4.613419   0.419909   0.388903
     5  C    0.000329   0.000466  -0.031291   0.419909   4.976673  -0.030788
     6  C   -0.032114   0.392466  -0.123814   0.388903  -0.030788   5.003525
     7  H    0.366012  -0.021077  -0.001143  -0.000129   0.000005   0.004818
     8  H    0.372169  -0.021069  -0.009797   0.000534   0.000014  -0.005564
     9  H    0.366583  -0.022017   0.004932  -0.000072   0.000004  -0.004685
    10  H   -0.050486   0.372673  -0.039423   0.003978   0.001837  -0.038697
    11  H   -0.008774  -0.020726   0.353516  -0.016611   0.004302  -0.000264
    12  H    0.002634  -0.026246   0.353252  -0.027331  -0.007532   0.011885
    13  H   -0.000677   0.007566  -0.040719   0.363227  -0.051708  -0.040860
    14  H   -0.000225   0.002625  -0.005391  -0.026101   0.370973  -0.005351
    15  H   -0.000001  -0.000456   0.004400  -0.022619   0.371556  -0.003800
    16  H   -0.000001  -0.000437  -0.003804  -0.022505   0.371781   0.004343
    17  H   -0.007784  -0.022573  -0.000281  -0.016543   0.004287   0.354531
    18  H    0.002263  -0.025373   0.011868  -0.027305  -0.007528   0.352459
               7          8          9         10         11         12
     1  C    0.366012   0.372169   0.366583  -0.050486  -0.008774   0.002634
     2  C   -0.021077  -0.021069  -0.022017   0.372673  -0.020726  -0.026246
     3  C   -0.001143  -0.009797   0.004932  -0.039423   0.353516   0.353252
     4  C   -0.000129   0.000534  -0.000072   0.003978  -0.016611  -0.027331
     5  C    0.000005   0.000014   0.000004   0.001837   0.004302  -0.007532
     6  C    0.004818  -0.005564  -0.004685  -0.038697  -0.000264   0.011885
     7  H    0.613585  -0.033272  -0.032158  -0.004164   0.000211   0.000543
     8  H   -0.033272   0.605514  -0.033166   0.006010   0.006317  -0.000187
     9  H   -0.032158  -0.033166   0.612295  -0.001088   0.000022  -0.000168
    10  H   -0.004164   0.006010  -0.001088   0.677130   0.005090  -0.007065
    11  H    0.000211   0.006317   0.000022   0.005090   0.628999  -0.041680
    12  H    0.000543  -0.000187  -0.000168  -0.007065  -0.041680   0.654491
    13  H    0.000018  -0.000070   0.000022  -0.000376  -0.007441   0.003037
    14  H    0.000013   0.000000   0.000012   0.002233  -0.000024   0.001081
    15  H   -0.000000   0.000000  -0.000001   0.000009  -0.000155  -0.000049
    16  H   -0.000001   0.000000  -0.000000   0.000005   0.000039   0.002631
    17  H    0.000005   0.004598   0.000582   0.005221   0.002641  -0.000423
    18  H   -0.000172  -0.000215   0.000978  -0.007167  -0.000417  -0.000724
              13         14         15         16         17         18
     1  C   -0.000677  -0.000225  -0.000001  -0.000001  -0.007784   0.002263
     2  C    0.007566   0.002625  -0.000456  -0.000437  -0.022573  -0.025373
     3  C   -0.040719  -0.005391   0.004400  -0.003804  -0.000281   0.011868
     4  C    0.363227  -0.026101  -0.022619  -0.022505  -0.016543  -0.027305
     5  C   -0.051708   0.370973   0.371556   0.371781   0.004287  -0.007528
     6  C   -0.040860  -0.005351  -0.003800   0.004343   0.354531   0.352459
     7  H    0.000018   0.000013  -0.000000  -0.000001   0.000005  -0.000172
     8  H   -0.000070   0.000000   0.000000   0.000000   0.004598  -0.000215
     9  H    0.000022   0.000012  -0.000001  -0.000000   0.000582   0.000978
    10  H   -0.000376   0.002233   0.000009   0.000005   0.005221  -0.007167
    11  H   -0.007441  -0.000024  -0.000155   0.000039   0.002641  -0.000417
    12  H    0.003037   0.001081  -0.000049   0.002631  -0.000423  -0.000724
    13  H    0.717821   0.006606  -0.003072  -0.003157  -0.007431   0.003066
    14  H    0.006606   0.605790  -0.032981  -0.032983  -0.000024   0.001055
    15  H   -0.003072  -0.032981   0.603294  -0.032087   0.000041   0.002639
    16  H   -0.003157  -0.032983  -0.032087   0.602817  -0.000153  -0.000051
    17  H   -0.007431  -0.000024   0.000041  -0.000153   0.630315  -0.041694
    18  H    0.003066   0.001055   0.002639  -0.000051  -0.041694   0.654620
 Mulliken charges:
               1
     1  C   -0.403871
     2  C    0.066537
     3  C   -0.227760
     4  C    0.041209
     5  C   -0.393289
     6  C   -0.226993
     7  H    0.106905
     8  H    0.108180
     9  H    0.107929
    10  H    0.074278
    11  H    0.094956
    12  H    0.081851
    13  H    0.054147
    14  H    0.112692
    15  H    0.113282
    16  H    0.113564
    17  H    0.094684
    18  H    0.081699
 Sum of Mulliken charges =  -0.00000
 Mulliken charges with hydrogens summed into heavy atoms:
               1
     1  C   -0.080857
     2  C    0.140816
     3  C   -0.050954
     4  C    0.095356
     5  C   -0.053751
     6  C   -0.050610
 Electronic spatial extent (au):  <R**2>=            675.3829
 Charge=             -0.0000 electrons
 Dipole moment (field-independent basis, Debye):
    X=             -0.0575    Y=              0.0013    Z=             -0.0355  Tot=              0.0675
 Quadrupole moment (field-independent basis, Debye-Ang):
   XX=            -40.6221   YY=            -40.0894   ZZ=            -38.9099
   XY=              0.0090   XZ=              0.1716   YZ=             -0.0110
 Traceless Quadrupole moment (field-independent basis, Debye-Ang):
   XX=             -0.7483   YY=             -0.2156   ZZ=              0.9639
   XY=              0.0090   XZ=              0.1716   YZ=             -0.0110
 Octapole moment (field-independent basis, Debye-Ang**2):
  XXX=             -3.0202  YYY=              0.1653  ZZZ=              0.4773  XYY=             -0.3595
  XXY=              0.0033  XXZ=              0.7017  XZZ=              1.4632  YZZ=             -0.1732
  YYZ=             -0.6173  XYZ=              0.0184
 Hexadecapole moment (field-independent basis, Debye-Ang**3):
 XXXX=           -636.8286 YYYY=           -180.0990 ZZZZ=           -127.0941 XXXY=              0.0389
 XXXZ=             -2.6398 YYYX=              0.5318 YYYZ=             -0.0525 ZZZX=              0.6711
 ZZZY=              0.0667 XXYY=           -130.0742 XXZZ=           -126.3306 YYZZ=            -51.3498
 XXYZ=              0.0946 YYXZ=             -0.1518 ZZXY=             -0.5116
 N-N= 2.503641939245D+02 E-N=-1.045666996391D+03  KE= 2.337528770045D+02
 PrsmSu:  requested number of processors reduced to:  13 ShMem   1 Linda.
 Calling FoFJK, ICntrl=      2127 FMM=F ISym2X=0 I1Cent= 0 IOpClX= 0 NMat=1 NMatS=1 NMatT=0.
 ***** Axes restored to original set *****
 -------------------------------------------------------------------
 Center     Atomic                   Forces (Hartrees/Bohr)
 Number     Number              X              Y              Z
 -------------------------------------------------------------------
      1        6          -0.002909200    0.000016899   -0.007862406
      2        6          -0.018149875   -0.000053456    0.018657317
      3        6           0.012976745    0.008578154   -0.017558833
      4        6          -0.003483689    0.000311586    0.022690823
      5        6          -0.001418946   -0.000240003    0.000528256
      6        6           0.012414641   -0.008641202   -0.017118111
      7        1          -0.002959651    0.000616039    0.000230972
      8        1           0.000523158   -0.000524028    0.000709589
      9        1          -0.002407593   -0.000414239   -0.000742824
     10        1           0.001129223    0.000270085    0.005213059
     11        1          -0.000845653   -0.004238032   -0.002848804
     12        1           0.000395225    0.003130805    0.001502051
     13        1           0.003592519    0.000194336   -0.001783017
     14        1           0.000106169   -0.000023778   -0.000023412
     15        1           0.000744171   -0.000367025   -0.000461282
     16        1           0.000661771    0.000316472   -0.000445919
     17        1          -0.000433002    0.004151092   -0.002293862
     18        1           0.000063986   -0.003083705    0.001606403
 -------------------------------------------------------------------
 Cartesian Forces:  Max     0.022690823 RMS     0.006785351

 GradGradGradGradGradGradGradGradGradGradGradGradGradGradGradGradGradGrad
 Berny optimization.
 FormGI is forming the generalized inverse of G from B-inverse, IUseBI=4.
 Internal  Forces:  Max     0.007830686 RMS     0.002668671
 Search for a local minimum.
 Step number   1 out of a maximum of  108
 All quantities printed in internal units (Hartrees-Bohrs-Radians)
 Mixed Optimization -- RFO/linear search
 Second derivative matrix not updated -- first step.
 ITU=  0
     Eigenvalues ---    0.00384   0.00471   0.00580   0.02256   0.02587
     Eigenvalues ---    0.02717   0.03294   0.03977   0.04593   0.04600
     Eigenvalues ---    0.05000   0.05491   0.05611   0.05646   0.05677
     Eigenvalues ---    0.05757   0.06162   0.06354   0.06652   0.07522
     Eigenvalues ---    0.07796   0.09646   0.10257   0.16000   0.16000
     Eigenvalues ---    0.16000   0.16000   0.16000   0.16000   0.18507
     Eigenvalues ---    0.23324   0.25060   0.26049   0.27533   0.30146
     Eigenvalues ---    0.30946   0.33801   0.33954   0.34006   0.34040
     Eigenvalues ---    0.34215   0.34270   0.34284   0.34297   0.34305
     Eigenvalues ---    0.34328   0.34362   0.34394
 RFO step:  Lambda=-9.65945434D-03 EMin= 3.84227261D-03
 Linear search not attempted -- first point.
 Iteration  1 RMS(Cart)=  0.07582484 RMS(Int)=  0.00200150
 Iteration  2 RMS(Cart)=  0.00281116 RMS(Int)=  0.00112419
 Iteration  3 RMS(Cart)=  0.00000127 RMS(Int)=  0.00112419
 Iteration  4 RMS(Cart)=  0.00000000 RMS(Int)=  0.00112419
 Variable       Old X    -DE/DX   Delta X   Delta X   Delta X     New X
                                 (Linear)    (Quad)   (Total)
    R1        2.86115   0.00783   0.00000   0.02454   0.02454   2.88569
    R2        2.06876   0.00133   0.00000   0.00378   0.00378   2.07254
    R3        2.06780   0.00038   0.00000   0.00108   0.00108   2.06889
    R4        2.06854   0.00146   0.00000   0.00414   0.00414   2.07269
    R5        2.93319   0.00442   0.00000   0.01057   0.01113   2.94431
    R6        2.93091   0.00462   0.00000   0.01200   0.01260   2.94351
    R7        2.07668  -0.00447   0.00000  -0.01287  -0.01287   2.06381
    R8        2.93143   0.00360   0.00000   0.01766   0.01710   2.94853
    R9        2.07319  -0.00300   0.00000  -0.00858  -0.00858   2.06461
   R10        2.06670   0.00199   0.00000   0.00563   0.00563   2.07233
   R11        2.87673   0.00031   0.00000   0.00101   0.00101   2.87774
   R12        2.93140   0.00384   0.00000   0.01758   0.01699   2.94839
   R13        2.07409  -0.00070   0.00000  -0.00201  -0.00201   2.07208
   R14        2.06969  -0.00000   0.00000  -0.00001  -0.00001   2.06968
   R15        2.06818   0.00063   0.00000   0.00179   0.00179   2.06997
   R16        2.06831   0.00055   0.00000   0.00156   0.00156   2.06987
   R17        2.07262  -0.00272   0.00000  -0.00777  -0.00777   2.06485
   R18        2.06723   0.00182   0.00000   0.00516   0.00516   2.07239
    A1        1.92787   0.00371   0.00000   0.02374   0.02362   1.95150
    A2        1.94956  -0.00236   0.00000  -0.01667  -0.01657   1.93299
    A3        1.92921   0.00258   0.00000   0.01606   0.01591   1.94512
    A4        1.88639  -0.00099   0.00000  -0.00744  -0.00732   1.87907
    A5        1.88262  -0.00247   0.00000  -0.00915  -0.00949   1.87314
    A6        1.88611  -0.00066   0.00000  -0.00748  -0.00741   1.87871
    A7        2.03961   0.00437   0.00000   0.04481   0.04447   2.08408
    A8        2.03878   0.00376   0.00000   0.03858   0.03796   2.07673
    A9        1.92408  -0.00056   0.00000  -0.01047  -0.01008   1.91400
   A10        1.51431  -0.00070   0.00000   0.02609   0.02155   1.53586
   A11        1.96289  -0.00386   0.00000  -0.05316  -0.05248   1.91041
   A12        1.95440  -0.00330   0.00000  -0.04357  -0.04284   1.91156
   A13        1.52815   0.00345   0.00000   0.03793   0.03221   1.56036
   A14        1.99186  -0.00550   0.00000  -0.06638  -0.06526   1.92660
   A15        2.02519   0.00273   0.00000   0.04216   0.04265   2.06784
   A16        1.97324  -0.00314   0.00000  -0.03336  -0.03185   1.94139
   A17        2.03336   0.00118   0.00000   0.02442   0.02395   2.05731
   A18        1.89426   0.00112   0.00000  -0.00255  -0.00263   1.89163
   A19        2.02373  -0.00171   0.00000  -0.02593  -0.02461   1.99912
   A20        1.51472  -0.00019   0.00000   0.02201   0.01816   1.53288
   A21        1.97831   0.00282   0.00000   0.03056   0.03056   2.00887
   A22        2.02779  -0.00197   0.00000  -0.02946  -0.02822   1.99956
   A23        1.91740  -0.00136   0.00000  -0.01965  -0.02019   1.89721
   A24        1.97551   0.00295   0.00000   0.03316   0.03323   2.00874
   A25        1.95809  -0.00023   0.00000  -0.00221  -0.00221   1.95588
   A26        1.92856   0.00087   0.00000   0.00555   0.00554   1.93410
   A27        1.92766   0.00079   0.00000   0.00504   0.00503   1.93269
   A28        1.88150  -0.00046   0.00000  -0.00345  -0.00345   1.87806
   A29        1.88111  -0.00042   0.00000  -0.00325  -0.00325   1.87786
   A30        1.88445  -0.00063   0.00000  -0.00208  -0.00211   1.88234
   A31        1.52890   0.00331   0.00000   0.03752   0.03178   1.56068
   A32        1.99080  -0.00535   0.00000  -0.06262  -0.06143   1.92937
   A33        2.02133   0.00287   0.00000   0.04202   0.04238   2.06371
   A34        1.97799  -0.00310   0.00000  -0.03736  -0.03597   1.94202
   A35        2.03177   0.00113   0.00000   0.02610   0.02570   2.05747
   A36        1.89522   0.00103   0.00000  -0.00308  -0.00312   1.89210
    D1        1.35969  -0.00285   0.00000  -0.07341  -0.07322   1.28646
    D2        3.11663   0.00121   0.00000   0.01076   0.01034   3.12698
    D3       -0.90990  -0.00070   0.00000  -0.02724  -0.02735  -0.93726
    D4       -0.74052  -0.00255   0.00000  -0.06904  -0.06872  -0.80924
    D5        1.01643   0.00151   0.00000   0.01513   0.01485   1.03127
    D6       -3.01011  -0.00041   0.00000  -0.02286  -0.02285  -3.03296
    D7       -2.84128  -0.00191   0.00000  -0.05938  -0.05897  -2.90024
    D8       -1.08433   0.00215   0.00000   0.02479   0.02460  -1.05973
    D9        1.17232   0.00024   0.00000  -0.01320  -0.01310   1.15922
   D10        2.50572  -0.00150   0.00000  -0.06433  -0.06461   2.44111
   D11        0.51200   0.00120   0.00000  -0.03504  -0.03419   0.47781
   D12       -1.71028   0.00226   0.00000  -0.00734  -0.00677  -1.71705
   D13        0.43677  -0.00632   0.00000  -0.13203  -0.13327   0.30349
   D14       -1.55696  -0.00362   0.00000  -0.10275  -0.10286  -1.65981
   D15        2.50395  -0.00256   0.00000  -0.07505  -0.07543   2.42851
   D16       -1.52627  -0.00201   0.00000  -0.08987  -0.09041  -1.61668
   D17        2.76319   0.00069   0.00000  -0.06059  -0.05999   2.70319
   D18        0.54090   0.00176   0.00000  -0.03289  -0.03257   0.50834
   D19       -2.50649   0.00097   0.00000   0.05855   0.05895  -2.44754
   D20       -0.50732  -0.00175   0.00000   0.02502   0.02429  -0.48303
   D21        1.71176  -0.00266   0.00000   0.00031  -0.00018   1.71158
   D22       -0.43676   0.00636   0.00000   0.13199   0.13325  -0.30351
   D23        1.56241   0.00364   0.00000   0.09847   0.09859   1.66100
   D24       -2.50170   0.00273   0.00000   0.07375   0.07412  -2.42758
   D25        1.53457   0.00152   0.00000   0.08042   0.08098   1.61555
   D26       -2.74945  -0.00120   0.00000   0.04689   0.04632  -2.70313
   D27       -0.53038  -0.00211   0.00000   0.02218   0.02186  -0.50852
   D28        1.61683   0.00356   0.00000   0.10601   0.10661   1.72344
   D29       -0.43668   0.00621   0.00000   0.13278   0.13367  -0.30301
   D30       -2.42480   0.00269   0.00000   0.08259   0.08326  -2.34154
   D31       -2.65499  -0.00140   0.00000   0.04512   0.04470  -2.61029
   D32        1.57469   0.00125   0.00000   0.07189   0.07176   1.64645
   D33       -0.41343  -0.00227   0.00000   0.02170   0.02135  -0.39208
   D34       -0.44284  -0.00167   0.00000   0.03216   0.03224  -0.41060
   D35       -2.49635   0.00098   0.00000   0.05893   0.05930  -2.43705
   D36        1.79872  -0.00254   0.00000   0.00873   0.00889   1.80761
   D37       -0.86798   0.00119   0.00000   0.00176   0.00300  -0.86498
   D38       -2.96816   0.00133   0.00000   0.00380   0.00505  -2.96311
   D39        1.23108   0.00105   0.00000  -0.00037   0.00086   1.23193
   D40        0.87348  -0.00119   0.00000  -0.00275  -0.00403   0.86945
   D41       -1.22670  -0.00105   0.00000  -0.00071  -0.00198  -1.22868
   D42        2.97254  -0.00133   0.00000  -0.00489  -0.00617   2.96636
   D43       -3.13904  -0.00002   0.00000  -0.00026  -0.00022  -3.13926
   D44        1.04396   0.00012   0.00000   0.00178   0.00183   1.04579
   D45       -1.03999  -0.00016   0.00000  -0.00239  -0.00236  -1.04235
   D46        0.43703  -0.00624   0.00000  -0.13311  -0.13393   0.30309
   D47       -1.57426  -0.00138   0.00000  -0.07549  -0.07533  -1.64959
   D48        2.49236  -0.00095   0.00000  -0.05952  -0.05984   2.43252
   D49       -1.61268  -0.00383   0.00000  -0.10968  -0.11026  -1.72294
   D50        2.65922   0.00103   0.00000  -0.05206  -0.05166   2.60756
   D51        0.44266   0.00146   0.00000  -0.03609  -0.03617   0.40649
   D52        2.42786  -0.00286   0.00000  -0.08554  -0.08611   2.34175
   D53        0.41657   0.00201   0.00000  -0.02792  -0.02751   0.38906
   D54       -1.79999   0.00243   0.00000  -0.01195  -0.01202  -1.81201
         Item               Value     Threshold  Converged?
 Maximum Force            0.007831     0.000450     NO 
 RMS     Force            0.002669     0.000300     NO 
 Maximum Displacement     0.208813     0.001800     NO 
 RMS     Displacement     0.075295     0.001200     NO 
 Predicted change in Energy=-6.236793D-03
 GradGradGradGradGradGradGradGradGradGradGradGradGradGradGradGradGradGrad

                          Input orientation:                          
 ---------------------------------------------------------------------
 Center     Atomic      Atomic             Coordinates (Angstroms)
 Number     Number       Type             X           Y           Z
 ---------------------------------------------------------------------
      1          6           0        0.874392   -0.058640   -0.017496
      2          6           0        2.401090   -0.054824   -0.049739
      3          6           0        3.180491    1.032378    0.749066
      4          6           0        4.223464   -0.048680    1.171025
      5          6           0        5.497862   -0.057445    0.337440
      6          6           0        3.176058   -1.131865    0.766130
      7          1           0        0.452051    0.755644   -0.618669
      8          1           0        0.507731    0.060301    1.007207
      9          1           0        0.467336   -0.998802   -0.409173
     10          1           0        2.746824   -0.062919   -1.085660
     11          1           0        2.592248    1.370236    1.605499
     12          1           0        3.546148    1.915089    0.210814
     13          1           0        4.497784   -0.040982    2.232624
     14          1           0        5.286522   -0.062993   -0.737189
     15          1           0        6.102931   -0.942841    0.560664
     16          1           0        6.106739    0.827766    0.550550
     17          1           0        2.588174   -1.456521    1.628059
     18          1           0        3.537286   -2.022513    0.237997
 ---------------------------------------------------------------------
                    Distance matrix (angstroms):
                    1          2          3          4          5
     1  C    0.000000
     2  C    1.527043   0.000000
     3  C    2.663837   1.558064   0.000000
     4  C    3.553725   2.193479   1.560297   0.000000
     5  C    4.637074   3.120884   2.593715   1.522837   0.000000
     6  C    2.657734   1.557638   2.164315   1.560221   2.594018
     7  H    1.096741   2.186159   3.064582   4.251293   5.199564
     8  H    1.094807   2.171450   2.855734   3.720938   5.036255
     9  H    1.096818   2.181672   3.581678   4.184286   5.172019
    10  H    2.155688   1.092121   2.180357   2.696904   3.097331
    11  H    2.761671   2.192522   1.092546   2.205211   3.476901
    12  H    3.329566   2.293383   1.096631   2.288482   2.777790
    13  H    4.265245   3.099274   2.255728   1.096496   2.142930
    14  H    4.470444   2.966206   2.800742   2.184394   1.095228
    15  H    5.334200   3.855489   3.532370   2.168977   1.095383
    16  H    5.337214   3.856313   2.940103   2.167919   1.095329
    17  H    2.756623   2.194257   2.705196   2.205690   3.476981
    18  H    3.318595   2.290313   3.117827   2.288536   2.777632
                    6          7          8          9         10
     6  C    0.000000
     7  H    3.591737   0.000000
     8  H    2.932465   1.769201   0.000000
     9  H    2.955710   1.766976   1.769028   0.000000
    10  H    2.180829   2.480747   3.067378   2.555304   0.000000
    11  H    2.702940   3.147235   2.533593   3.766497   3.052894
    12  H    3.119179   3.406727   3.647802   4.284184   2.496454
    13  H    2.255568   5.013226   4.175216   4.913352   3.751979
    14  H    2.802947   4.904725   5.088710   4.920152   2.563494
    15  H    2.940158   6.017318   5.701926   5.718710   3.840325
    16  H    3.532070   5.774753   5.669783   6.005022   3.841814
    17  H    1.092672   3.808475   2.648481   2.976202   3.054761
    18  H    1.096660   4.239187   3.756062   3.300213   2.493372
                   11         12         13         14         15
    11  H    0.000000
    12  H    1.775369   0.000000
    13  H    2.452732   2.969771   0.000000
    14  H    3.847265   2.800076   3.072846   0.000000
    15  H    4.332078   3.850624   2.487025   1.767789   0.000000
    16  H    3.709292   2.802557   2.484518   1.767620   1.770640
    17  H    2.826850   3.780748   2.452725   3.849338   3.709004
    18  H    3.778082   3.937706   2.971120   2.801880   2.802202
                   16         17         18
    16  H    0.000000
    17  H    4.331200   0.000000
    18  H    3.850178   1.775791   0.000000
 Stoichiometry    C6H12
 Framework group  C1[X(C6H12)]
 Deg. of freedom    48
 Full point group                 C1      NOp   1
 Largest Abelian subgroup         C1      NOp   1
 Largest concise Abelian subgroup C1      NOp   1
                         Standard orientation:                         
 ---------------------------------------------------------------------
 Center     Atomic      Atomic             Coordinates (Angstroms)
 Number     Number       Type             X           Y           Z
 ---------------------------------------------------------------------
      1          6           0        2.392213    0.001040   -0.153215
      2          6           0        0.885953   -0.002695   -0.404264
      3          6           0       -0.001374   -1.084032    0.281976
      4          6           0       -1.092795    0.000210    0.542254
      5          6           0       -2.234321    0.003308   -0.465685
      6          6           0        0.003208    1.080277    0.284337
      7          1           0        2.895484   -0.817583   -0.681811
      8          1           0        2.607834   -0.110688    0.914319
      9          1           0        2.852428    0.938311   -0.488976
     10          1           0        0.692518   -0.001894   -1.479118
     11          1           0        0.457422   -1.415914    1.216330
     12          1           0       -0.287054   -1.970473   -0.296996
     13          1           0       -1.516678    0.000114    1.553504
     14          1           0       -1.870898    0.001174   -1.498857
     15          1           0       -2.864084    0.890392   -0.337843
     16          1           0       -2.868565   -0.880242   -0.335995
     17          1           0        0.461668    1.410932    1.219437
     18          1           0       -0.277376    1.967221   -0.296409
 ---------------------------------------------------------------------
 Rotational constants (GHZ):           7.7478782           2.2821315           2.0847194
 Standard basis: 6-31G(2df,p) (6D, 7F)
 There are   246 symmetry adapted cartesian basis functions of A   symmetry.
 There are   228 symmetry adapted basis functions of A   symmetry.
   228 basis functions,   348 primitive gaussians,   246 cartesian basis functions
    24 alpha electrons       24 beta electrons
       nuclear repulsion energy       248.5766994130 Hartrees.
 NAtoms=   18 NActive=   18 NUniq=   18 SFac= 1.00D+00 NAtFMM=   60 NAOKFM=F Big=F
 Integral buffers will be    131072 words long.
 Raffenetti 2 integral format.
 Two-electron integral symmetry is turned on.
 One-electron integrals computed using PRISM.
 PrsmSu:  requested number of processors reduced to:  13 ShMem   1 Linda.
 NBasis=   228 RedAO= T EigKep=  4.79D-04  NBF=   228
 NBsUse=   228 1.00D-06 EigRej= -1.00D+00 NBFU=   228
 Initial guess from the checkpoint file:  "CC1CCqCrC1.chk"
 B after Tr=    -0.000000    0.000000   -0.000000
         Rot=    0.999999    0.000007    0.001389    0.000055 Ang=   0.16 deg.
 ExpMin= 1.61D-01 ExpMax= 3.05D+03 ExpMxC= 4.57D+02 IAcc=2 IRadAn=         4 AccDes= 0.00D+00
 Harris functional with IExCor=  402 and IRadAn=       4 diagonalized for initial guess.
 HarFok:  IExCor=  402 AccDes= 0.00D+00 IRadAn=         4 IDoV= 1 UseB2=F ITyADJ=14
 ICtDFT=  3500011 ScaDFX=  1.000000  1.000000  1.000000  1.000000
 FoFCou: FMM=F IPFlag=           0 FMFlag=      100000 FMFlg1=           0
         NFxFlg=           0 DoJE=T BraDBF=F KetDBF=T FulRan=T
         wScrn=  0.000000 ICntrl=       500 IOpCl=  0 I1Cent=   200000004 NGrid=           0
         NMat0=    1 NMatS0=      1 NMatT0=    0 NMatD0=    1 NMtDS0=    0 NMtDT0=    0
 Petite list used in FoFCou.
 Requested convergence on RMS density matrix=1.00D-08 within 128 cycles.
 Requested convergence on MAX density matrix=1.00D-06.
 Requested convergence on             energy=1.00D-06.
 No special actions if energy rises.
 Integral accuracy reduced to 1.0D-05 until final iterations.
 Initial convergence to 1.0D-05 achieved.  Increase integral accuracy.
 SCF Done:  E(RB3LYP) =  -235.864479411     A.U. after   10 cycles
            NFock= 10  Conv=0.39D-08     -V/T= 2.0094
 PrsmSu:  requested number of processors reduced to:  13 ShMem   1 Linda.
 Calling FoFJK, ICntrl=      2127 FMM=F ISym2X=0 I1Cent= 0 IOpClX= 0 NMat=1 NMatS=1 NMatT=0.
 ***** Axes restored to original set *****
 -------------------------------------------------------------------
 Center     Atomic                   Forces (Hartrees/Bohr)
 Number     Number              X              Y              Z
 -------------------------------------------------------------------
      1        6           0.002723645    0.000182203   -0.000698284
      2        6           0.000278034   -0.000257857    0.001045571
      3        6          -0.000214759   -0.000406538   -0.000159230
      4        6          -0.002445276    0.000025209   -0.000345810
      5        6           0.001209988    0.000044489   -0.000061136
      6        6          -0.000153123    0.000729143   -0.000055548
      7        1           0.000796078    0.000134852    0.000657220
      8        1          -0.000503732   -0.000356764    0.000901564
      9        1           0.000747451    0.000243561   -0.000063093
     10        1          -0.000039072   -0.000402578   -0.002378874
     11        1          -0.000496840    0.001470164    0.001463067
     12        1          -0.000235285   -0.001787248    0.000122321
     13        1          -0.001481394    0.000015452   -0.001030809
     14        1          -0.000466864   -0.000021568   -0.000400815
     15        1           0.000483441   -0.000127166   -0.000276163
     16        1           0.000569524    0.000134457   -0.000334859
     17        1          -0.000545927   -0.001333425    0.001391032
     18        1          -0.000225889    0.001713614    0.000223846
 -------------------------------------------------------------------
 Cartesian Forces:  Max     0.002723645 RMS     0.000918350

 GradGradGradGradGradGradGradGradGradGradGradGradGradGradGradGradGradGrad
 Berny optimization.
 Using GEDIIS/GDIIS optimizer.
 FormGI is forming the generalized inverse of G from B-inverse, IUseBI=4.
 Internal  Forces:  Max     0.003747099 RMS     0.000760042
 Search for a local minimum.
 Step number   2 out of a maximum of  108
 All quantities printed in internal units (Hartrees-Bohrs-Radians)
 Mixed Optimization -- En-DIIS/RFO-DIIS
 Update second derivatives using D2CorX and points    1    2
 DE= -4.20D-03 DEPred=-6.24D-03 R= 6.73D-01
 TightC=F SS=  1.41D+00  RLast= 4.98D-01 DXNew= 5.0454D-01 1.4934D+00
 Trust test= 6.73D-01 RLast= 4.98D-01 DXMaxT set to 5.05D-01
 ITU=  1  0
 Use linear search instead of GDIIS.
     Eigenvalues ---    0.00408   0.00471   0.00579   0.02178   0.02522
     Eigenvalues ---    0.02814   0.03349   0.04183   0.04652   0.04870
     Eigenvalues ---    0.04917   0.05488   0.05556   0.05603   0.05650
     Eigenvalues ---    0.05796   0.06070   0.06259   0.06632   0.07759
     Eigenvalues ---    0.07996   0.09890   0.10678   0.15908   0.16000
     Eigenvalues ---    0.16000   0.16000   0.16000   0.16137   0.18818
     Eigenvalues ---    0.23715   0.25440   0.26832   0.27664   0.30145
     Eigenvalues ---    0.31380   0.33840   0.33940   0.34024   0.34173
     Eigenvalues ---    0.34221   0.34271   0.34278   0.34299   0.34305
     Eigenvalues ---    0.34329   0.34379   0.34870
 RFO step:  Lambda=-3.24526688D-04 EMin= 4.07515742D-03
 Quartic linear search produced a step of -0.09254.
 Iteration  1 RMS(Cart)=  0.01715089 RMS(Int)=  0.00024576
 Iteration  2 RMS(Cart)=  0.00024222 RMS(Int)=  0.00010116
 Iteration  3 RMS(Cart)=  0.00000006 RMS(Int)=  0.00010116
 Variable       Old X    -DE/DX   Delta X   Delta X   Delta X     New X
                                 (Linear)    (Quad)   (Total)
    R1        2.88569  -0.00375  -0.00227  -0.00964  -0.01191   2.87378
    R2        2.07254  -0.00057  -0.00035  -0.00129  -0.00164   2.07090
    R3        2.06889   0.00097  -0.00010   0.00263   0.00253   2.07141
    R4        2.07269  -0.00046  -0.00038  -0.00100  -0.00138   2.07130
    R5        2.94431  -0.00112  -0.00103  -0.00311  -0.00418   2.94013
    R6        2.94351  -0.00123  -0.00117  -0.00351  -0.00473   2.93878
    R7        2.06381   0.00225   0.00119   0.00533   0.00652   2.07033
    R8        2.94853  -0.00142  -0.00158  -0.00364  -0.00518   2.94336
    R9        2.06461   0.00187   0.00079   0.00452   0.00531   2.06992
   R10        2.07233  -0.00158  -0.00052  -0.00385  -0.00437   2.06796
   R11        2.87774   0.00209  -0.00009   0.00633   0.00624   2.88399
   R12        2.94839  -0.00130  -0.00157  -0.00326  -0.00478   2.94361
   R13        2.07208  -0.00137   0.00019  -0.00376  -0.00358   2.06850
   R14        2.06968   0.00048   0.00000   0.00128   0.00128   2.07096
   R15        2.06997   0.00031  -0.00017   0.00093   0.00076   2.07073
   R16        2.06987   0.00036  -0.00014   0.00104   0.00089   2.07076
   R17        2.06485   0.00179   0.00072   0.00434   0.00506   2.06991
   R18        2.07239  -0.00157  -0.00048  -0.00387  -0.00435   2.06804
    A1        1.95150  -0.00076  -0.00219  -0.00291  -0.00510   1.94640
    A2        1.93299   0.00054   0.00153   0.00223   0.00376   1.93675
    A3        1.94512  -0.00079  -0.00147  -0.00377  -0.00524   1.93988
    A4        1.87907   0.00016   0.00068   0.00080   0.00147   1.88054
    A5        1.87314   0.00081   0.00088   0.00384   0.00473   1.87787
    A6        1.87871   0.00012   0.00069   0.00009   0.00078   1.87949
    A7        2.08408  -0.00051  -0.00412  -0.00168  -0.00577   2.07831
    A8        2.07673  -0.00048  -0.00351  -0.00160  -0.00506   2.07167
    A9        1.91400   0.00002   0.00093  -0.00357  -0.00265   1.91135
   A10        1.53586   0.00059  -0.00199   0.00633   0.00475   1.54061
   A11        1.91041   0.00027   0.00486   0.00082   0.00559   1.91599
   A12        1.91156   0.00026   0.00396   0.00169   0.00556   1.91712
   A13        1.56036  -0.00082  -0.00298  -0.00022  -0.00271   1.55765
   A14        1.92660   0.00099   0.00604   0.00726   0.01320   1.93980
   A15        2.06784  -0.00032  -0.00395  -0.00516  -0.00921   2.05863
   A16        1.94139   0.00044   0.00295   0.00289   0.00569   1.94708
   A17        2.05731   0.00002  -0.00222  -0.00424  -0.00649   2.05083
   A18        1.89163  -0.00025   0.00024   0.00025   0.00054   1.89217
   A19        1.99912  -0.00034   0.00228  -0.00310  -0.00094   1.99818
   A20        1.53288   0.00071  -0.00168   0.00640   0.00508   1.53796
   A21        2.00887  -0.00048  -0.00283  -0.00321  -0.00605   2.00282
   A22        1.99956  -0.00043   0.00261  -0.00366  -0.00115   1.99841
   A23        1.89721   0.00080   0.00187   0.00530   0.00722   1.90442
   A24        2.00874  -0.00041  -0.00308  -0.00257  -0.00565   2.00309
   A25        1.95588  -0.00086   0.00020  -0.00604  -0.00583   1.95006
   A26        1.93410   0.00067  -0.00051   0.00452   0.00400   1.93811
   A27        1.93269   0.00084  -0.00047   0.00565   0.00518   1.93786
   A28        1.87806  -0.00005   0.00032  -0.00163  -0.00130   1.87675
   A29        1.87786  -0.00009   0.00030  -0.00150  -0.00119   1.87668
   A30        1.88234  -0.00055   0.00019  -0.00122  -0.00105   1.88130
   A31        1.56068  -0.00082  -0.00294  -0.00022  -0.00266   1.55802
   A32        1.92937   0.00091   0.00568   0.00588   0.01146   1.94083
   A33        2.06371  -0.00024  -0.00392  -0.00370  -0.00770   2.05601
   A34        1.94202   0.00044   0.00333   0.00233   0.00553   1.94755
   A35        2.05747   0.00003  -0.00238  -0.00364  -0.00604   2.05143
   A36        1.89210  -0.00025   0.00029  -0.00001   0.00032   1.89241
    D1        1.28646  -0.00027   0.00678  -0.04505  -0.03830   1.24816
    D2        3.12698  -0.00019  -0.00096  -0.03884  -0.03976   3.08722
    D3       -0.93726  -0.00022   0.00253  -0.04125  -0.03871  -0.97597
    D4       -0.80924  -0.00033   0.00636  -0.04564  -0.03931  -0.84856
    D5        1.03127  -0.00025  -0.00137  -0.03943  -0.04076   0.99051
    D6       -3.03296  -0.00028   0.00211  -0.04184  -0.03972  -3.07268
    D7       -2.90024  -0.00031   0.00546  -0.04475  -0.03934  -2.93958
    D8       -1.05973  -0.00024  -0.00228  -0.03854  -0.04079  -1.10052
    D9        1.15922  -0.00026   0.00121  -0.04095  -0.03975   1.11948
   D10        2.44111   0.00018   0.00598  -0.01801  -0.01202   2.42909
   D11        0.47781  -0.00011   0.00316  -0.02207  -0.01899   0.45882
   D12       -1.71705  -0.00041   0.00063  -0.02484  -0.02424  -1.74129
   D13        0.30349   0.00054   0.01233  -0.01966  -0.00723   0.29626
   D14       -1.65981   0.00025   0.00952  -0.02372  -0.01420  -1.67401
   D15        2.42851  -0.00006   0.00698  -0.02649  -0.01944   2.40907
   D16       -1.61668   0.00002   0.00837  -0.02384  -0.01545  -1.63213
   D17        2.70319  -0.00027   0.00555  -0.02789  -0.02241   2.68078
   D18        0.50834  -0.00058   0.00301  -0.03066  -0.02766   0.48067
   D19       -2.44754  -0.00014  -0.00546   0.01817   0.01269  -2.43484
   D20       -0.48303   0.00013  -0.00225   0.02145   0.01927  -0.46375
   D21        1.71158   0.00041   0.00002   0.02378   0.02382   1.73540
   D22       -0.30351  -0.00052  -0.01233   0.01971   0.00727  -0.29624
   D23        1.66100  -0.00025  -0.00912   0.02299   0.01385   1.67485
   D24       -2.42758   0.00003  -0.00686   0.02532   0.01840  -2.40917
   D25        1.61555  -0.00000  -0.00749   0.02304   0.01552   1.63107
   D26       -2.70313   0.00027  -0.00429   0.02632   0.02210  -2.68102
   D27       -0.50852   0.00055  -0.00202   0.02866   0.02665  -0.48187
   D28        1.72344  -0.00073  -0.00987   0.01817   0.00825   1.73169
   D29       -0.30301  -0.00054  -0.01237   0.01967   0.00722  -0.29579
   D30       -2.34154  -0.00035  -0.00770   0.01993   0.01217  -2.32937
   D31       -2.61029   0.00007  -0.00414   0.02635   0.02226  -2.58803
   D32        1.64645   0.00026  -0.00664   0.02785   0.02123   1.66768
   D33       -0.39208   0.00046  -0.00198   0.02811   0.02618  -0.36590
   D34       -0.41060   0.00015  -0.00298   0.02573   0.02272  -0.38788
   D35       -2.43705   0.00034  -0.00549   0.02723   0.02169  -2.41536
   D36        1.80761   0.00054  -0.00082   0.02750   0.02664   1.83425
   D37       -0.86498  -0.00026  -0.00028  -0.00366  -0.00405  -0.86903
   D38       -2.96311  -0.00008  -0.00047  -0.00063  -0.00121  -2.96432
   D39        1.23193  -0.00038  -0.00008  -0.00574  -0.00594   1.22599
   D40        0.86945   0.00020   0.00037   0.00054   0.00103   0.87049
   D41       -1.22868   0.00038   0.00018   0.00357   0.00388  -1.22480
   D42        2.96636   0.00008   0.00057  -0.00154  -0.00085   2.96551
   D43       -3.13926  -0.00002   0.00002  -0.00134  -0.00132  -3.14059
   D44        1.04579   0.00016  -0.00017   0.00169   0.00152   1.04731
   D45       -1.04235  -0.00014   0.00022  -0.00342  -0.00321  -1.04556
   D46        0.30309   0.00055   0.01239  -0.01963  -0.00717   0.29593
   D47       -1.64959  -0.00015   0.00697  -0.02625  -0.01930  -1.66889
   D48        2.43252  -0.00023   0.00554  -0.02527  -0.01969   2.41284
   D49       -1.72294   0.00066   0.01020  -0.01865  -0.00839  -1.73134
   D50        2.60756  -0.00004   0.00478  -0.02527  -0.02053   2.58703
   D51        0.40649  -0.00012   0.00335  -0.02429  -0.02092   0.38557
   D52        2.34175   0.00029   0.00797  -0.02049  -0.01248   2.32927
   D53        0.38906  -0.00041   0.00255  -0.02711  -0.02461   0.36445
   D54       -1.81201  -0.00049   0.00111  -0.02613  -0.02500  -1.83701
         Item               Value     Threshold  Converged?
 Maximum Force            0.003747     0.000450     NO 
 RMS     Force            0.000760     0.000300     NO 
 Maximum Displacement     0.079946     0.001800     NO 
 RMS     Displacement     0.017156     0.001200     NO 
 Predicted change in Energy=-2.249238D-04
 GradGradGradGradGradGradGradGradGradGradGradGradGradGradGradGradGradGrad

                          Input orientation:                          
 ---------------------------------------------------------------------
 Center     Atomic      Atomic             Coordinates (Angstroms)
 Number     Number       Type             X           Y           Z
 ---------------------------------------------------------------------
      1          6           0        0.880560   -0.059594   -0.006892
      2          6           0        2.400625   -0.056860   -0.052042
      3          6           0        3.178624    1.034390    0.738254
      4          6           0        4.213906   -0.046009    1.170590
      5          6           0        5.497575   -0.058150    0.345272
      6          6           0        3.173876   -1.131811    0.763442
      7          1           0        0.459958    0.776905   -0.576363
      8          1           0        0.518627    0.022837    1.024487
      9          1           0        0.474074   -0.985679   -0.429433
     10          1           0        2.735765   -0.069010   -1.095025
     11          1           0        2.594540    1.396322    1.591282
     12          1           0        3.553390    1.900139    0.183675
     13          1           0        4.471771   -0.033990    2.234319
     14          1           0        5.288261   -0.069377   -0.730399
     15          1           0        6.103383   -0.942421    0.572884
     16          1           0        6.107405    0.828140    0.553542
     17          1           0        2.588861   -1.472470    1.624544
     18          1           0        3.543929   -2.010973    0.227014
 ---------------------------------------------------------------------
                    Distance matrix (angstroms):
                    1          2          3          4          5
     1  C    0.000000
     2  C    1.520738   0.000000
     3  C    2.652007   1.555852   0.000000
     4  C    3.535229   2.186992   1.557557   0.000000
     5  C    4.630426   3.122332   2.593378   1.526139   0.000000
     6  C    2.646198   1.555137   2.166353   1.557690   2.593683
     7  H    1.095871   2.176297   3.030786   4.221512   5.188864
     8  H    1.096145   2.169605   2.860202   3.698808   5.025715
     9  H    1.096086   2.171803   3.571941   4.174853   5.166821
    10  H    2.150792   1.095572   2.185069   2.705262   3.114830
    11  H    2.758909   2.202239   1.095357   2.208993   3.477879
    12  H    3.319773   2.283479   1.094317   2.279863   2.764211
    13  H    4.233258   3.085063   2.247637   1.094604   2.149734
    14  H    4.466698   2.966271   2.797465   2.183699   1.095904
    15  H    5.328546   3.858130   3.534026   2.175070   1.095785
    16  H    5.331235   3.858779   2.941839   2.174907   1.095801
    17  H    2.752470   2.202345   2.723541   2.209443   3.478139
    18  H    3.310004   2.281134   3.109509   2.280414   2.764820
                    6          7          8          9         10
     6  C    0.000000
     7  H    3.578216   0.000000
     8  H    2.907182   1.770531   0.000000
     9  H    2.955205   1.768753   1.770020   0.000000
    10  H    2.185265   2.482716   3.068626   2.529533   0.000000
    11  H    2.722574   3.104642   2.552868   3.775393   3.063231
    12  H    3.110126   3.377667   3.666200   4.264508   2.486188
    13  H    2.247937   4.965091   4.134522   4.897230   3.754926
    14  H    2.798384   4.904328   5.083064   4.909846   2.578409
    15  H    2.941801   6.010416   5.685523   5.718009   3.858188
    16  H    3.534269   5.759598   5.666105   5.999216   3.858835
    17  H    1.095348   3.799461   2.623334   2.987995   3.063875
    18  H    1.094358   4.234213   3.731595   3.302448   2.484378
                   11         12         13         14         15
    11  H    0.000000
    12  H    1.776115   0.000000
    13  H    2.446075   2.964695   0.000000
    14  H    3.846377   2.779263   3.075298   0.000000
    15  H    4.338068   3.838501   2.499554   1.767816   0.000000
    16  H    3.706745   2.794454   2.498715   1.767778   1.770671
    17  H    2.868990   3.792217   2.446712   3.847231   3.706589
    18  H    3.791072   3.911363   2.966247   2.780131   2.795037
                   16         17         18
    16  H    0.000000
    17  H    4.338202   0.000000
    18  H    3.839087   1.776296   0.000000
 Stoichiometry    C6H12
 Framework group  C1[X(C6H12)]
 Deg. of freedom    48
 Full point group                 C1      NOp   1
 Largest Abelian subgroup         C1      NOp   1
 Largest concise Abelian subgroup C1      NOp   1
                         Standard orientation:                         
 ---------------------------------------------------------------------
 Center     Atomic      Atomic             Coordinates (Angstroms)
 Number     Number       Type             X           Y           Z
 ---------------------------------------------------------------------
      1          6           0        2.383607    0.000853   -0.146761
      2          6           0        0.885456   -0.002386   -0.407873
      3          6           0        0.001177   -1.084989    0.275280
      4          6           0       -1.083453    0.000035    0.544139
      5          6           0       -2.236505    0.003193   -0.455642
      6          6           0        0.005623    1.081357    0.277579
      7          1           0        2.879722   -0.841783   -0.641503
      8          1           0        2.594868   -0.070361    0.926473
      9          1           0        2.847541    0.922293   -0.517053
     10          1           0        0.702260   -0.001575   -1.488019
     11          1           0        0.457291   -1.437624    1.206631
     12          1           0       -0.292136   -1.956718   -0.317667
     13          1           0       -1.490172   -0.000425    1.560376
     14          1           0       -1.876143    0.002731   -1.490604
     15          1           0       -2.867189    0.889880   -0.326143
     16          1           0       -2.871140   -0.880787   -0.326809
     17          1           0        0.462589    1.431360    1.209495
     18          1           0       -0.282925    1.954633   -0.315504
 ---------------------------------------------------------------------
 Rotational constants (GHZ):           7.7608964           2.2925559           2.0912056
 Standard basis: 6-31G(2df,p) (6D, 7F)
 There are   246 symmetry adapted cartesian basis functions of A   symmetry.
 There are   228 symmetry adapted basis functions of A   symmetry.
   228 basis functions,   348 primitive gaussians,   246 cartesian basis functions
    24 alpha electrons       24 beta electrons
       nuclear repulsion energy       248.8560889638 Hartrees.
 NAtoms=   18 NActive=   18 NUniq=   18 SFac= 1.00D+00 NAtFMM=   60 NAOKFM=F Big=F
 Integral buffers will be    131072 words long.
 Raffenetti 2 integral format.
 Two-electron integral symmetry is turned on.
 One-electron integrals computed using PRISM.
 PrsmSu:  requested number of processors reduced to:  13 ShMem   1 Linda.
 NBasis=   228 RedAO= T EigKep=  4.73D-04  NBF=   228
 NBsUse=   228 1.00D-06 EigRej= -1.00D+00 NBFU=   228
 Initial guess from the checkpoint file:  "CC1CCqCrC1.chk"
 B after Tr=     0.000000   -0.000000    0.000000
         Rot=    0.999999    0.001210   -0.000685    0.000058 Ang=   0.16 deg.
 ExpMin= 1.61D-01 ExpMax= 3.05D+03 ExpMxC= 4.57D+02 IAcc=2 IRadAn=         4 AccDes= 0.00D+00
 Harris functional with IExCor=  402 and IRadAn=       4 diagonalized for initial guess.
 HarFok:  IExCor=  402 AccDes= 0.00D+00 IRadAn=         4 IDoV= 1 UseB2=F ITyADJ=14
 ICtDFT=  3500011 ScaDFX=  1.000000  1.000000  1.000000  1.000000
 FoFCou: FMM=F IPFlag=           0 FMFlag=      100000 FMFlg1=           0
         NFxFlg=           0 DoJE=T BraDBF=F KetDBF=T FulRan=T
         wScrn=  0.000000 ICntrl=       500 IOpCl=  0 I1Cent=   200000004 NGrid=           0
         NMat0=    1 NMatS0=      1 NMatT0=    0 NMatD0=    1 NMtDS0=    0 NMtDT0=    0
 Petite list used in FoFCou.
 Requested convergence on RMS density matrix=1.00D-08 within 128 cycles.
 Requested convergence on MAX density matrix=1.00D-06.
 Requested convergence on             energy=1.00D-06.
 No special actions if energy rises.
 Integral accuracy reduced to 1.0D-05 until final iterations.
 Initial convergence to 1.0D-05 achieved.  Increase integral accuracy.
 SCF Done:  E(RB3LYP) =  -235.864747341     A.U. after    9 cycles
            NFock=  9  Conv=0.43D-08     -V/T= 2.0093
 PrsmSu:  requested number of processors reduced to:  13 ShMem   1 Linda.
 Calling FoFJK, ICntrl=      2127 FMM=F ISym2X=0 I1Cent= 0 IOpClX= 0 NMat=1 NMatS=1 NMatT=0.
 ***** Axes restored to original set *****
 -------------------------------------------------------------------
 Center     Atomic                   Forces (Hartrees/Bohr)
 Number     Number              X              Y              Z
 -------------------------------------------------------------------
      1        6           0.000258918    0.000013508   -0.000392069
      2        6           0.000096916   -0.000000806    0.000046609
      3        6          -0.000362921    0.000135817    0.000406684
      4        6           0.000459110    0.000003481    0.000074108
      5        6           0.000256512    0.000005512    0.000255302
      6        6          -0.000155257    0.000071592    0.000534519
      7        1          -0.000101763    0.000247107    0.000289905
      8        1          -0.000094910   -0.000254338    0.000099674
      9        1          -0.000197026    0.000066121   -0.000165525
     10        1          -0.000155504   -0.000257283   -0.000077033
     11        1           0.000014444    0.000358842   -0.000281951
     12        1           0.000135171   -0.000219565   -0.000133893
     13        1          -0.000141044   -0.000011708   -0.000129357
     14        1          -0.000270885   -0.000007099   -0.000077352
     15        1           0.000046315   -0.000002845   -0.000070129
     16        1           0.000045556   -0.000007835   -0.000083384
     17        1          -0.000005409   -0.000322851   -0.000251710
     18        1           0.000171777    0.000182350   -0.000044399
 -------------------------------------------------------------------
 Cartesian Forces:  Max     0.000534519 RMS     0.000205203

 GradGradGradGradGradGradGradGradGradGradGradGradGradGradGradGradGradGrad
 Berny optimization.
 Using GEDIIS/GDIIS optimizer.
 FormGI is forming the generalized inverse of G from B-inverse, IUseBI=4.
 Internal  Forces:  Max     0.000429228 RMS     0.000122477
 Search for a local minimum.
 Step number   3 out of a maximum of  108
 All quantities printed in internal units (Hartrees-Bohrs-Radians)
 Mixed Optimization -- En-DIIS/RFO-DIIS
 Swapping is turned off.
 Update second derivatives using D2CorX and points    1    2    3
 DE= -2.68D-04 DEPred=-2.25D-04 R= 1.19D+00
 TightC=F SS=  1.41D+00  RLast= 1.70D-01 DXNew= 8.4853D-01 5.0907D-01
 Trust test= 1.19D+00 RLast= 1.70D-01 DXMaxT set to 5.09D-01
 ITU=  1  1  0
     Eigenvalues ---    0.00355   0.00469   0.00473   0.02200   0.02526
     Eigenvalues ---    0.02828   0.03366   0.04189   0.04662   0.04849
     Eigenvalues ---    0.04877   0.05509   0.05519   0.05592   0.05653
     Eigenvalues ---    0.05796   0.05890   0.06262   0.06622   0.07630
     Eigenvalues ---    0.08002   0.09923   0.10694   0.15739   0.15973
     Eigenvalues ---    0.16000   0.16000   0.16000   0.16330   0.18947
     Eigenvalues ---    0.23666   0.25460   0.26864   0.28001   0.30196
     Eigenvalues ---    0.32050   0.33843   0.33892   0.34025   0.34193
     Eigenvalues ---    0.34228   0.34265   0.34278   0.34300   0.34307
     Eigenvalues ---    0.34335   0.34381   0.37659
 En-DIIS/RFO-DIIS/Sim-DIIS IScMMF=       -3 using points:     3    2
 RFO step:  Lambda=-1.17398440D-04.
 DidBck=F Rises=F RFO-DIIS coefs:    1.96063   -0.96063
 Iteration  1 RMS(Cart)=  0.01760749 RMS(Int)=  0.00029163
 Iteration  2 RMS(Cart)=  0.00030653 RMS(Int)=  0.00002080
 Iteration  3 RMS(Cart)=  0.00000009 RMS(Int)=  0.00002079
 Variable       Old X    -DE/DX   Delta X   Delta X   Delta X     New X
                                 (Linear)    (Quad)   (Total)
    R1        2.87378   0.00013  -0.01144   0.00950  -0.00195   2.87183
    R2        2.07090   0.00008  -0.00158   0.00154  -0.00004   2.07086
    R3        2.07141   0.00010   0.00243  -0.00156   0.00087   2.07228
    R4        2.07130   0.00008  -0.00133   0.00135   0.00002   2.07132
    R5        2.94013   0.00014  -0.00401   0.00357  -0.00044   2.93970
    R6        2.93878   0.00025  -0.00454   0.00448  -0.00006   2.93872
[...]
 6,0.0575836,0.0007366,0.0035516,-0.0031097,0.0358611,-0.0030904,-0.156
 0178,-0.0543317,0.0716054,0.0845537,0.0414078,-0.0099088,-0.0306848,0.
 0671645,-0.0744859,-0.0703792,-0.0093423,-0.0785254,0.0185702,-0.05426
 55,-0.1337,0.0491459,0.0140914,0.0963609,-0.0160265,-0.0700999,-0.0006
 665,-0.0390554,-0.001337,0.0107492,-0.0038188,-0.0739434,-0.0037843,-0
 .1910872,0.0296868,-0.0011084,-0.0586495,-0.0001273,0.0436619,-0.00352
 48,-0.0073426,-0.0035749,-0.1436487,-0.0678674,0.0784055,-0.0057681,0.
 1241875,-0.0833637,0.0315952,-0.0029492,0.0385559,0.041692,-0.0682524,
 -0.0785944,-0.0028224,-0.1242365,-0.0854686,-0.0267167,0.0017329,-0.03
 36837,0.0441874,-0.0545595,-0.068229,0.0872974,-0.0387083,-0.005763,0.
 0280357,0.0688437,0.0718802,-0.0743096,-0.0090728,0.0789191,0.01546,0.
 0545053,-0.1393655,-0.0444665,0.0118203,-0.0916694,-0.0106262\Polar=72
 .2597133,0.0263276,61.1830434,1.9642958,-0.0670611,57.7807743\Quadrupo
 le=-0.411611,-0.0979322,0.5095432,-0.0014597,-0.0933097,0.0117913\PG=C
 01 [X(C6H12)]\NImag=0\\0.46863986,0.00021200,0.55985403,0.00467869,0.0
 0005116,0.56200381,-0.19621446,0.00035316,0.01211901,0.52161209,0.0002
 9415,-0.08234670,0.00009135,-0.00046967,0.37644028,0.00923934,0.000097
 72,-0.07677779,-0.01647839,0.00394572,0.58165528,-0.01397614,-0.024001
 15,-0.01445254,-0.08607605,-0.04748844,-0.00863549,0.42676157,-0.00201
 413,0.00156428,0.00031342,-0.03745278,-0.10506553,-0.03556051,0.013524
 73,0.56191023,-0.00185219,0.00476952,-0.00014060,-0.01087083,-0.042424
 33,-0.09551124,-0.11815775,-0.02243474,0.51026107,-0.00226408,-0.00005
 895,-0.00303108,-0.05061619,-0.00061031,-0.03435730,-0.09915488,0.0456
 4322,-0.00798565,0.49899490,-0.00003964,-0.00314220,-0.00001823,-0.000
 88597,-0.00487599,-0.00018436,0.05375155,-0.10038267,0.03298762,0.0006
 6455,0.37197898,-0.00204222,-0.00001862,-0.00422387,-0.04866751,-0.000
 16879,-0.01625939,-0.00967968,0.02496066,-0.08491530,0.04142172,0.0043
 0939,0.59967335,0.00007637,0.00000463,0.00020509,-0.00077849,-0.000019
 47,-0.00093760,-0.01971772,0.00391345,0.00845577,-0.15588153,0.0010836
 7,0.05258427,0.49287385,-0.00000146,0.00082961,-0.00002731,-0.00001352
 ,-0.00230082,0.00005731,0.02386013,-0.00225810,-0.01652125,0.00105259,
 -0.07496675,-0.00082511,0.00092271,0.56498172,-0.00011900,-0.00002726,
 -0.00060708,-0.00062959,0.00005693,0.00064121,-0.00457502,-0.00254681,
 0.00554469,0.05100161,-0.00082410,-0.11545134,0.04485074,-0.00062152,0
 .53470151,-0.01391904,0.02346260,-0.01535503,-0.08590400,0.04708851,-0
 .01037268,0.00001749,0.00315689,-0.00849357,-0.09935016,-0.05408451,-0
 .00766539,-0.01976943,-0.02398122,-0.00365547,0.42668688,0.00197433,0.
 00131628,-0.00034047,0.03697177,-0.10223594,0.03583147,-0.00363495,-0.
 07845732,0.00681796,-0.04591617,-0.10237221,-0.02427198,-0.00355035,-0
 .00146352,0.00282444,-0.01777093,0.56362787,-0.00193573,-0.00482250,0.
 00005657,-0.01221112,0.04270325,-0.09850429,-0.00837424,-0.00352304,0.
 00722117,-0.00629681,-0.03230037,-0.08272455,0.00863078,0.01677390,0.0
 0480579,-0.11751954,0.02064428,0.50860550,-0.08172261,0.07664337,-0.04
 442099,-0.01279959,0.02962111,-0.01693415,0.00146560,-0.00056505,-0.00
 010445,-0.00023614,0.00110705,-0.00058910,0.00003810,-0.00027898,-0.00
 012045,-0.00490493,-0.00156756,0.00258006,0.09035571,0.07686555,-0.213
 47377,0.09683315,-0.00040868,0.00017402,-0.00069317,0.00081870,0.00044
 596,0.00001852,0.00026037,0.00023972,0.00008770,0.00003225,0.00009393,
 0.00008392,-0.00100957,0.00175118,-0.00072744,-0.08584672,0.23034781,-
 0.04438930,0.09689411,-0.10348729,0.00099851,-0.00271109,0.00028950,0.
 00009127,0.00007772,0.00023209,0.00005253,0.00004420,0.00015183,-0.000
 01530,-0.00013879,0.00002592,0.00048025,0.00057295,0.00079842,0.049245
 68,-0.10732737,0.10839749,-0.06895283,0.00137947,0.07211481,-0.0134037
 6,0.00064275,0.03337761,0.00162649,0.00112640,0.00124915,0.00042793,0.
 00000513,0.00029456,-0.00000669,0.00000339,0.00018008,0.00162629,-0.00
 108027,0.00128927,0.00312272,-0.00118295,-0.01168488,0.07826550,0.0014
 0443,-0.04730757,-0.00447741,0.00003467,-0.00106482,-0.00007149,-0.000
 29641,0.00044644,0.00128774,-0.00000503,0.00007559,0.00000699,-0.00000
 251,-0.00011202,-0.00000027,0.00028081,0.00039751,-0.00127925,-0.00843
 720,0.00079813,0.02534031,-0.00158413,0.04639395,0.07347432,-0.0044792
 9,-0.28082056,0.00102992,-0.00003640,-0.00288803,-0.00033920,0.0000640
 7,0.00070269,-0.00025296,0.00000777,0.00046715,-0.00012975,-0.00000008
 ,-0.00011729,-0.00035137,-0.00005165,0.00075448,0.00405427,-0.00110466
 ,-0.01383816,-0.08230208,0.00497307,0.30568504,-0.08208286,-0.07857677
 ,-0.04172397,-0.01285634,-0.03020829,-0.01580175,-0.00489939,0.0016800
 2,0.00251853,-0.00023982,-0.00112741,-0.00054723,0.00003857,0.00027422
 ,-0.00013135,0.00146228,0.00055875,-0.00012632,0.00428072,0.00977179,0
 .00619960,0.00314416,0.00857719,0.00373624,0.09075088,-0.07879626,-0.2
 2024521,-0.09234569,0.00047596,0.00036939,0.00072941,0.00103971,0.0017
 5071,0.00068400,-0.00025775,0.00023701,-0.00008994,-0.00003276,0.00009
 533,-0.00008639,-0.00081744,0.00044044,-0.00002674,-0.00958821,-0.0208
 4001,-0.01207611,0.00073579,-0.00015357,0.00058122,0.08797571,0.237847
 12,-0.04168522,-0.09240970,-0.09637652,0.00099009,0.00270889,0.0001602
 6,0.00044212,-0.00060975,0.00079519,0.00006235,-0.00004714,0.00015729,
 -0.00001381,0.00013599,0.00002387,0.00012216,-0.00008541,0.00023510,0.
 00659170,0.01309774,0.00672911,-0.01177878,-0.02582867,-0.01290669,0.0
 4621931,0.10235217,0.10051628,-0.01282775,0.00065849,0.03384386,-0.068
 49154,0.00135621,0.06957450,0.00353660,-0.00127178,-0.01255393,-0.0000
 1315,0.00001574,0.00087779,-0.00063687,-0.00000412,-0.00027092,0.00352
 257,0.00078039,-0.01253942,0.00143221,0.00041061,-0.00045578,-0.006977
 39,0.00001560,0.00033493,0.00143291,-0.00043030,-0.00043887,0.08006115
 ,0.00001546,0.00033929,-0.00007325,0.00137567,-0.04468892,-0.00459924,
 0.00805598,-0.00297979,-0.02678687,0.00000059,-0.00096756,0.00002059,0
 .00000569,0.00044643,-0.00003128,-0.00790271,-0.00189949,0.02640649,-0
 .00019798,0.00014081,-0.00040267,0.00001070,0.00088054,0.00001583,0.00
 021385,0.00017176,0.00041722,-0.00148324,0.05047646,0.00014272,-0.0000
 3846,-0.00166829,0.07058540,-0.00460024,-0.28121443,0.00414165,-0.0014
 7441,-0.01252016,0.00007866,0.00002143,0.00015592,0.00023998,-0.000031
 72,-0.00120037,0.00444962,0.00106034,-0.01358872,0.00049642,-0.0003702
 1,0.00051641,0.00015516,0.00001525,0.00169927,0.00048925,0.00038247,0.
 00048761,-0.07592513,0.00492940,0.30397160,0.00177079,0.00079368,-0.00
 058062,0.00995642,-0.00673925,-0.01636901,-0.11882461,0.04766366,0.109
 11734,-0.01309742,0.00577866,0.01895417,-0.00165565,0.00462632,-0.0020
 9991,-0.00080349,0.00029065,-0.00016658,0.00000549,0.00015127,-0.00006
 792,0.00021656,0.00008682,0.00051152,0.00030353,0.00012867,0.00008246,
 -0.00141426,-0.00321499,-0.00221892,0.12829807,0.00139804,0.00176017,-
 0.00035026,0.00968521,-0.00601860,-0.01497703,0.04752196,-0.08019283,-
 0.06917292,0.00920621,-0.00546109,-0.01356757,0.00000710,-0.00270324,0
 .00109771,-0.00045416,0.00013315,0.00080421,-0.00039326,0.00008874,0.0
 0000904,-0.00062393,-0.00016127,0.00048341,0.00018139,0.00007554,0.000
 35013,-0.00081845,-0.00278936,-0.00086608,-0.05289394,0.08483948,0.001
 60698,0.00138744,0.00135740,0.00886293,-0.00537572,-0.01647205,0.10961
 476,-0.06884033,-0.20036615,-0.00810361,0.00472942,0.01018577,-0.00109
 744,0.00196328,-0.00028245,-0.00015548,0.00032605,-0.00064288,-0.00028
 409,0.00006482,-0.00020263,-0.00103819,-0.00020006,0.00051979,0.000142
 03,0.00017690,0.00043797,-0.00180714,-0.00350719,-0.00057018,-0.116473
 00,0.07684711,0.21646987,-0.00011217,-0.00209602,-0.00063381,-0.005205
 72,-0.00660514,0.01282167,-0.08494331,-0.07252838,0.05013836,0.0098808
 8,0.01354866,-0.01302580,0.00242943,-0.00076741,-0.00024207,-0.0006126
 5,0.00061446,-0.00074652,-0.00019946,0.00018243,-0.00011860,0.00029430
 ,0.00006323,-0.00017829,-0.00085486,0.00005789,-0.00045357,0.00139310,
 0.00115310,0.00015010,-0.00560905,-0.01334598,0.00901511,0.08338297,0.
 00051902,-0.00133509,-0.00045967,-0.00314439,-0.01087744,0.00993012,-0
 .07241331,-0.19535287,0.10803985,-0.00716409,-0.01086649,0.00709023,-0
 .00143199,0.00175565,0.00076648,0.00116336,-0.00534267,-0.00212364,-0.
 00028403,0.00020121,0.00002129,-0.00010395,-0.00000412,0.00006475,-0.0
 0048756,0.00000052,0.00001838,0.00010403,0.00158336,-0.00019271,0.0044
 3449,0.00954168,-0.00653347,0.07797587,0.21376545,0.00029686,-0.001378
 60,-0.00047621,-0.00656250,-0.01202362,0.01137636,0.04993589,0.1081047
 6,-0.12506602,0.00525156,0.00313792,-0.00617325,0.00140264,-0.00095673
 ,0.00106275,-0.00104241,-0.00142519,-0.00015737,0.00000489,0.00022511,
 0.00000180,-0.00020280,-0.00011348,0.00006216,-0.00061337,0.00005333,-
 0.00005214,0.00042987,0.00118711,0.00150958,0.00873410,0.01930012,-0.0
 1286483,-0.05674575,-0.11654772,0.13013514,-0.00006648,-0.00002382,-0.
 00132363,-0.00504747,-0.00002082,-0.00123566,-0.00450415,-0.00021659,-
 0.01554487,-0.05627732,-0.00102627,-0.05393998,0.00426373,0.00058798,0
 .03095549,-0.00450806,-0.00036865,-0.01558652,-0.00025878,0.00010740,0
 .00003158,0.00001972,0.00000252,0.00013608,-0.00025840,-0.00010555,0.0
 0003562,-0.00007083,-0.00000685,-0.00037737,0.00139411,0.00002756,0.00
 034783,-0.00124127,0.00031350,-0.00080125,0.06882781,0.00000982,0.0015
 4130,-0.00003808,-0.00003848,-0.00235962,0.00006089,0.00174454,0.00120
 223,0.02255241,-0.00101756,-0.05186725,-0.00457946,-0.00005656,0.00043
 408,-0.00039261,-0.00173232,0.00037182,-0.02270549,-0.00047847,0.00001
 767,0.00004749,-0.00000117,-0.00000759,0.00000122,0.00047368,0.0000127
 4,-0.00004767,0.00000600,0.00028650,-0.00000274,-0.00137375,0.00170096
 ,-0.00080152,0.00198444,-0.00142636,0.00147181,0.00104387,0.04836877,0
 .00042012,-0.00004001,-0.00052297,-0.00213724,0.00006191,0.00075740,0.
 00003018,-0.00092734,-0.00443181,-0.05347905,-0.00457963,-0.29414516,-
 0.00276360,-0.00035958,-0.01851339,0.00009822,0.00074339,-0.00359858,-
 0.00012646,0.00006151,0.00001231,-0.00006345,0.00000138,0.00006186,-0.
 00014493,-0.00006124,0.00001649,0.00029314,-0.00000341,0.00012391,-0.0
 0011035,0.00010598,0.00144982,-0.00072360,0.00007625,-0.00020619,0.055
 65224,0.00507824,0.31683934,-0.00008120,-0.00000507,-0.00026673,-0.000
 00090,0.00001006,0.00050736,0.00150858,-0.00023893,-0.00003578,0.00529
 485,0.00056683,0.02995724,-0.05731872,-0.00097167,-0.05133013,0.001509
 69,0.00023507,-0.00004382,0.00000793,-0.00002199,0.00000720,0.00011359
 ,-0.00000032,-0.00001051,0.00000788,0.00002220,0.00000635,-0.00073000,
 -0.00000521,-0.00031625,0.00032516,-0.00002914,-0.00014534,0.00006059,
 0.00023433,-0.00039832,-0.00494312,0.00007641,0.00368738,0.06197356,0.
 00000182,-0.00011297,0.00001018,0.00000598,0.00041053,-0.00001863,-0.0
 0030455,0.00041900,-0.00068193,-0.00006412,-0.00101180,-0.00037062,-0.
 00094538,-0.04746447,-0.00465484,0.00027590,0.00042360,0.00068390,0.00
 004777,-0.00001236,0.00000921,-0.00000343,0.00000638,0.,-0.00004654,-0
 .00001223,-0.00000947,-0.00000148,0.00013971,0.00001384,-0.00007442,-0
 .00010999,0.00015790,-0.00009628,-0.00031406,-0.00010894,0.00007927,0.
 00107222,-0.00003266,0.00099241,0.04627845,0.00009731,0.00000976,0.000
 40712,0.00029079,-0.00001841,-0.00053782,-0.00069028,0.00053910,0.0004
 7592,-0.00303625,-0.00033916,-0.01889760,-0.04995682,-0.00465622,-0.29
 344809,-0.00070235,-0.00053551,0.00047042,0.00003206,-0.00001115,-0.00
 001869,-0.00017370,0.00000019,0.00000557,0.00003391,0.00001087,-0.0000
 1876,-0.00012042,0.00001369,0.00084770,-0.00015457,-0.00016771,0.00020
 355,0.00032129,-0.00056575,0.00027752,0.00384572,-0.00003289,-0.000451
 98,0.05271124,0.00523752,0.32280615,0.00003747,-0.00029821,0.00005030,
 0.00053165,0.00058147,-0.00018907,-0.00309551,-0.00053314,0.00518042,-
 0.01708256,0.02311934,-0.00774988,-0.12214476,0.11265443,-0.03293202,0
 .00169714,0.00093154,-0.00022156,0.00008246,0.00001430,0.00003101,-0.0
 0001427,0.00003414,-0.00002616,-0.00011811,-0.00005547,-0.00003924,-0.
 00010068,-0.00013333,0.00002900,-0.00157596,0.00077399,-0.00073041,0.0
 0030240,-0.00018580,0.00011834,0.00125960,-0.00043595,0.00009667,-0.00
 405315,0.00487466,-0.00142369,0.13398944,0.00004756,0.00015682,0.00011
 086,-0.00004086,0.00022897,-0.00015975,-0.00098533,0.00106654,-0.00074
 035,-0.00051713,-0.00048842,-0.00007526,0.11329253,-0.21664196,0.04827
 449,0.00040020,0.00098910,-0.00014095,-0.00000342,-0.00002319,0.000006
 72,-0.00002062,-0.00000710,0.00000114,0.00007091,-0.00000214,0.0000120
 5,-0.00001500,-0.00002691,0.00006542,0.00015945,0.00011370,0.00003528,
 -0.00019233,0.00030340,-0.00008754,0.00016326,0.00018828,-0.00056221,-
 0.00149496,0.00084097,-0.00042924,-0.12592837,0.23359020,0.00004534,0.
 00020441,0.00020752,0.00004745,-0.00024471,-0.00036361,0.00260169,0.00
 075986,-0.00178900,0.01072900,-0.01606283,0.00429295,-0.03298652,0.048
 64901,-0.06077238,-0.00080136,0.00014872,0.00040563,-0.00002616,-0.000
 00332,-0.00001596,-0.00007409,-0.00001840,0.00001159,0.00008149,0.0000
 1883,-0.00000184,0.00007864,0.00011300,0.00031849,0.00068158,-0.000536
 65,0.00038751,-0.00012111,-0.00020274,-0.00008898,-0.00088064,-0.00023
 011,0.00068259,-0.01684935,0.02646015,-0.00678955,0.03351132,-0.053150
 65,0.06285791,0.00003801,0.00030016,0.00003885,0.00053059,-0.00058888,
 -0.00016637,0.00169465,-0.00094090,-0.00018538,-0.01712644,-0.02336585
 ,-0.00686084,-0.12257958,-0.11401490,-0.02868580,-0.00309206,0.0007391
 0,0.00515738,-0.00011814,0.00005416,-0.00004138,-0.00001427,-0.0000350
 6,-0.00002489,0.00008238,-0.00001337,0.00003145,-0.00010037,0.00013449
 ,0.00002377,0.00016656,0.00008368,0.00001208,-0.00007756,0.00091316,-0
 .00051354,0.00126009,0.00043725,0.00008108,-0.00406026,-0.00491703,-0.
 00123593,0.01019683,0.01451084,0.00419291,0.13447418,-0.00004557,0.000
 14434,-0.00010851,0.00004222,0.00024468,0.00013682,-0.00043174,0.00099
 078,0.00011905,0.00095971,0.00017773,0.00024748,-0.11465476,-0.2196760
 3,-0.04212956,0.00109233,0.00105810,0.00062163,-0.00006750,-0.00000328
 ,-0.00001191,0.00001780,-0.00000639,-0.00000041,0.00000216,-0.00002327
 ,-0.00000653,0.00001813,-0.00003353,-0.00005201,-0.00012094,0.00014972
 ,-0.00007658,-0.00044023,0.00019405,-0.00004209,-0.00019881,0.00021880
 ,0.00057976,0.00085739,-0.00015654,0.00017832,-0.01439885,-0.02063820,
 -0.00592778,0.12731102,0.23691097,0.00004665,-0.00020221,0.00021942,0.
 00004626,0.00022142,-0.00037829,-0.00078583,-0.00016946,0.00040674,0.0
 1073212,0.01620023,0.00366974,-0.02871649,-0.04250385,-0.05730059,0.00
 256020,-0.00087375,-0.00178385,0.00008410,-0.00001892,-0.00000063,-0.0
 0007482,0.00001926,0.00001091,-0.00002623,0.00000369,-0.00001582,0.000
 07779,-0.00009967,0.00032483,-0.00005346,0.00010803,-0.00010205,-0.000
 15557,-0.00014565,0.00006342,-0.00087327,0.00024957,0.00065157,-0.0169
 4513,-0.02668123,-0.00578495,0.00475761,0.00673529,0.00070118,0.028765
 79,0.04642473,0.05904994,0.00176675,-0.00081537,-0.00055021,0.00994881
 ,0.00607845,-0.01658406,-0.00080301,-0.00029468,-0.00015699,-0.0131275
 1,-0.00503350,0.01918831,-0.00166456,-0.00470548,-0.00192374,-0.119010
 98,-0.04336635,0.11099570,0.00030289,-0.00012589,0.00008668,0.00021761
 ,-0.00006829,0.00051394,0.00000575,-0.00015318,-0.00006232,-0.00140617
 ,0.00312484,-0.00233853,0.00038387,-0.00010873,0.00015990,0.00015984,-
 0.00018962,0.00006369,0.00139660,0.00136920,-0.00016301,0.00032534,0.0
 0006761,-0.00015692,0.00016664,0.00011878,-0.00005827,-0.00157775,-0.0
 0012997,0.00068823,0.12850613,-0.00133553,0.00172442,0.00033799,-0.009
 36943,-0.00525025,0.01458234,0.00045000,0.00008886,-0.00083196,-0.0094
 9464,-0.00507102,0.01411399,-0.00005125,-0.00280732,-0.00099703,-0.043
 20556,-0.07491464,0.06414379,-0.00017650,0.00005658,-0.00033578,0.0005
 8347,-0.00017189,-0.00045820,0.00038216,0.00008466,-0.00001999,0.00074
 636,-0.00262688,0.00094960,0.00011248,-0.00073432,-0.00008740,0.000219
 35,-0.00023700,-0.00038944,-0.00001368,0.00172441,-0.00011618,0.000022
 71,-0.00010934,0.00017996,-0.00008319,0.00014805,-0.00011750,-0.000798
 05,0.00013500,0.00054498,0.04829980,0.07895934,0.00165644,-0.00140561,
 0.00139705,0.00923808,0.00493006,-0.01723730,-0.00017351,-0.00035355,-
 0.00059859,-0.00775520,-0.00412906,0.00982533,-0.00110023,-0.00186453,
 -0.00016919,0.11148621,0.06381081,-0.20545192,0.00014859,-0.00016252,0
 .00045780,-0.00106140,0.00022858,0.00053004,-0.00029857,-0.00007479,-0
 .00019899,-0.00183003,0.00358971,-0.00074095,0.00015591,0.00012936,0.0
 0036969,0.00006520,0.00027960,0.00012658,0.00035013,0.00079029,0.00142
 371,-0.00014661,-0.00014563,0.00020268,0.00001544,0.00006696,-0.000100
 47,-0.00070043,-0.00002423,0.00036795,-0.11855921,-0.07134348,0.222139
 37,-0.00010964,0.00206780,-0.00071200,-0.00518504,0.00707756,0.0125410
 6,-0.00061620,-0.00065202,-0.00071816,0.00986864,-0.01407805,-0.012510
 44,0.00243395,0.00075699,-0.00027246,-0.08464754,0.07415919,0.04711500
 ,-0.00085417,-0.00007304,-0.00045116,0.00029434,-0.00007043,-0.0001760
 0,-0.00019928,-0.00018563,-0.00011179,0.00139045,-0.00114607,0.0001944
 6,0.00015986,-0.00021755,0.00007306,0.00095253,-0.00025302,0.00064209,
 -0.00124578,-0.00201098,-0.00064734,0.00006022,0.00010780,0.00031860,-
 0.00007864,0.00043451,-0.00017192,0.00030314,0.00018761,-0.00012795,-0
 .00559025,0.01371151,0.00850920,0.08306340,-0.00050958,-0.00126702,0.0
 0049078,0.00287913,-0.01078323,-0.00910758,-0.00121139,-0.00519590,0.0
 0231769,0.00731851,-0.01123558,-0.00686969,0.00148300,0.00175749,-0.00
 079229,0.07403781,-0.20382327,-0.10513203,0.00046558,-0.00000316,-0.00
 001931,0.00009554,-0.00000220,-0.00006180,0.00028472,0.00019121,-0.000
 02824,-0.00008718,0.00154758,0.00019082,0.00019113,-0.00023246,-0.0002
 6593,0.00027235,-0.00158922,-0.00040682,-0.00034431,-0.00147896,-0.000
 02616,-0.00025011,-0.00028712,0.00058664,-0.00093153,0.00020191,0.0001
 4071,0.00019016,0.00031305,0.00018755,-0.00406765,0.00900134,0.0056780
 2,-0.07981618,0.22288553,0.00031889,0.00140815,-0.00054769,-0.00665126
 ,0.01288380,0.01126424,-0.00099403,0.00162036,-0.00030070,0.00496835,-
 0.00295312,-0.00578885,0.00134829,0.00092719,0.00105642,0.04691798,-0.
 10519644,-0.11690094,-0.00063191,-0.00005369,-0.00004932,-0.00020644,0
 .00011626,0.00006017,-0.00000665,-0.00023197,0.00001159,0.00043113,-0.
 00118947,0.00154778,0.00005725,0.00040312,0.00012187,0.00063293,0.0004
 8439,0.00046967,-0.00079149,-0.00142136,-0.00014892,-0.00038880,0.0001
 3126,0.00025083,-0.00047808,0.00003775,0.00005644,0.00011124,0.0000718
 2,-0.00009950,0.00885682,-0.02015569,-0.01234281,-0.05349423,0.1131176
 4,0.12133973\\0.00000146,-0.00000602,0.00000597,-0.00000554,-0.0000002
 9,-0.00000322,-0.00000092,-0.00000736,0.00000272,-0.00001030,0.0000010
 1,-0.00000185,0.00000235,0.00000224,-0.00000400,0.00000829,0.00000395,
 -0.00000325,0.00000205,0.00000326,-0.00000339,0.00000216,0.00000015,-0
 .00000614,-0.00000048,0.00000323,-0.00000390,0.00000233,-0.00000345,0.
 00000237,0.00000120,0.00000171,0.00000193,-0.00000028,0.00000036,0.000
 00017,0.00000305,-0.00000047,-0.00000225,0.00000128,-0.00000015,0.0000
 0356,-0.00000112,-0.00000075,0.00000409,-0.00000002,0.00000174,0.00000
 403,-0.00000318,0.00000091,0.00000118,-0.00000234,-0.00000006,0.000002
 00\\\@


 WE'RE IN THE POSITION OF A VISITOR FROM ANOTHER
 DIMENSION WHO COMES TO EARTH AND SEES A CHESS MATCH.
 ASSUMING HE KNOWS IT'S A GAME, HE'S GOT TWO PROBLEMS:
 FIRST, FIGURE OUT THE RULES, AND SECOND, FIGURE OUT HOW TO WIN.
 NINETY PERCENT OF SCIENCE (INCLUDING VIRTUALLY ALL OF CHEMISRY)
 IS IN THAT SECOND CATEGORY.  THEY'RE TRYING TO APPLY
 THE LAWS THAT ARE ALREADY KNOWN.

                     -- SHELDON GLASHOW, 1979
 Job cpu time:       0 days  0 hours 59 minutes  4.9 seconds.
 Elapsed time:       0 days  0 hours 14 minutes 46.6 seconds.
 File lengths (MBytes):  RWF=     75 Int=      0 D2E=      0 Chk=      6 Scr=      1
 Normal termination of Gaussian 16 at Sun May 28 11:26:06 2023.
### All Done ###
