### Starting Gaussian ###
 Entering Gaussian System, Link 0=g16
 Initial command:
 /cluster/software/gaussian/gaussian-16-A.03/avx2/g16/l1.exe "/local/scratch/yxie/Gau-4807.inp" -scrdir="/local/scratch/yxie/"
 Entering Link 1 = /cluster/software/gaussian/gaussian-16-A.03/avx2/g16/l1.exe PID=      4810.
  
 Copyright (c) 1988,1990,1992,1993,1995,1998,2003,2009,2016,
            Gaussian, Inc.  All Rights Reserved.
  
 This is part of the Gaussian(R) 16 program.  It is based on
 the Gaussian(R) 09 system (copyright 2009, Gaussian, Inc.),
 the Gaussian(R) 03 system (copyright 2003, Gaussian, Inc.),
 the Gaussian(R) 98 system (copyright 1998, Gaussian, Inc.),
 the Gaussian(R) 94 system (copyright 1995, Gaussian, Inc.),
 the Gaussian 92(TM) system (copyright 1992, Gaussian, Inc.),
 the Gaussian 90(TM) system (copyright 1990, Gaussian, Inc.),
 the Gaussian 88(TM) system (copyright 1988, Gaussian, Inc.),
 the Gaussian 86(TM) system (copyright 1986, Carnegie Mellon
 University), and the Gaussian 82(TM) system (copyright 1983,
 Carnegie Mellon University). Gaussian is a federally registered
 trademark of Gaussian, Inc.
  
 This software contains proprietary and confidential information,
 including trade secrets, belonging to Gaussian, Inc.
  
 This software is provided under written license and may be
 used, copied, transmitted, or stored only in accord with that
 written license.
  
 The following legend is applicable only to US Government
 contracts under FAR:
  
                    RESTRICTED RIGHTS LEGEND
  
 Use, reproduction and disclosure by the US Government is
 subject to restrictions as set forth in subparagraphs (a)
 and (c) of the Commercial Computer Software - Restricted
 Rights clause in FAR 52.227-19.
  
 Gaussian, Inc.
 340 Quinnipiac St., Bldg. 40, Wallingford CT 06492
  
  
 ---------------------------------------------------------------
 Warning -- This program may not be used in any manner that
 competes with the business of Gaussian, Inc. or will provide
 assistance to any competitor of Gaussian, Inc.  The licensee
 of this program is prohibited from giving any competitor of
 Gaussian, Inc. access to this program.  By using this program,
 the user acknowledges that Gaussian, Inc. is engaged in the
 business of creating and licensing software in the field of
 computational chemistry and represents and warrants to the
 licensee that it is not a competitor of Gaussian, Inc. and that
 it will not use this program in any manner prohibited above.
 ---------------------------------------------------------------
  

 Cite this work as:
 Gaussian 16, Revision A.03,
 M. J. Frisch, G. W. Trucks, H. B. Schlegel, G. E. Scuseria, 
 M. A. Robb, J. R. Cheeseman, G. Scalmani, V. Barone, 
 G. A. Petersson, H. Nakatsuji, X. Li, M. Caricato, A. V. Marenich, 
 J. Bloino, B. G. Janesko, R. Gomperts, B. Mennucci, H. P. Hratchian, 
 J. V. Ortiz, A. F. Izmaylov, J. L. Sonnenberg, D. Williams-Young, 
 F. Ding, F. Lipparini, F. Egidi, J. Goings, B. Peng, A. Petrone, 
 T. Henderson, D. Ranasinghe, V. G. Zakrzewski, J. Gao, N. Rega, 
 G. Zheng, W. Liang, M. Hada, M. Ehara, K. Toyota, R. Fukuda, 
 J. Hasegawa, M. Ishida, T. Nakajima, Y. Honda, O. Kitao, H. Nakai, 
 T. Vreven, K. Throssell, J. A. Montgomery, Jr., J. E. Peralta, 
 F. Ogliaro, M. J. Bearpark, J. J. Heyd, E. N. Brothers, K. N. Kudin, 
 V. N. Staroverov, T. A. Keith, R. Kobayashi, J. Normand, 
 K. Raghavachari, A. P. Rendell, J. C. Burant, S. S. Iyengar, 
 J. Tomasi, M. Cossi, J. M. Millam, M. Klene, C. Adamo, R. Cammi, 
 J. W. Ochterski, R. L. Martin, K. Morokuma, O. Farkas, 
 J. B. Foresman, and D. J. Fox, Gaussian, Inc., Wallingford CT, 2016.
 
 ******************************************
 Gaussian 16:  ES64L-G16RevA.03 25-Dec-2016
                25-May-2023 
 ******************************************
 %chk=CC1CCqCCOrCCCCCC1N.chk
 %NProcShared=20
 Will use up to   20 processors via shared memory.
 ----------------------------------------------------------------
 # opt freq b3lyp/6-31+g(2df,p) Geom=AllCheckpoint TD(NStates=10)
 ----------------------------------------------------------------
 1/18=20,19=15,26=3,29=7,38=1/1,3;
 2/9=110,12=2,40=1/2;
 3/5=1,6=6,7=114,11=9,14=-4,25=1,30=1,71=1,74=-5/1,2,3,8;
 4//1;
 5/5=2,38=5/2;
 8/6=1,10=2,108=10/1;
 9/15=2,41=10,42=1,70=2/14;
 10/5=4/2;
 6/7=2,8=2,9=2,10=2/1;
 7/12=6,13=5/1,2,3,16;
 1/18=20,19=15,26=3/3(2);
 2/9=110/2;
 99//99;
 2/9=110/2;
 3/5=1,6=6,7=114,11=9,14=-2,25=1,30=1,71=1,74=-5/1,2,3,8;
 4/5=5,16=3,69=1/1;
 5/5=2,38=5/2;
 8/6=1,10=2,108=10/1;
 9/15=2,41=10,42=1,49=4,70=2/14;
 10/5=4/2;
 7/12=6,13=5/1,2,3,16;
 1/18=20,19=15,26=3/3(-8);
 2/9=110/2;
 6/7=2,8=2,9=2,10=2/1;
 99//99;
 Structure from the checkpoint file:  "CC1CCqCCOrCCCCCC1N.chk"
 -------------------
 Title Card Required
 -------------------
 Charge =  0 Multiplicity = 1
 Redundant internal coordinates found in file.  (old form).
 C,0,1.3641881028,0.1653618208,-0.879404268
 C,0,2.6342426095,0.0337957128,-0.0186526584
 C,0,3.1155187425,1.3791679525,0.6229064289
 C,0,2.5776521919,2.1676625647,1.8773191766
 C,0,3.5190137989,2.0700145613,3.1016317425
 C,0,3.4428579334,3.2885869376,4.0286900097
 O,0,4.3802911216,3.2246982827,5.0927314404
 C,0,1.0663583999,2.049594355,2.2402627284
 C,0,0.6402051518,1.1911410099,3.4501570039
 C,0,0.9584720406,-0.3108091782,3.4191245181
 C,0,0.3799120012,-1.0407131487,2.1891825415
 C,0,1.367470291,-1.8891424731,1.3750568919
 C,0,2.6888586898,-1.2978105794,0.8074437032
 N,0,3.7744961485,-1.3518024332,1.8043853301
 H,0,1.472140301,0.9887310649,-1.5936956184
 H,0,0.4572620106,0.3512265945,-0.3019685508
 H,0,1.1976355108,-0.7487737324,-1.4600729764
 H,0,3.4373265757,-0.108953296,-0.7577752659
 H,0,3.0433916822,2.0803099761,-0.2179694967
 H,0,4.1929543977,1.2668769276,0.7875150682
 H,0,2.6946149644,3.2082671793,1.5465210775
 H,0,4.5581031591,1.9965624405,2.7607036977
 H,0,3.3229245714,1.1698334972,3.6971310596
 H,0,2.4202108081,3.4310143448,4.4102067282
 H,0,3.7005240153,4.1926071846,3.4648344949
 H,0,4.1495436937,2.4692350683,5.6425859171
 H,0,0.5129809191,1.7349876533,1.3513558349
 H,0,0.6975970826,3.060787273,2.4511267218
 H,0,-0.4474092485,1.3089512645,3.5501666139
 H,0,1.0610709554,1.6213338646,4.3671400589
 H,0,0.5616169494,-0.757326804,4.3383885775
 H,0,2.0364619301,-0.4740151282,3.4745903533
 H,0,-0.1040275468,-0.3124709942,1.5328287272
 H,0,-0.4293970809,-1.7086197471,2.5074155617
 H,0,0.8080356309,-2.3045162649,0.5276566499
 H,0,1.6822211131,-2.7477111186,1.9793686017
 H,0,2.9768721826,-2.0563298471,0.0673650873
 H,0,3.7559677007,-0.5357046313,2.4061636764
 H,0,4.6708604989,-1.3110081539,1.3266928114
 Recover connectivity data from disk.

 GradGradGradGradGradGradGradGradGradGradGradGradGradGradGradGradGradGrad
 Berny optimization.
 Initialization pass.
                           ----------------------------
                           !    Initial Parameters    !
                           ! (Angstroms and Degrees)  !
 --------------------------                            --------------------------
 ! Name  Definition              Value          Derivative Info.                !
 --------------------------------------------------------------------------------
 ! R1    R(1,2)                  1.5399         estimate D2E/DX2                !
 ! R2    R(1,15)                 1.0954         estimate D2E/DX2                !
 ! R3    R(1,16)                 1.0911         estimate D2E/DX2                !
 ! R4    R(1,17)                 1.0957         estimate D2E/DX2                !
 ! R5    R(2,3)                  1.5663         estimate D2E/DX2                !
 ! R6    R(2,13)                 1.568          estimate D2E/DX2                !
 ! R7    R(2,18)                 1.1007         estimate D2E/DX2                !
 ! R8    R(3,4)                  1.5763         estimate D2E/DX2                !
 ! R9    R(3,19)                 1.0972         estimate D2E/DX2                !
 ! R10   R(3,20)                 1.0957         estimate D2E/DX2                !
 ! R11   R(4,5)                  1.5475         estimate D2E/DX2                !
 ! R12   R(4,8)                  1.5587         estimate D2E/DX2                !
 ! R13   R(4,21)                 1.0982         estimate D2E/DX2                !
 ! R14   R(5,6)                  1.533          estimate D2E/DX2                !
 ! R15   R(5,22)                 1.0961         estimate D2E/DX2                !
 ! R16   R(5,23)                 1.097          estimate D2E/DX2                !
 ! R17   R(6,7)                  1.4195         estimate D2E/DX2                !
 ! R18   R(6,24)                 1.1007         estimate D2E/DX2                !
 ! R19   R(6,25)                 1.0962         estimate D2E/DX2                !
 ! R20   R(7,26)                 0.9624         estimate D2E/DX2                !
 ! R21   R(8,9)                  1.5435         estimate D2E/DX2                !
 ! R22   R(8,27)                 1.0933         estimate D2E/DX2                !
 ! R23   R(8,28)                 1.0968         estimate D2E/DX2                !
 ! R24   R(9,10)                 1.5356         estimate D2E/DX2                !
 ! R25   R(9,29)                 1.0985         estimate D2E/DX2                !
 ! R26   R(9,30)                 1.0968         estimate D2E/DX2                !
 ! R27   R(10,11)                1.5428         estimate D2E/DX2                !
 ! R28   R(10,31)                1.0963         estimate D2E/DX2                !
 ! R29   R(10,32)                1.0917         estimate D2E/DX2                !
 ! R30   R(11,12)                1.5355         estimate D2E/DX2                !
 ! R31   R(11,33)                1.0933         estimate D2E/DX2                !
 ! R32   R(11,34)                1.0965         estimate D2E/DX2                !
 ! R33   R(12,13)                1.555          estimate D2E/DX2                !
 ! R34   R(12,35)                1.0971         estimate D2E/DX2                !
 ! R35   R(12,36)                1.0961         estimate D2E/DX2                !
 ! R36   R(13,14)                1.4749         estimate D2E/DX2                !
 ! R37   R(13,37)                1.0982         estimate D2E/DX2                !
 ! R38   R(14,38)                1.0141         estimate D2E/DX2                !
 ! R39   R(14,39)                1.0165         estimate D2E/DX2                !
 ! A1    A(2,1,15)             110.3314         estimate D2E/DX2                !
 ! A2    A(2,1,16)             113.8466         estimate D2E/DX2                !
 ! A3    A(2,1,17)             110.5067         estimate D2E/DX2                !
 ! A4    A(15,1,16)            107.3966         estimate D2E/DX2                !
 ! A5    A(15,1,17)            107.249          estimate D2E/DX2                !
 ! A6    A(16,1,17)            107.2316         estimate D2E/DX2                !
 ! A7    A(1,2,3)              114.142          estimate D2E/DX2                !
 ! A8    A(1,2,13)             113.3147         estimate D2E/DX2                !
 ! A9    A(1,2,18)             103.7382         estimate D2E/DX2                !
 ! A10   A(3,2,13)             120.1961         estimate D2E/DX2                !
 ! A11   A(3,2,18)              99.3377         estimate D2E/DX2                !
 ! A12   A(13,2,18)            102.6046         estimate D2E/DX2                !
 ! A13   A(2,3,4)              130.6019         estimate D2E/DX2                !
 ! A14   A(2,3,19)             102.4027         estimate D2E/DX2                !
 ! A15   A(2,3,20)             106.0011         estimate D2E/DX2                !
 ! A16   A(4,3,19)             105.5337         estimate D2E/DX2                !
 ! A17   A(4,3,20)             105.5007         estimate D2E/DX2                !
 ! A18   A(19,3,20)            104.1973         estimate D2E/DX2                !
 ! A19   A(3,4,5)              112.9848         estimate D2E/DX2                !
 ! A20   A(3,4,8)              118.5715         estimate D2E/DX2                !
 ! A21   A(3,4,21)             101.4169         estimate D2E/DX2                !
 ! A22   A(5,4,8)              113.6288         estimate D2E/DX2                !
 ! A23   A(5,4,21)             103.493          estimate D2E/DX2                !
 ! A24   A(8,4,21)             104.1925         estimate D2E/DX2                !
 ! A25   A(4,5,6)              113.4573         estimate D2E/DX2                !
 ! A26   A(4,5,22)             109.563          estimate D2E/DX2                !
 ! A27   A(4,5,23)             111.8716         estimate D2E/DX2                !
 ! A28   A(6,5,22)             106.7661         estimate D2E/DX2                !
 ! A29   A(6,5,23)             108.368          estimate D2E/DX2                !
 ! A30   A(22,5,23)            106.4586         estimate D2E/DX2                !
 ! A31   A(5,6,7)              112.6256         estimate D2E/DX2                !
 ! A32   A(5,6,24)             111.0142         estimate D2E/DX2                !
 ! A33   A(5,6,25)             109.4393         estimate D2E/DX2                !
 ! A34   A(7,6,24)             111.0727         estimate D2E/DX2                !
 ! A35   A(7,6,25)             105.5132         estimate D2E/DX2                !
 ! A36   A(24,6,25)            106.8555         estimate D2E/DX2                !
 ! A37   A(6,7,26)             107.7725         estimate D2E/DX2                !
 ! A38   A(4,8,9)              119.4943         estimate D2E/DX2                !
 ! A39   A(4,8,27)             108.8579         estimate D2E/DX2                !
 ! A40   A(4,8,28)             107.5125         estimate D2E/DX2                !
 ! A41   A(9,8,27)             109.726          estimate D2E/DX2                !
 ! A42   A(9,8,28)             105.6188         estimate D2E/DX2                !
 ! A43   A(27,8,28)            104.5621         estimate D2E/DX2                !
 ! A44   A(8,9,10)             118.0938         estimate D2E/DX2                !
 ! A45   A(8,9,29)             106.5628         estimate D2E/DX2                !
 ! A46   A(8,9,30)             109.3448         estimate D2E/DX2                !
 ! A47   A(10,9,29)            108.1754         estimate D2E/DX2                !
 ! A48   A(10,9,30)            108.7224         estimate D2E/DX2                !
 ! A49   A(29,9,30)            105.1722         estimate D2E/DX2                !
 ! A50   A(9,10,11)            113.6481         estimate D2E/DX2                !
 ! A51   A(9,10,31)            107.8418         estimate D2E/DX2                !
 ! A52   A(9,10,32)            110.4783         estimate D2E/DX2                !
 ! A53   A(11,10,31)           109.8784         estimate D2E/DX2                !
 ! A54   A(11,10,32)           109.8816         estimate D2E/DX2                !
 ! A55   A(31,10,32)           104.7117         estimate D2E/DX2                !
 ! A56   A(10,11,12)           116.2887         estimate D2E/DX2                !
 ! A57   A(10,11,33)           109.2358         estimate D2E/DX2                !
 ! A58   A(10,11,34)           109.4866         estimate D2E/DX2                !
 ! A59   A(12,11,33)           109.5369         estimate D2E/DX2                !
 ! A60   A(12,11,34)           106.9775         estimate D2E/DX2                !
 ! A61   A(33,11,34)           104.6703         estimate D2E/DX2                !
 ! A62   A(11,12,13)           122.0014         estimate D2E/DX2                !
 ! A63   A(11,12,35)           106.9038         estimate D2E/DX2                !
 ! A64   A(11,12,36)           108.9757         estimate D2E/DX2                !
 ! A65   A(13,12,35)           107.179          estimate D2E/DX2                !
 ! A66   A(13,12,36)           104.7802         estimate D2E/DX2                !
 ! A67   A(35,12,36)           106.0048         estimate D2E/DX2                !
 ! A68   A(2,13,12)            119.0566         estimate D2E/DX2                !
 ! A69   A(2,13,14)            114.3832         estimate D2E/DX2                !
 ! A70   A(2,13,37)            103.9254         estimate D2E/DX2                !
 ! A71   A(12,13,14)           111.3976         estimate D2E/DX2                !
 ! A72   A(12,13,37)           101.8998         estimate D2E/DX2                !
 ! A73   A(14,13,37)           103.7205         estimate D2E/DX2                !
 ! A74   A(13,14,38)           110.9883         estimate D2E/DX2                !
 ! A75   A(13,14,39)           109.2656         estimate D2E/DX2                !
 ! A76   A(38,14,39)           105.2281         estimate D2E/DX2                !
 ! D1    D(15,1,2,3)            49.9186         estimate D2E/DX2                !
 ! D2    D(15,1,2,13)         -167.5828         estimate D2E/DX2                !
 ! D3    D(15,1,2,18)          -57.0962         estimate D2E/DX2                !
 ! D4    D(16,1,2,3)           -70.9048         estimate D2E/DX2                !
 ! D5    D(16,1,2,13)           71.5939         estimate D2E/DX2                !
 ! D6    D(16,1,2,18)         -177.9195         estimate D2E/DX2                !
 ! D7    D(17,1,2,3)           168.3566         estimate D2E/DX2                !
 ! D8    D(17,1,2,13)          -49.1448         estimate D2E/DX2                !
 ! D9    D(17,1,2,18)           61.3419         estimate D2E/DX2                !
 ! D10   D(1,2,3,4)             77.8762         estimate D2E/DX2                !
 ! D11   D(1,2,3,19)           -45.467          estimate D2E/DX2                !
 ! D12   D(1,2,3,20)          -154.3907         estimate D2E/DX2                !
 ! D13   D(13,2,3,4)           -61.82           estimate D2E/DX2                !
 ! D14   D(13,2,3,19)          174.8368         estimate D2E/DX2                !
 ! D15   D(13,2,3,20)           65.9131         estimate D2E/DX2                !
 ! D16   D(18,2,3,4)          -172.4027         estimate D2E/DX2                !
 ! D17   D(18,2,3,19)           64.2541         estimate D2E/DX2                !
 ! D18   D(18,2,3,20)          -44.6696         estimate D2E/DX2                !
 ! D19   D(1,2,13,12)          -35.1265         estimate D2E/DX2                !
 ! D20   D(1,2,13,14)         -170.3676         estimate D2E/DX2                !
 ! D21   D(1,2,13,37)           77.2563         estimate D2E/DX2                !
 ! D22   D(3,2,13,12)          104.8765         estimate D2E/DX2                !
 ! D23   D(3,2,13,14)          -30.3646         estimate D2E/DX2                !
 ! D24   D(3,2,13,37)         -142.7408         estimate D2E/DX2                !
 ! D25   D(18,2,13,12)        -146.3102         estimate D2E/DX2                !
 ! D26   D(18,2,13,14)          78.4487         estimate D2E/DX2                !
 ! D27   D(18,2,13,37)         -33.9274         estimate D2E/DX2                !
 ! D28   D(2,3,4,5)            106.8544         estimate D2E/DX2                !
 ! D29   D(2,3,4,8)            -29.7586         estimate D2E/DX2                !
 ! D30   D(2,3,4,21)          -143.0113         estimate D2E/DX2                !
 ! D31   D(19,3,4,5)          -131.0139         estimate D2E/DX2                !
 ! D32   D(19,3,4,8)            92.373          estimate D2E/DX2                !
 ! D33   D(19,3,4,21)          -20.8796         estimate D2E/DX2                !
 ! D34   D(20,3,4,5)           -21.0605         estimate D2E/DX2                !
 ! D35   D(20,3,4,8)          -157.6735         estimate D2E/DX2                !
 ! D36   D(20,3,4,21)           89.0738         estimate D2E/DX2                !
 ! D37   D(3,4,5,6)            151.2461         estimate D2E/DX2                !
 ! D38   D(3,4,5,22)            32.0425         estimate D2E/DX2                !
 ! D39   D(3,4,5,23)           -85.7745         estimate D2E/DX2                !
 ! D40   D(8,4,5,6)            -69.9375         estimate D2E/DX2                !
 ! D41   D(8,4,5,22)           170.8588         estimate D2E/DX2                !
 ! D42   D(8,4,5,23)            53.0419         estimate D2E/DX2                !
 ! D43   D(21,4,5,6)            42.4078         estimate D2E/DX2                !
 ! D44   D(21,4,5,22)          -76.7958         estimate D2E/DX2                !
 ! D45   D(21,4,5,23)          165.3872         estimate D2E/DX2                !
 ! D46   D(3,4,8,9)            105.5053         estimate D2E/DX2                !
 ! D47   D(3,4,8,27)           -21.5775         estimate D2E/DX2                !
 ! D48   D(3,4,8,28)          -134.3068         estimate D2E/DX2                !
 ! D49   D(5,4,8,9)            -30.8443         estimate D2E/DX2                !
 ! D50   D(5,4,8,27)          -157.9271         estimate D2E/DX2                !
 ! D51   D(5,4,8,28)            89.3436         estimate D2E/DX2                !
 ! D52   D(21,4,8,9)          -142.7659         estimate D2E/DX2                !
 ! D53   D(21,4,8,27)           90.1513         estimate D2E/DX2                !
 ! D54   D(21,4,8,28)          -22.578          estimate D2E/DX2                !
 ! D55   D(4,5,6,7)           -175.7957         estimate D2E/DX2                !
 ! D56   D(4,5,6,24)            58.9371         estimate D2E/DX2                !
 ! D57   D(4,5,6,25)           -58.7712         estimate D2E/DX2                !
 ! D58   D(22,5,6,7)           -55.0023         estimate D2E/DX2                !
 ! D59   D(22,5,6,24)          179.7305         estimate D2E/DX2                !
 ! D60   D(22,5,6,25)           62.0222         estimate D2E/DX2                !
 ! D61   D(23,5,6,7)            59.3168         estimate D2E/DX2                !
 ! D62   D(23,5,6,24)          -65.9504         estimate D2E/DX2                !
 ! D63   D(23,5,6,25)          176.3413         estimate D2E/DX2                !
 ! D64   D(5,6,7,26)           -64.0983         estimate D2E/DX2                !
 ! D65   D(24,6,7,26)           61.1371         estimate D2E/DX2                !
 ! D66   D(25,6,7,26)          176.5692         estimate D2E/DX2                !
 ! D67   D(4,8,9,10)           -61.7518         estimate D2E/DX2                !
 ! D68   D(4,8,9,29)           176.4011         estimate D2E/DX2                !
 ! D69   D(4,8,9,30)            63.21           estimate D2E/DX2                !
 ! D70   D(27,8,9,10)           64.926          estimate D2E/DX2                !
 ! D71   D(27,8,9,29)          -56.9211         estimate D2E/DX2                !
 ! D72   D(27,8,9,30)         -170.1122         estimate D2E/DX2                !
 ! D73   D(28,8,9,10)          177.1101         estimate D2E/DX2                !
 ! D74   D(28,8,9,29)           55.2631         estimate D2E/DX2                !
 ! D75   D(28,8,9,30)          -57.928          estimate D2E/DX2                !
 ! D76   D(8,9,10,11)          -56.4051         estimate D2E/DX2                !
 ! D77   D(8,9,10,31)         -178.4709         estimate D2E/DX2                !
 ! D78   D(8,9,10,32)           67.6388         estimate D2E/DX2                !
 ! D79   D(29,9,10,11)          64.6167         estimate D2E/DX2                !
 ! D80   D(29,9,10,31)         -57.4491         estimate D2E/DX2                !
 ! D81   D(29,9,10,32)        -171.3394         estimate D2E/DX2                !
 ! D82   D(30,9,10,11)         178.3278         estimate D2E/DX2                !
 ! D83   D(30,9,10,31)          56.2619         estimate D2E/DX2                !
 ! D84   D(30,9,10,32)         -57.6284         estimate D2E/DX2                !
 ! D85   D(9,10,11,12)         128.1005         estimate D2E/DX2                !
 ! D86   D(9,10,11,33)           3.5302         estimate D2E/DX2                !
 ! D87   D(9,10,11,34)        -110.5493         estimate D2E/DX2                !
 ! D88   D(31,10,11,12)       -110.9691         estimate D2E/DX2                !
 ! D89   D(31,10,11,33)        124.4606         estimate D2E/DX2                !
 ! D90   D(31,10,11,34)         10.3811         estimate D2E/DX2                !
 ! D91   D(32,10,11,12)          3.734          estimate D2E/DX2                !
 ! D92   D(32,10,11,33)       -120.8363         estimate D2E/DX2                !
 ! D93   D(32,10,11,34)        125.0842         estimate D2E/DX2                !
 ! D94   D(10,11,12,13)        -54.4293         estimate D2E/DX2                !
 ! D95   D(10,11,12,35)       -178.0655         estimate D2E/DX2                !
 ! D96   D(10,11,12,36)         67.7784         estimate D2E/DX2                !
 ! D97   D(33,11,12,13)         69.9868         estimate D2E/DX2                !
 ! D98   D(33,11,12,35)        -53.6495         estimate D2E/DX2                !
 ! D99   D(33,11,12,36)       -167.8056         estimate D2E/DX2                !
 ! D100  D(34,11,12,13)       -177.1018         estimate D2E/DX2                !
 ! D101  D(34,11,12,35)         59.262          estimate D2E/DX2                !
 ! D102  D(34,11,12,36)        -54.8941         estimate D2E/DX2                !
 ! D103  D(11,12,13,2)         -50.6847         estimate D2E/DX2                !
 ! D104  D(11,12,13,14)         85.7802         estimate D2E/DX2                !
 ! D105  D(11,12,13,37)       -164.1652         estimate D2E/DX2                !
 ! D106  D(35,12,13,2)          72.8245         estimate D2E/DX2                !
 ! D107  D(35,12,13,14)       -150.7106         estimate D2E/DX2                !
 ! D108  D(35,12,13,37)        -40.656          estimate D2E/DX2                !
 ! D109  D(36,12,13,2)        -174.8396         estimate D2E/DX2                !
 ! D110  D(36,12,13,14)        -38.3747         estimate D2E/DX2                !
 ! D111  D(36,12,13,37)         71.6799         estimate D2E/DX2                !
 ! D112  D(2,13,14,38)          52.3638         estimate D2E/DX2                !
 ! D113  D(2,13,14,39)         -63.2374         estimate D2E/DX2                !
 ! D114  D(12,13,14,38)        -86.2546         estimate D2E/DX2                !
 ! D115  D(12,13,14,39)        158.1442         estimate D2E/DX2                !
 ! D116  D(37,13,14,38)        164.862          estimate D2E/DX2                !
 ! D117  D(37,13,14,39)         49.2608         estimate D2E/DX2                !
 --------------------------------------------------------------------------------
 Trust Radius=3.00D-01 FncErr=1.00D-07 GrdErr=1.00D-06 EigMax=2.50D+02 EigMin=1.00D-04
 Number of steps in this run=    234 maximum allowed number of steps=    234.
 GradGradGradGradGradGradGradGradGradGradGradGradGradGradGradGradGradGrad

                          Input orientation:                          
 ---------------------------------------------------------------------
 Center     Atomic      Atomic             Coordinates (Angstroms)
 Number     Number       Type             X           Y           Z
 ---------------------------------------------------------------------
      1          6           0        1.364188    0.165362   -0.879404
      2          6           0        2.634243    0.033796   -0.018653
      3          6           0        3.115519    1.379168    0.622906
      4          6           0        2.577652    2.167663    1.877319
      5          6           0        3.519014    2.070015    3.101632
      6          6           0        3.442858    3.288587    4.028690
      7          8           0        4.380291    3.224698    5.092731
      8          6           0        1.066358    2.049594    2.240263
      9          6           0        0.640205    1.191141    3.450157
     10          6           0        0.958472   -0.310809    3.419125
     11          6           0        0.379912   -1.040713    2.189183
     12          6           0        1.367470   -1.889142    1.375057
     13          6           0        2.688859   -1.297811    0.807444
     14          7           0        3.774496   -1.351802    1.804385
     15          1           0        1.472140    0.988731   -1.593696
     16          1           0        0.457262    0.351227   -0.301969
     17          1           0        1.197636   -0.748774   -1.460073
     18          1           0        3.437327   -0.108953   -0.757775
     19          1           0        3.043392    2.080310   -0.217969
     20          1           0        4.192954    1.266877    0.787515
     21          1           0        2.694615    3.208267    1.546521
     22          1           0        4.558103    1.996562    2.760704
     23          1           0        3.322925    1.169833    3.697131
     24          1           0        2.420211    3.431014    4.410207
     25          1           0        3.700524    4.192607    3.464834
     26          1           0        4.149544    2.469235    5.642586
     27          1           0        0.512981    1.734988    1.351356
     28          1           0        0.697597    3.060787    2.451127
     29          1           0       -0.447409    1.308951    3.550167
     30          1           0        1.061071    1.621334    4.367140
     31          1           0        0.561617   -0.757327    4.338389
     32          1           0        2.036462   -0.474015    3.474590
     33          1           0       -0.104028   -0.312471    1.532829
     34          1           0       -0.429397   -1.708620    2.507416
     35          1           0        0.808036   -2.304516    0.527657
     36          1           0        1.682221   -2.747711    1.979369
     37          1           0        2.976872   -2.056330    0.067365
     38          1           0        3.755968   -0.535705    2.406164
     39          1           0        4.670860   -1.311008    1.326693
 ---------------------------------------------------------------------
                    Distance matrix (angstroms):
                    1          2          3          4          5
     1  C    0.000000
     2  C    1.539884   0.000000
     3  C    2.607187   1.566286   0.000000
     4  C    3.616798   2.855048   1.576254   0.000000
     5  C    4.911173   3.829515   2.604641   1.547462   0.000000
     6  C    6.177766   5.256283   3.918213   2.575548   1.533022
     7  O    7.356821   6.273499   4.998496   3.834802   2.457554
     8  C    3.656687   3.409458   2.695250   1.558742   2.599595
     9  C    4.507935   4.165126   3.762430   2.679760   3.030087
    10  C    4.343811   3.839957   3.915062   3.337923   3.510769
    11  C    3.440878   3.333333   3.973989   3.901409   4.512555
    12  C    3.050179   2.691622   3.781965   4.263153   4.825466
    13  C    2.596359   1.567990   2.717040   3.628568   4.158690
    14  N    3.913323   2.558032   3.047678   3.718116   3.668372
    15  H    1.095355   2.177876   2.786837   3.828835   5.234975
    16  H    1.091097   2.218169   2.996396   3.541862   4.890097
    17  H    1.095701   2.180355   3.541923   4.642007   5.843245
    18  H    2.094742   1.100738   2.055322   3.586885   4.432787
    19  H    2.631396   2.096509   1.097212   2.148204   3.353517
    20  H    3.463217   2.144756   1.095707   2.146693   2.540544
    21  H    4.112715   3.539870   2.091848   1.098165   2.096097
    22  H    5.177333   3.908774   2.651868   2.175277   1.096054
    23  H    5.078414   3.946126   3.088316   2.205178   1.096994
    24  H    6.305526   5.585848   4.363161   2.834848   2.184504
    25  H    6.367855   5.528775   4.041562   2.807391   2.161079
    26  H    7.456701   6.346426   5.239717   4.091335   2.648281
    27  H    2.857371   3.044787   2.725885   2.174100   3.494559
    28  H    4.463213   4.360400   3.466494   2.159059   3.060258
    29  H    4.920445   4.884575   4.611750   3.561854   4.063608
    30  H    5.453252   4.922431   4.277696   2.966092   2.800769
    31  H    5.359182   4.889321   4.989171   4.321669   4.274298
    32  H    4.451744   3.580218   3.568018   3.134106   2.968020
    33  H    2.864062   3.166247   3.749010   3.668943   4.611270
    34  H    4.266064   4.336233   5.064804   4.946204   5.497374
    35  H    2.896450   3.016818   4.347767   4.995349   5.754239
    36  H    4.093864   3.554605   4.574436   4.997310   5.276719
    37  H    2.903969   2.119769   3.482886   4.612746   5.150477
    38  H    4.123962   2.731727   2.693867   2.996047   2.707323
    39  H    4.240356   2.786802   3.186134   4.097055   3.988543
                    6          7          8          9         10
     6  C    0.000000
     7  O    1.419523   0.000000
     8  C    3.222006   4.527648   0.000000
     9  C    3.548076   4.563075   1.543500   0.000000
    10  C    4.415812   5.197078   2.640617   1.535614   0.000000
    11  C    5.613222   6.528963   3.166041   2.576622   1.542805
    12  C    6.177207   7.003539   4.043872   3.784587   2.614695
    13  C    5.655085   6.455828   3.986301   4.168428   3.284705
    14  N    5.156620   5.667854   4.369611   4.358773   3.408965
    15  H    6.386258   7.626611   3.998666   5.116008   5.203943
    16  H    6.024655   7.262905   3.117433   3.849334   3.812615
    17  H    7.174108   8.298013   4.641183   5.308894   4.904649
    18  H    5.869716   6.799327   4.389653   5.217358   4.861271
    19  H    4.433241   5.594682   3.154760   4.474492   4.826261
    20  H    3.892964   4.733186   3.535354   4.440431   4.458289
    21  H    2.593739   3.926497   2.115424   3.451554   4.347957
    22  H    2.126238   2.641645   3.530716   4.058814   4.326064
    23  H    2.147890   2.699665   2.826400   2.694148   2.803609
    24  H    1.100749   2.085742   2.906870   3.017805   4.137652
    25  H    1.096165   2.012208   3.609835   4.286556   5.272731
    26  H    1.943039   0.962449   4.610633   4.330788   4.780728
    27  H    4.262155   5.583298   1.093325   2.171847   2.942688
    28  H    3.174438   4.535105   1.096795   2.120597   3.517490
    29  H    4.391141   5.418144   2.134454   1.098538   2.148790
    30  H    2.926976   3.756925   2.169572   1.096837   2.154631
    31  H    4.976633   5.568467   3.540579   2.142815   1.096320
    32  H    4.054892   4.668233   2.972082   2.173218   1.091684
    33  H    5.637139   6.730051   2.729399   2.547720   2.164953
    34  H    6.502362   7.358980   4.053743   3.231319   2.170546
    35  H    7.105092   8.010813   4.685940   4.559473   3.515407
    36  H    6.613354   7.255500   4.843706   4.331694   2.921507
    37  H    6.669136   7.423823   5.022963   5.239214   4.284282
    38  H    4.166034   4.663481   3.734340   3.712128   2.983731
    39  H    5.474035   5.902551   5.012055   5.197695   4.377270
                   11         12         13         14         15
    11  C    0.000000
    12  C    1.535547   0.000000
    13  C    2.703061   1.554968   0.000000
    14  N    3.430459   2.503364   1.474929   0.000000
    15  H    4.429647   4.136013   3.531876   4.725028   0.000000
    16  H    2.854700   2.942813   2.988334   4.282648   1.762086
    17  H    3.751129   3.060596   2.768902   4.202445   1.764123
    18  H    4.347473   3.464441   2.103211   2.867582   2.401173
    19  H    4.757025   4.593800   3.548079   4.050164   2.356480
    20  H    4.672145   4.276567   2.973268   2.840179   3.626342
    21  H    4.881055   5.270133   4.566290   4.693279   4.035065
    22  H    5.197015   5.215252   4.261712   3.569332   5.431361
    23  H    3.977656   4.309659   3.852480   3.185130   5.608123
    24  H    5.393711   6.214858   5.950954   5.612462   6.550605
    25  H    6.327827   6.840906   6.183032   5.788181   6.388994
    26  H    6.201278   6.704267   6.301018   5.428883   7.856472
    27  H    2.902443   3.723578   3.772022   4.513423   3.185940
    28  H    4.122116   5.109644   5.065984   5.418167   4.610198
    29  H    2.838602   4.272317   4.914663   5.286951   5.499685
    30  H    3.506276   4.622757   4.882882   4.771785   6.008388
    31  H    2.175411   3.272880   4.157505   4.134872   6.250391
    32  H    2.171999   2.618812   2.866694   2.565318   5.305243
    33  H    1.093314   2.162427   3.049146   4.024537   3.735316
    34  H    1.096518   2.131562   3.575219   4.277182   5.264091
    35  H    2.130999   1.097082   2.151565   3.367133   3.973242
    36  H    2.157284   1.096084   2.118712   2.521269   5.174159
    37  H    3.503968   2.080429   1.098189   2.037106   3.780970
    38  H    3.420507   2.932558   2.067712   1.014148   4.851664
    39  H    4.385110   3.353948   2.048933   1.016525   4.904007
                   16         17         18         19         20
    16  H    0.000000
    17  H    1.760500   0.000000
    18  H    3.049641   2.432860   0.000000
    19  H    3.112049   3.599076   2.288984   0.000000
    20  H    3.997598   4.252815   2.202681   1.730366   0.000000
    21  H    4.072511   5.190253   4.106745   2.123054   2.567120
    22  H    5.376243   6.053476   4.250768   3.342732   2.135240
    23  H    4.987478   5.898700   4.636224   4.029283   3.038459
    24  H    5.961783   7.309275   6.346175   4.861355   4.577118
    25  H    6.282019   7.411910   6.033501   4.296122   3.996301
    26  H    7.311404   8.337692   6.936781   5.976700   5.001926
    27  H    2.156706   3.813391   4.049735   2.997500   3.752233
    28  H    3.870273   5.482725   5.277350   3.686213   4.266526
    29  H    4.071193   5.660645   5.971599   5.194183   5.400647
    30  H    4.876303   6.292255   5.908066   5.016322   4.769491
    31  H    4.772074   5.833245   5.887358   5.913695   5.467423
    32  H    4.175799   5.012986   4.473099   4.601465   3.860251
    33  H    2.030276   3.292742   4.222496   4.323996   4.638306
    34  H    3.594686   4.394258   5.307726   5.817557   5.760015
    35  H    2.804334   2.554054   3.658689   4.977899   4.927479
    36  H    4.038371   4.007534   4.187528   5.476392   4.882747
    37  H    3.504450   2.684856   2.164521   4.147002   3.611257
    38  H    4.359138   4.640932   3.208451   3.773244   2.461764
    39  H    4.813520   4.488370   2.703988   4.066408   2.676677
                   21         22         23         24         25
    21  H    0.000000
    22  H    2.532796   0.000000
    23  H    3.029044   1.756714   0.000000
    24  H    2.885413   3.057629   2.536988   0.000000
    25  H    2.379224   2.460458   3.055111   1.764357   0.000000
    26  H    4.409165   2.948828   2.481237   2.331174   2.813224
    27  H    2.639729   4.291584   3.703761   3.983792   4.546110
    28  H    2.197303   4.016456   3.467070   2.634855   3.365441
    29  H    4.182620   5.113826   3.775761   3.669614   5.052534
    30  H    3.625288   3.866609   2.401821   2.263639   3.793720
    31  H    5.298126   5.103420   3.427824   4.582765   5.926017
    32  H    4.208304   3.601675   2.099226   4.033844   4.954449
    33  H    4.497575   5.345538   4.315719   5.353949   6.205078
    34  H    5.904113   6.218335   4.876560   6.177112   7.266180
    35  H    5.915070   6.127706   5.333042   7.111232   7.694551
    36  H    6.056895   5.602617   4.581460   6.680588   7.378901
    37  H    5.475724   5.116669   4.868581   7.020049   7.149523
    38  H    3.985321   2.679831   2.182426   4.640614   4.845698
    39  H    4.937380   3.606816   3.686527   6.087714   5.983560
                   26         27         28         29         30
    26  H    0.000000
    27  H    5.672598   0.000000
    28  H    4.738278   1.732433   0.000000
    29  H    5.182321   2.436929   2.363865   0.000000
    30  H    3.447370   3.067291   2.423891   1.743715   0.000000
    31  H    4.998485   3.890548   4.261249   2.430830   2.430701
    32  H    4.222326   3.421814   3.915976   3.058480   2.477604
    33  H    6.536120   2.146094   3.586746   2.610857   3.623586
    34  H    6.946255   3.752730   4.901074   3.192709   4.094956
    35  H    7.753508   4.133174   5.700738   4.875331   5.497086
    36  H    6.835449   4.675052   5.910219   4.843474   5.017553
    37  H    7.275918   4.700370   6.087882   5.931334   5.973573
    38  H    4.433846   4.097027   4.721272   4.730737   3.969976
    39  H    5.760985   5.154286   6.013632   6.164796   5.556395
                   31         32         33         34         35
    31  H    0.000000
    32  H    1.732507   0.000000
    33  H    2.917558   2.894517   0.000000
    34  H    2.289002   2.922351   1.733469   0.000000
    35  H    4.120218   3.680242   2.410493   2.409518   0.000000
    36  H    3.283650   2.744243   3.052946   2.411944   1.751596
    37  H    5.075678   3.872632   3.831523   4.204452   2.230990
    38  H    3.739851   2.025350   3.963850   4.347788   3.917625
    39  H    5.124720   3.500582   4.882533   5.250222   4.067792
                   36         37         38         39
    36  H    0.000000
    37  H    2.410371   0.000000
    38  H    3.061952   2.896424   0.000000
    39  H    3.379655   2.238528   1.613500   0.000000
 Stoichiometry    C12H25NO
 Framework group  C1[X(C12H25NO)]
 Deg. of freedom   111
 Full point group                 C1      NOp   1
 Largest Abelian subgroup         C1      NOp   1
 Largest concise Abelian subgroup C1      NOp   1
                         Standard orientation:                         
 ---------------------------------------------------------------------
 Center     Atomic      Atomic             Coordinates (Angstroms)
 Number     Number       Type             X           Y           Z
 ---------------------------------------------------------------------
      1          6           0        2.556512   -1.135458    1.470715
      2          6           0        1.708367   -1.437006    0.221331
      3          6           0        0.199679   -1.727318    0.526013
      4          6           0       -0.986897   -0.744941    0.859998
      5          6           0       -1.987502   -0.586298   -0.309728
      6          6           0       -3.414257   -0.261517    0.147486
      7          8           0       -4.335825   -0.213778   -0.931161
      8          6           0       -0.663595    0.593039    1.591410
      9          6           0       -0.691409    1.917798    0.799810
     10          6           0        0.291960    2.083188   -0.367984
     11          6           0        1.768807    1.890543    0.034580
     12          6           0        2.578531    0.893365   -0.806781
     13          6           0        2.109324   -0.573085   -1.024249
     14          7           0        1.177234   -0.676629   -2.162626
     15          1           0        2.393635   -1.902523    2.235492
     16          1           0        2.340684   -0.168370    1.927500
     17          1           0        3.623558   -1.146051    1.221998
     18          1           0        2.028588   -2.447796   -0.074281
     19          1           0        0.259618   -2.416057    1.378023
     20          1           0       -0.160450   -2.351555   -0.299340
     21          1           0       -1.549624   -1.327866    1.601282
     22          1           0       -2.042394   -1.523492   -0.875402
     23          1           0       -1.667485    0.186709   -1.019267
     24          1           0       -3.439037    0.671634    0.730807
     25          1           0       -3.776223   -1.058513    0.807300
     26          1           0       -4.078456    0.514421   -1.505440
     27          1           0        0.295180    0.491254    2.106919
     28          1           0       -1.398147    0.714786    2.396749
     29          1           0       -0.499933    2.720181    1.525279
     30          1           0       -1.708564    2.100013    0.432052
     31          1           0        0.147998    3.085154   -0.789006
     32          1           0        0.036938    1.401355   -1.181521
     33          1           0        1.820573    1.605982    1.088943
     34          1           0        2.291161    2.853146   -0.019230
     35          1           0        3.584147    0.850475   -0.370334
     36          1           0        2.704623    1.299344   -1.817069
     37          1           0        3.026034   -1.051707   -1.393822
     38          1           0        0.223725   -0.494531   -1.869102
     39          1           0        1.172688   -1.633230   -2.506454
 ---------------------------------------------------------------------
 Rotational constants (GHZ):           0.9144671           0.4309175           0.4000072
 Standard basis: 6-31+G(2df,p) (6D, 7F)
 There are   615 symmetry adapted cartesian basis functions of A   symmetry.
 There are   573 symmetry adapted basis functions of A   symmetry.
   573 basis functions,   847 primitive gaussians,   615 cartesian basis functions
    56 alpha electrons       56 beta electrons
       nuclear repulsion energy      1022.9736265623 Hartrees.
 NAtoms=   39 NActive=   39 NUniq=   39 SFac= 1.00D+00 NAtFMM=   60 NAOKFM=F Big=F
 Integral buffers will be    131072 words long.
 Regular integral format.
 Two-electron integral symmetry is turned on.
 One-electron integrals computed using PRISM.
 PrsmSu:  requested number of processors reduced to:  12 ShMem   1 Linda.
 NBasis=   573 RedAO= T EigKep=  5.48D-06  NBF=   573
 NBsUse=   573 1.00D-06 EigRej= -1.00D+00 NBFU=   573
 ExpMin= 4.38D-02 ExpMax= 5.48D+03 ExpMxC= 8.25D+02 IAcc=3 IRadAn=         5 AccDes= 0.00D+00
 Harris functional with IExCor=  402 and IRadAn=       5 diagonalized for initial guess.
 HarFok:  IExCor=  402 AccDes= 0.00D+00 IRadAn=         5 IDoV= 1 UseB2=F ITyADJ=14
 ICtDFT=  3500011 ScaDFX=  1.000000  1.000000  1.000000  1.000000
 FoFCou: FMM=F IPFlag=           0 FMFlag=      100000 FMFlg1=           0
         NFxFlg=           0 DoJE=T BraDBF=F KetDBF=T FulRan=T
         wScrn=  0.000000 ICntrl=       500 IOpCl=  0 I1Cent=   200000004 NGrid=           0
         NMat0=    1 NMatS0=      1 NMatT0=    0 NMatD0=    1 NMtDS0=    0 NMtDT0=    0
 Petite list used in FoFCou.
 Requested convergence on RMS density matrix=1.00D-08 within 128 cycles.
 Requested convergence on MAX density matrix=1.00D-06.
 Requested convergence on             energy=1.00D-06.
 No special actions if energy rises.
 SCF Done:  E(RB3LYP) =  -602.331431694     A.U. after   13 cycles
            NFock= 13  Conv=0.33D-08     -V/T= 2.0086
 DoSCS=F DFT=T ScalE2(SS,OS)=  1.000000  1.000000
 ExpMin= 4.38D-02 ExpMax= 5.48D+03 ExpMxC= 8.25D+02 IAcc=3 IRadAn=         5 AccDes= 0.00D+00
 HarFok:  IExCor=  205 AccDes= 0.00D+00 IRadAn=         5 IDoV=-2 UseB2=F ITyADJ=14
 ICtDFT= 12500011 ScaDFX=  1.000000  1.000000  1.000000  1.000000
 Range of M.O.s used for correlation:    15   573
 NBasis=   573 NAE=    56 NBE=    56 NFC=    14 NFV=     0
 NROrb=    559 NOA=    42 NOB=    42 NVA=   517 NVB=   517

 **** Warning!!: The largest alpha MO coefficient is  0.83726713D+02

 Orbital symmetries:
       Occupied  (A) (A) (A) (A) (A) (A) (A) (A) (A) (A) (A) (A)
                 (A) (A) (A) (A) (A) (A) (A) (A) (A) (A) (A) (A)
                 (A) (A) (A) (A) (A) (A) (A) (A) (A) (A) (A) (A)
                 (A) (A) (A) (A) (A) (A) (A) (A) (A) (A) (A) (A)
                 (A) (A) (A) (A) (A) (A) (A) (A)
       Virtual   (A) (A) (A) (A) (A) (A) (A) (A) (A) (A) (A) (A)
                 (A) (A) (A) (A) (A) (A) (A) (A) (A) (A) (A) (A)
                 (A) (A) (A) (A) (A) (A) (A) (A) (A) (A) (A) (A)
                 (A) (A) (A) (A) (A) (A) (A) (A) (A) (A) (A) (A)
                 (A) (A) (A) (A) (A) (A) (A) (A) (A) (A) (A) (A)
                 (A) (A) (A) (A) (A) (A) (A) (A) (A) (A) (A) (A)
                 (A) (A) (A) (A) (A) (A) (A) (A) (A) (A) (A) (A)
                 (A) (A) (A) (A) (A) (A) (A) (A) (A) (A) (A) (A)
                 (A) (A) (A) (A) (A) (A) (A) (A) (A) (A) (A) (A)
                 (A) (A) (A) (A) (A) (A) (A) (A) (A) (A) (A) (A)
                 (A) (A) (A) (A) (A) (A) (A) (A) (A) (A) (A) (A)
                 (A) (A) (A) (A) (A) (A) (A) (A) (A) (A) (A) (A)
                 (A) (A) (A) (A) (A) (A) (A) (A) (A) (A) (A) (A)
                 (A) (A) (A) (A) (A) (A) (A) (A) (A) (A) (A) (A)
                 (A) (A) (A) (A) (A) (A) (A) (A) (A) (A) (A) (A)
                 (A) (A) (A) (A) (A) (A) (A) (A) (A) (A) (A) (A)
                 (A) (A) (A) (A) (A) (A) (A) (A) (A) (A) (A) (A)
                 (A) (A) (A) (A) (A) (A) (A) (A) (A) (A) (A) (A)
                 (A) (A) (A) (A) (A) (A) (A) (A) (A) (A) (A) (A)
                 (A) (A) (A) (A) (A) (A) (A) (A) (A) (A) (A) (A)
                 (A) (A) (A) (A) (A) (A) (A) (A) (A) (A) (A) (A)
                 (A) (A) (A) (A) (A) (A) (A) (A) (A) (A) (A) (A)
                 (A) (A) (A) (A) (A) (A) (A) (A) (A) (A) (A) (A)
                 (A) (A) (A) (A) (A) (A) (A) (A) (A) (A) (A) (A)
                 (A) (A) (A) (A) (A) (A) (A) (A) (A) (A) (A) (A)
                 (A) (A) (A) (A) (A) (A) (A) (A) (A) (A) (A) (A)
                 (A) (A) (A) (A) (A) (A) (A) (A) (A) (A) (A) (A)
                 (A) (A) (A) (A) (A) (A) (A) (A) (A) (A) (A) (A)
                 (A) (A) (A) (A) (A) (A) (A) (A) (A) (A) (A) (A)
                 (A) (A) (A) (A) (A) (A) (A) (A) (A) (A) (A) (A)
                 (A) (A) (A) (A) (A) (A) (A) (A) (A) (A) (A) (A)
                 (A) (A) (A) (A) (A) (A) (A) (A) (A) (A) (A) (A)
                 (A) (A) (A) (A) (A) (A) (A) (A) (A) (A) (A) (A)
                 (A) (A) (A) (A) (A) (A) (A) (A) (A) (A) (A) (A)
                 (A) (A) (A) (A) (A) (A) (A) (A) (A) (A) (A) (A)
                 (A) (A) (A) (A) (A) (A) (A) (A) (A) (A) (A) (A)
                 (A) (A) (A) (A) (A) (A) (A) (A) (A) (A) (A) (A)
                 (A) (A) (A) (A) (A) (A) (A) (A) (A) (A) (A) (A)
                 (A) (A) (A) (A) (A) (A) (A) (A) (A) (A) (A) (A)
                 (A) (A) (A) (A) (A) (A) (A) (A) (A) (A) (A) (A)
                 (A) (A) (A) (A) (A) (A) (A) (A) (A) (A) (A) (A)
                 (A) (A) (A) (A) (A) (A) (A) (A) (A) (A) (A) (A)
                 (A) (A) (A) (A) (A) (A) (A) (A) (A) (A) (A) (A)
                 (A)
    40 initial guesses have been made.
 Convergence on wavefunction:    0.000001000000000
 Iteration     1 Dimension    40 NMult     0 NNew     40
 CISAX will form     3 AO SS matrices at one time.
 New state      5 was old state      9
 New state      6 was old state      5
 New state      7 was old state      6
 New state      8 was old state      7
 New state      9 was old state      8
 Iteration     2 Dimension    60 NMult    40 NNew     20
 Iteration     3 Dimension    80 NMult    60 NNew     20
 Iteration     4 Dimension   100 NMult    80 NNew     20
 Iteration     5 Dimension   120 NMult   100 NNew     20
 Iteration     6 Dimension   140 NMult   120 NNew     20
 Iteration     7 Dimension   160 NMult   140 NNew     20
 Iteration     8 Dimension   180 NMult   160 NNew     20
 Iteration     9 Dimension   200 NMult   180 NNew     20
 Iteration    10 Dimension   220 NMult   200 NNew     20
 Iteration    11 Dimension   232 NMult   220 NNew     12
 Iteration    12 Dimension   234 NMult   232 NNew      2
 ***********************************************************************
 Excited states from <AA,BB:AA,BB> singles matrix:
 ***********************************************************************
 
 Ground to excited state transition densities written to RWF  633
 Ground to excited state transition electric dipole moments (Au):
       state          X           Y           Z        Dip. S.      Osc.
         1         0.0828      0.2531     -0.1297      0.0877      0.0118
         2        -0.0449      0.0753     -0.1821      0.0408      0.0059
         3         0.0008     -0.1653      0.1906      0.0637      0.0095
         4         0.0609      0.1007     -0.1053      0.0250      0.0038
         5        -0.1816      0.0600      0.0322      0.0376      0.0059
         6        -0.1110     -0.0896      0.3194      0.1224      0.0195
         7         0.0998     -0.0362      0.0461      0.0134      0.0022
         8        -0.0714      0.0177     -0.0443      0.0074      0.0012
         9        -0.0217      0.0689     -0.0371      0.0066      0.0011
        10        -0.0508     -0.0377      0.1112      0.0164      0.0027
 Ground to excited state transition velocity dipole moments (Au):
       state          X           Y           Z        Dip. S.      Osc.
         1        -0.0165     -0.0545      0.0265      0.0039      0.0130
         2         0.0082     -0.0158      0.0401      0.0019      0.0059
         3        -0.0002      0.0375     -0.0431      0.0033      0.0098
         4        -0.0144     -0.0231      0.0243      0.0013      0.0039
         5         0.0446     -0.0183     -0.0112      0.0024      0.0070
         6         0.0283      0.0223     -0.0775      0.0073      0.0204
         7        -0.0245      0.0109     -0.0105      0.0008      0.0023
         8         0.0170     -0.0047      0.0123      0.0005      0.0013
         9         0.0054     -0.0160      0.0089      0.0004      0.0010
        10         0.0127      0.0092     -0.0278      0.0010      0.0027
 Ground to excited state transition magnetic dipole moments (Au):
       state          X           Y           Z
         1        -0.5112      0.2793     -0.0850
         2        -0.0552     -0.1765     -0.0706
         3         0.2233      0.1035      0.1423
         4        -0.0236     -0.0687      0.0005
         5        -0.4160     -0.5532      0.1916
         6         0.2133     -0.0081      0.1508
         7        -0.0569      0.1572     -0.0886
         8        -0.0421      0.2078     -0.0436
         9         0.0667     -0.1978      0.0348
        10        -0.0507      0.0505      0.1142
 Ground to excited state transition velocity quadrupole moments (Au):
       state          XX          YY          ZZ          XY          XZ          YZ
         1        -0.0464      0.2724     -0.4088     -0.1933      0.0990      0.2733
         2         0.1132      0.0097     -0.1221      0.0254      0.0612     -0.0350
         3        -0.0634     -0.1499      0.1273      0.0833     -0.1720      0.0357
         4        -0.2292      0.1100     -0.0309     -0.0787      0.0785     -0.0099
         5        -0.6990      0.1030      0.1684      0.2080      0.1392      0.1527
         6        -0.1244     -0.1160      0.3062      0.0391     -0.3189      0.0161
         7        -0.0140     -0.0112     -0.1915      0.1223     -0.2273      0.0665
         8         0.0505     -0.0458      0.0853      0.1004     -0.1418     -0.1343
         9         0.0151      0.2052      0.0118      0.0431      0.0621     -0.1221
        10         0.1770      0.0404      0.0062      0.1263     -0.2549      0.0919
 <0|del|b> * <b|rxdel|0> + <0|del|b> * <b|delr+rdel|0>
 Rotatory Strengths (R) in cgs (10**-40 erg-esu-cm/Gauss)
       state          XX          YY          ZZ    R(velocity)    E-M Angle
         1       -30.1804     11.9124    -13.5051    -10.5910      104.18
         2         3.1673     -7.5154      2.7064     -0.5472       93.31
         3         0.9240     -4.1329     -4.1343     -2.4477       98.19
         4         2.3170      3.7227     -0.0444      1.9984       42.96
         5        12.3527    -17.4651    -26.8920    -10.6681      107.34
         6       -11.5353     -3.2034     -2.5181     -5.7523      105.13
         7         5.6115      2.9043      3.3033      3.9397       42.17
         8        -1.3339     -6.8558      1.8144     -2.1251      118.47
         9         6.8819     -0.5304      4.5336      3.6284       18.29
        10        -5.4455      1.2072     -5.1965     -3.1449      141.17
 1/2[<0|r|b>*<b|rxdel|0> + (<0|rxdel|b>*<b|r|0>)*]
 Rotatory Strengths (R) in cgs (10**-40 erg-esu-cm/Gauss)
       state          XX          YY          ZZ     R(length)
         1        29.9341    -49.9812     -7.7961     -9.2811
         2        -1.7501      9.4056     -9.0842     -0.4762
         3        -0.1212     12.1059    -19.1832     -2.3995
         4         1.0184      4.8937      0.0395      1.9839
         5       -53.4378     23.4567     -4.3685    -11.4499
         6        16.7506     -0.5149    -34.0701     -5.9448
         7         4.0141      4.0198      2.8894      3.6411
         8        -2.1254     -2.6051     -1.3647     -2.0318
         9         1.0248      9.6360      0.9111      3.8573
        10        -1.8211      1.3461     -8.9801     -3.1517
  1/2[<0|del|b>*<b|r|0> + (<0|r|b>*<b|del|0>)*] (Au)
       state          X           Y           Z        Dip. S.   Osc.(frdel)
         1        -0.0014     -0.0138     -0.0034      0.0186      0.0124
         2        -0.0004     -0.0012     -0.0073      0.0089      0.0059
         3        -0.0000     -0.0062     -0.0082      0.0144      0.0096
         4        -0.0009     -0.0023     -0.0026      0.0058      0.0038
         5        -0.0081     -0.0011     -0.0004      0.0096      0.0064
         6        -0.0031     -0.0020     -0.0248      0.0299      0.0199
         7        -0.0024     -0.0004     -0.0005      0.0033      0.0022
         8        -0.0012     -0.0001     -0.0005      0.0018      0.0012
         9        -0.0001     -0.0011     -0.0003      0.0015      0.0010
        10        -0.0006     -0.0003     -0.0031      0.0041      0.0027

 Excitation energies and oscillator strengths:
 
 Excited State   1:      Singlet-A      5.4792 eV  226.28 nm  f=0.0118  <S**2>=0.000
      56 -> 57         0.65373
      56 -> 59        -0.22791
 This state for optimization and/or second-order correction.
 Total Energy, E(TD-HF/TD-DFT) =  -602.130074772    
 Copying the excited state density for this state as the 1-particle RhoCI density.
 
 Excited State   2:      Singlet-A      5.8756 eV  211.02 nm  f=0.0059  <S**2>=0.000
      56 -> 58         0.68481
      56 -> 59        -0.10720
 
 Excited State   3:      Singlet-A      6.0619 eV  204.53 nm  f=0.0095  <S**2>=0.000
      56 -> 57         0.25083
      56 -> 59         0.62433
      56 -> 60         0.12162
 
 Excited State   4:      Singlet-A      6.2214 eV  199.29 nm  f=0.0038  <S**2>=0.000
      56 -> 59        -0.12767
      56 -> 60         0.66910
      56 -> 62        -0.15109
 
 Excited State   5:      Singlet-A      6.3678 eV  194.71 nm  f=0.0059  <S**2>=0.000
      55 -> 57         0.23508
      55 -> 58         0.61753
      55 -> 61         0.14354
 
 Excited State   6:      Singlet-A      6.5064 eV  190.56 nm  f=0.0195  <S**2>=0.000
      55 -> 58         0.10102
      56 -> 59        -0.10666
      56 -> 61         0.59807
      56 -> 62        -0.28548
 
 Excited State   7:      Singlet-A      6.5813 eV  188.39 nm  f=0.0022  <S**2>=0.000
      56 -> 60         0.13693
      56 -> 61         0.32896
      56 -> 62         0.58230
 
 Excited State   8:      Singlet-A      6.6963 eV  185.15 nm  f=0.0012  <S**2>=0.000
      54 -> 57        -0.17887
      55 -> 57         0.61092
      55 -> 58        -0.22452
      55 -> 60        -0.11868
 
 Excited State   9:      Singlet-A      6.7636 eV  183.31 nm  f=0.0011  <S**2>=0.000
      56 -> 59         0.11069
      56 -> 62        -0.11056
      56 -> 63         0.52257
      56 -> 64        -0.41731
 
 Excited State  10:      Singlet-A      6.8414 eV  181.23 nm  f=0.0027  <S**2>=0.000
      56 -> 63         0.43833
      56 -> 64         0.52901
 SavETr:  write IOETrn=   770 NScale= 10 NData=  16 NLR=1 NState=   10 LETran=     190.
          IDoAtm=111111111111111111111111111111111111111
          Differentiating once with respect to electric field.
                with respect to dipole field.
          Differentiating once with respect to nuclear coordinates.
          There are     1 degrees of freedom in the 1st order CPHF.  IDoFFX=0 NUNeed=     1.
 LinEq1:  Iter=  0 NonCon=     1 RMS=7.79D-03 Max=2.67D-01 NDo=     1
 AX will form     1 AO Fock derivatives at one time.
 LinEq1:  Iter=  1 NonCon=     1 RMS=1.95D-03 Max=4.70D-02 NDo=     1
 LinEq1:  Iter=  2 NonCon=     1 RMS=6.86D-04 Max=1.19D-02 NDo=     1
 LinEq1:  Iter=  3 NonCon=     1 RMS=3.80D-04 Max=9.32D-03 NDo=     1
 LinEq1:  Iter=  4 NonCon=     1 RMS=1.37D-04 Max=2.21D-03 NDo=     1
 LinEq1:  Iter=  5 NonCon=     1 RMS=6.78D-05 Max=1.38D-03 NDo=     1
 LinEq1:  Iter=  6 NonCon=     1 RMS=3.23D-05 Max=1.08D-03 NDo=     1
 LinEq1:  Iter=  7 NonCon=     1 RMS=1.40D-05 Max=3.88D-04 NDo=     1
 LinEq1:  Iter=  8 NonCon=     1 RMS=8.07D-06 Max=1.81D-04 NDo=     1
slurmstepd: error: *** JOB 27500709 ON lewis4-r630-hpc4-node539 CANCELLED AT 2023-05-26T00:16:55 DUE TO TIME LIMIT ***
