### Starting Gaussian ###
 Entering Gaussian System, Link 0=g16
 Initial command:
 /cluster/software/gaussian/gaussian-16-A.03/avx2/g16/l1.exe "/local/scratch/linjian/Gau-16156.inp" -scrdir="/local/scratch/linjian/"
 Entering Link 1 = /cluster/software/gaussian/gaussian-16-A.03/avx2/g16/l1.exe PID=     16157.
  
 Copyright (c) 1988,1990,1992,1993,1995,1998,2003,2009,2016,
            Gaussian, Inc.  All Rights Reserved.
  
 This is part of the Gaussian(R) 16 program.  It is based on
 the Gaussian(R) 09 system (copyright 2009, Gaussian, Inc.),
 the Gaussian(R) 03 system (copyright 2003, Gaussian, Inc.),
 the Gaussian(R) 98 system (copyright 1998, Gaussian, Inc.),
 the Gaussian(R) 94 system (copyright 1995, Gaussian, Inc.),
 the Gaussian 92(TM) system (copyright 1992, Gaussian, Inc.),
 the Gaussian 90(TM) system (copyright 1990, Gaussian, Inc.),
 the Gaussian 88(TM) system (copyright 1988, Gaussian, Inc.),
 the Gaussian 86(TM) system (copyright 1986, Carnegie Mellon
 University), and the Gaussian 82(TM) system (copyright 1983,
 Carnegie Mellon University). Gaussian is a federally registered
 trademark of Gaussian, Inc.
  
 This software contains proprietary and confidential information,
 including trade secrets, belonging to Gaussian, Inc.
  
 This software is provided under written license and may be
 used, copied, transmitted, or stored only in accord with that
 written license.
  
 The following legend is applicable only to US Government
 contracts under FAR:
  
                    RESTRICTED RIGHTS LEGEND
  
 Use, reproduction and disclosure by the US Government is
 subject to restrictions as set forth in subparagraphs (a)
 and (c) of the Commercial Computer Software - Restricted
 Rights clause in FAR 52.227-19.
  
 Gaussian, Inc.
 340 Quinnipiac St., Bldg. 40, Wallingford CT 06492
  
  
 ---------------------------------------------------------------
 Warning -- This program may not be used in any manner that
 competes with the business of Gaussian, Inc. or will provide
 assistance to any competitor of Gaussian, Inc.  The licensee
 of this program is prohibited from giving any competitor of
 Gaussian, Inc. access to this program.  By using this program,
 the user acknowledges that Gaussian, Inc. is engaged in the
 business of creating and licensing software in the field of
 computational chemistry and represents and warrants to the
 licensee that it is not a competitor of Gaussian, Inc. and that
 it will not use this program in any manner prohibited above.
 ---------------------------------------------------------------
  

 Cite this work as:
 Gaussian 16, Revision A.03,
 M. J. Frisch, G. W. Trucks, H. B. Schlegel, G. E. Scuseria, 
 M. A. Robb, J. R. Cheeseman, G. Scalmani, V. Barone, 
 G. A. Petersson, H. Nakatsuji, X. Li, M. Caricato, A. V. Marenich, 
 J. Bloino, B. G. Janesko, R. Gomperts, B. Mennucci, H. P. Hratchian, 
 J. V. Ortiz, A. F. Izmaylov, J. L. Sonnenberg, D. Williams-Young, 
 F. Ding, F. Lipparini, F. Egidi, J. Goings, B. Peng, A. Petrone, 
 T. Henderson, D. Ranasinghe, V. G. Zakrzewski, J. Gao, N. Rega, 
 G. Zheng, W. Liang, M. Hada, M. Ehara, K. Toyota, R. Fukuda, 
 J. Hasegawa, M. Ishida, T. Nakajima, Y. Honda, O. Kitao, H. Nakai, 
 T. Vreven, K. Throssell, J. A. Montgomery, Jr., J. E. Peralta, 
 F. Ogliaro, M. J. Bearpark, J. J. Heyd, E. N. Brothers, K. N. Kudin, 
 V. N. Staroverov, T. A. Keith, R. Kobayashi, J. Normand, 
 K. Raghavachari, A. P. Rendell, J. C. Burant, S. S. Iyengar, 
 J. Tomasi, M. Cossi, J. M. Millam, M. Klene, C. Adamo, R. Cammi, 
 J. W. Ochterski, R. L. Martin, K. Morokuma, O. Farkas, 
 J. B. Foresman, and D. J. Fox, Gaussian, Inc., Wallingford CT, 2016.
 
 ******************************************
 Gaussian 16:  ES64L-G16RevA.03 25-Dec-2016
                28-May-2023 
 ******************************************
 %chk=CC1C2CC1C21CCC1.chk
 %NProcShared=20
 Will use up to   20 processors via shared memory.
 -----------------------------
 # opt freq b3lyp/6-31g(2df,p)
 -----------------------------
 1/18=20,19=15,26=3,38=1/1,3;
 2/9=110,12=2,17=6,18=5,40=1/2;
 3/5=1,6=6,7=104,11=2,25=1,30=1,71=1,74=-5/1,2,3;
 4//1;
 5/5=2,38=5/2;
 6/7=2,8=2,9=2,10=2,28=1/1;
 7//1,2,3,16;
 1/18=20,19=15,26=3/3(2);
 2/9=110/2;
 99//99;
 2/9=110/2;
 3/5=1,6=6,7=104,11=2,25=1,30=1,71=1,74=-5/1,2,3;
 4/5=5,16=3,69=1/1;
 5/5=2,38=5/2;
 7//1,2,3,16;
 1/18=20,19=15,26=3/3(-5);
 2/9=110/2;
 6/7=2,8=2,9=2,10=2,19=2,28=1/1;
 99/9=1/99;
 -------------------
 Title Card Required
 -------------------
 Symbolic Z-matrix:
 Charge =  0 Multiplicity = 1
 C                     1.06742   0.07015  -0.05978 
 C                     2.55657   0.14672   0.19217 
 C                     3.69104   0.68561  -0.74703 
 C                     4.55528   0.61046   0.70599 
 C                     3.19422   1.3973    0.97548 
 C                     3.22012   2.10698  -0.41804 
 C                     4.2602    3.16474  -0.73061 
 C                     3.13625   4.17287  -0.43587 
 C                     2.12743   3.03304  -0.81748 
 H                     0.82178  -0.78614  -0.69735 
 H                     0.64803   0.95889  -0.52523 
 H                     0.555    -0.08135   0.89744 
 H                     2.8099   -0.86215   0.56308 
 H                     3.96629   0.27379  -1.70081 
 H                     5.42935   1.25554   0.83389 
 H                     4.69422  -0.32004   1.25933 
 H                     2.79953   1.74594   1.91356 
 H                     4.57238   3.1574   -1.78525 
 H                     5.15508   3.22987  -0.11001 
 H                     3.13998   5.07387  -1.05191 
 H                     3.11392   4.46162   0.6233 
 H                     1.86835   3.02602  -1.88263 
 H                     1.21341   3.05422  -0.21741 
 

 GradGradGradGradGradGradGradGradGradGradGradGradGradGradGradGradGradGrad
 Berny optimization.
 Initialization pass.
                           ----------------------------
                           !    Initial Parameters    !
                           ! (Angstroms and Degrees)  !
 --------------------------                            --------------------------
 ! Name  Definition              Value          Derivative Info.                !
 --------------------------------------------------------------------------------
 ! R1    R(1,2)                  1.5123         estimate D2E/DX2                !
 ! R2    R(1,10)                 1.0955         estimate D2E/DX2                !
 ! R3    R(1,11)                 1.0874         estimate D2E/DX2                !
 ! R4    R(1,12)                 1.0963         estimate D2E/DX2                !
 ! R5    R(2,3)                  1.5683         estimate D2E/DX2                !
 ! R6    R(2,5)                  1.6075         estimate D2E/DX2                !
 ! R7    R(2,13)                 1.1043         estimate D2E/DX2                !
 ! R8    R(3,4)                  1.6923         estimate D2E/DX2                !
 ! R9    R(3,6)                  1.5331         estimate D2E/DX2                !
 ! R10   R(3,14)                 1.0747         estimate D2E/DX2                !
 ! R11   R(4,5)                  1.5951         estimate D2E/DX2                !
 ! R12   R(4,15)                 1.0938         estimate D2E/DX2                !
 ! R13   R(4,16)                 1.0915         estimate D2E/DX2                !
 ! R14   R(5,6)                  1.564          estimate D2E/DX2                !
 ! R15   R(5,17)                 1.0758         estimate D2E/DX2                !
 ! R16   R(6,7)                  1.516          estimate D2E/DX2                !
 ! R17   R(6,9)                  1.487          estimate D2E/DX2                !
 ! R18   R(7,8)                  1.5383         estimate D2E/DX2                !
 ! R19   R(7,18)                 1.0999         estimate D2E/DX2                !
 ! R20   R(7,19)                 1.091          estimate D2E/DX2                !
 ! R21   R(8,9)                  1.5693         estimate D2E/DX2                !
 ! R22   R(8,20)                 1.0915         estimate D2E/DX2                !
 ! R23   R(8,21)                 1.0981         estimate D2E/DX2                !
 ! R24   R(9,22)                 1.0962         estimate D2E/DX2                !
 ! R25   R(9,23)                 1.0936         estimate D2E/DX2                !
 ! A1    A(2,1,10)             110.9375         estimate D2E/DX2                !
 ! A2    A(2,1,11)             114.1878         estimate D2E/DX2                !
 ! A3    A(2,1,12)             108.7722         estimate D2E/DX2                !
 ! A4    A(10,1,11)            107.6536         estimate D2E/DX2                !
 ! A5    A(10,1,12)            107.1786         estimate D2E/DX2                !
 ! A6    A(11,1,12)            107.8441         estimate D2E/DX2                !
 ! A7    A(1,2,3)              129.0467         estimate D2E/DX2                !
 ! A8    A(1,2,5)              120.7425         estimate D2E/DX2                !
 ! A9    A(1,2,13)             103.6265         estimate D2E/DX2                !
 ! A10   A(3,2,5)               74.7849         estimate D2E/DX2                !
 ! A11   A(3,2,13)             110.433          estimate D2E/DX2                !
 ! A12   A(5,2,13)             117.1324         estimate D2E/DX2                !
 ! A13   A(2,3,4)               80.7913         estimate D2E/DX2                !
 ! A14   A(2,3,6)               88.1583         estimate D2E/DX2                !
 ! A15   A(2,3,14)             125.8078         estimate D2E/DX2                !
 ! A16   A(4,3,6)               90.7901         estimate D2E/DX2                !
 ! A17   A(4,3,14)             127.8919         estimate D2E/DX2                !
 ! A18   A(6,3,14)             128.6367         estimate D2E/DX2                !
 ! A19   A(3,4,5)               71.7832         estimate D2E/DX2                !
 ! A20   A(3,4,15)             118.8354         estimate D2E/DX2                !
 ! A21   A(3,4,16)             122.5581         estimate D2E/DX2                !
 ! A22   A(5,4,15)             111.7886         estimate D2E/DX2                !
 ! A23   A(5,4,16)             116.3281         estimate D2E/DX2                !
 ! A24   A(15,4,16)            109.9844         estimate D2E/DX2                !
 ! A25   A(2,5,4)               82.6681         estimate D2E/DX2                !
 ! A26   A(2,5,6)               85.7224         estimate D2E/DX2                !
 ! A27   A(2,5,17)             122.1062         estimate D2E/DX2                !
 ! A28   A(4,5,6)               93.3922         estimate D2E/DX2                !
 ! A29   A(4,5,17)             128.3346         estimate D2E/DX2                !
 ! A30   A(6,5,17)             129.4904         estimate D2E/DX2                !
 ! A31   A(3,6,5)               77.0322         estimate D2E/DX2                !
 ! A32   A(3,6,7)              113.0728         estimate D2E/DX2                !
 ! A33   A(3,6,9)              138.2006         estimate D2E/DX2                !
 ! A34   A(5,6,7)              120.7738         estimate D2E/DX2                !
 ! A35   A(5,6,9)              120.6475         estimate D2E/DX2                !
 ! A36   A(7,6,9)               90.8155         estimate D2E/DX2                !
 ! A37   A(6,7,8)               85.2095         estimate D2E/DX2                !
 ! A38   A(6,7,18)             112.8152         estimate D2E/DX2                !
 ! A39   A(6,7,19)             119.1514         estimate D2E/DX2                !
 ! A40   A(8,7,18)             113.2946         estimate D2E/DX2                !
 ! A41   A(8,7,19)             116.8205         estimate D2E/DX2                !
 ! A42   A(18,7,19)            108.2422         estimate D2E/DX2                !
 ! A43   A(7,8,9)               86.9675         estimate D2E/DX2                !
 ! A44   A(7,8,20)             115.4891         estimate D2E/DX2                !
 ! A45   A(7,8,21)             111.8392         estimate D2E/DX2                !
 ! A46   A(9,8,20)             117.6804         estimate D2E/DX2                !
 ! A47   A(9,8,21)             114.362          estimate D2E/DX2                !
 ! A48   A(20,8,21)            109.1122         estimate D2E/DX2                !
 ! A49   A(6,9,8)               85.1027         estimate D2E/DX2                !
 ! A50   A(6,9,22)             115.5114         estimate D2E/DX2                !
 ! A51   A(6,9,23)             118.6093         estimate D2E/DX2                !
 ! A52   A(8,9,22)             113.1332         estimate D2E/DX2                !
 ! A53   A(8,9,23)             112.9419         estimate D2E/DX2                !
 ! A54   A(22,9,23)            109.6181         estimate D2E/DX2                !
 ! D1    D(10,1,2,3)            78.6411         estimate D2E/DX2                !
 ! D2    D(10,1,2,5)           173.7618         estimate D2E/DX2                !
 ! D3    D(10,1,2,13)          -52.5954         estimate D2E/DX2                !
 ! D4    D(11,1,2,3)           -43.2161         estimate D2E/DX2                !
 ! D5    D(11,1,2,5)            51.9045         estimate D2E/DX2                !
 ! D6    D(11,1,2,13)         -174.4527         estimate D2E/DX2                !
 ! D7    D(12,1,2,3)          -163.7106         estimate D2E/DX2                !
 ! D8    D(12,1,2,5)           -68.59           estimate D2E/DX2                !
 ! D9    D(12,1,2,13)           65.0528         estimate D2E/DX2                !
 ! D10   D(1,2,3,4)            166.2037         estimate D2E/DX2                !
 ! D11   D(1,2,3,6)             75.1042         estimate D2E/DX2                !
 ! D12   D(1,2,3,14)           -63.236          estimate D2E/DX2                !
 ! D13   D(5,2,3,4)             48.7198         estimate D2E/DX2                !
 ! D14   D(5,2,3,6)            -42.3798         estimate D2E/DX2                !
 ! D15   D(5,2,3,14)           179.28           estimate D2E/DX2                !
 ! D16   D(13,2,3,4)           -65.0474         estimate D2E/DX2                !
 ! D17   D(13,2,3,6)          -156.147          estimate D2E/DX2                !
 ! D18   D(13,2,3,14)           65.5128         estimate D2E/DX2                !
 ! D19   D(1,2,5,4)           -179.2283         estimate D2E/DX2                !
 ! D20   D(1,2,5,6)            -85.246          estimate D2E/DX2                !
 ! D21   D(1,2,5,17)            49.659          estimate D2E/DX2                !
 ! D22   D(3,2,5,4)            -52.5146         estimate D2E/DX2                !
 ! D23   D(3,2,5,6)             41.4677         estimate D2E/DX2                !
 ! D24   D(3,2,5,17)           176.3728         estimate D2E/DX2                !
 ! D25   D(13,2,5,4)            52.9806         estimate D2E/DX2                !
 ! D26   D(13,2,5,6)           146.9629         estimate D2E/DX2                !
 ! D27   D(13,2,5,17)          -78.132          estimate D2E/DX2                !
 ! D28   D(2,3,4,5)            -50.2977         estimate D2E/DX2                !
 ! D29   D(2,3,4,15)          -155.6578         estimate D2E/DX2                !
 ! D30   D(2,3,4,16)            59.8131         estimate D2E/DX2                !
 ! D31   D(6,3,4,5)             37.7082         estimate D2E/DX2                !
 ! D32   D(6,3,4,15)           -67.6519         estimate D2E/DX2                !
 ! D33   D(6,3,4,16)           147.8189         estimate D2E/DX2                !
 ! D34   D(14,3,4,5)          -178.9711         estimate D2E/DX2                !
 ! D35   D(14,3,4,15)           75.6689         estimate D2E/DX2                !
 ! D36   D(14,3,4,16)          -68.8603         estimate D2E/DX2                !
 ! D37   D(2,3,6,5)             43.3137         estimate D2E/DX2                !
 ! D38   D(2,3,6,7)            161.5169         estimate D2E/DX2                !
 ! D39   D(2,3,6,9)            -78.5065         estimate D2E/DX2                !
 ! D40   D(4,3,6,5)            -37.4462         estimate D2E/DX2                !
 ! D41   D(4,3,6,7)             80.757          estimate D2E/DX2                !
 ! D42   D(4,3,6,9)           -159.2664         estimate D2E/DX2                !
 ! D43   D(14,3,6,5)           179.6742         estimate D2E/DX2                !
 ! D44   D(14,3,6,7)           -62.1227         estimate D2E/DX2                !
 ! D45   D(14,3,6,9)            57.854          estimate D2E/DX2                !
 ! D46   D(3,4,5,2)             48.3338         estimate D2E/DX2                !
 ! D47   D(3,4,5,6)            -36.9074         estimate D2E/DX2                !
 ! D48   D(3,4,5,17)           173.8841         estimate D2E/DX2                !
 ! D49   D(15,4,5,2)           162.8688         estimate D2E/DX2                !
 ! D50   D(15,4,5,6)            77.6276         estimate D2E/DX2                !
 ! D51   D(15,4,5,17)          -71.5809         estimate D2E/DX2                !
 ! D52   D(16,4,5,2)           -69.6527         estimate D2E/DX2                !
 ! D53   D(16,4,5,6)          -154.8939         estimate D2E/DX2                !
 ! D54   D(16,4,5,17)           55.8976         estimate D2E/DX2                !
 ! D55   D(2,5,6,3)            -42.1267         estimate D2E/DX2                !
 ! D56   D(2,5,6,7)           -151.4522         estimate D2E/DX2                !
 ! D57   D(2,5,6,9)             96.7027         estimate D2E/DX2                !
 ! D58   D(4,5,6,3)             40.2516         estimate D2E/DX2                !
 ! D59   D(4,5,6,7)            -69.0739         estimate D2E/DX2                !
 ! D60   D(4,5,6,9)            179.0811         estimate D2E/DX2                !
 ! D61   D(17,5,6,3)          -171.1021         estimate D2E/DX2                !
 ! D62   D(17,5,6,7)            79.5724         estimate D2E/DX2                !
 ! D63   D(17,5,6,9)           -32.2727         estimate D2E/DX2                !
 ! D64   D(3,6,7,8)            171.1463         estimate D2E/DX2                !
 ! D65   D(3,6,7,18)            57.8633         estimate D2E/DX2                !
 ! D66   D(3,6,7,19)           -70.7087         estimate D2E/DX2                !
 ! D67   D(5,6,7,8)           -100.5853         estimate D2E/DX2                !
 ! D68   D(5,6,7,18)           146.1316         estimate D2E/DX2                !
 ! D69   D(5,6,7,19)            17.5596         estimate D2E/DX2                !
 ! D70   D(9,6,7,8)             26.4158         estimate D2E/DX2                !
 ! D71   D(9,6,7,18)           -86.8673         estimate D2E/DX2                !
 ! D72   D(9,6,7,19)           144.5607         estimate D2E/DX2                !
 ! D73   D(3,6,9,8)           -153.0144         estimate D2E/DX2                !
 ! D74   D(3,6,9,22)           -39.6848         estimate D2E/DX2                !
 ! D75   D(3,6,9,23)            93.4761         estimate D2E/DX2                !
 ! D76   D(5,6,9,8)            101.2398         estimate D2E/DX2                !
 ! D77   D(5,6,9,22)          -145.4307         estimate D2E/DX2                !
 ! D78   D(5,6,9,23)           -12.2698         estimate D2E/DX2                !
 ! D79   D(7,6,9,8)            -25.8607         estimate D2E/DX2                !
 ! D80   D(7,6,9,22)            87.4689         estimate D2E/DX2                !
 ! D81   D(7,6,9,23)          -139.3702         estimate D2E/DX2                !
 ! D82   D(6,7,8,9)            -24.9676         estimate D2E/DX2                !
 ! D83   D(6,7,8,20)          -144.3144         estimate D2E/DX2                !
 ! D84   D(6,7,8,21)            90.1062         estimate D2E/DX2                !
 ! D85   D(18,7,8,9)            87.8358         estimate D2E/DX2                !
 ! D86   D(18,7,8,20)          -31.511          estimate D2E/DX2                !
 ! D87   D(18,7,8,21)         -157.0904         estimate D2E/DX2                !
 ! D88   D(19,7,8,9)          -145.3243         estimate D2E/DX2                !
 ! D89   D(19,7,8,20)           95.329          estimate D2E/DX2                !
 ! D90   D(19,7,8,21)          -30.2504         estimate D2E/DX2                !
 ! D91   D(7,8,9,6)             25.4941         estimate D2E/DX2                !
 ! D92   D(7,8,9,22)           -90.1932         estimate D2E/DX2                !
 ! D93   D(7,8,9,23)           144.5459         estimate D2E/DX2                !
 ! D94   D(20,8,9,6)           142.8068         estimate D2E/DX2                !
 ! D95   D(20,8,9,22)           27.1194         estimate D2E/DX2                !
 ! D96   D(20,8,9,23)          -98.1415         estimate D2E/DX2                !
 ! D97   D(21,8,9,6)           -87.1465         estimate D2E/DX2                !
 ! D98   D(21,8,9,22)          157.1662         estimate D2E/DX2                !
 ! D99   D(21,8,9,23)           31.9053         estimate D2E/DX2                !
 --------------------------------------------------------------------------------
 Trust Radius=3.00D-01 FncErr=1.00D-07 GrdErr=1.00D-06 EigMax=2.50D+02 EigMin=1.00D-04
 Number of steps in this run=    138 maximum allowed number of steps=    138.
 GradGradGradGradGradGradGradGradGradGradGradGradGradGradGradGradGradGrad

                          Input orientation:                          
 ---------------------------------------------------------------------
 Center     Atomic      Atomic             Coordinates (Angstroms)
 Number     Number       Type             X           Y           Z
 ---------------------------------------------------------------------
      1          6           0        1.067420    0.070150   -0.059780
      2          6           0        2.556570    0.146720    0.192170
      3          6           0        3.691040    0.685610   -0.747030
      4          6           0        4.555280    0.610460    0.705990
      5          6           0        3.194220    1.397300    0.975480
      6          6           0        3.220120    2.106980   -0.418040
      7          6           0        4.260200    3.164740   -0.730610
      8          6           0        3.136250    4.172870   -0.435870
      9          6           0        2.127430    3.033040   -0.817480
     10          1           0        0.821780   -0.786140   -0.697350
     11          1           0        0.648030    0.958890   -0.525230
     12          1           0        0.555000   -0.081350    0.897440
     13          1           0        2.809900   -0.862150    0.563080
     14          1           0        3.966290    0.273790   -1.700810
     15          1           0        5.429350    1.255540    0.833890
     16          1           0        4.694220   -0.320040    1.259330
     17          1           0        2.799530    1.745940    1.913560
     18          1           0        4.572380    3.157400   -1.785250
     19          1           0        5.155080    3.229870   -0.110010
     20          1           0        3.139980    5.073870   -1.051910
     21          1           0        3.113920    4.461620    0.623300
     22          1           0        1.868350    3.026020   -1.882630
     23          1           0        1.213410    3.054220   -0.217410
 ---------------------------------------------------------------------
                    Distance matrix (angstroms):
                    1          2          3          4          5
     1  C    0.000000
     2  C    1.512253   0.000000
     3  C    2.781094   1.568286   0.000000
     4  C    3.611579   2.115161   1.692284   0.000000
     5  C    2.712263   1.607521   1.928827   1.595063   0.000000
     6  C    2.985154   2.157608   1.533066   2.299058   1.564038
     7  C    4.496704   3.586408   2.543678   2.945376   2.677854
     8  C    4.610186   4.115865   3.544798   4.001032   3.114331
     9  C    3.236734   3.087782   2.821395   3.752907   2.651111
    10  H    1.095476   2.161243   3.225084   4.225976   3.632388
    11  H    1.087378   2.194723   3.063297   4.111436   2.987878
    12  H    1.096265   2.134410   3.623156   4.064172   3.026215
    13  H    2.072046   1.104341   2.210963   2.288090   2.328710
    14  H    3.337349   2.363648   1.074735   2.500588   3.003480
    15  H    4.607627   3.145497   2.417819   1.093840   2.244092
    16  H    3.878914   2.434388   2.458289   1.091476   2.297788
    17  H    3.114891   2.362143   2.999638   2.414580   1.075790
    18  H    4.979267   4.127696   2.822128   3.562790   3.552310
    19  H    5.166751   4.043437   3.003742   2.808367   2.895095
    20  H    5.506091   5.115165   4.433221   5.001531   4.198859
    21  H    4.892828   4.372056   4.058217   4.112881   3.085537
    22  H    3.563908   3.615081   3.176367   4.444713   3.546752
    23  H    2.991794   3.228837   3.468351   4.241783   2.844640
                    6          7          8          9         10
     6  C    0.000000
     7  C    1.516022   0.000000
     8  C    2.067669   1.538331   0.000000
     9  C    1.486980   2.138597   1.569253   0.000000
    10  H    3.768314   5.237680   5.478770   4.037981   0.000000
    11  H    2.818732   4.237420   4.065574   2.564397   1.762085
    12  H    3.690818   5.188078   5.151597   3.887533   1.763875
    13  H    3.153825   4.471336   5.143523   4.188582   2.355224
    14  H    2.358570   3.063538   4.182328   3.431492   3.466746
    15  H    2.678241   2.731230   3.921914   4.097463   5.267149
    16  H    3.298025   4.036326   5.048486   4.705815   4.363672
    17  H    2.396582   3.337392   3.394583   3.093045   4.140021
    18  H    2.191176   1.099898   2.216862   2.632456   5.549958
    19  H    2.258281   1.090961   2.251912   3.115433   5.937238
    20  H    3.034905   2.236717   1.091476   2.290241   6.311852
    21  H    2.576819   2.197482   1.098051   2.256070   5.876819
    22  H    2.194753   2.658447   2.239632   1.096228   4.127077
    23  H    2.228094   3.091685   2.235266   1.093602   3.889998
                   11         12         13         14         15
    11  H    0.000000
    12  H    1.764864   0.000000
    13  H    3.028909   2.409568   0.000000
    14  H    3.586391   4.302781   2.784384   0.000000
    15  H    4.979581   5.054760   3.379270   3.086921   0.000000
    16  H    4.603474   4.161860   2.080699   3.105631   1.789935
    17  H    3.346057   3.067475   2.937012   4.073355   2.884811
    18  H    4.671362   5.815984   4.977728   2.947827   3.348337
    19  H    5.063917   5.756724   4.764194   3.561218   2.205482
    20  H    4.839449   6.087559   6.160639   4.913718   4.834987
    21  H    4.434958   5.221283   5.332784   4.864765   3.960368
    22  H    2.757670   4.371433   4.688910   3.465426   4.816098
    23  H    2.191989   3.392373   4.300686   4.184449   4.702620
                   16         17         18         19         20
    16  H    0.000000
    17  H    2.878566   0.000000
    18  H    4.623516   4.337789   0.000000
    19  H    3.832668   3.441729   1.775168   0.000000
    20  H    6.070565   4.470463   2.502482   2.889315   0.000000
    21  H    5.076037   3.023000   3.103097   2.494251   1.783776
    22  H    5.390136   4.112999   2.708971   3.739830   2.549672
    23  H    5.067784   2.961149   3.708294   3.947043   2.913254
                   21         22         23
    21  H    0.000000
    22  H    3.145167   0.000000
    23  H    2.509882   1.789609   0.000000
 Stoichiometry    C9H14
 Framework group  C1[X(C9H14)]
 Deg. of freedom    63
 Full point group                 C1      NOp   1
 Largest Abelian subgroup         C1      NOp   1
 Largest concise Abelian subgroup C1      NOp   1
                         Standard orientation:                         
 ---------------------------------------------------------------------
 Center     Atomic      Atomic             Coordinates (Angstroms)
 Number     Number       Type             X           Y           Z
 ---------------------------------------------------------------------
      1          6           0       -2.099610   -1.497881    0.017543
      2          6           0       -1.677216   -0.045820    0.020759
      3          6           0       -0.656931    0.684204    0.961824
      4          6           0       -0.810720    1.866068   -0.239580
      5          6           0       -0.503888    0.470812   -0.949043
      6          6           0        0.473901    0.006072    0.179744
      7          6           0        1.816921    0.683166    0.369916
      8          6           0        2.390142   -0.530271   -0.382049
      9          6           0        1.131173   -1.326048    0.112212
     10          1           0       -2.828717   -1.695240    0.810966
     11          1           0       -1.279244   -2.200792    0.141267
     12          1           0       -2.591382   -1.720123   -0.936692
     13          1           0       -2.634628    0.503711   -0.010026
     14          1           0       -0.758255    0.806397    2.024771
     15          1           0        0.003764    2.582062   -0.382597
     16          1           0       -1.765958    2.333915   -0.484445
     17          1           0       -0.490863    0.245733   -2.000944
     18          1           0        2.126699    0.727493    1.424358
     19          1           0        1.985647    1.663927   -0.077113
     20          1           0        3.370408   -0.871724   -0.044693
     21          1           0        2.421997   -0.361031   -1.466511
     22          1           0        1.287818   -1.824632    1.075847
     23          1           0        0.770081   -2.051512   -0.622144
 ---------------------------------------------------------------------
 Rotational constants (GHZ):           2.7290010           1.5451045           1.1824205
 Standard basis: 6-31G(2df,p) (6D, 7F)
 There are   349 symmetry adapted cartesian basis functions of A   symmetry.
 There are   322 symmetry adapted basis functions of A   symmetry.
   322 basis functions,   494 primitive gaussians,   349 cartesian basis functions
    34 alpha electrons       34 beta electrons
       nuclear repulsion energy       469.5469878840 Hartrees.
 NAtoms=   23 NActive=   23 NUniq=   23 SFac= 1.00D+00 NAtFMM=   60 NAOKFM=F Big=F
 Integral buffers will be    131072 words long.
 Raffenetti 2 integral format.
 Two-electron integral symmetry is turned on.
 One-electron integrals computed using PRISM.
 PrsmSu:  requested number of processors reduced to:  13 ShMem   1 Linda.
 NBasis=   322 RedAO= T EigKep=  3.30D-04  NBF=   322
 NBsUse=   322 1.00D-06 EigRej= -1.00D+00 NBFU=   322
 ExpMin= 1.61D-01 ExpMax= 3.05D+03 ExpMxC= 4.57D+02 IAcc=3 IRadAn=         5 AccDes= 0.00D+00
 Harris functional with IExCor=  402 and IRadAn=       5 diagonalized for initial guess.
 HarFok:  IExCor=  402 AccDes= 0.00D+00 IRadAn=         5 IDoV= 1 UseB2=F ITyADJ=14
 ICtDFT=  3500011 ScaDFX=  1.000000  1.000000  1.000000  1.000000
 FoFCou: FMM=F IPFlag=           0 FMFlag=      100000 FMFlg1=           0
         NFxFlg=           0 DoJE=T BraDBF=F KetDBF=T FulRan=T
         wScrn=  0.000000 ICntrl=       500 IOpCl=  0 I1Cent=   200000004 NGrid=           0
         NMat0=    1 NMatS0=      1 NMatT0=    0 NMatD0=    1 NMtDS0=    0 NMtDT0=    0
 Petite list used in FoFCou.
 Requested convergence on RMS density matrix=1.00D-08 within 128 cycles.
 Requested convergence on MAX density matrix=1.00D-06.
 Requested convergence on             energy=1.00D-06.
 No special actions if energy rises.
 Integral accuracy reduced to 1.0D-05 until final iterations.
 Initial convergence to 1.0D-05 achieved.  Increase integral accuracy.
 SCF Done:  E(RB3LYP) =  -351.262850485     A.U. after   12 cycles
            NFock= 12  Conv=0.63D-08     -V/T= 2.0087

 **********************************************************************

            Population analysis using the SCF density.

 **********************************************************************

 Orbital symmetries:
       Occupied  (A) (A) (A) (A) (A) (A) (A) (A) (A) (A) (A) (A)
                 (A) (A) (A) (A) (A) (A) (A) (A) (A) (A) (A) (A)
                 (A) (A) (A) (A) (A) (A) (A) (A) (A) (A)
       Virtual   (A) (A) (A) (A) (A) (A) (A) (A) (A) (A) (A) (A)
                 (A) (A) (A) (A) (A) (A) (A) (A) (A) (A) (A) (A)
                 (A) (A) (A) (A) (A) (A) (A) (A) (A) (A) (A) (A)
                 (A) (A) (A) (A) (A) (A) (A) (A) (A) (A) (A) (A)
                 (A) (A) (A) (A) (A) (A) (A) (A) (A) (A) (A) (A)
                 (A) (A) (A) (A) (A) (A) (A) (A) (A) (A) (A) (A)
                 (A) (A) (A) (A) (A) (A) (A) (A) (A) (A) (A) (A)
                 (A) (A) (A) (A) (A) (A) (A) (A) (A) (A) (A) (A)
                 (A) (A) (A) (A) (A) (A) (A) (A) (A) (A) (A) (A)
                 (A) (A) (A) (A) (A) (A) (A) (A) (A) (A) (A) (A)
                 (A) (A) (A) (A) (A) (A) (A) (A) (A) (A) (A) (A)
                 (A) (A) (A) (A) (A) (A) (A) (A) (A) (A) (A) (A)
                 (A) (A) (A) (A) (A) (A) (A) (A) (A) (A) (A) (A)
                 (A) (A) (A) (A) (A) (A) (A) (A) (A) (A) (A) (A)
                 (A) (A) (A) (A) (A) (A) (A) (A) (A) (A) (A) (A)
                 (A) (A) (A) (A) (A) (A) (A) (A) (A) (A) (A) (A)
                 (A) (A) (A) (A) (A) (A) (A) (A) (A) (A) (A) (A)
                 (A) (A) (A) (A) (A) (A) (A) (A) (A) (A) (A) (A)
                 (A) (A) (A) (A) (A) (A) (A) (A) (A) (A) (A) (A)
                 (A) (A) (A) (A) (A) (A) (A) (A) (A) (A) (A) (A)
                 (A) (A) (A) (A) (A) (A) (A) (A) (A) (A) (A) (A)
                 (A) (A) (A) (A) (A) (A) (A) (A) (A) (A) (A) (A)
                 (A) (A) (A) (A) (A) (A) (A) (A) (A) (A) (A) (A)
                 (A) (A) (A) (A) (A) (A) (A) (A) (A) (A) (A) (A)
 The electronic state is 1-A.
 Alpha  occ. eigenvalues --  -10.19357 -10.19059 -10.18954 -10.18799 -10.18306
 Alpha  occ. eigenvalues --  -10.17842 -10.17576 -10.16392 -10.16204  -0.89608
 Alpha  occ. eigenvalues --   -0.82473  -0.72312  -0.65947  -0.64629  -0.61717
 Alpha  occ. eigenvalues --   -0.60323  -0.55724  -0.50783  -0.49243  -0.46433
 Alpha  occ. eigenvalues --   -0.43774  -0.43177  -0.40212  -0.39099  -0.38151
 Alpha  occ. eigenvalues --   -0.36293  -0.34703  -0.33538  -0.31057  -0.30408
 Alpha  occ. eigenvalues --   -0.29784  -0.28523  -0.27280  -0.25108
 Alpha virt. eigenvalues --    0.09071   0.09532   0.10025   0.10810   0.12339
 Alpha virt. eigenvalues --    0.13995   0.14444   0.15303   0.16129   0.16439
 Alpha virt. eigenvalues --    0.17025   0.17119   0.19021   0.19357   0.20107
 Alpha virt. eigenvalues --    0.21368   0.22062   0.22859   0.23534   0.25152
 Alpha virt. eigenvalues --    0.25317   0.27244   0.29112   0.31425   0.35010
 Alpha virt. eigenvalues --    0.42517   0.44048   0.44600   0.45938   0.47313
 Alpha virt. eigenvalues --    0.48312   0.49693   0.51127   0.53003   0.54388
 Alpha virt. eigenvalues --    0.56078   0.56341   0.57070   0.58266   0.62238
 Alpha virt. eigenvalues --    0.63269   0.64683   0.65232   0.67912   0.68608
 Alpha virt. eigenvalues --    0.68955   0.70508   0.73147   0.73948   0.74478
 Alpha virt. eigenvalues --    0.75466   0.76078   0.76768   0.76962   0.77117
 Alpha virt. eigenvalues --    0.77675   0.78237   0.78942   0.81676   0.82825
 Alpha virt. eigenvalues --    0.83951   0.85082   0.86007   0.88726   0.91161
 Alpha virt. eigenvalues --    0.92648   0.93849   0.99048   1.00130   1.07080
 Alpha virt. eigenvalues --    1.08512   1.10629   1.14902   1.16177   1.19339
 Alpha virt. eigenvalues --    1.21125   1.22025   1.24714   1.26361   1.26976
 Alpha virt. eigenvalues --    1.29507   1.32813   1.35223   1.37908   1.40177
 Alpha virt. eigenvalues --    1.41369   1.43443   1.44847   1.45807   1.47312
 Alpha virt. eigenvalues --    1.48093   1.50229   1.51211   1.52148   1.54138
 Alpha virt. eigenvalues --    1.55404   1.56366   1.58418   1.59634   1.61215
 Alpha virt. eigenvalues --    1.62121   1.63209   1.64827   1.67698   1.69645
 Alpha virt. eigenvalues --    1.71082   1.75681   1.78647   1.79186   1.82256
 Alpha virt. eigenvalues --    1.84161   1.89517   1.91536   1.92424   1.97177
 Alpha virt. eigenvalues --    1.97521   2.01112   2.07133   2.11037   2.12123
 Alpha virt. eigenvalues --    2.17155   2.20897   2.22103   2.25077   2.26540
 Alpha virt. eigenvalues --    2.31417   2.33969   2.34762   2.38168   2.39771
 Alpha virt. eigenvalues --    2.40004   2.42807   2.44775   2.46958   2.49713
 Alpha virt. eigenvalues --    2.53030   2.54353   2.55420   2.57851   2.63355
 Alpha virt. eigenvalues --    2.66278   2.67478   2.68693   2.69793   2.71330
 Alpha virt. eigenvalues --    2.73203   2.77757   2.78157   2.80092   2.80589
 Alpha virt. eigenvalues --    2.84100   2.85850   2.87372   2.89132   2.90255
 Alpha virt. eigenvalues --    2.91767   2.92986   2.94740   2.96146   2.97192
 Alpha virt. eigenvalues --    2.98429   3.00525   3.01449   3.03939   3.06098
 Alpha virt. eigenvalues --    3.06608   3.08999   3.09914   3.11863   3.15146
 Alpha virt. eigenvalues --    3.17404   3.17985   3.20366   3.21250   3.23259
 Alpha virt. eigenvalues --    3.24917   3.27153   3.28558   3.29324   3.32325
 Alpha virt. eigenvalues --    3.36298   3.38483   3.40714   3.42584   3.43664
 Alpha virt. eigenvalues --    3.47116   3.49460   3.51620   3.53544   3.55451
 Alpha virt. eigenvalues --    3.56767   3.58964   3.59957   3.65706   3.66191
 Alpha virt. eigenvalues --    3.70219   3.73384   3.75304   3.79256   3.81432
 Alpha virt. eigenvalues --    3.84797   3.87090   3.89994   3.91574   3.93335
 Alpha virt. eigenvalues --    3.93915   3.95885   3.98813   4.00247   4.02087
 Alpha virt. eigenvalues --    4.06949   4.09774   4.12619   4.15755   4.21901
 Alpha virt. eigenvalues --    4.25557   4.31830   4.32382   4.33530   4.40840
 Alpha virt. eigenvalues --    4.42067   4.43615   4.45644   4.47566   4.48655
 Alpha virt. eigenvalues --    4.49644   4.51710   4.53028   4.54115   4.57783
 Alpha virt. eigenvalues --    4.59163   4.61128   4.61506   4.62506   4.64597
 Alpha virt. eigenvalues --    4.66315   4.67249   4.69703   4.71998   4.73580
 Alpha virt. eigenvalues --    4.75261   4.76344   4.76932   4.78520   4.79376
 Alpha virt. eigenvalues --    4.82569   4.83630   4.85925   4.88917   4.90062
 Alpha virt. eigenvalues --    4.91618   4.92120   4.96757   4.98799   4.99939
 Alpha virt. eigenvalues --    5.01321   5.05099   5.06027   5.09962   5.12023
 Alpha virt. eigenvalues --    5.12863   5.19183   5.20355   5.24438   5.29459
 Alpha virt. eigenvalues --    5.31869   5.38319   5.42470   5.49360   5.55257
 Alpha virt. eigenvalues --    5.60784   5.61562   5.69146   5.77265   5.87193
 Alpha virt. eigenvalues --    5.98562   6.14370   6.52183   7.21732  11.03598
 Alpha virt. eigenvalues --   11.35467  11.61127  11.98222  12.02203  12.16318
 Alpha virt. eigenvalues --   12.34107  12.62034  12.97852
          Condensed to atoms (all electrons):
               1          2          3          4          5          6
     1  C    5.128526   0.375609  -0.032083   0.006972  -0.040982  -0.001995
     2  C    0.375609   4.626176   0.337564  -0.005759   0.348693  -0.005829
     3  C   -0.032083   0.337564   5.161688   0.279731  -0.056845   0.337541
     4  C    0.006972  -0.005759   0.279731   5.049647   0.303049   0.015723
     5  C   -0.040982   0.348693  -0.056845   0.303049   5.045972   0.337470
     6  C   -0.001995  -0.005829   0.337541   0.015723   0.337470   4.240701
     7  C    0.000142   0.004304  -0.081595  -0.010164  -0.032568   0.389357
     8  C    0.000316  -0.000085   0.009305  -0.000096   0.001957  -0.058066
     9  C   -0.000705  -0.003084  -0.053594   0.008632  -0.062741   0.393903
    10  H    0.359588  -0.015983  -0.001498  -0.000252   0.004574  -0.000323
    11  H    0.363604  -0.017346  -0.005127   0.000205  -0.003943   0.000446
    12  H    0.367148  -0.016915   0.003721  -0.000035  -0.004839  -0.000143
    13  H   -0.067300   0.359193  -0.039032  -0.020263  -0.030660   0.001202
    14  H   -0.000327  -0.036266   0.347710  -0.036159   0.014470  -0.038318
    15  H   -0.000595   0.003350  -0.014640   0.343472  -0.021480  -0.012704
    16  H    0.000540  -0.013466  -0.011379   0.370824  -0.017281  -0.000371
    17  H    0.001173  -0.036840   0.013365  -0.039358   0.347640  -0.036605
    18  H    0.000000   0.000017  -0.005040  -0.000411   0.005808  -0.014339
    19  H    0.000002   0.000160   0.000768   0.001645  -0.011033  -0.014023
    20  H    0.000001  -0.000001  -0.000813   0.000020  -0.000134   0.001891
    21  H   -0.000004   0.000057   0.000121  -0.000135   0.005074  -0.001092
    22  H   -0.000416   0.000222  -0.004124  -0.000250   0.006081  -0.007915
    23  H   -0.002416  -0.000821   0.002037   0.000004  -0.007984  -0.011218
               7          8          9         10         11         12
     1  C    0.000142   0.000316  -0.000705   0.359588   0.363604   0.367148
     2  C    0.004304  -0.000085  -0.003084  -0.015983  -0.017346  -0.016915
     3  C   -0.081595   0.009305  -0.053594  -0.001498  -0.005127   0.003721
     4  C   -0.010164  -0.000096   0.008632  -0.000252   0.000205  -0.000035
     5  C   -0.032568   0.001957  -0.062741   0.004574  -0.003943  -0.004839
     6  C    0.389357  -0.058066   0.393903  -0.000323   0.000446  -0.000143
     7  C    5.125325   0.338851  -0.130017   0.000013  -0.000145   0.000005
     8  C    0.338851   4.943782   0.369768  -0.000008   0.000039  -0.000015
     9  C   -0.130017   0.369768   5.148233   0.000002   0.001934  -0.000030
    10  H    0.000013  -0.000008   0.000002   0.613706  -0.031265  -0.033373
    11  H   -0.000145   0.000039   0.001934  -0.031265   0.596742  -0.033145
    12  H    0.000005  -0.000015  -0.000030  -0.033373  -0.033145   0.605026
    13  H   -0.000846   0.000027  -0.000053  -0.004641   0.007255  -0.003355
    14  H    0.000733  -0.000171  -0.001387   0.000735  -0.000013  -0.000095
    15  H    0.005909  -0.000137  -0.000162   0.000009   0.000009   0.000010
    16  H    0.000104  -0.000006  -0.000294  -0.000026   0.000001  -0.000017
    17  H   -0.000725   0.001213  -0.000920  -0.000103  -0.000242   0.001594
    18  H    0.350105  -0.023127  -0.002975  -0.000001  -0.000001  -0.000000
    19  H    0.356020  -0.025945   0.012457  -0.000000  -0.000004  -0.000000
    20  H   -0.020807   0.352013  -0.020614   0.000000  -0.000003   0.000000
    21  H   -0.026680   0.372601  -0.024991  -0.000000   0.000005   0.000001
    22  H   -0.000059  -0.022185   0.339627  -0.000001   0.001283   0.000000
    23  H    0.011684  -0.031053   0.353605   0.000067   0.003249   0.000450
              13         14         15         16         17         18
     1  C   -0.067300  -0.000327  -0.000595   0.000540   0.001173   0.000000
     2  C    0.359193  -0.036266   0.003350  -0.013466  -0.036840   0.000017
     3  C   -0.039032   0.347710  -0.014640  -0.011379   0.013365  -0.005040
     4  C   -0.020263  -0.036159   0.343472   0.370824  -0.039358  -0.000411
     5  C   -0.030660   0.014470  -0.021480  -0.017281   0.347640   0.005808
     6  C    0.001202  -0.038318  -0.012704  -0.000371  -0.036605  -0.014339
     7  C   -0.000846   0.000733   0.005909   0.000104  -0.000725   0.350105
     8  C    0.000027  -0.000171  -0.000137  -0.000006   0.001213  -0.023127
     9  C   -0.000053  -0.001387  -0.000162  -0.000294  -0.000920  -0.002975
    10  H   -0.004641   0.000735   0.000009  -0.000026  -0.000103  -0.000001
    11  H    0.007255  -0.000013   0.000009   0.000001  -0.000242  -0.000001
    12  H   -0.003355  -0.000095   0.000010  -0.000017   0.001594  -0.000000
    13  H    0.738912   0.000527   0.000681   0.006790   0.000574   0.000015
    14  H    0.000527   0.678201   0.001089   0.000745  -0.000909   0.003221
    15  H    0.000681   0.001089   0.651034  -0.046786   0.000519  -0.000187
    16  H    0.006790   0.000745  -0.046786   0.598881   0.000319  -0.000005
    17  H    0.000574  -0.000909   0.000519   0.000319   0.682981  -0.000109
    18  H    0.000015   0.003221  -0.000187  -0.000005  -0.000109   0.639185
    19  H    0.000009  -0.000391   0.002554  -0.000079   0.000164  -0.044862
    20  H   -0.000000   0.000004   0.000005  -0.000000  -0.000037  -0.007089
    21  H    0.000000   0.000003  -0.000002  -0.000002   0.000720   0.004863
    22  H    0.000017   0.001013   0.000001   0.000004  -0.000128   0.003701
    23  H   -0.000074  -0.000112   0.000010  -0.000001   0.001721  -0.000365
              19         20         21         22         23
     1  C    0.000002   0.000001  -0.000004  -0.000416  -0.002416
     2  C    0.000160  -0.000001   0.000057   0.000222  -0.000821
     3  C    0.000768  -0.000813   0.000121  -0.004124   0.002037
     4  C    0.001645   0.000020  -0.000135  -0.000250   0.000004
     5  C   -0.011033  -0.000134   0.005074   0.006081  -0.007984
     6  C   -0.014023   0.001891  -0.001092  -0.007915  -0.011218
     7  C    0.356020  -0.020807  -0.026680  -0.000059   0.011684
     8  C   -0.025945   0.352013   0.372601  -0.022185  -0.031053
     9  C    0.012457  -0.020614  -0.024991   0.339627   0.353605
    10  H   -0.000000   0.000000  -0.000000  -0.000001   0.000067
    11  H   -0.000004  -0.000003   0.000005   0.001283   0.003249
    12  H   -0.000000   0.000000   0.000001   0.000000   0.000450
    13  H    0.000009  -0.000000   0.000000   0.000017  -0.000074
    14  H   -0.000391   0.000004   0.000003   0.001013  -0.000112
    15  H    0.002554   0.000005  -0.000002   0.000001   0.000010
    16  H   -0.000079  -0.000000  -0.000002   0.000004  -0.000001
    17  H    0.000164  -0.000037   0.000720  -0.000128   0.001721
    18  H   -0.044862  -0.007089   0.004863   0.003701  -0.000365
    19  H    0.638391   0.002153  -0.006776  -0.000466  -0.000636
    20  H    0.002153   0.653057  -0.042604  -0.005352   0.002608
    21  H   -0.006776  -0.042604   0.615565   0.004162  -0.006051
    22  H   -0.000466  -0.005352   0.004162   0.625288  -0.042987
    23  H   -0.000636   0.002608  -0.006051  -0.042987   0.627966
 Mulliken charges:
               1
     1  C   -0.456797
     2  C    0.097052
     3  C   -0.187781
     4  C   -0.267042
     5  C   -0.130298
     6  C    0.484708
     7  C   -0.278945
     8  C   -0.228978
     9  C   -0.326594
    10  H    0.108780
    11  H    0.116462
    12  H    0.114007
    13  H    0.051024
    14  H    0.065699
    15  H    0.088043
    16  H    0.111505
    17  H    0.063993
    18  H    0.091596
    19  H    0.089892
    20  H    0.085703
    21  H    0.105164
    22  H    0.102486
    23  H    0.100320
 Sum of Mulliken charges =  -0.00000
 Mulliken charges with hydrogens summed into heavy atoms:
               1
     1  C   -0.117547
     2  C    0.148076
     3  C   -0.122082
     4  C   -0.067494
     5  C   -0.066305
     6  C    0.484708
     7  C   -0.097456
     8  C   -0.038111
     9  C   -0.123789
 Electronic spatial extent (au):  <R**2>=           1153.7687
 Charge=             -0.0000 electrons
 Dipole moment (field-independent basis, Debye):
    X=             -0.0078    Y=             -0.1732    Z=             -0.0717  Tot=              0.1876
 Quadrupole moment (field-independent basis, Debye-Ang):
   XX=            -57.1547   YY=            -57.3681   ZZ=            -55.2985
   XY=             -0.4729   XZ=              0.4326   YZ=             -0.4837
 Traceless Quadrupole moment (field-independent basis, Debye-Ang):
   XX=             -0.5476   YY=             -0.7610   ZZ=              1.3086
   XY=             -0.4729   XZ=              0.4326   YZ=             -0.4837
 Octapole moment (field-independent basis, Debye-Ang**2):
  XXX=             -3.3149  YYY=              0.5748  ZZZ=              0.5101  XYY=              0.2110
  XXY=              1.3398  XXZ=              0.5492  XZZ=              1.0430  YZZ=             -1.4804
  YYZ=             -1.3597  XYZ=             -0.4497
 Hexadecapole moment (field-independent basis, Debye-Ang**3):
 XXXX=           -905.7891 YYYY=           -505.8462 ZZZZ=           -187.7086 XXXY=             -3.6050
 XXXZ=              2.6901 YYYX=             -3.1768 YYYZ=             -5.3156 ZZZX=             -0.0481
 ZZZY=              2.1715 XXYY=           -235.3562 XXZZ=           -178.7987 YYZZ=           -116.8654
 XXYZ=             -3.3021 YYXZ=              2.7516 ZZXY=              0.9629
 N-N= 4.695469878840D+02 E-N=-1.751503377980D+03  KE= 3.482232555225D+02
 PrsmSu:  requested number of processors reduced to:  13 ShMem   1 Linda.
 Calling FoFJK, ICntrl=      2127 FMM=F ISym2X=0 I1Cent= 0 IOpClX= 0 NMat=1 NMatS=1 NMatT=0.
 ***** Axes restored to original set *****
 -------------------------------------------------------------------
 Center     Atomic                   Forces (Hartrees/Bohr)
 Number     Number              X              Y              Z
 -------------------------------------------------------------------
      1        6          -0.004063929    0.004016174   -0.009466471
      2        6          -0.005700013   -0.009600211    0.007593384
      3        6          -0.018618496   -0.027618835    0.042394971
      4        6          -0.017392700    0.052353906   -0.022318316
      5        6           0.002709125   -0.048834400   -0.017684580
      6        6           0.063672043   -0.035956198    0.012173197
      7        6           0.006957638    0.020615486    0.017108740
      8        6           0.000650547    0.015691890   -0.021231141
      9        6          -0.021323552    0.026738726    0.005759466
     10        1          -0.000418190   -0.000447791   -0.000577297
     11        1          -0.002753334    0.001969378   -0.001566588
     12        1          -0.000304599    0.000099632   -0.000331136
     13        1           0.002683496    0.007724824    0.008040884
     14        1           0.005539951   -0.002705524   -0.009895084
     15        1           0.003533029   -0.002947448   -0.008245423
     16        1          -0.005108584   -0.002786935   -0.009438023
     17        1           0.000436214    0.008072535    0.009654464
     18        1          -0.004662898   -0.000761379    0.002361847
     19        1           0.001993280   -0.000879198   -0.000169349
     20        1          -0.004340002    0.003860441    0.001376195
     21        1          -0.003715987   -0.003960770   -0.003570880
     22        1           0.002026632    0.001362348    0.001419242
     23        1          -0.001799670   -0.006006650   -0.003388101
 -------------------------------------------------------------------
 Cartesian Forces:  Max     0.063672043 RMS     0.016348376

 GradGradGradGradGradGradGradGradGradGradGradGradGradGradGradGradGradGrad
 Berny optimization.
 FormGI is forming the generalized inverse of G from B-inverse, IUseBI=4.
 Internal  Forces:  Max     0.030326211 RMS     0.006236227
 Search for a local minimum.
 Step number   1 out of a maximum of  138
 All quantities printed in internal units (Hartrees-Bohrs-Radians)
 Mixed Optimization -- RFO/linear search
 Second derivative matrix not updated -- first step.
 ITU=  0
     Eigenvalues ---    0.00604   0.00640   0.01771   0.01844   0.02092
     Eigenvalues ---    0.02134   0.02392   0.02521   0.02581   0.02806
     Eigenvalues ---    0.02912   0.03406   0.03501   0.04005   0.04131
     Eigenvalues ---    0.04455   0.04460   0.04532   0.04590   0.05341
     Eigenvalues ---    0.05375   0.05793   0.05893   0.06059   0.06237
     Eigenvalues ---    0.06702   0.06882   0.06969   0.07327   0.07558
     Eigenvalues ---    0.07795   0.08163   0.09129   0.10539   0.15522
     Eigenvalues ---    0.16000   0.16000   0.16000   0.17241   0.17680
     Eigenvalues ---    0.20397   0.20911   0.21709   0.23880   0.25489
     Eigenvalues ---    0.25864   0.28634   0.31125   0.31329   0.33207
     Eigenvalues ---    0.33693   0.33899   0.34099   0.34103   0.34187
     Eigenvalues ---    0.34373   0.34400   0.34643   0.34643   0.34702
     Eigenvalues ---    0.35117   0.36508   0.36638
 RFO step:  Lambda=-4.39574739D-02 EMin= 6.03862278D-03
 Linear search not attempted -- first point.
 Maximum step size (   0.300) exceeded in Quadratic search.
    -- Step size scaled by   0.871
 Iteration  1 RMS(Cart)=  0.05891352 RMS(Int)=  0.00212914
 Iteration  2 RMS(Cart)=  0.00317794 RMS(Int)=  0.00094613
 Iteration  3 RMS(Cart)=  0.00000335 RMS(Int)=  0.00094613
 Iteration  4 RMS(Cart)=  0.00000000 RMS(Int)=  0.00094613
 Variable       Old X    -DE/DX   Delta X   Delta X   Delta X     New X
                                 (Linear)    (Quad)   (Total)
    R1        2.85774   0.00913   0.00000   0.02236   0.02236   2.88011
    R2        2.07015   0.00078   0.00000   0.00176   0.00176   2.07191
    R3        2.05485   0.00334   0.00000   0.00736   0.00736   2.06221
    R4        2.07164  -0.00016   0.00000  -0.00036  -0.00036   2.07128
    R5        2.96363  -0.00310   0.00000  -0.00230  -0.00264   2.96099
    R6        3.03777  -0.00529   0.00000  -0.02233  -0.02303   3.01474
    R7        2.08690  -0.00374   0.00000  -0.00866  -0.00866   2.07824
    R8        3.19795  -0.02921   0.00000  -0.12324  -0.12216   3.07579
    R9        2.89708   0.00336   0.00000   0.01672   0.01591   2.91299
   R10        2.03095   0.01124   0.00000   0.02384   0.02384   2.05479
   R11        3.01423  -0.01951   0.00000  -0.05557  -0.05508   2.95915
   R12        2.06706   0.00012   0.00000   0.00027   0.00027   2.06733
   R13        2.06259  -0.00306   0.00000  -0.00682  -0.00682   2.05577
   R14        2.95560  -0.00352   0.00000  -0.01410  -0.01385   2.94175
   R15        2.03295   0.01087   0.00000   0.02314   0.02314   2.05609
   R16        2.86487   0.01827   0.00000   0.05022   0.05032   2.91518
   R17        2.80999   0.03033   0.00000   0.07658   0.07688   2.88687
   R18        2.90702   0.01234   0.00000   0.02819   0.02844   2.93546
   R19        2.07851  -0.00358   0.00000  -0.00819  -0.00819   2.07032
   R20        2.06162   0.00149   0.00000   0.00331   0.00331   2.06493
   R21        2.96546   0.00125   0.00000  -0.00621  -0.00683   2.95863
   R22        2.06259   0.00240   0.00000   0.00534   0.00534   2.06793
   R23        2.07502  -0.00441   0.00000  -0.01003  -0.01003   2.06499
   R24        2.07157  -0.00187   0.00000  -0.00422  -0.00422   2.06735
   R25        2.06661  -0.00047   0.00000  -0.00106  -0.00106   2.06555
    A1        1.93622  -0.00020   0.00000  -0.00120  -0.00120   1.93503
    A2        1.99295   0.00223   0.00000   0.00989   0.00988   2.00284
    A3        1.89843   0.00018   0.00000   0.00076   0.00075   1.89918
    A4        1.87891  -0.00111   0.00000  -0.00471  -0.00471   1.87420
    A5        1.87062  -0.00022   0.00000  -0.00171  -0.00171   1.86891
    A6        1.88223  -0.00105   0.00000  -0.00379  -0.00380   1.87843
    A7        2.25229  -0.00221   0.00000  -0.03784  -0.03652   2.21577
    A8        2.10735   0.00478   0.00000   0.02382   0.02452   2.13188
    A9        1.80862   0.00405   0.00000   0.03456   0.03415   1.84277
   A10        1.30524  -0.00323   0.00000  -0.01291  -0.01454   1.29070
   A11        1.92742  -0.00082   0.00000   0.01223   0.01245   1.93987
   A12        2.04435  -0.00554   0.00000  -0.04088  -0.04074   2.00361
   A13        1.41007   0.00718   0.00000   0.06545   0.06542   1.47549
   A14        1.53865   0.00406   0.00000   0.02172   0.02353   1.56218
   A15        2.19576  -0.00258   0.00000  -0.00171  -0.00202   2.19374
   A16        1.58459  -0.00733   0.00000  -0.05918  -0.06267   1.52191
   A17        2.23213  -0.00071   0.00000  -0.01127  -0.01185   2.22029
   A18        2.24513   0.00152   0.00000   0.00454   0.00323   2.24836
   A19        1.25285   0.00639   0.00000   0.02428   0.02272   1.27557
   A20        2.07407   0.00151   0.00000  -0.00619  -0.00681   2.06726
   A21        2.13904  -0.01010   0.00000  -0.06003  -0.06104   2.07800
   A22        1.95108   0.00555   0.00000   0.05210   0.05302   2.00410
   A23        2.03031  -0.00673   0.00000  -0.01812  -0.01784   2.01247
   A24        1.91959   0.00450   0.00000   0.02290   0.02091   1.94050
   A25        1.44283   0.00499   0.00000   0.05244   0.05219   1.49502
   A26        1.49614   0.00669   0.00000   0.03664   0.03867   1.53481
   A27        2.13116  -0.00456   0.00000  -0.00833  -0.00963   2.12153
   A28        1.63000  -0.00892   0.00000  -0.07609  -0.07874   1.55126
   A29        2.23986   0.00690   0.00000   0.03042   0.02915   2.26901
   A30        2.26003  -0.00243   0.00000  -0.00886  -0.00938   2.25065
   A31        1.34447  -0.00552   0.00000  -0.02067  -0.02238   1.32208
   A32        1.97349   0.01513   0.00000   0.09540   0.09559   2.06908
   A33        2.41205  -0.00237   0.00000  -0.04197  -0.04081   2.37124
   A34        2.10790   0.00426   0.00000   0.00114   0.00148   2.10938
   A35        2.10570   0.00430   0.00000   0.01244   0.01233   2.11803
   A36        1.58503  -0.01165   0.00000  -0.03557  -0.03554   1.54949
   A37        1.48719   0.00780   0.00000   0.03987   0.03889   1.52607
   A38        1.96900  -0.00374   0.00000  -0.03082  -0.03081   1.93818
   A39        2.07959  -0.00216   0.00000   0.00378   0.00331   2.08290
   A40        1.97736  -0.00859   0.00000  -0.04293  -0.04169   1.93568
   A41        2.03890   0.00366   0.00000   0.02568   0.02473   2.06363
   A42        1.88918   0.00268   0.00000   0.00478   0.00481   1.89400
   A43        1.51787   0.00097   0.00000   0.00207   0.00128   1.51915
   A44        2.01566   0.00459   0.00000   0.04147   0.04167   2.05734
   A45        1.95196  -0.00218   0.00000  -0.01224  -0.01255   1.93941
   A46        2.05391  -0.00037   0.00000   0.00631   0.00644   2.06035
   A47        1.99599  -0.00313   0.00000  -0.03517  -0.03576   1.96023
   A48        1.90437   0.00023   0.00000  -0.00129  -0.00154   1.90282
   A49        1.48532   0.00778   0.00000   0.04323   0.04229   1.52761
   A50        2.01605  -0.00342   0.00000  -0.02217  -0.02200   1.99405
   A51        2.07012  -0.00168   0.00000  -0.00553  -0.00648   2.06364
   A52        1.97455  -0.00518   0.00000  -0.02954  -0.02914   1.94541
   A53        1.97121   0.00217   0.00000   0.02827   0.02866   1.99987
   A54        1.91320   0.00114   0.00000  -0.00509  -0.00533   1.90787
    D1        1.37255   0.00132   0.00000   0.01747   0.01813   1.39067
    D2        3.03272  -0.00070   0.00000  -0.00594  -0.00699   3.02572
    D3       -0.91796  -0.00028   0.00000  -0.00824  -0.00784  -0.92581
    D4       -0.75426   0.00131   0.00000   0.01738   0.01804  -0.73623
    D5        0.90590  -0.00071   0.00000  -0.00604  -0.00709   0.89882
    D6       -3.04477  -0.00030   0.00000  -0.00833  -0.00793  -3.05271
    D7       -2.85729   0.00105   0.00000   0.01516   0.01581  -2.84148
    D8       -1.19712  -0.00097   0.00000  -0.00826  -0.00931  -1.20644
    D9        1.13539  -0.00056   0.00000  -0.01055  -0.01016   1.12522
   D10        2.90080  -0.00352   0.00000  -0.03395  -0.03482   2.86598
   D11        1.31082   0.00483   0.00000   0.03189   0.03265   1.34347
   D12       -1.10368   0.00034   0.00000   0.00381   0.00418  -1.09950
   D13        0.85032  -0.00694   0.00000  -0.05040  -0.05176   0.79856
   D14       -0.73967   0.00141   0.00000   0.01544   0.01572  -0.72395
   D15        3.12903  -0.00309   0.00000  -0.01264  -0.01276   3.11627
   D16       -1.13529  -0.00016   0.00000  -0.00110  -0.00165  -1.13694
   D17       -2.72528   0.00819   0.00000   0.06473   0.06582  -2.65945
   D18        1.14341   0.00369   0.00000   0.03666   0.03735   1.18076
   D19       -3.12812   0.01455   0.00000   0.12755   0.12723  -3.00090
   D20       -1.48782   0.00421   0.00000   0.04124   0.04085  -1.44697
   D21        0.86671   0.00413   0.00000   0.05521   0.05536   0.92207
   D22       -0.91655   0.01073   0.00000   0.07886   0.07849  -0.83806
   D23        0.72375   0.00039   0.00000  -0.00744  -0.00788   0.71587
   D24        3.07829   0.00031   0.00000   0.00653   0.00662   3.08491
   D25        0.92469   0.00911   0.00000   0.09255   0.09248   1.01716
   D26        2.56499  -0.00123   0.00000   0.00624   0.00610   2.57109
   D27       -1.36366  -0.00131   0.00000   0.02021   0.02061  -1.34306
   D28       -0.87786   0.00523   0.00000   0.05379   0.05501  -0.82285
   D29       -2.71674  -0.00397   0.00000  -0.01935  -0.01784  -2.73458
   D30        1.04393   0.00196   0.00000   0.05278   0.05320   1.09713
   D31        0.65813   0.01068   0.00000   0.08670   0.08583   0.74396
   D32       -1.18075   0.00148   0.00000   0.01356   0.01298  -1.16777
   D33        2.57993   0.00741   0.00000   0.08569   0.08401   2.66394
   D34       -3.12363   0.00274   0.00000   0.00399   0.00473  -3.11891
   D35        1.32067  -0.00646   0.00000  -0.06914  -0.06812   1.25255
   D36       -1.20184  -0.00053   0.00000   0.00299   0.00291  -1.19893
   D37        0.75597  -0.00160   0.00000  -0.01721  -0.01766   0.73831
   D38        2.81900   0.00055   0.00000  -0.02654  -0.02707   2.79193
   D39       -1.37020  -0.00082   0.00000   0.00540   0.00349  -1.36671
   D40       -0.65356  -0.00912   0.00000  -0.08518  -0.08393  -0.73749
   D41        1.40948  -0.00697   0.00000  -0.09452  -0.09334   1.31614
   D42       -2.77972  -0.00833   0.00000  -0.06257  -0.06278  -2.84250
   D43        3.13591   0.00029   0.00000   0.00825   0.00916  -3.13812
   D44       -1.08424   0.00243   0.00000  -0.00108  -0.00025  -1.08449
   D45        1.00974   0.00107   0.00000   0.03086   0.03031   1.04005
   D46        0.84358  -0.00351   0.00000  -0.03846  -0.04149   0.80209
   D47       -0.64416  -0.01182   0.00000  -0.08937  -0.08993  -0.73409
   D48        3.03485  -0.00242   0.00000   0.00891   0.00861   3.04346
   D49        2.84260  -0.00100   0.00000  -0.04754  -0.04960   2.79300
   D50        1.35486  -0.00931   0.00000  -0.09845  -0.09804   1.25682
   D51       -1.24932   0.00009   0.00000  -0.00017   0.00050  -1.24882
   D52       -1.21567   0.00461   0.00000   0.01750   0.01595  -1.19972
   D53       -2.70341  -0.00370   0.00000  -0.03341  -0.03250  -2.73590
   D54        0.97560   0.00570   0.00000   0.06487   0.06605   1.04164
   D55       -0.73525   0.00124   0.00000   0.01241   0.01251  -0.72274
   D56       -2.64334  -0.01319   0.00000  -0.08726  -0.08658  -2.72992
   D57        1.68778  -0.00373   0.00000  -0.04736  -0.04692   1.64086
   D58        0.70252   0.00746   0.00000   0.07402   0.07040   0.77293
   D59       -1.20557  -0.00696   0.00000  -0.02565  -0.02868  -1.23425
   D60        3.12555   0.00249   0.00000   0.01426   0.01097   3.13653
   D61       -2.98629   0.00239   0.00000  -0.00736  -0.00729  -2.99358
   D62        1.38880  -0.01203   0.00000  -0.10703  -0.10638   1.28242
   D63       -0.56326  -0.00257   0.00000  -0.06712  -0.06672  -0.62998
   D64        2.98707  -0.01016   0.00000  -0.08093  -0.07906   2.90801
   D65        1.00990  -0.00376   0.00000  -0.04825  -0.04688   0.96303
   D66       -1.23410  -0.00176   0.00000  -0.02686  -0.02561  -1.25971
   D67       -1.75554  -0.00641   0.00000  -0.05035  -0.05019  -1.80573
   D68        2.55048  -0.00002   0.00000  -0.01767  -0.01800   2.53247
   D69        0.30647   0.00198   0.00000   0.00372   0.00327   0.30974
   D70        0.46104  -0.00785   0.00000  -0.06112  -0.06053   0.40052
   D71       -1.51612  -0.00145   0.00000  -0.02844  -0.02834  -1.54446
   D72        2.52306   0.00055   0.00000  -0.00705  -0.00707   2.51599
   D73       -2.67060  -0.00187   0.00000  -0.02450  -0.02417  -2.69477
   D74       -0.69263  -0.00427   0.00000  -0.03902  -0.03914  -0.73177
   D75        1.63147  -0.00847   0.00000  -0.08027  -0.08001   1.55145
   D76        1.76697   0.00437   0.00000   0.03452   0.03498   1.80195
   D77       -2.53824   0.00198   0.00000   0.02000   0.02001  -2.51823
   D78       -0.21415  -0.00222   0.00000  -0.02125  -0.02087  -0.23502
   D79       -0.45135   0.00581   0.00000   0.05410   0.05418  -0.39717
   D80        1.52662   0.00341   0.00000   0.03959   0.03921   1.56583
   D81       -2.43247  -0.00078   0.00000  -0.00166  -0.00167  -2.43413
   D82       -0.43577   0.00247   0.00000   0.04344   0.04504  -0.39072
   D83       -2.51876   0.00144   0.00000   0.02666   0.02748  -2.49128
   D84        1.57265  -0.00080   0.00000   0.00456   0.00543   1.57808
   D85        1.53302   0.00098   0.00000   0.02312   0.02367   1.55669
   D86       -0.54997  -0.00005   0.00000   0.00634   0.00610  -0.54387
   D87       -2.74174  -0.00229   0.00000  -0.01576  -0.01595  -2.75769
   D88       -2.53639   0.00002   0.00000   0.01262   0.01305  -2.52334
   D89        1.66380  -0.00102   0.00000  -0.00416  -0.00452   1.65929
   D90       -0.52797  -0.00326   0.00000  -0.02626  -0.02657  -0.55454
   D91        0.44496  -0.00464   0.00000  -0.04930  -0.05022   0.39474
   D92       -1.57417  -0.00370   0.00000  -0.04052  -0.04058  -1.61475
   D93        2.52280  -0.00278   0.00000  -0.03261  -0.03249   2.49031
   D94        2.49245   0.00110   0.00000   0.00084   0.00011   2.49256
   D95        0.47332   0.00204   0.00000   0.00962   0.00974   0.48307
   D96       -1.71289   0.00295   0.00000   0.01753   0.01783  -1.69506
   D97       -1.52099  -0.00227   0.00000  -0.03212  -0.03277  -1.55377
   D98        2.74307  -0.00133   0.00000  -0.02334  -0.02314   2.71993
   D99        0.55685  -0.00041   0.00000  -0.01542  -0.01505   0.54181
         Item               Value     Threshold  Converged?
 Maximum Force            0.030326     0.000450     NO 
 RMS     Force            0.006236     0.000300     NO 
 Maximum Displacement     0.332579     0.001800     NO 
 RMS     Displacement     0.058711     0.001200     NO 
 Predicted change in Energy=-2.781487D-02
 GradGradGradGradGradGradGradGradGradGradGradGradGradGradGradGradGradGrad

                          Input orientation:                          
 ---------------------------------------------------------------------
 Center     Atomic      Atomic             Coordinates (Angstroms)
 Number     Number       Type             X           Y           Z
 ---------------------------------------------------------------------
      1          6           0        1.031805    0.068735   -0.059782
      2          6           0        2.526858    0.109812    0.233431
      3          6           0        3.659959    0.622565   -0.719618
      4          6           0        4.569831    0.646610    0.629738
      5          6           0        3.211235    1.340054    0.983909
      6          6           0        3.263784    2.074779   -0.387498
      7          6           0        4.290886    3.196538   -0.645339
      8          6           0        3.127592    4.208978   -0.459063
      9          6           0        2.156135    3.034787   -0.817909
     10          1           0        0.779398   -0.798379   -0.681483
     11          1           0        0.640102    0.954961   -0.561827
     12          1           0        0.489096   -0.044166    0.885783
     13          1           0        2.773930   -0.878514    0.647721
     14          1           0        3.922782    0.190882   -1.682376
     15          1           0        5.442812    1.305332    0.657897
     16          1           0        4.765195   -0.287460    1.152038
     17          1           0        2.839121    1.702123    1.940080
     18          1           0        4.635045    3.183512   -1.685361
     19          1           0        5.162606    3.284796    0.007602
     20          1           0        3.116740    5.098739   -1.096014
     21          1           0        3.037550    4.517473    0.585358
     22          1           0        1.933320    3.012636   -1.888744
     23          1           0        1.219970    3.030556   -0.253711
 ---------------------------------------------------------------------
                    Distance matrix (angstroms):
                    1          2          3          4          5
     1  C    0.000000
     2  C    1.524088   0.000000
     3  C    2.765737   1.566887   0.000000
     4  C    3.650617   2.149175   1.627639   0.000000
     5  C    2.730468   1.595333   1.902144   1.565913   0.000000
     6  C    3.018830   2.188540   1.541488   2.186366   1.556708
     7  C    4.554956   3.662227   2.651212   2.864570   2.695668
     8  C    4.657613   4.200428   3.635061   3.994497   3.212459
     9  C    3.261339   3.130213   2.844287   3.691206   2.689220
    10  H    1.096408   2.171519   3.212191   4.263178   3.641465
    11  H    1.091273   2.215076   3.042191   4.117971   3.024620
    12  H    1.096072   2.145168   3.616105   4.146702   3.055444
    13  H    2.105431   1.099759   2.215378   2.356181   2.286111
    14  H    3.317451   2.371813   1.087350   2.443816   2.989310
    15  H    4.636940   3.179973   2.354205   1.093984   2.255532
    16  H    3.941266   2.451901   2.356435   1.087865   2.256515
    17  H    3.151792   2.354913   2.985501   2.413806   1.088038
    18  H    5.032661   4.192117   2.905495   3.435085   3.542679
    19  H    5.235562   4.132638   3.142336   2.774610   2.922849
    20  H    5.542713   5.196612   4.524699   4.991106   4.296827
    21  H    4.922447   4.451083   4.154596   4.163344   3.207024
    22  H    3.581114   3.644489   3.171842   4.346496   3.561283
    23  H    2.974121   3.236666   3.459630   4.205384   2.890439
                    6          7          8          9         10
     6  C    0.000000
     7  C    1.542648   0.000000
     8  C    2.139738   1.553379   0.000000
     9  C    1.527664   2.147814   1.565639   0.000000
    10  H    3.809677   5.318949   5.535081   4.075191   0.000000
    11  H    2.857987   4.284841   4.097170   2.586428   1.762930
    12  H    3.716190   5.224950   5.182616   3.893782   1.763359
    13  H    3.167582   4.536431   5.218489   4.224177   2.398200
    14  H    2.379087   3.200767   4.274800   3.457766   3.444023
    15  H    2.536348   2.569439   3.878015   3.996406   5.288381
    16  H    3.194460   3.948895   5.049291   4.661031   4.416946
    17  H    2.395168   3.320435   3.481871   3.138306   4.167441
    18  H    2.189542   1.095564   2.197226   2.630511   5.632872
    19  H    2.285995   1.092712   2.283237   3.127754   6.029899
    20  H    3.109333   2.280372   1.094303   2.293469   6.356965
    21  H    2.639013   2.197803   1.092745   2.223603   5.912904
    22  H    2.214374   2.671702   2.213935   1.093995   4.160872
    23  H    2.260218   3.100234   2.251638   1.093043   3.877865
                   11         12         13         14         15
    11  H    0.000000
    12  H    1.765399   0.000000
    13  H    3.062329   2.444029   0.000000
    14  H    3.551822   4.294286   2.809417   0.000000
    15  H    4.967546   5.139298   3.448509   3.004891   0.000000
    16  H    4.636522   4.291283   2.137479   2.995392   1.800091
    17  H    3.413719   3.111862   2.886889   4.071899   2.929273
    18  H    4.710450   5.849579   5.040543   3.076225   3.109808
    19  H    5.119124   5.804730   4.842384   3.737044   2.102303
    20  H    4.856953   6.105858   6.235839   5.008052   4.782964
    21  H    4.444692   5.233873   5.402783   4.964438   4.013526
    22  H    2.768962   4.373537   4.720310   3.458734   4.660129
    23  H    2.176988   3.359544   4.302116   4.172533   4.651862
                   16         17         18         19         20
    16  H    0.000000
    17  H    2.879099   0.000000
    18  H    4.485021   4.308559   0.000000
    19  H    3.772093   3.411438   1.776149   0.000000
    20  H    6.064839   4.564202   2.514095   2.948546   0.000000
    21  H    5.137437   3.130630   3.080196   2.523719   1.780773
    22  H    5.306270   4.147025   2.714753   3.754796   2.526011
    23  H    5.055094   3.033002   3.706178   3.959458   2.929948
                   21         22         23
    21  H    0.000000
    22  H    3.099200   0.000000
    23  H    2.493704   1.783963   0.000000
 Stoichiometry    C9H14
 Framework group  C1[X(C9H14)]
 Deg. of freedom    63
 Full point group                 C1      NOp   1
 Largest Abelian subgroup         C1      NOp   1
 Largest concise Abelian subgroup C1      NOp   1
                         Standard orientation:                         
 ---------------------------------------------------------------------
 Center     Atomic      Atomic             Coordinates (Angstroms)
 Number     Number       Type             X           Y           Z
 ---------------------------------------------------------------------
      1          6           0       -2.134719   -1.493194    0.013945
      2          6           0       -1.722921   -0.026283   -0.023962
      3          6           0       -0.718326    0.695257    0.937966
      4          6           0       -0.710136    1.861331   -0.197557
      5          6           0       -0.529493    0.496873   -0.944356
      6          6           0        0.455224    0.049377    0.175205
      7          6           0        1.854741    0.686378    0.299083
      8          6           0        2.424789   -0.610161   -0.338897
      9          6           0        1.119636   -1.325934    0.146354
     10          1           0       -2.890015   -1.666922    0.789482
     11          1           0       -1.316695   -2.192961    0.192934
     12          1           0       -2.592780   -1.756698   -0.946326
     13          1           0       -2.660228    0.541382   -0.117136
     14          1           0       -0.846841    0.822379    2.010185
     15          1           0        0.152965    2.531482   -0.250064
     16          1           0       -1.634031    2.392394   -0.416286
     17          1           0       -0.496389    0.282040   -2.010460
     18          1           0        2.156988    0.771166    1.348710
     19          1           0        2.055520    1.638600   -0.197888
     20          1           0        3.384478   -0.983462    0.031431
     21          1           0        2.471490   -0.525767   -1.427378
     22          1           0        1.255163   -1.780256    1.132280
     23          1           0        0.727602   -2.075245   -0.546167
 ---------------------------------------------------------------------
 Rotational constants (GHZ):           2.7364587           1.5214542           1.1584430
 Standard basis: 6-31G(2df,p) (6D, 7F)
 There are   349 symmetry adapted cartesian basis functions of A   symmetry.
 There are   322 symmetry adapted basis functions of A   symmetry.
   322 basis functions,   494 primitive gaussians,   349 cartesian basis functions
    34 alpha electrons       34 beta electrons
       nuclear repulsion energy       467.9801661850 Hartrees.
 NAtoms=   23 NActive=   23 NUniq=   23 SFac= 1.00D+00 NAtFMM=   60 NAOKFM=F Big=F
 Integral buffers will be    131072 words long.
 Raffenetti 2 integral format.
 Two-electron integral symmetry is turned on.
 One-electron integrals computed using PRISM.
 PrsmSu:  requested number of processors reduced to:  13 ShMem   1 Linda.
 NBasis=   322 RedAO= T EigKep=  3.25D-04  NBF=   322
 NBsUse=   322 1.00D-06 EigRej= -1.00D+00 NBFU=   322
 Initial guess from the checkpoint file:  "CC1C2CC1C21CCC1.chk"
 B after Tr=    -0.000000   -0.000000    0.000000
         Rot=    0.999945    0.004394    0.003724    0.008772 Ang=   1.20 deg.
 ExpMin= 1.61D-01 ExpMax= 3.05D+03 ExpMxC= 4.57D+02 IAcc=2 IRadAn=         4 AccDes= 0.00D+00
 Harris functional with IExCor=  402 and IRadAn=       4 diagonalized for initial guess.
 HarFok:  IExCor=  402 AccDes= 0.00D+00 IRadAn=         4 IDoV= 1 UseB2=F ITyADJ=14
 ICtDFT=  3500011 ScaDFX=  1.000000  1.000000  1.000000  1.000000
 FoFCou: FMM=F IPFlag=           0 FMFlag=      100000 FMFlg1=           0
         NFxFlg=           0 DoJE=T BraDBF=F KetDBF=T FulRan=T
         wScrn=  0.000000 ICntrl=       500 IOpCl=  0 I1Cent=   200000004 NGrid=           0
         NMat0=    1 NMatS0=      1 NMatT0=    0 NMatD0=    1 NMtDS0=    0 NMtDT0=    0
 Petite list used in FoFCou.
 Requested convergence on RMS density matrix=1.00D-08 within 128 cycles.
 Requested convergence on MAX density matrix=1.00D-06.
 Requested convergence on             energy=1.00D-06.
 No special actions if energy rises.
 Integral accuracy reduced to 1.0D-05 until final iterations.
 Initial convergence to 1.0D-05 achieved.  Increase integral accuracy.
 SCF Done:  E(RB3LYP) =  -351.289327190     A.U. after   10 cycles
            NFock= 10  Conv=0.77D-08     -V/T= 2.0091
 PrsmSu:  requested number of processors reduced to:  13 ShMem   1 Linda.
 Calling FoFJK, ICntrl=      2127 FMM=F ISym2X=0 I1Cent= 0 IOpClX= 0 NMat=1 NMatS=1 NMatT=0.
 ***** Axes restored to original set *****
 -------------------------------------------------------------------
 Center     Atomic                   Forces (Hartrees/Bohr)
 Number     Number              X              Y              Z
 -------------------------------------------------------------------
      1        6           0.000713303    0.003831203   -0.005141923
      2        6           0.000655693    0.000461582    0.003423174
      3        6          -0.004624681   -0.013141303    0.019595133
      4        6          -0.014055988    0.018374509   -0.010868107
      5        6          -0.005320826   -0.024638132   -0.005575657
      6        6           0.025699536   -0.004136440    0.002625340
      7        6          -0.001488514    0.010842359    0.008704892
      8        6           0.001790660   -0.002225101   -0.010120592
      9        6          -0.009148558    0.013281321    0.003440286
     10        1           0.000678352   -0.000035709    0.000020640
     11        1           0.000362349    0.000233334   -0.000304357
     12        1          -0.000605940   -0.000046508   -0.000157437
     13        1           0.002636891    0.004259932    0.004926661
     14        1           0.002808701    0.001250573   -0.003450267
     15        1          -0.000654976   -0.003501666   -0.004449665
     16        1          -0.000710629   -0.004462956   -0.004221443
     17        1           0.005399723    0.005580628    0.003409028
     18        1          -0.000526083   -0.001369480    0.000036594
     19        1          -0.000179270    0.001247258   -0.000262170
     20        1          -0.000888654   -0.000820200    0.000719405
     21        1          -0.001961756   -0.000709679    0.000004837
     22        1           0.000276239   -0.000836623   -0.000246725
     23        1          -0.000855572   -0.003438901   -0.002107644
 -------------------------------------------------------------------
 Cartesian Forces:  Max     0.025699536 RMS     0.007078041

 GradGradGradGradGradGradGradGradGradGradGradGradGradGradGradGradGradGrad
 Berny optimization.
 Using GEDIIS/GDIIS optimizer.
 FormGI is forming the generalized inverse of G from B-inverse, IUseBI=4.
 Internal  Forces:  Max     0.015161930 RMS     0.002615134
 Search for a local minimum.
 Step number   2 out of a maximum of  138
 All quantities printed in internal units (Hartrees-Bohrs-Radians)
 Mixed Optimization -- RFO/linear search
 Update second derivatives using D2CorX and points    1    2
 DE= -2.65D-02 DEPred=-2.78D-02 R= 9.52D-01
 TightC=F SS=  1.41D+00  RLast= 5.36D-01 DXNew= 5.0454D-01 1.6075D+00
 Trust test= 9.52D-01 RLast= 5.36D-01 DXMaxT set to 5.05D-01
 ITU=  1  0
 Use linear search instead of GDIIS.
     Eigenvalues ---    0.00604   0.00611   0.01865   0.01995   0.02060
     Eigenvalues ---    0.02125   0.02363   0.02474   0.02644   0.02947
     Eigenvalues ---    0.03187   0.03491   0.03578   0.03876   0.04095
     Eigenvalues ---    0.04483   0.04581   0.04745   0.04802   0.05278
     Eigenvalues ---    0.05399   0.05678   0.05883   0.05910   0.06170
     Eigenvalues ---    0.06283   0.06637   0.07018   0.07436   0.07743
     Eigenvalues ---    0.08173   0.08295   0.09300   0.10624   0.14575
     Eigenvalues ---    0.15997   0.16000   0.16030   0.17788   0.17954
     Eigenvalues ---    0.19278   0.20417   0.21831   0.24056   0.25483
[...]
 .07436778,-0.00199990,-0.00070209,0.00363201,0.00038168,-0.00306696,-0
 .00225102,0.00152013,0.00280735,-0.01905056,0.00057491,0.00121783,-0.0
 0073401,-0.00009206,0.00052151,0.00026882,-0.00046424,0.00103826,-0.00
 060291,-0.00004937,-0.00005273,-0.00019963,-0.00018183,-0.00002950,-0.
 00016794,-0.00025336,-0.00004383,-0.00005618,0.00033307,0.00023667,0.0
 0018808,-0.01698360,0.06938951,0.00001209,0.00024055,0.00023779,-0.004
 28906,-0.00482851,-0.00437646,0.04543793,-0.07370175,-0.27620533,0.008
 04476,-0.00390770,-0.00536357,0.00203258,-0.00287446,-0.00932198,-0.00
 085259,0.00341706,0.00001288,-0.00040103,-0.00045586,0.00018213,-0.000
 00750,0.00000172,0.00007846,0.00039188,-0.00031148,0.00050457,0.000500
 80,0.00011581,0.00008429,0.00018786,-0.00007677,0.00003935,0.00012277,
 -0.00004295,0.00000828,-0.00002722,0.00019307,-0.00020614,-0.05168707,
 0.08430951,0.29515106,0.00024673,-0.00177899,0.00015849,-0.00874917,0.
 00190492,-0.00200978,-0.00862839,-0.00322714,0.00456226,-0.21856973,-0
 .12512785,0.00793625,-0.01232119,-0.01141033,-0.00486424,-0.00147934,-
 0.00279065,0.00108357,0.00073168,-0.00010780,-0.00065589,0.00015744,0.
 00002968,0.00034708,0.00035018,-0.00032568,0.00007148,-0.00059554,-0.0
 0009072,-0.00019353,-0.00001783,0.00006449,-0.00005291,-0.00033121,-0.
 00001341,0.00004811,0.00028160,-0.00006487,0.00011447,0.00026006,0.000
 13322,-0.00031607,0.24128074,0.00055248,0.00155037,0.00046776,0.000579
 11,-0.00162993,-0.00003668,0.00042656,-0.00175747,0.00021553,-0.128591
 73,-0.14600542,0.00883421,0.00931032,0.00723359,0.00163605,0.00198511,
 0.00136544,-0.00070319,0.00059264,-0.00141396,0.00074583,0.00039816,0.
 00003378,-0.00003965,-0.00013114,0.00013595,-0.00008056,0.00035496,0.0
 0003643,0.00008114,-0.00031449,0.00000413,-0.00007309,-0.00009756,-0.0
 0000210,-0.00004346,0.00015490,0.00092963,-0.00031484,-0.00031075,-0.0
 0001341,-0.00015358,0.13718993,0.15514189,-0.00072512,0.00008357,0.002
 55786,-0.00152511,0.00013741,-0.00269274,-0.01889327,-0.01328699,0.005
 21619,0.00902087,0.00951189,-0.04629828,0.01031015,0.01043650,-0.00029
 478,-0.00066278,-0.00183598,-0.00146708,0.00014473,0.00079396,0.000698
 69,-0.00005830,-0.00003396,-0.00032365,0.00010498,-0.00011089,0.000070
 85,0.00042294,-0.00001459,0.00007422,0.00018042,0.00000082,0.00001085,
 -0.00076601,-0.00006600,-0.00012898,0.00002670,-0.00038436,-0.00000350
 ,0.00014655,-0.00027848,0.00008288,-0.00654857,-0.01110347,0.04320566,
 0.00034334,-0.00044048,0.00022236,0.00025658,0.00560280,-0.00128145,-0
 .00467330,0.00993687,0.00027273,-0.05896163,0.04289217,-0.01746785,-0.
 00426885,0.01396689,-0.01122854,-0.00804097,0.00248457,-0.00182536,0.0
 0036375,-0.00025604,-0.00008307,-0.00006415,0.00015813,0.00005317,0.00
 080916,0.00073698,-0.00081542,-0.00004406,-0.00001549,-0.00003064,0.00
 027289,-0.00001131,0.00009266,-0.00002403,0.00001998,-0.00000043,-0.00
 077777,-0.00139664,0.00022099,0.00026324,-0.00035969,0.00002920,0.0060
 3343,-0.02197136,0.00863924,0.06768933,0.00005976,0.00077513,-0.000225
 73,-0.00265121,0.00140718,-0.00202660,-0.00071756,0.00142832,-0.002074
 75,0.04573320,-0.26820580,0.08466125,0.00067880,-0.00912065,0.00653120
 ,0.00362844,-0.00261167,0.00068812,0.00022757,0.00052914,-0.00032518,0
 .00027819,0.00010845,0.00013661,-0.00067375,0.00024217,0.00065286,0.00
 011415,0.00002839,0.00003644,-0.00029851,-0.00001645,-0.00007043,0.000
 07748,-0.00000831,-0.00000075,0.00026530,0.00113929,-0.00017082,0.0002
 7022,0.00022892,0.00024327,0.00454658,-0.01430092,0.00567476,-0.052040
 85,0.28857036,0.00002842,-0.00025452,0.00016221,0.00158548,-0.00041857
 ,-0.00252220,-0.00541744,0.02310415,-0.00426828,-0.01832216,0.08418075
 ,-0.07539998,0.00225053,-0.01375375,0.00599872,-0.00244773,0.00018904,
 -0.00326679,0.00019235,-0.00024068,0.00002514,-0.00020718,0.00012175,-
 0.00001057,-0.00002636,0.00087781,0.00213213,-0.00001489,-0.00000060,-
 0.00001616,0.00014606,-0.00002845,0.00001084,-0.00005052,-0.00002573,0
 .00000283,-0.00033761,-0.00048233,0.00060728,0.00015703,0.00010694,-0.
 00010972,-0.00032722,0.00044831,-0.00033744,0.02289401,-0.09373956,0.0
 7677271,0.00134213,0.00029641,-0.00033831,0.00491924,0.00091867,-0.011
 29052,-0.00206404,0.00042554,0.00174980,0.00449402,0.00186061,0.017016
 18,-0.06010383,0.01405765,0.04270936,-0.00198350,-0.00060376,-0.001850
 65,0.00014852,0.00007883,0.00036952,0.00002789,-0.00008025,0.00003265,
 0.00044926,-0.00041214,-0.00024884,-0.00038159,-0.00003486,0.00008083,
 -0.00018521,0.00001241,-0.00005924,-0.00023140,0.00009088,0.00035605,0
 .00014722,-0.00007993,0.00028799,0.00316243,0.00028867,0.00070132,0.00
 012851,-0.00033182,0.00016573,0.00028013,0.00025625,-0.00022258,0.0501
 9097,0.00063747,0.00016989,0.00026548,0.00879672,0.00021326,-0.0107341
 2,0.00017946,-0.00301787,-0.00255281,-0.00326962,-0.00261536,-0.005808
 15,0.01436854,-0.07935544,-0.07568921,-0.00368155,0.00886076,0.0109437
 8,0.00039869,0.00135803,-0.00004810,-0.00004544,0.00047516,-0.00006910
 ,-0.00052515,0.00116017,-0.00031753,-0.00029970,-0.00000775,-0.0000284
 4,-0.00026831,0.00003142,-0.00005970,-0.00052734,0.00004550,0.00016109
 ,0.00037546,-0.00012895,-0.00008778,0.00033158,0.00291528,-0.00127761,
 0.00022376,0.00022656,0.00025315,-0.00019383,-0.00007563,-0.00025398,-
 0.01667274,0.07074915,-0.00010312,0.00001431,0.00011125,0.00355394,0.0
 0271807,-0.00283698,0.00113943,-0.00190434,-0.00957013,-0.00235439,0.0
 0170212,0.00041820,0.04418200,-0.07615569,-0.27630735,0.00255698,-0.01
 083463,-0.00641863,-0.00008940,-0.00035768,0.00013614,0.00004895,-0.00
 022009,-0.00007038,0.00024190,-0.00042847,0.00013154,-0.00008197,0.000
 02029,-0.00001133,-0.00002637,0.00001179,-0.00007190,-0.00048653,-0.00
 014409,-0.00005755,-0.00012484,-0.00034361,0.00015592,0.00086520,-0.00
 144905,-0.00072812,0.00026053,-0.00005007,-0.00000316,0.00026501,-0.00
 018968,0.00015507,-0.04953750,0.08613476,0.29485052,0.00002694,0.00003
 771,-0.00005005,0.00007461,-0.00000549,0.00007332,0.00127697,0.0010164
 4,-0.00017476,0.00003133,-0.00019071,0.00034134,-0.00160830,0.00025996
 ,-0.00079352,-0.00819250,0.00105963,0.01285424,-0.12741265,0.01414882,
 0.11985510,-0.01030402,0.00270557,0.01718031,-0.00073653,-0.00042996,-
 0.00162013,-0.00002560,-0.00003871,-0.00000447,0.00003004,0.00003207,0
 .00003865,0.00001016,-0.00000832,0.00000940,0.00001433,-0.00019164,-0.
 00017454,0.00009348,-0.00062957,-0.00016485,0.00015680,-0.00005585,0.0
 0001502,0.00009587,-0.00002614,0.00002287,-0.00003876,-0.00035044,0.00
 019984,0.13738225,0.00011642,-0.00004854,-0.00009702,0.00011972,-0.000
 36499,0.00088065,0.00110316,0.00189300,0.00002793,-0.00023253,0.000719
 41,0.00022182,-0.00414228,-0.00210013,-0.00047341,-0.01272315,0.002223
 44,0.02519056,0.01294802,-0.04649304,-0.02089209,0.01187283,-0.0042816
 4,-0.02117275,-0.00026626,-0.00094636,-0.00059506,-0.00008534,0.000018
 81,-0.00003959,-0.00003457,0.00002196,-0.00001057,0.00003301,0.0000050
 9,0.00000756,0.00007635,-0.00035375,-0.00046458,0.00019914,-0.00019671
 ,-0.00052094,0.00024450,-0.00017320,0.00024714,0.00015960,-0.00001427,
 -0.00012281,-0.00002270,-0.00032839,0.00017073,-0.01590788,0.05012366,
 -0.00004000,0.00000235,0.00005846,-0.00020553,0.00021615,-0.00001305,0
 .00001621,-0.00002256,0.00140760,0.00061117,0.00005699,-0.00006591,0.0
 0051857,-0.00012849,0.00112574,0.00115918,0.00019617,-0.00341838,0.118
 50710,-0.02246844,-0.22486857,-0.00427562,0.00061094,0.00504849,0.0000
 7132,0.00019233,-0.00106363,0.00002769,0.00001201,0.00000805,-0.000018
 72,-0.00000604,-0.00002760,-0.00000873,-0.00000243,-0.00001209,0.00006
 300,0.00019231,0.00010345,0.00002724,0.00069914,-0.00005722,-0.0002344
 9,-0.00014313,-0.00040013,-0.00017995,0.00000630,0.00005063,-0.0001597
 3,-0.00005215,0.00001779,-0.13019315,0.02276271,0.24015176,0.00001597,
 0.00013100,-0.00008963,0.00004182,0.00010446,-0.00001159,-0.00083620,0
 .00030319,0.00005491,-0.00011871,-0.00017951,-0.00016239,0.00103705,0.
 00103393,-0.00074683,-0.00915631,-0.00088937,-0.01082876,-0.13469442,-
 0.03304316,-0.12148672,-0.00980590,-0.00505222,-0.01428793,-0.00509656
 ,-0.00042764,0.00142038,0.00002979,-0.00005344,0.00001690,0.00010205,0
 .00003950,0.00004230,-0.00000050,-0.00002719,0.00002107,-0.00000695,-0
 .00006778,0.00021801,0.00001892,-0.00032314,0.00005259,0.00061507,0.00
 046523,-0.00015312,0.00033159,0.00004310,0.00004087,-0.00008344,-0.000
 23964,0.00043685,0.01137718,0.00399939,0.01465920,0.14803179,0.0000655
 0,0.00012362,0.00010179,0.00039503,-0.00030667,-0.00021429,-0.00308746
 ,-0.00088678,-0.00017926,-0.00025336,-0.00004173,-0.00035513,0.0008137
 1,0.00188718,0.00055426,-0.00788322,-0.00276857,-0.02196424,-0.0331467
 5,-0.06101140,-0.04354424,0.00910309,0.00533030,0.01895788,-0.00041451
 ,-0.00139041,0.00073982,0.00003587,-0.00000289,0.00000669,0.00002631,-
 0.00000135,-0.00001593,-0.00005251,0.00000919,-0.00000094,-0.00002808,
 -0.00006456,0.00042904,0.00010792,-0.00026032,0.00006308,0.00063686,-0
 .00148667,0.00004916,0.00028451,0.00021725,0.00017392,0.00002732,-0.00
 023629,0.00050326,-0.00177098,-0.00012451,-0.00243267,0.03436586,0.059
 20710,0.00000792,0.00000279,-0.00006096,0.00010870,0.00007925,0.000326
 64,0.00058696,0.00081118,0.00021764,-0.00097974,-0.00020773,0.00013476
 ,-0.00063501,0.00004821,0.00085580,0.00327811,0.00194471,0.00551275,-0
 .12076152,-0.04294868,-0.20879423,0.00153641,-0.00106841,-0.00182661,0
 .00059534,0.00000879,0.00036885,-0.00000375,-0.00001698,-0.00000173,0.
 00005278,-0.00001286,0.00001733,0.00002320,-0.00000768,0.00000574,-0.0
 0007573,-0.00009755,-0.00003606,0.00014075,0.00015301,0.00003977,0.000
 58789,0.00034530,-0.00002652,0.00029969,0.00007625,0.00000440,0.000034
 75,-0.00052017,0.00007498,-0.01625741,-0.00573186,-0.02061613,0.131668
 91,0.04713040,0.22205566,-0.00015992,0.00002737,-0.00020744,-0.0000876
 4,0.00060505,-0.00021879,0.00089894,0.00032349,-0.00000368,0.00007755,
 -0.00036578,0.00019152,0.00045315,0.00022640,0.00010465,-0.00336242,0.
 00022877,-0.00046083,0.00319329,0.01140053,-0.02237823,-0.04899289,-0.
 00734536,0.00965626,-0.00052904,-0.00808262,0.01910412,0.00004060,-0.0
 0010718,0.00004452,0.00013178,-0.00005199,0.00017825,0.00002025,-0.000
 00387,0.00000891,0.00017922,0.00009272,-0.00001025,0.00001546,0.000009
 04,0.00001564,0.00021611,-0.00006393,0.00000372,0.00019331,-0.00000758
 ,0.00007070,-0.00002116,-0.00000258,-0.00002600,0.00207961,-0.00175220
 ,0.00043278,-0.00198023,0.00273224,-0.00075061,0.04713949,-0.00011310,
 0.00004090,-0.00014548,0.00009569,0.00000715,-0.00001994,-0.00003186,-
 0.00016039,0.00100652,-0.00005004,-0.00016036,-0.00004603,0.00022471,-
 0.00057412,-0.00033557,0.00058486,-0.00495515,-0.00060564,-0.00142842,
 -0.00804665,0.01035305,-0.00727037,-0.13428456,0.12473737,0.00037569,-
 0.00980576,0.01597154,-0.00000640,-0.00009655,0.00001682,0.00005917,-0
 .00006122,0.00008219,-0.00003824,-0.00001310,0.00002234,-0.00009141,-0
 .00012794,0.00008199,0.00002677,-0.00011924,-0.00007308,-0.00003574,0.
 00005812,0.00000678,0.00010280,-0.00006606,0.00008107,-0.00002146,0.00
 000814,0.00008172,-0.00002655,0.00159838,-0.00014854,0.00025347,-0.001
 33398,0.00016635,0.00678203,0.14661965,0.00000767,0.00000068,-0.000020
 29,-0.00003834,0.00004858,-0.00000756,0.00021829,-0.00038587,0.0000637
 5,0.00000805,-0.00010068,0.00006137,0.00011892,-0.00024360,0.00000216,
 -0.00056623,-0.00068585,0.00058822,0.00105477,-0.00124491,-0.00142620,
 0.00944241,0.12591434,-0.22596996,-0.00038822,-0.00411505,0.00425653,0
 .00001102,0.00000815,0.00001156,-0.00000818,-0.00000408,0.00001436,0.0
 0001037,0.00000590,-0.00001057,0.00002679,0.00002866,-0.00001587,-0.00
 001057,0.00007241,0.00000110,0.00003837,-0.00000315,0.00000138,0.00003
 117,0.00002316,-0.00000023,-0.00001084,0.00000628,0.00004044,-0.000007
 57,-0.00006585,0.00145060,-0.00020767,0.00066113,0.00028142,-0.0105106
 4,-0.13581265,0.23988207,-0.00011941,0.00012506,0.00002899,-0.00006099
 ,0.00036789,-0.00014178,0.00048438,0.00016522,-0.00001907,0.00007915,-
 0.00035271,0.00011367,0.00044529,0.00014698,0.00009386,-0.00205519,-0.
 00032127,-0.00028993,-0.00659109,0.01412139,0.02395769,-0.05262533,0.0
 2751594,0.03974251,0.00310820,-0.01282049,-0.02110030,0.00000642,0.000
 00044,0.00000560,0.00014622,-0.00001898,-0.00007556,0.00002837,-0.0000
 6941,0.00004331,0.00010836,0.00005978,-0.00001863,-0.00005145,-0.00002
 310,-0.00001858,0.00008020,-0.00002759,0.00011183,0.00010702,-0.000017
 63,0.00002022,0.00003288,0.00000847,-0.00004084,-0.00315019,0.00452188
 ,-0.00093827,0.00192574,-0.00173457,0.00013834,0.00015536,0.00079546,0
 .00108579,0.05832714,-0.00010107,0.00011281,0.00001668,-0.00001666,-0.
 00004593,-0.00000277,0.00002721,-0.00035114,0.00064342,0.00002109,-0.0
 0008218,0.00007905,0.00022139,-0.00048033,-0.00050615,-0.00030467,-0.0
 0036866,0.00079952,0.00296186,-0.00768598,-0.01165023,0.02734197,-0.13
 072389,-0.11867660,0.00320075,-0.01114576,-0.01750366,-0.00000339,-0.0
 0001885,0.00000378,0.00009387,-0.00000120,-0.00001039,-0.00001503,-0.0
 0007146,0.00004341,-0.00003562,-0.00008009,0.00004261,-0.00003128,0.00
 011243,0.00002335,-0.00002284,0.00003435,-0.00005820,0.00005628,-0.000
 05554,0.00005085,-0.00002539,-0.00006612,0.00024491,0.00066216,-0.0020
 1209,0.00059605,-0.00000972,0.00176518,-0.00001052,-0.00356257,0.01157
 661,0.01556085,-0.02957793,0.14075525,-0.00004752,0.00002207,-0.000013
 02,-0.00000562,0.00007271,-0.00006637,0.00003984,0.00002791,-0.0000486
 4,0.00005208,-0.00003223,-0.00002123,0.00005010,0.00011491,-0.00002095
 ,-0.00013862,0.00006974,-0.00075622,-0.00125404,0.00392882,0.00460975,
 0.03973936,-0.11903186,-0.22187744,-0.00001733,0.00018987,-0.00173660,
 0.00000005,-0.00001908,0.00000082,0.00004924,-0.00001049,0.00000049,-0
 .00000916,-0.00002418,0.00002231,0.00001126,0.00000384,0.00002698,-0.0
 0000560,-0.00002645,0.00001167,-0.00001350,0.00000741,0.00002369,0.000
 00581,-0.00001959,0.00002003,-0.00000597,0.00002418,0.00005840,-0.0006
 9884,0.00078516,0.00098240,0.00022851,-0.00030050,0.00147515,0.0049041
 6,-0.01536955,-0.02093717,-0.04239531,0.12989256,0.23573977,-0.0001099
 2,0.00009810,0.00025145,-0.00006118,0.00005809,-0.00032910,0.00195006,
 -0.00049824,0.00039767,0.00004975,0.00011951,-0.00024817,-0.00224957,-
 0.00051296,0.00005049,-0.00458010,-0.00377340,-0.01911864,-0.00150510,
 0.00039129,0.00154299,-0.00365942,-0.00299461,-0.01418290,-0.06754468,
 -0.01485382,-0.06927748,0.00006559,0.00004870,-0.00002107,0.00004608,-
 0.00019887,0.00030006,0.00006512,-0.00001640,-0.00003673,0.00002405,0.
 00005313,0.00000224,-0.00012359,0.00045196,0.00029327,0.00001722,-0.00
 004233,0.00001757,-0.00015111,0.00019092,0.00024402,-0.00016351,0.0003
 5786,-0.00027394,-0.00080976,-0.00020124,-0.00009675,-0.00043620,0.000
 02193,0.00019571,0.00168683,0.00014720,0.00011411,-0.00194435,-0.00083
 000,-0.00037372,0.07136406,0.00002962,-0.00007885,0.00003823,0.0002433
 7,0.00043432,0.00052772,-0.00137370,0.00122995,-0.00047729,-0.00010101
 ,-0.00053695,0.00060298,0.00351260,-0.00090135,0.00054842,0.00347227,0
 .00383295,0.02322381,0.00047207,-0.00069165,-0.00001430,-0.00534821,-0
 .00707726,-0.02707060,-0.01401482,-0.05387466,-0.04827261,-0.00008770,
 -0.00002077,-0.00003095,-0.00042257,-0.00038756,0.00048238,-0.00002892
 ,0.00003245,-0.00006064,-0.00004892,-0.00005079,-0.00007159,-0.0000076
 5,-0.00014978,-0.00041974,0.00002452,0.00001485,-0.00001467,0.00025157
 ,-0.00026266,-0.00046633,0.00004800,-0.00019409,0.00009806,-0.00012676
 ,0.00053519,-0.00006535,-0.00014203,0.00033002,0.00000718,0.00170764,0
 .00196651,0.00045984,-0.00451621,-0.00325244,-0.00047382,0.01710579,0.
 05907338,-0.00048503,0.00060194,0.00016002,-0.00042163,-0.00032704,-0.
 00025850,0.00024794,-0.00003616,0.00131806,0.00008082,0.00035760,-0.00
 005519,-0.00138663,-0.00060968,0.00103101,-0.00111684,-0.00091171,-0.0
 0835105,-0.00011469,0.00035873,-0.00069092,0.00144353,0.00028464,0.001
 43855,-0.06722473,-0.04935454,-0.27756083,0.00007670,-0.00000928,0.000
 04684,0.00056093,-0.00012831,-0.00039844,0.00010044,-0.00034526,0.0002
 1371,0.00016563,0.00010074,0.00010566,-0.00024048,0.00074168,-0.000029
 43,0.00003064,-0.00002092,0.00003533,-0.00019986,0.00018924,0.00011538
 ,0.00009055,0.00009122,-0.00001762,-0.00013021,-0.00006602,0.00010865,
 -0.00035731,-0.00012158,0.00000990,-0.00028820,-0.00022721,0.00133286,
 -0.00022879,0.00043530,0.00109517,0.07537914,0.05282814,0.29792783,-0.
 00050505,-0.00051021,-0.00109428,-0.00044725,0.00053954,0.00007013,-0.
 00126321,-0.00078356,-0.00052999,0.00009839,0.00002235,0.00011415,0.00
 178916,-0.00056567,0.00047518,-0.01258224,-0.00159868,0.01138974,-0.00
 401621,-0.00029297,-0.00295564,-0.00967189,0.00139333,0.00734877,-0.21
 675365,0.01153810,0.12859761,0.00017921,-0.00048036,0.00020554,0.00049
 176,-0.00133080,0.00054567,0.00010072,0.00010234,0.00002688,0.00024124
 ,0.00009944,-0.00003840,-0.00008064,0.00031096,-0.00005869,0.00013662,
 -0.00007085,0.00002183,-0.00003378,0.00006330,-0.00027890,-0.00006674,
 0.00039836,-0.00060572,-0.00037127,-0.00002584,0.00025749,-0.00131155,
 -0.00024472,0.00020832,-0.00134766,-0.00033427,-0.00041946,0.00156328,
 -0.00005041,-0.00011516,0.00806974,-0.00064896,-0.00598191,0.23578101,
 -0.00025291,-0.00085661,0.00001963,0.00075760,0.00014255,-0.00047580,0
 .00243438,-0.00024951,0.00067526,-0.00017383,-0.00049833,-0.00008744,-
 0.00124142,0.00143957,0.00024197,0.01139586,-0.00051012,-0.01634344,-0
 .00034502,-0.00151535,0.00020736,-0.01802933,0.00236866,0.01763405,0.0
 1085565,-0.04839412,-0.00623447,-0.00015551,0.00012583,-0.00000680,-0.
 00061645,-0.00231432,-0.00068800,-0.00014712,-0.00005714,0.00006109,-0
 .00020000,-0.00000536,0.00004490,0.00000303,-0.00020916,0.00003700,-0.
 00000241,0.00001799,-0.00000755,0.00003255,0.00006336,0.00045273,-0.00
 007620,-0.00018741,0.00037736,-0.00016335,0.00029869,-0.00007363,-0.00
 028431,0.00104629,-0.00015097,-0.00278961,-0.00207037,-0.00012826,0.00
 165137,0.00208503,0.00016857,0.00487743,0.00002917,-0.00383150,-0.0075
 3042,0.04925065,0.00033404,0.00007257,0.00090076,0.00037366,0.00023619
 ,0.00017099,-0.00090322,0.00035494,-0.00008506,-0.00010187,-0.00000115
 ,0.00021335,0.00072169,-0.00014298,0.00126871,-0.00880311,0.00039894,0
 .00689666,-0.00195105,-0.00026654,-0.00061400,-0.00385698,-0.00077018,
 0.00048897,0.12736137,-0.00653843,-0.14092644,-0.00010207,0.00038415,-
 0.00016406,-0.00019340,-0.00004616,-0.00041070,0.00002846,0.00004045,-
 0.00009996,-0.00014457,-0.00001674,-0.00003609,-0.00015811,0.00016023,
 -0.00003626,-0.00002296,-0.00001575,-0.00000133,0.00008652,-0.00007637
 ,-0.00012599,0.00012944,-0.00038107,-0.00005712,-0.00032059,-0.0000417
 2,0.00002910,-0.00052853,-0.00024163,-0.00001853,0.00013945,0.00017595
 ,0.00040003,-0.00007475,-0.00001380,0.00141102,0.02516979,-0.00137887,
 -0.01757698,-0.13718318,0.00810795,0.14837297\\-0.00000870,-0.00000190
 ,-0.00000478,0.00000609,-0.00000069,0.00000791,0.00000975,0.00001102,0
 .00000582,0.00000846,-0.00000538,-0.00000157,-0.00001603,-0.00000010,-
 0.00000658,0.00002341,0.00000172,-0.00000041,-0.00001079,-0.00001166,0
 .00000263,0.00000001,0.00001043,0.00000869,-0.00000291,-0.00001059,-0.
 00001137,0.00000252,0.00000108,-0.00000107,-0.00000132,-0.00000077,-0.
 00000079,-0.00000092,0.00000129,-0.00000116,-0.00000402,-0.00000058,-0
 .00000218,-0.00000743,-0.00000478,-0.00000332,-0.00000297,0.00000193,0
 .00000045,-0.00000343,0.00000057,-0.00000039,-0.00000169,0.00000133,0.
 00000264,0.00000326,-0.00000005,0.00000108,0.00000389,0.00000086,-0.00
 000096,0.00000079,-0.00000045,0.,0.00000009,0.00000189,-0.00000152,-0.
 00000241,0.00000566,0.00000229,0.00000436,-0.00000081,0.00000460\\\@


 WAR ES EIN GOTT DER DIESE ZEICHEN SCHRIEB?
          - LUDWIG BOLTZMANN, QUOTING GOETHE, ABOUT MAXWELL'S EQUATIONS.
 Job cpu time:       0 days  2 hours 44 minutes 51.8 seconds.
 Elapsed time:       0 days  0 hours 41 minutes 14.0 seconds.
 File lengths (MBytes):  RWF=    175 Int=      0 D2E=      0 Chk=     10 Scr=      1
 Normal termination of Gaussian 16 at Sun May 28 19:29:49 2023.
### All Done ###
