### Starting Gaussian ###
 Entering Gaussian System, Link 0=g16
 Initial command:
 /cluster/software/gaussian/gaussian-16-A.03/avx2/g16/l1.exe "/local/scratch/yxie/Gau-19092.inp" -scrdir="/local/scratch/yxie/"
 Entering Link 1 = /cluster/software/gaussian/gaussian-16-A.03/avx2/g16/l1.exe PID=     19093.
  
 Copyright (c) 1988,1990,1992,1993,1995,1998,2003,2009,2016,
            Gaussian, Inc.  All Rights Reserved.
  
 This is part of the Gaussian(R) 16 program.  It is based on
 the Gaussian(R) 09 system (copyright 2009, Gaussian, Inc.),
 the Gaussian(R) 03 system (copyright 2003, Gaussian, Inc.),
 the Gaussian(R) 98 system (copyright 1998, Gaussian, Inc.),
 the Gaussian(R) 94 system (copyright 1995, Gaussian, Inc.),
 the Gaussian 92(TM) system (copyright 1992, Gaussian, Inc.),
 the Gaussian 90(TM) system (copyright 1990, Gaussian, Inc.),
 the Gaussian 88(TM) system (copyright 1988, Gaussian, Inc.),
 the Gaussian 86(TM) system (copyright 1986, Carnegie Mellon
 University), and the Gaussian 82(TM) system (copyright 1983,
 Carnegie Mellon University). Gaussian is a federally registered
 trademark of Gaussian, Inc.
  
 This software contains proprietary and confidential information,
 including trade secrets, belonging to Gaussian, Inc.
  
 This software is provided under written license and may be
 used, copied, transmitted, or stored only in accord with that
 written license.
  
 The following legend is applicable only to US Government
 contracts under FAR:
  
                    RESTRICTED RIGHTS LEGEND
  
 Use, reproduction and disclosure by the US Government is
 subject to restrictions as set forth in subparagraphs (a)
 and (c) of the Commercial Computer Software - Restricted
 Rights clause in FAR 52.227-19.
  
 Gaussian, Inc.
 340 Quinnipiac St., Bldg. 40, Wallingford CT 06492
  
  
 ---------------------------------------------------------------
 Warning -- This program may not be used in any manner that
 competes with the business of Gaussian, Inc. or will provide
 assistance to any competitor of Gaussian, Inc.  The licensee
 of this program is prohibited from giving any competitor of
 Gaussian, Inc. access to this program.  By using this program,
 the user acknowledges that Gaussian, Inc. is engaged in the
 business of creating and licensing software in the field of
 computational chemistry and represents and warrants to the
 licensee that it is not a competitor of Gaussian, Inc. and that
 it will not use this program in any manner prohibited above.
 ---------------------------------------------------------------
  

 Cite this work as:
 Gaussian 16, Revision A.03,
 M. J. Frisch, G. W. Trucks, H. B. Schlegel, G. E. Scuseria, 
 M. A. Robb, J. R. Cheeseman, G. Scalmani, V. Barone, 
 G. A. Petersson, H. Nakatsuji, X. Li, M. Caricato, A. V. Marenich, 
 J. Bloino, B. G. Janesko, R. Gomperts, B. Mennucci, H. P. Hratchian, 
 J. V. Ortiz, A. F. Izmaylov, J. L. Sonnenberg, D. Williams-Young, 
 F. Ding, F. Lipparini, F. Egidi, J. Goings, B. Peng, A. Petrone, 
 T. Henderson, D. Ranasinghe, V. G. Zakrzewski, J. Gao, N. Rega, 
 G. Zheng, W. Liang, M. Hada, M. Ehara, K. Toyota, R. Fukuda, 
 J. Hasegawa, M. Ishida, T. Nakajima, Y. Honda, O. Kitao, H. Nakai, 
 T. Vreven, K. Throssell, J. A. Montgomery, Jr., J. E. Peralta, 
 F. Ogliaro, M. J. Bearpark, J. J. Heyd, E. N. Brothers, K. N. Kudin, 
 V. N. Staroverov, T. A. Keith, R. Kobayashi, J. Normand, 
 K. Raghavachari, A. P. Rendell, J. C. Burant, S. S. Iyengar, 
 J. Tomasi, M. Cossi, J. M. Millam, M. Klene, C. Adamo, R. Cammi, 
 J. W. Ochterski, R. L. Martin, K. Morokuma, O. Farkas, 
 J. B. Foresman, and D. J. Fox, Gaussian, Inc., Wallingford CT, 2016.
 
 ******************************************
 Gaussian 16:  ES64L-G16RevA.03 25-Dec-2016
                22-May-2023 
 ******************************************
 %chk=CC1CCCCCqCCCCCCOrC1.chk
 %NProcShared=20
 Will use up to   20 processors via shared memory.
 -----------------------------
 # opt freq b3lyp/6-31g(2df,p)
 -----------------------------
 1/18=20,19=15,26=3,38=1/1,3;
 2/9=110,12=2,17=6,18=5,40=1/2;
 3/5=1,6=6,7=104,11=2,25=1,30=1,71=1,74=-5/1,2,3;
 4//1;
 5/5=2,38=5/2;
 6/7=2,8=2,9=2,10=2,28=1/1;
 7//1,2,3,16;
 1/18=20,19=15,26=3/3(2);
 2/9=110/2;
 99//99;
 2/9=110/2;
 3/5=1,6=6,7=104,11=2,25=1,30=1,71=1,74=-5/1,2,3;
 4/5=5,16=3,69=1/1;
 5/5=2,38=5/2;
 7//1,2,3,16;
 1/18=20,19=15,26=3/3(-5);
 2/9=110/2;
 6/7=2,8=2,9=2,10=2,19=2,28=1/1;
 99/9=1/99;
 -------------------
 Title Card Required
 -------------------
 Symbolic Z-matrix:
 Charge =  0 Multiplicity = 1
 C                     0.86207  -0.14768  -0.12782 
 C                     2.39069  -0.1943   -0.12435 
 C                     2.93456  -1.5302   -0.63938 
 C                     4.46327  -1.66238  -0.69351 
 C                     5.09551  -0.78371  -1.76808 
 C                     5.42787   0.6548   -1.36133 
 C                     4.40886   1.39013  -0.475 
 C                     4.72082   1.19096   1.01988 
 C                     3.73125   1.88448   1.95148 
 C                     3.86914   1.29481   3.34805 
 C                     2.82846   1.91077   4.26251 
 C                     3.02269   1.43292   5.68984 
 C                     2.01416   2.10505   6.60315 
 O                     2.22062   1.67366   7.94017 
 C                     2.95642   1.04235  -0.85441 
 H                     0.45569  -0.96276   0.47961 
 H                     0.45347  -0.21881  -1.13836 
 H                     0.51057   0.79033   0.32124 
 H                     2.64232  -0.17454   0.93648 
 H                     2.52409  -1.73258  -1.63452 
 H                     2.55645  -2.32183   0.02023 
 H                     4.69002  -2.70826  -0.93186 
 H                     4.93286  -1.50655   0.28036 
 H                     4.4395   -0.76661  -2.64713 
 H                     6.02622  -1.25489  -2.10729 
 H                     5.54582   1.2295   -2.29125 
 H                     6.41576   0.67926  -0.88396 
 H                     4.55068   2.4631   -0.67172 
 H                     5.73636   1.53385   1.24748 
 H                     4.72859   0.13067   1.27163 
 H                     2.6908    1.75474   1.63735 
 H                     3.90698   2.9639    1.95026 
 H                     4.88183   1.47534   3.72441 
 H                     3.72302   0.20556   3.32094 
 H                     1.82348   1.64074   3.91254 
 H                     2.90527   3.00297   4.21696 
 H                     4.04091   1.6568    6.03112 
 H                     2.91797   0.3422    5.74719 
 H                     0.98944   1.85736   6.30752 
 H                     2.1286    3.19205   6.56761 
 H                     2.12287   0.71209   7.95121 
 H                     2.86252   0.92161  -1.94183 
 H                     2.33945   1.92101  -0.61969 
 

 GradGradGradGradGradGradGradGradGradGradGradGradGradGradGradGradGradGrad
 Berny optimization.
 Initialization pass.
                           ----------------------------
                           !    Initial Parameters    !
                           ! (Angstroms and Degrees)  !
 --------------------------                            --------------------------
 ! Name  Definition              Value          Derivative Info.                !
 --------------------------------------------------------------------------------
 ! R1    R(1,2)                  1.5293         estimate D2E/DX2                !
 ! R2    R(1,16)                 1.0947         estimate D2E/DX2                !
 ! R3    R(1,17)                 1.0923         estimate D2E/DX2                !
 ! R4    R(1,18)                 1.0978         estimate D2E/DX2                !
 ! R5    R(2,3)                  1.5316         estimate D2E/DX2                !
 ! R6    R(2,15)                 1.5435         estimate D2E/DX2                !
 ! R7    R(2,19)                 1.0904         estimate D2E/DX2                !
 ! R8    R(3,4)                  1.5354         estimate D2E/DX2                !
 ! R9    R(3,20)                 1.0953         estimate D2E/DX2                !
 ! R10   R(3,21)                 1.0976         estimate D2E/DX2                !
 ! R11   R(4,5)                  1.5253         estimate D2E/DX2                !
 ! R12   R(4,22)                 1.0964         estimate D2E/DX2                !
 ! R13   R(4,23)                 1.0923         estimate D2E/DX2                !
 ! R14   R(5,6)                  1.5314         estimate D2E/DX2                !
 ! R15   R(5,24)                 1.097          estimate D2E/DX2                !
 ! R16   R(5,25)                 1.0969         estimate D2E/DX2                !
 ! R17   R(6,7)                  1.5377         estimate D2E/DX2                !
 ! R18   R(6,26)                 1.0995         estimate D2E/DX2                !
 ! R19   R(6,27)                 1.0975         estimate D2E/DX2                !
 ! R20   R(7,8)                  1.54           estimate D2E/DX2                !
 ! R21   R(7,15)                 1.5409         estimate D2E/DX2                !
 ! R22   R(7,28)                 1.1            estimate D2E/DX2                !
 ! R23   R(8,9)                  1.5258         estimate D2E/DX2                !
 ! R24   R(8,29)                 1.0958         estimate D2E/DX2                !
 ! R25   R(8,30)                 1.0898         estimate D2E/DX2                !
 ! R26   R(9,10)                 1.5222         estimate D2E/DX2                !
 ! R27   R(9,31)                 1.0946         estimate D2E/DX2                !
 ! R28   R(9,32)                 1.0936         estimate D2E/DX2                !
 ! R29   R(10,11)                1.5161         estimate D2E/DX2                !
 ! R30   R(10,33)                1.0953         estimate D2E/DX2                !
 ! R31   R(10,34)                1.0993         estimate D2E/DX2                !
 ! R32   R(11,12)                1.5177         estimate D2E/DX2                !
 ! R33   R(11,35)                1.0979         estimate D2E/DX2                !
 ! R34   R(11,36)                1.0958         estimate D2E/DX2                !
 ! R35   R(12,13)                1.5176         estimate D2E/DX2                !
 ! R36   R(12,37)                1.097          estimate D2E/DX2                !
 ! R37   R(12,38)                1.0972         estimate D2E/DX2                !
 ! R38   R(13,14)                1.42           estimate D2E/DX2                !
 ! R39   R(13,39)                1.0949         estimate D2E/DX2                !
 ! R40   R(13,40)                1.0936         estimate D2E/DX2                !
 ! R41   R(14,41)                0.9666         estimate D2E/DX2                !
 ! R42   R(15,42)                1.0981         estimate D2E/DX2                !
 ! R43   R(15,43)                1.099          estimate D2E/DX2                !
 ! A1    A(2,1,16)             110.3088         estimate D2E/DX2                !
 ! A2    A(2,1,17)             111.9625         estimate D2E/DX2                !
 ! A3    A(2,1,18)             110.1921         estimate D2E/DX2                !
 ! A4    A(16,1,17)            109.0245         estimate D2E/DX2                !
 ! A5    A(16,1,18)            106.8792         estimate D2E/DX2                !
 ! A6    A(17,1,18)            108.3189         estimate D2E/DX2                !
 ! A7    A(1,2,3)              112.3813         estimate D2E/DX2                !
 ! A8    A(1,2,15)             109.9293         estimate D2E/DX2                !
 ! A9    A(1,2,19)             103.4329         estimate D2E/DX2                !
 ! A10   A(3,2,15)             114.182          estimate D2E/DX2                !
 ! A11   A(3,2,19)             105.1298         estimate D2E/DX2                !
 ! A12   A(15,2,19)            111.1648         estimate D2E/DX2                !
 ! A13   A(2,3,4)              116.1368         estimate D2E/DX2                !
 ! A14   A(2,3,20)             109.4877         estimate D2E/DX2                !
 ! A15   A(2,3,21)             107.7388         estimate D2E/DX2                !
 ! A16   A(4,3,20)             108.9767         estimate D2E/DX2                !
 ! A17   A(4,3,21)             107.5831         estimate D2E/DX2                !
 ! A18   A(20,3,21)            106.477          estimate D2E/DX2                !
 ! A19   A(3,4,5)              112.8272         estimate D2E/DX2                !
 ! A20   A(3,4,22)             107.1998         estimate D2E/DX2                !
 ! A21   A(3,4,23)             112.6012         estimate D2E/DX2                !
 ! A22   A(5,4,22)             108.0982         estimate D2E/DX2                !
 ! A23   A(5,4,23)             111.5752         estimate D2E/DX2                !
 ! A24   A(22,4,23)            103.945          estimate D2E/DX2                !
 ! A25   A(4,5,6)              116.357          estimate D2E/DX2                !
 ! A26   A(4,5,24)             109.0046         estimate D2E/DX2                !
 ! A27   A(4,5,25)             108.79           estimate D2E/DX2                !
 ! A28   A(6,5,24)             109.1463         estimate D2E/DX2                !
 ! A29   A(6,5,25)             107.5462         estimate D2E/DX2                !
 ! A30   A(24,5,25)            105.4433         estimate D2E/DX2                !
 ! A31   A(5,6,7)              117.2871         estimate D2E/DX2                !
 ! A32   A(5,6,26)             106.8353         estimate D2E/DX2                !
 ! A33   A(5,6,27)             109.3799         estimate D2E/DX2                !
 ! A34   A(7,6,26)             107.9762         estimate D2E/DX2                !
 ! A35   A(7,6,27)             109.5807         estimate D2E/DX2                !
 ! A36   A(26,6,27)            105.0505         estimate D2E/DX2                !
 ! A37   A(6,7,8)              111.3097         estimate D2E/DX2                !
 ! A38   A(6,7,15)             112.0098         estimate D2E/DX2                !
 ! A39   A(6,7,28)             106.1357         estimate D2E/DX2                !
 ! A40   A(8,7,15)             113.6251         estimate D2E/DX2                !
 ! A41   A(8,7,28)             105.8799         estimate D2E/DX2                !
 ! A42   A(15,7,28)            107.3152         estimate D2E/DX2                !
 ! A43   A(7,8,9)              113.7349         estimate D2E/DX2                !
 ! A44   A(7,8,29)             110.4194         estimate D2E/DX2                !
 ! A45   A(7,8,30)             110.5796         estimate D2E/DX2                !
 ! A46   A(9,8,29)             109.3915         estimate D2E/DX2                !
 ! A47   A(9,8,30)             107.8063         estimate D2E/DX2                !
 ! A48   A(29,8,30)            104.4693         estimate D2E/DX2                !
 ! A49   A(8,9,10)             108.9864         estimate D2E/DX2                !
 ! A50   A(8,9,31)             112.7924         estimate D2E/DX2                !
 ! A51   A(8,9,32)             110.104          estimate D2E/DX2                !
 ! A52   A(10,9,31)            107.6677         estimate D2E/DX2                !
 ! A53   A(10,9,32)            111.6423         estimate D2E/DX2                !
 ! A54   A(31,9,32)            105.6294         estimate D2E/DX2                !
 ! A55   A(9,10,11)            109.5003         estimate D2E/DX2                !
 ! A56   A(9,10,33)            109.5812         estimate D2E/DX2                !
 ! A57   A(9,10,34)            110.4357         estimate D2E/DX2                !
 ! A58   A(11,10,33)           111.1251         estimate D2E/DX2                !
 ! A59   A(11,10,34)           109.0371         estimate D2E/DX2                !
 ! A60   A(33,10,34)           107.1373         estimate D2E/DX2                !
 ! A61   A(10,11,12)           110.5782         estimate D2E/DX2                !
 ! A62   A(10,11,35)           109.641          estimate D2E/DX2                !
 ! A63   A(10,11,36)           109.3742         estimate D2E/DX2                !
 ! A64   A(12,11,35)           109.8462         estimate D2E/DX2                !
 ! A65   A(12,11,36)           110.1165         estimate D2E/DX2                !
 ! A66   A(35,11,36)           107.2202         estimate D2E/DX2                !
 ! A67   A(11,12,13)           109.9681         estimate D2E/DX2                !
 ! A68   A(11,12,37)           110.3113         estimate D2E/DX2                !
 ! A69   A(11,12,38)           110.483          estimate D2E/DX2                !
 ! A70   A(13,12,37)           109.83           estimate D2E/DX2                !
 ! A71   A(13,12,38)           110.2054         estimate D2E/DX2                !
 ! A72   A(37,12,38)           105.9741         estimate D2E/DX2                !
 ! A73   A(12,13,14)           109.602          estimate D2E/DX2                !
 ! A74   A(12,13,39)           111.0562         estimate D2E/DX2                !
 ! A75   A(12,13,40)           110.5563         estimate D2E/DX2                !
 ! A76   A(14,13,39)           108.7587         estimate D2E/DX2                !
 ! A77   A(14,13,40)           108.5031         estimate D2E/DX2                !
 ! A78   A(39,13,40)           108.3019         estimate D2E/DX2                !
 ! A79   A(13,14,41)           107.3539         estimate D2E/DX2                !
 ! A80   A(2,15,7)             114.1951         estimate D2E/DX2                !
 ! A81   A(2,15,42)            110.423          estimate D2E/DX2                !
 ! A82   A(2,15,43)            109.4988         estimate D2E/DX2                !
 ! A83   A(7,15,42)            110.4405         estimate D2E/DX2                !
 ! A84   A(7,15,43)            107.2248         estimate D2E/DX2                !
 ! A85   A(42,15,43)           104.5602         estimate D2E/DX2                !
 ! D1    D(16,1,2,3)            57.7166         estimate D2E/DX2                !
 ! D2    D(16,1,2,15)         -173.9285         estimate D2E/DX2                !
 ! D3    D(16,1,2,19)          -55.1484         estimate D2E/DX2                !
 ! D4    D(17,1,2,3)           -63.8857         estimate D2E/DX2                !
 ! D5    D(17,1,2,15)           64.4692         estimate D2E/DX2                !
 ! D6    D(17,1,2,19)         -176.7507         estimate D2E/DX2                !
 ! D7    D(18,1,2,3)           175.4904         estimate D2E/DX2                !
 ! D8    D(18,1,2,15)          -56.1547         estimate D2E/DX2                !
 ! D9    D(18,1,2,19)           62.6254         estimate D2E/DX2                !
 ! D10   D(1,2,3,4)            179.0663         estimate D2E/DX2                !
 ! D11   D(1,2,3,20)            55.1571         estimate D2E/DX2                !
 ! D12   D(1,2,3,21)           -60.2525         estimate D2E/DX2                !
 ! D13   D(15,2,3,4)            52.9805         estimate D2E/DX2                !
 ! D14   D(15,2,3,20)          -70.9287         estimate D2E/DX2                !
 ! D15   D(15,2,3,21)          173.6617         estimate D2E/DX2                !
 ! D16   D(19,2,3,4)           -69.1198         estimate D2E/DX2                !
 ! D17   D(19,2,3,20)          166.9709         estimate D2E/DX2                !
 ! D18   D(19,2,3,21)           51.5613         estimate D2E/DX2                !
 ! D19   D(1,2,15,7)           158.1827         estimate D2E/DX2                !
 ! D20   D(1,2,15,42)          -76.658          estimate D2E/DX2                !
 ! D21   D(1,2,15,43)           37.9515         estimate D2E/DX2                !
 ! D22   D(3,2,15,7)           -74.4593         estimate D2E/DX2                !
 ! D23   D(3,2,15,42)           50.7            estimate D2E/DX2                !
 ! D24   D(3,2,15,43)          165.3095         estimate D2E/DX2                !
 ! D25   D(19,2,15,7)           44.2694         estimate D2E/DX2                !
 ! D26   D(19,2,15,42)         169.4287         estimate D2E/DX2                !
 ! D27   D(19,2,15,43)         -75.9619         estimate D2E/DX2                !
 ! D28   D(2,3,4,5)            -69.5371         estimate D2E/DX2                !
 ! D29   D(2,3,4,22)           171.5737         estimate D2E/DX2                !
 ! D30   D(2,3,4,23)            57.8631         estimate D2E/DX2                !
 ! D31   D(20,3,4,5)            54.636          estimate D2E/DX2                !
 ! D32   D(20,3,4,22)          -64.2531         estimate D2E/DX2                !
 ! D33   D(20,3,4,23)         -177.9637         estimate D2E/DX2                !
 ! D34   D(21,3,4,5)           169.6983         estimate D2E/DX2                !
 ! D35   D(21,3,4,22)           50.8092         estimate D2E/DX2                !
 ! D36   D(21,3,4,23)          -62.9014         estimate D2E/DX2                !
 ! D37   D(3,4,5,6)             86.7806         estimate D2E/DX2                !
 ! D38   D(3,4,5,24)           -37.122          estimate D2E/DX2                !
 ! D39   D(3,4,5,25)          -151.6208         estimate D2E/DX2                !
 ! D40   D(22,4,5,6)          -154.854          estimate D2E/DX2                !
 ! D41   D(22,4,5,24)           81.2434         estimate D2E/DX2                !
 ! D42   D(22,4,5,25)          -33.2553         estimate D2E/DX2                !
 ! D43   D(23,4,5,6)           -41.159          estimate D2E/DX2                !
 ! D44   D(23,4,5,24)         -165.0616         estimate D2E/DX2                !
 ! D45   D(23,4,5,25)           80.4396         estimate D2E/DX2                !
 ! D46   D(4,5,6,7)            -40.1362         estimate D2E/DX2                !
 ! D47   D(4,5,6,26)          -161.3952         estimate D2E/DX2                !
 ! D48   D(4,5,6,27)            85.3992         estimate D2E/DX2                !
 ! D49   D(24,5,6,7)            83.6934         estimate D2E/DX2                !
 ! D50   D(24,5,6,26)          -37.5656         estimate D2E/DX2                !
 ! D51   D(24,5,6,27)         -150.7712         estimate D2E/DX2                !
 ! D52   D(25,5,6,7)          -162.3899         estimate D2E/DX2                !
 ! D53   D(25,5,6,26)           76.351          estimate D2E/DX2                !
 ! D54   D(25,5,6,27)          -36.8546         estimate D2E/DX2                !
 ! D55   D(5,6,7,8)             90.9477         estimate D2E/DX2                !
 ! D56   D(5,6,7,15)           -37.4894         estimate D2E/DX2                !
 ! D57   D(5,6,7,28)          -154.3061         estimate D2E/DX2                !
 ! D58   D(26,6,7,8)          -148.3895         estimate D2E/DX2                !
 ! D59   D(26,6,7,15)           83.1734         estimate D2E/DX2                !
 ! D60   D(26,6,7,28)          -33.6433         estimate D2E/DX2                !
 ! D61   D(27,6,7,8)           -34.488          estimate D2E/DX2                !
 ! D62   D(27,6,7,15)         -162.9251         estimate D2E/DX2                !
 ! D63   D(27,6,7,28)           80.2582         estimate D2E/DX2                !
 ! D64   D(6,7,8,9)           -179.2769         estimate D2E/DX2                !
 ! D65   D(6,7,8,29)            57.3074         estimate D2E/DX2                !
 ! D66   D(6,7,8,30)           -57.8159         estimate D2E/DX2                !
 ! D67   D(15,7,8,9)           -51.7096         estimate D2E/DX2                !
 ! D68   D(15,7,8,29)         -175.1252         estimate D2E/DX2                !
 ! D69   D(15,7,8,30)           69.7514         estimate D2E/DX2                !
 ! D70   D(28,7,8,9)            65.8182         estimate D2E/DX2                !
 ! D71   D(28,7,8,29)          -57.5975         estimate D2E/DX2                !
 ! D72   D(28,7,8,30)         -172.7208         estimate D2E/DX2                !
 ! D73   D(6,7,15,2)            88.5627         estimate D2E/DX2                !
 ! D74   D(6,7,15,42)          -36.5874         estimate D2E/DX2                !
 ! D75   D(6,7,15,43)         -149.9429         estimate D2E/DX2                !
 ! D76   D(8,7,15,2)           -38.6407         estimate D2E/DX2                !
 ! D77   D(8,7,15,42)         -163.7908         estimate D2E/DX2                !
 ! D78   D(8,7,15,43)           82.8536         estimate D2E/DX2                !
 ! D79   D(28,7,15,2)         -155.3328         estimate D2E/DX2                !
 ! D80   D(28,7,15,42)          79.5171         estimate D2E/DX2                !
 ! D81   D(28,7,15,43)         -33.8384         estimate D2E/DX2                !
 ! D82   D(7,8,9,10)           163.0623         estimate D2E/DX2                !
 ! D83   D(7,8,9,31)            43.5428         estimate D2E/DX2                !
 ! D84   D(7,8,9,32)           -74.1675         estimate D2E/DX2                !
 ! D85   D(29,8,9,10)          -72.9639         estimate D2E/DX2                !
 ! D86   D(29,8,9,31)          167.5167         estimate D2E/DX2                !
 ! D87   D(29,8,9,32)           49.8064         estimate D2E/DX2                !
 ! D88   D(30,8,9,10)           40.0696         estimate D2E/DX2                !
 ! D89   D(30,8,9,31)          -79.4498         estimate D2E/DX2                !
 ! D90   D(30,8,9,32)          162.8399         estimate D2E/DX2                !
 ! D91   D(8,9,10,11)         -176.2901         estimate D2E/DX2                !
 ! D92   D(8,9,10,33)           61.5846         estimate D2E/DX2                !
 ! D93   D(8,9,10,34)          -56.2095         estimate D2E/DX2                !
 ! D94   D(31,9,10,11)         -53.637          estimate D2E/DX2                !
 ! D95   D(31,9,10,33)        -175.7623         estimate D2E/DX2                !
 ! D96   D(31,9,10,34)          66.4436         estimate D2E/DX2                !
 ! D97   D(32,9,10,11)          61.8673         estimate D2E/DX2                !
 ! D98   D(32,9,10,33)         -60.258          estimate D2E/DX2                !
 ! D99   D(32,9,10,34)        -178.0521         estimate D2E/DX2                !
 ! D100  D(9,10,11,12)        -174.9567         estimate D2E/DX2                !
 ! D101  D(9,10,11,35)          63.7761         estimate D2E/DX2                !
 ! D102  D(9,10,11,36)         -53.5273         estimate D2E/DX2                !
 ! D103  D(33,10,11,12)        -53.7602         estimate D2E/DX2                !
 ! D104  D(33,10,11,35)       -175.0274         estimate D2E/DX2                !
 ! D105  D(33,10,11,36)         67.6692         estimate D2E/DX2                !
 ! D106  D(34,10,11,12)         64.111          estimate D2E/DX2                !
 ! D107  D(34,10,11,35)        -57.1561         estimate D2E/DX2                !
 ! D108  D(34,10,11,36)       -174.4595         estimate D2E/DX2                !
 ! D109  D(10,11,12,13)        177.4764         estimate D2E/DX2                !
 ! D110  D(10,11,12,37)         56.188          estimate D2E/DX2                !
 ! D111  D(10,11,12,38)        -60.653          estimate D2E/DX2                !
 ! D112  D(35,11,12,13)        -61.3781         estimate D2E/DX2                !
 ! D113  D(35,11,12,37)        177.3336         estimate D2E/DX2                !
 ! D114  D(35,11,12,38)         60.4926         estimate D2E/DX2                !
 ! D115  D(36,11,12,13)         56.4867         estimate D2E/DX2                !
 ! D116  D(36,11,12,37)        -64.8016         estimate D2E/DX2                !
 ! D117  D(36,11,12,38)        178.3574         estimate D2E/DX2                !
 ! D118  D(11,12,13,14)       -178.8037         estimate D2E/DX2                !
 ! D119  D(11,12,13,39)         61.0046         estimate D2E/DX2                !
 ! D120  D(11,12,13,40)        -59.2436         estimate D2E/DX2                !
 ! D121  D(37,12,13,14)        -57.2276         estimate D2E/DX2                !
 ! D122  D(37,12,13,39)       -177.4193         estimate D2E/DX2                !
 ! D123  D(37,12,13,40)         62.3324         estimate D2E/DX2                !
 ! D124  D(38,12,13,14)         59.1606         estimate D2E/DX2                !
 ! D125  D(38,12,13,39)        -61.0311         estimate D2E/DX2                !
 ! D126  D(38,12,13,40)        178.7207         estimate D2E/DX2                !
 ! D127  D(12,13,14,41)        -58.741          estimate D2E/DX2                !
 ! D128  D(39,13,14,41)         62.8417         estimate D2E/DX2                !
 ! D129  D(40,13,14,41)       -179.5531         estimate D2E/DX2                !
 --------------------------------------------------------------------------------
 Trust Radius=3.00D-01 FncErr=1.00D-07 GrdErr=1.00D-06 EigMax=2.50D+02 EigMin=1.00D-04
 Number of steps in this run=    258 maximum allowed number of steps=    258.
 GradGradGradGradGradGradGradGradGradGradGradGradGradGradGradGradGradGrad

                          Input orientation:                          
 ---------------------------------------------------------------------
 Center     Atomic      Atomic             Coordinates (Angstroms)
 Number     Number       Type             X           Y           Z
 ---------------------------------------------------------------------
      1          6           0        0.862070   -0.147680   -0.127820
      2          6           0        2.390690   -0.194300   -0.124350
      3          6           0        2.934560   -1.530200   -0.639380
      4          6           0        4.463270   -1.662380   -0.693510
      5          6           0        5.095510   -0.783710   -1.768080
      6          6           0        5.427870    0.654800   -1.361330
      7          6           0        4.408860    1.390130   -0.475000
      8          6           0        4.720820    1.190960    1.019880
      9          6           0        3.731250    1.884480    1.951480
     10          6           0        3.869140    1.294810    3.348050
     11          6           0        2.828460    1.910770    4.262510
     12          6           0        3.022690    1.432920    5.689840
     13          6           0        2.014160    2.105050    6.603150
     14          8           0        2.220620    1.673660    7.940170
     15          6           0        2.956420    1.042350   -0.854410
     16          1           0        0.455690   -0.962760    0.479610
     17          1           0        0.453470   -0.218810   -1.138360
     18          1           0        0.510570    0.790330    0.321240
     19          1           0        2.642320   -0.174540    0.936480
     20          1           0        2.524090   -1.732580   -1.634520
     21          1           0        2.556450   -2.321830    0.020230
     22          1           0        4.690020   -2.708260   -0.931860
     23          1           0        4.932860   -1.506550    0.280360
     24          1           0        4.439500   -0.766610   -2.647130
     25          1           0        6.026220   -1.254890   -2.107290
     26          1           0        5.545820    1.229500   -2.291250
     27          1           0        6.415760    0.679260   -0.883960
     28          1           0        4.550680    2.463100   -0.671720
     29          1           0        5.736360    1.533850    1.247480
     30          1           0        4.728590    0.130670    1.271630
     31          1           0        2.690800    1.754740    1.637350
     32          1           0        3.906980    2.963900    1.950260
     33          1           0        4.881830    1.475340    3.724410
     34          1           0        3.723020    0.205560    3.320940
     35          1           0        1.823480    1.640740    3.912540
     36          1           0        2.905270    3.002970    4.216960
     37          1           0        4.040910    1.656800    6.031120
     38          1           0        2.917970    0.342200    5.747190
     39          1           0        0.989440    1.857360    6.307520
     40          1           0        2.128600    3.192050    6.567610
     41          1           0        2.122870    0.712090    7.951210
     42          1           0        2.862520    0.921610   -1.941830
     43          1           0        2.339450    1.921010   -0.619690
 ---------------------------------------------------------------------
                    Distance matrix (angstroms):
                    1          2          3          4          5
     1  C    0.000000
     2  C    1.529335   0.000000
     3  C    2.543279   1.531561   0.000000
     4  C    3.947526   2.602843   1.535368   0.000000
     5  C    4.584430   3.219519   2.549689   1.525283   0.000000
     6  C    4.797088   3.387559   3.392938   2.597260   1.531411
     7  C    3.881380   2.589669   3.275501   3.060805   2.620901
     8  C    4.242537   2.942399   3.653571   3.338201   3.436922
     9  C    4.084771   3.229164   4.359737   4.484645   4.776565
    10  C    4.817148   4.057194   4.975311   5.043032   5.656767
    11  C    5.232485   4.885438   5.989996   6.324724   6.983391
    12  C    6.404041   6.070591   6.989054   7.239013   8.051745
    13  C    7.190832   7.119553   8.155760   8.569301   9.376414
    14  O    8.381849   8.279775   9.186028   9.523606  10.418914
    15  C    2.516030   1.543483   2.581614   3.100331   2.957194
    16  H    1.094747   2.167838   2.778295   4.233955   5.158692
    17  H    1.092339   2.186696   2.850357   4.284890   4.718495
    18  H    1.097757   2.168617   3.490470   4.761233   5.278687
    19  H    2.074306   1.090444   2.099179   2.861188   3.701874
    20  H    2.746700   2.159795   1.095330   2.156582   2.744156
    21  H    2.760393   2.138870   1.097602   2.140155   3.465644
    22  H    4.675067   3.501283   2.134247   1.096399   2.137189
    23  H    4.310971   2.889363   2.199928   1.092346   2.178316
    24  H    4.419050   3.299936   2.622780   2.149325   1.096982
    25  H    5.640271   4.274808   3.433499   2.146540   1.096948
    26  H    5.339903   4.083810   4.142861   3.476731   2.128262
    27  H    5.665602   4.188234   4.130410   3.054794   2.159863
    28  H    4.551686   3.467989   4.308055   4.126463   3.469960
    29  H    5.336450   4.007733   4.560562   3.950201   3.856861
    30  H    4.121397   2.742288   3.103062   2.673424   3.195396
    31  H    3.174788   2.644317   4.004216   4.500141   4.880913
    32  H    4.824088   4.071532   5.277193   5.357373   5.411399
    33  H    5.799340   4.879183   5.645157   5.434933   5.942761
    34  H    4.494859   3.715510   4.395300   4.489207   5.362882
    35  H    4.521865   4.470523   5.657679   6.252583   6.989534
    36  H    5.742680   5.416115   6.643382   6.950221   7.413285
    37  H    7.161963   6.636234   7.475062   7.511058   8.239890
    38  H    6.243593   5.919530   6.655406   6.920181   7.904975
    39  H    6.741662   6.895053   7.969848   8.571493   9.436651
    40  H    7.588589   7.504558   8.653896   9.041020   9.700152
    41  H    8.221894   8.130679   8.915433   9.265353  10.273198
    42  H    2.904447   2.184288   2.777218   3.285987   2.815058
    43  H    2.589221   2.173137   3.502198   4.166143   4.028669
                    6          7          8          9         10
     6  C    0.000000
     7  C    1.537749   0.000000
     8  C    2.541171   1.540018   0.000000
     9  C    3.919865   2.567361   1.525810   0.000000
    10  C    5.001751   3.862136   2.481233   1.522213   0.000000
    11  C    6.321548   5.021228   3.822800   2.481246   1.516133
    12  C    7.490618   6.318904   4.975009   3.831618   2.493899
    13  C    8.785760   7.506391   6.271720   4.963374   3.833160
    14  O    9.891533   8.699648   7.373901   6.179875   4.893742
    15  C    2.552494   1.540936   2.578402   3.030274   4.307837
    16  H    5.543296   4.698396   4.808507   4.582845   4.997621
    17  H    5.055449   4.321324   4.985552   4.971396   5.838298
    18  H    5.198966   4.023732   4.286585   3.771953   4.549293
    19  H    3.705000   2.749751   2.488314   2.540779   3.078920
    20  H    3.769105   3.827292   4.518689   5.234477   5.983331
    21  H    4.360515   4.177957   4.245408   4.775241   5.087006
    22  H    3.469732   4.133349   4.360522   5.506918   5.917436
    23  H    2.758916   3.039062   2.805069   3.966811   4.288338
    24  H    2.156516   3.061146   4.166315   5.355101   6.365292
    25  H    2.135742   3.503763   4.179168   5.621045   6.396460
    26  H    1.099520   2.148777   3.412579   4.660732   5.883641
    27  H    1.097455   2.168002   2.599859   4.086425   4.977357
    28  H    2.124847   1.100035   2.123393   2.808460   4.241220
    29  H    2.770160   2.179415   1.095763   2.153839   2.820646
    30  H    2.774200   2.176966   1.089795   2.129022   2.530888
    31  H    4.206364   2.747125   2.195472   1.094553   2.127561
    32  H    4.314125   2.934369   2.161309   1.093632   2.177409
    33  H    5.180366   4.226820   2.724202   2.152791   1.095344
    34  H    5.003197   4.035188   2.694716   2.166624   1.099341
    35  H    6.463545   5.098775   4.118782   2.746771   2.150126
    36  H    6.557037   5.184257   4.098893   2.658131   2.145195
    37  H    7.587884   6.521970   5.078564   4.097705   2.712823
    38  H    7.545089   6.483561   5.130119   4.177016   2.751011
    39  H    8.941872   7.610080   6.505876   5.147168   4.167445
    40  H    8.954938   7.618718   6.442148   5.058348   4.122447
    41  H    9.881787   8.757083   7.417681   6.321245   4.957631
    42  H    2.643707   2.182262   3.506787   4.103617   5.397721
    43  H    3.419306   2.141314   2.981960   2.923928   4.298260
                   11         12         13         14         15
    11  C    0.000000
    12  C    1.517675   0.000000
    13  C    2.485845   1.517573   0.000000
    14  O    3.735087   2.401095   1.419981   0.000000
    15  C    5.191666   6.556229   7.591600   8.847858   0.000000
    16  H    5.310136   6.282935   7.024103   8.107135   3.471848
    17  H    6.272566   7.480202   8.232075   9.440549   2.817075
    18  H    4.707612   5.962008   6.591788   7.858285   2.725408
    19  H    3.930094   5.032200   6.140217   7.255711   2.187868
    20  H    6.938415   7.994701   9.102013  10.167067   2.914741
    21  H    5.998819   6.816158   7.951489   8.877059   3.498954
    22  H    7.195994   7.986005   9.332982  10.198631   4.132607
    23  H    5.653680   6.446061   7.844752   8.725977   3.419197
    24  H    7.583333   8.737869   9.984808  11.089151   2.947152
    25  H    7.798809   8.777286  10.161574  11.135998   4.033695
    26  H    7.127408   8.372894   9.609868  10.767367   2.967242
    27  H    6.393082   7.436113   8.801351   9.821064   3.478468
    28  H    5.255258   6.623101   7.712708   8.956397   2.143262
    29  H    4.205753   5.206607   6.547079   7.561222   3.519599
    30  H    3.965427   4.911876   6.300112   7.289730   2.914068
    31  H    2.633393   4.078774   5.023916   6.320853   2.605172
    32  H    2.760215   4.136463   5.096055   6.355120   3.530169
    33  H    2.166905   2.705756   4.111838   4.989389   4.986008
    34  H    2.143486   2.758362   4.159467   5.074427   4.326828
    35  H    1.097898   2.154087   2.737028   4.047296   4.936136
    36  H    1.095845   2.155973   2.700785   4.012244   5.437411
    37  H    2.159286   1.096981   2.153105   2.637842   6.997442
    38  H    2.161643   1.097235   2.158050   2.658617   6.638736
    39  H    2.750802   2.166976   1.094897   2.053070   7.471713
    40  H    2.728547   2.159726   1.093585   2.048877   7.771285
    41  H    3.942233   2.538320   1.941500   0.966589   8.851148
    42  H    6.282789   7.650456   8.668156   9.931341   1.098125
    43  H    4.906640   6.365157   7.232503   8.564257   1.098994
                   16         17         18         19         20
    16  H    0.000000
    17  H    1.780813   0.000000
    18  H    1.761084   1.775403   0.000000
    19  H    2.368833   3.016287   2.419474   0.000000
    20  H    3.056214   2.612497   3.774167   3.008572   0.000000
    21  H    2.543874   3.191794   3.736545   2.336181   1.756832
    22  H    4.792553   4.918166   5.592691   3.755464   2.477284
    23  H    4.514472   4.871958   4.983370   2.729710   3.085454
    24  H    5.068108   4.297081   5.164472   4.052489   2.372187
    25  H    6.148837   5.750463   6.364203   4.677870   3.566036
    26  H    6.196216   5.418375   5.689615   4.562881   4.282063
    27  H    6.330718   6.034911   6.027944   4.275725   4.639548
    28  H    5.461778   4.919098   4.484040   3.631155   4.757918
    29  H    5.891363   6.055822   5.359069   3.548014   5.412409
    30  H    4.481134   4.920045   4.373795   2.134948   4.096002
    31  H    3.704171   4.074937   2.723166   2.053215   4.784802
    32  H    5.430734   5.621027   4.348990   3.532268   6.067945
    33  H    6.005312   6.791690   5.582000   3.938282   6.675913
    34  H    4.484816   5.545755   4.433959   2.645381   5.454393
    35  H    4.520406   5.553958   3.917188   3.580876   6.529932
    36  H    5.974549   6.713467   5.080059   4.574632   7.537277
    37  H    7.108809   8.233413   6.768811   5.591531   8.517668
    38  H    5.959290   7.334800   5.952926   4.846229   7.677858
    39  H    6.496345   7.748476   6.099460   5.975676   8.849792
    40  H    7.558096   8.591973   6.885014   6.580840   9.575141
    41  H    7.836416   9.288367   7.798851   7.089596   9.900687
    42  H    3.899622   2.783818   3.266556   3.087831   2.693269
    43  H    3.615680   2.899098   2.347038   2.627684   3.796405
                   21         22         23         24         25
    21  H    0.000000
    22  H    2.368106   0.000000
    23  H    2.525802   1.724110   0.000000
    24  H    3.616545   2.602867   3.059594   0.000000
    25  H    4.207613   2.297684   2.638113   1.745716   0.000000
    26  H    5.185674   4.252798   3.804585   2.309773   2.537089
    27  H    4.971758   3.802074   2.886589   3.017435   2.321468
    28  H    5.229847   5.179773   4.100078   3.787563   4.249886
    29  H    5.146284   4.882607   3.290132   4.705523   4.372136
    30  H    3.506986   3.593936   1.924794   4.030554   3.875657
    31  H    4.387659   5.524137   4.183810   5.269908   5.848524
    32  H    5.786872   6.410395   4.881180   5.944432   6.225197
    33  H    5.791964   6.262599   4.555848   6.768938   6.540070
    34  H    4.317786   5.245164   3.693259   6.089033   6.074811
    35  H    5.602614   7.113302   5.724195   7.461110   7.892151
    36  H    6.788793   7.893911   6.320104   7.979933   8.238073
    37  H    7.359614   8.243675   6.623715   9.019081   8.868659
    38  H    6.326597   7.553488   6.112601   8.602855   8.596788
    39  H    7.710458   9.324580   7.949409   9.948562  10.289037
    40  H    8.570538   9.880110   8.334880  10.291875  10.498600
    41  H    8.502535   9.858904   8.465243  10.948888  10.967159
    42  H    3.803059   4.187571   3.888495   2.415450   3.843635
    43  H    4.296310   5.201228   4.391359   3.967874   5.088376
                   26         27         28         29         30
    26  H    0.000000
    27  H    1.743567   0.000000
    28  H    2.266043   2.589528   0.000000
    29  H    3.556901   2.394774   2.439810   0.000000
    30  H    3.816989   2.791785   3.041133   1.727744   0.000000
    31  H    4.884763   4.624823   3.048398   3.078348   2.631339
    32  H    4.866657   4.421127   2.745893   2.426020   3.027007
    33  H    6.057185   4.921764   4.517885   2.620845   2.801384
    34  H    5.988967   5.015618   4.660777   3.180743   2.283955
    35  H    7.246513   6.709686   5.397160   4.735462   4.206469
    36  H    7.243928   6.613815   5.186331   4.357889   4.499952
    37  H    8.468127   7.376573   6.770380   5.076700   5.045267
    38  H    8.503494   7.504685   6.954593   5.441575   4.832569
    39  H    9.751597   9.085717   7.858699   6.945640   6.505604
    40  H    9.695793   8.956548   7.668490   6.638474   6.646759
    41  H   10.811674   9.822943   9.127717   7.659804   7.193373
    42  H    2.723415   3.715284   2.615197   4.336530   3.799227
    43  H    3.681455   4.269436   2.277303   3.895538   3.534176
                   31         32         33         34         35
    31  H    0.000000
    32  H    1.743294   0.000000
    33  H    3.038831   2.512718   0.000000
    34  H    2.509963   3.085619   1.765777   0.000000
    35  H    2.437566   3.153136   3.068592   2.453158   0.000000
    36  H    2.873754   2.478483   2.546183   3.049110   1.765959
    37  H    4.597565   4.287175   2.461907   3.090668   3.066861
    38  H    4.351742   4.718912   3.038485   2.559974   2.500011
    39  H    4.971483   5.359308   4.687120   4.372707   2.545285
    40  H    5.166178   4.953242   4.314065   4.690646   3.090155
    41  H    6.424523   6.653202   5.104924   4.925084   4.154862
    42  H    3.678875   4.517766   6.040737   5.380514   5.989190
    43  H    2.290267   3.185814   5.053071   4.515041   4.570108
                   36         37         38         39         40
    36  H    0.000000
    37  H    2.528444   0.000000
    38  H    3.069440   1.752080   0.000000
    39  H    3.058311   3.070520   2.515732   0.000000
    40  H    2.482846   2.510327   3.068850   1.773902   0.000000
    41  H    4.450270   2.873691   2.372068   2.301744   2.839821
    42  H    6.501122   8.093024   7.711019   8.510924   8.837653
    43  H    4.988384   6.870083   6.585172   7.057820   7.301868
                   41         42         43
    41  H    0.000000
    42  H    9.922864   0.000000
    43  H    8.658448   1.737946   0.000000
 Stoichiometry    C14H28O
 Framework group  C1[X(C14H28O)]
 Deg. of freedom   123
 Full point group                 C1      NOp   1
 Largest Abelian subgroup         C1      NOp   1
 Largest concise Abelian subgroup C1      NOp   1
                         Standard orientation:                         
 ---------------------------------------------------------------------
 Center     Atomic      Atomic             Coordinates (Angstroms)
 Number     Number       Type             X           Y           Z
 ---------------------------------------------------------------------
      1          6           0       -1.484697    2.737473   -0.797848
      2          6           0       -1.783730    1.368876   -0.184345
      3          6           0       -2.725616    1.462751    1.019697
      4          6           0       -3.101665    0.133353    1.689507
      5          6           0       -4.006882   -0.732491    0.819227
      6          6           0       -3.306680   -1.657039   -0.180848
      7          6           0       -2.081446   -1.095767   -0.921421
      8          6           0       -0.779014   -1.396533   -0.156658
      9          6           0        0.472455   -0.847705   -0.835416
     10          6           0        1.612172   -0.822187    0.173309
     11          6           0        2.836717   -0.193701   -0.462422
     12          6           0        4.024263   -0.267685    0.479702
     13          6           0        5.256399    0.308436   -0.193315
     14          8           0        6.368424    0.210156    0.684232
     15          6           0       -2.256254    0.392133   -1.282086
     16          1           0       -1.047480    3.403215   -0.046782
     17          1           0       -2.381770    3.205474   -1.209477
     18          1           0       -0.746410    2.638128   -1.604157
     19          1           0       -0.822819    1.061276    0.229297
     20          1           0       -3.642304    1.985762    0.726627
     21          1           0       -2.238235    2.089628    1.777467
     22          1           0       -3.645350    0.376508    2.610036
     23          1           0       -2.228564   -0.422630    2.038502
     24          1           0       -4.709416   -0.085225    0.279910
     25          1           0       -4.628325   -1.359589    1.470265
     26          1           0       -4.057469   -1.939837   -0.932703
     27          1           0       -3.036139   -2.595910    0.318888
     28          1           0       -2.012108   -1.655608   -1.865797
     29          1           0       -0.666193   -2.475636   -0.003342
     30          1           0       -0.821346   -0.981421    0.850091
     31          1           0        0.338596    0.171547   -1.211254
     32          1           0        0.721983   -1.454083   -1.710671
     33          1           0        1.823526   -1.841432    0.514259
     34          1           0        1.327641   -0.236723    1.059213
     35          1           0        2.625312    0.853837   -0.714121
     36          1           0        3.066445   -0.712605   -1.399886
     37          1           0        4.212792   -1.307552    0.773810
     38          1           0        3.811382    0.275153    1.409182
     39          1           0        5.106020    1.361007   -0.454616
     40          1           0        5.487088   -0.243146   -1.108995
     41          1           0        6.144398    0.696291    1.489079
     42          1           0       -3.298816    0.600138   -1.557176
     43          1           0       -1.685960    0.572697   -2.204014
 ---------------------------------------------------------------------
 Rotational constants (GHZ):           1.0662742           0.2050141           0.1935067
 Standard basis: 6-31G(2df,p) (6D, 7F)
 There are   605 symmetry adapted cartesian basis functions of A   symmetry.
 There are   560 symmetry adapted basis functions of A   symmetry.
   560 basis functions,   856 primitive gaussians,   605 cartesian basis functions
    60 alpha electrons       60 beta electrons
       nuclear repulsion energy      1064.7155829740 Hartrees.
 NAtoms=   43 NActive=   43 NUniq=   43 SFac= 1.00D+00 NAtFMM=   60 NAOKFM=F Big=F
 Integral buffers will be    131072 words long.
 Raffenetti 2 integral format.
 Two-electron integral symmetry is turned on.
 One-electron integrals computed using PRISM.
 PrsmSu:  requested number of processors reduced to:  12 ShMem   1 Linda.
 NBasis=   560 RedAO= T EigKep=  4.33D-04  NBF=   560
 NBsUse=   560 1.00D-06 EigRej= -1.00D+00 NBFU=   560
 ExpMin= 1.61D-01 ExpMax= 5.48D+03 ExpMxC= 8.25D+02 IAcc=3 IRadAn=         5 AccDes= 0.00D+00
 Harris functional with IExCor=  402 and IRadAn=       5 diagonalized for initial guess.
 HarFok:  IExCor=  402 AccDes= 0.00D+00 IRadAn=         5 IDoV= 1 UseB2=F ITyADJ=14
 ICtDFT=  3500011 ScaDFX=  1.000000  1.000000  1.000000  1.000000
 FoFCou: FMM=F IPFlag=           0 FMFlag=      100000 FMFlg1=           0
         NFxFlg=           0 DoJE=T BraDBF=F KetDBF=T FulRan=T
         wScrn=  0.000000 ICntrl=       500 IOpCl=  0 I1Cent=   200000004 NGrid=           0
         NMat0=    1 NMatS0=      1 NMatT0=    0 NMatD0=    1 NMtDS0=    0 NMtDT0=    0
 Petite list used in FoFCou.
 Requested convergence on RMS density matrix=1.00D-08 within 128 cycles.
 Requested convergence on MAX density matrix=1.00D-06.
 Requested convergence on             energy=1.00D-06.
 No special actions if energy rises.
 Integral accuracy reduced to 1.0D-05 until final iterations.
 Initial convergence to 1.0D-05 achieved.  Increase integral accuracy.
 SCF Done:  E(RB3LYP) =  -625.618266650     A.U. after   12 cycles
            NFock= 12  Conv=0.35D-08     -V/T= 2.0081

 **********************************************************************

            Population analysis using the SCF density.

 **********************************************************************

 Orbital symmetries:
       Occupied  (A) (A) (A) (A) (A) (A) (A) (A) (A) (A) (A) (A)
                 (A) (A) (A) (A) (A) (A) (A) (A) (A) (A) (A) (A)
                 (A) (A) (A) (A) (A) (A) (A) (A) (A) (A) (A) (A)
                 (A) (A) (A) (A) (A) (A) (A) (A) (A) (A) (A) (A)
                 (A) (A) (A) (A) (A) (A) (A) (A) (A) (A) (A) (A)
       Virtual   (A) (A) (A) (A) (A) (A) (A) (A) (A) (A) (A) (A)
                 (A) (A) (A) (A) (A) (A) (A) (A) (A) (A) (A) (A)
                 (A) (A) (A) (A) (A) (A) (A) (A) (A) (A) (A) (A)
                 (A) (A) (A) (A) (A) (A) (A) (A) (A) (A) (A) (A)
                 (A) (A) (A) (A) (A) (A) (A) (A) (A) (A) (A) (A)
                 (A) (A) (A) (A) (A) (A) (A) (A) (A) (A) (A) (A)
                 (A) (A) (A) (A) (A) (A) (A) (A) (A) (A) (A) (A)
                 (A) (A) (A) (A) (A) (A) (A) (A) (A) (A) (A) (A)
                 (A) (A) (A) (A) (A) (A) (A) (A) (A) (A) (A) (A)
                 (A) (A) (A) (A) (A) (A) (A) (A) (A) (A) (A) (A)
                 (A) (A) (A) (A) (A) (A) (A) (A) (A) (A) (A) (A)
                 (A) (A) (A) (A) (A) (A) (A) (A) (A) (A) (A) (A)
                 (A) (A) (A) (A) (A) (A) (A) (A) (A) (A) (A) (A)
                 (A) (A) (A) (A) (A) (A) (A) (A) (A) (A) (A) (A)
                 (A) (A) (A) (A) (A) (A) (A) (A) (A) (A) (A) (A)
                 (A) (A) (A) (A) (A) (A) (A) (A) (A) (A) (A) (A)
                 (A) (A) (A) (A) (A) (A) (A) (A) (A) (A) (A) (A)
                 (A) (A) (A) (A) (A) (A) (A) (A) (A) (A) (A) (A)
                 (A) (A) (A) (A) (A) (A) (A) (A) (A) (A) (A) (A)
                 (A) (A) (A) (A) (A) (A) (A) (A) (A) (A) (A) (A)
                 (A) (A) (A) (A) (A) (A) (A) (A) (A) (A) (A) (A)
                 (A) (A) (A) (A) (A) (A) (A) (A) (A) (A) (A) (A)
                 (A) (A) (A) (A) (A) (A) (A) (A) (A) (A) (A) (A)
                 (A) (A) (A) (A) (A) (A) (A) (A) (A) (A) (A) (A)
                 (A) (A) (A) (A) (A) (A) (A) (A) (A) (A) (A) (A)
                 (A) (A) (A) (A) (A) (A) (A) (A) (A) (A) (A) (A)
                 (A) (A) (A) (A) (A) (A) (A) (A) (A) (A) (A) (A)
                 (A) (A) (A) (A) (A) (A) (A) (A) (A) (A) (A) (A)
                 (A) (A) (A) (A) (A) (A) (A) (A) (A) (A) (A) (A)
                 (A) (A) (A) (A) (A) (A) (A) (A) (A) (A) (A) (A)
                 (A) (A) (A) (A) (A) (A) (A) (A) (A) (A) (A) (A)
                 (A) (A) (A) (A) (A) (A) (A) (A) (A) (A) (A) (A)
                 (A) (A) (A) (A) (A) (A) (A) (A) (A) (A) (A) (A)
                 (A) (A) (A) (A) (A) (A) (A) (A) (A) (A) (A) (A)
                 (A) (A) (A) (A) (A) (A) (A) (A) (A) (A) (A) (A)
                 (A) (A) (A) (A) (A) (A) (A) (A) (A) (A) (A) (A)
                 (A) (A) (A) (A) (A) (A) (A) (A) (A) (A) (A) (A)
                 (A) (A) (A) (A) (A) (A) (A) (A) (A) (A) (A) (A)
                 (A) (A) (A) (A) (A) (A) (A) (A) (A) (A) (A) (A)
                 (A) (A) (A) (A) (A) (A) (A) (A) (A) (A) (A) (A)
                 (A) (A) (A) (A) (A) (A) (A) (A) (A) (A) (A) (A)
                 (A) (A) (A) (A) (A) (A) (A) (A)
 The electronic state is 1-A.
 Alpha  occ. eigenvalues --  -19.12309 -10.21784 -10.17619 -10.17505 -10.17449
 Alpha  occ. eigenvalues --  -10.17329 -10.17285 -10.17101 -10.17079 -10.17038
 Alpha  occ. eigenvalues --  -10.16981 -10.16891 -10.16730 -10.16709 -10.16693
 Alpha  occ. eigenvalues --   -1.00580  -0.83377  -0.80892  -0.77938  -0.76955
 Alpha  occ. eigenvalues --   -0.74622  -0.69947  -0.68046  -0.64837  -0.62962
 Alpha  occ. eigenvalues --   -0.60411  -0.58327  -0.57978  -0.55096  -0.52658
 Alpha  occ. eigenvalues --   -0.49874  -0.47937  -0.47312  -0.46153  -0.44286
 Alpha  occ. eigenvalues --   -0.44188  -0.43355  -0.42696  -0.40992  -0.40525
 Alpha  occ. eigenvalues --   -0.39774  -0.39075  -0.38459  -0.37724  -0.36995
 Alpha  occ. eigenvalues --   -0.36416  -0.35772  -0.34660  -0.33821  -0.33661
 Alpha  occ. eigenvalues --   -0.33085  -0.32473  -0.31509  -0.31121  -0.30995
 Alpha  occ. eigenvalues --   -0.30120  -0.29505  -0.28631  -0.28281  -0.25229
 Alpha virt. eigenvalues --    0.07018   0.07887   0.08199   0.09594   0.09773
 Alpha virt. eigenvalues --    0.10995   0.11861   0.12373   0.13315   0.13683
 Alpha virt. eigenvalues --    0.14205   0.14427   0.15080   0.16335   0.16610
 Alpha virt. eigenvalues --    0.17397   0.17795   0.18158   0.18340   0.19116
 Alpha virt. eigenvalues --    0.19665   0.20122   0.20494   0.20763   0.20964
 Alpha virt. eigenvalues --    0.21706   0.21870   0.22207   0.22628   0.22986
 Alpha virt. eigenvalues --    0.23649   0.24883   0.25097   0.25413   0.26019
 Alpha virt. eigenvalues --    0.27903   0.28290   0.28741   0.30378   0.31362
 Alpha virt. eigenvalues --    0.33713   0.34289   0.35175   0.42195   0.45878
 Alpha virt. eigenvalues --    0.46585   0.46897   0.47237   0.48341   0.48786
 Alpha virt. eigenvalues --    0.50483   0.50849   0.51367   0.52207   0.52650
 Alpha virt. eigenvalues --    0.53910   0.54496   0.54768   0.56727   0.56932
 Alpha virt. eigenvalues --    0.57207   0.58290   0.59125   0.59492   0.60248
 Alpha virt. eigenvalues --    0.60483   0.62492   0.62900   0.63876   0.64270
 Alpha virt. eigenvalues --    0.65133   0.65682   0.67334   0.67769   0.68239
 Alpha virt. eigenvalues --    0.68783   0.69097   0.70511   0.70958   0.72133
 Alpha virt. eigenvalues --    0.72614   0.72673   0.73395   0.73706   0.74127
 Alpha virt. eigenvalues --    0.74718   0.74904   0.75797   0.76006   0.76972
 Alpha virt. eigenvalues --    0.77419   0.77916   0.78180   0.79228   0.79984
 Alpha virt. eigenvalues --    0.80243   0.80818   0.80981   0.81860   0.82679
 Alpha virt. eigenvalues --    0.84332   0.84656   0.85540   0.86064   0.86566
 Alpha virt. eigenvalues --    0.87315   0.87911   0.88963   0.89171   0.89462
 Alpha virt. eigenvalues --    0.89697   0.90686   0.92303   0.92819   0.95330
 Alpha virt. eigenvalues --    0.96936   0.98286   0.98428   1.00302   1.01943
 Alpha virt. eigenvalues --    1.03876   1.04473   1.07563   1.09346   1.10555
 Alpha virt. eigenvalues --    1.11869   1.12238   1.14416   1.16003   1.16765
 Alpha virt. eigenvalues --    1.18022   1.18786   1.20475   1.21159   1.21917
 Alpha virt. eigenvalues --    1.23459   1.24444   1.25715   1.26570   1.27670
 Alpha virt. eigenvalues --    1.30526   1.31123   1.32657   1.33517   1.36120
 Alpha virt. eigenvalues --    1.36774   1.37757   1.38406   1.39866   1.40276
 Alpha virt. eigenvalues --    1.40500   1.42204   1.44222   1.45729   1.46029
 Alpha virt. eigenvalues --    1.47310   1.48057   1.49194   1.50202   1.50472
 Alpha virt. eigenvalues --    1.53178   1.53492   1.54601   1.56319   1.56593
 Alpha virt. eigenvalues --    1.57264   1.58057   1.59195   1.60383   1.62140
 Alpha virt. eigenvalues --    1.62903   1.64211   1.65757   1.66997   1.67779
 Alpha virt. eigenvalues --    1.69584   1.70532   1.70911   1.71800   1.73403
 Alpha virt. eigenvalues --    1.73848   1.76108   1.76971   1.78536   1.80413
 Alpha virt. eigenvalues --    1.82569   1.83232   1.83887   1.85442   1.86282
 Alpha virt. eigenvalues --    1.87534   1.88213   1.88711   1.90400   1.90840
 Alpha virt. eigenvalues --    1.92998   1.93460   1.94396   1.95755   1.96009
 Alpha virt. eigenvalues --    1.98026   1.99144   2.02562   2.05828   2.07536
 Alpha virt. eigenvalues --    2.10673   2.12912   2.16122   2.18418   2.18583
 Alpha virt. eigenvalues --    2.19845   2.20526   2.21379   2.21841   2.23327
 Alpha virt. eigenvalues --    2.26234   2.27382   2.28488   2.30464   2.31338
 Alpha virt. eigenvalues --    2.32277   2.34058   2.34800   2.36345   2.36853
 Alpha virt. eigenvalues --    2.38637   2.39453   2.40271   2.42116   2.43959
 Alpha virt. eigenvalues --    2.45258   2.46666   2.47925   2.49431   2.50371
 Alpha virt. eigenvalues --    2.52336   2.54635   2.55777   2.57536   2.58785
 Alpha virt. eigenvalues --    2.60392   2.61859   2.64302   2.65823   2.67665
 Alpha virt. eigenvalues --    2.69029   2.69353   2.73379   2.73870   2.74214
 Alpha virt. eigenvalues --    2.75684   2.76410   2.76554   2.77395   2.78193
 Alpha virt. eigenvalues --    2.78601   2.79250   2.79575   2.79866   2.80802
 Alpha virt. eigenvalues --    2.81656   2.83308   2.83680   2.84066   2.85456
 Alpha virt. eigenvalues --    2.85744   2.86430   2.87459   2.87935   2.89406
 Alpha virt. eigenvalues --    2.90089   2.90799   2.91545   2.92402   2.92926
 Alpha virt. eigenvalues --    2.94258   2.94548   2.95143   2.95983   2.97370
 Alpha virt. eigenvalues --    2.97988   2.98303   2.99057   2.99494   3.00798
 Alpha virt. eigenvalues --    3.02542   3.03267   3.05220   3.05388   3.05999
 Alpha virt. eigenvalues --    3.07554   3.07956   3.09099   3.11405   3.13019
 Alpha virt. eigenvalues --    3.15404   3.15965   3.18046   3.20169   3.21418
 Alpha virt. eigenvalues --    3.24793   3.25292   3.27144   3.28020   3.28579
 Alpha virt. eigenvalues --    3.30752   3.31716   3.32559   3.33536   3.36009
 Alpha virt. eigenvalues --    3.38964   3.40043   3.40895   3.42607   3.43175
 Alpha virt. eigenvalues --    3.44115   3.46191   3.46565   3.47474   3.47952
 Alpha virt. eigenvalues --    3.48728   3.50490   3.50621   3.54266   3.54772
 Alpha virt. eigenvalues --    3.55160   3.55553   3.56535   3.57303   3.57835
 Alpha virt. eigenvalues --    3.60315   3.61307   3.63529   3.63849   3.64327
 Alpha virt. eigenvalues --    3.65684   3.67101   3.68674   3.70177   3.71952
 Alpha virt. eigenvalues --    3.72842   3.73788   3.74930   3.75546   3.75593
 Alpha virt. eigenvalues --    3.77575   3.77896   3.78651   3.79860   3.81092
 Alpha virt. eigenvalues --    3.82429   3.83005   3.83629   3.84821   3.87452
 Alpha virt. eigenvalues --    3.89139   3.89756   3.92713   3.94879   3.97607
 Alpha virt. eigenvalues --    3.98931   4.03421   4.04592   4.08675   4.10272
 Alpha virt. eigenvalues --    4.11619   4.12375   4.17401   4.19170   4.22156
 Alpha virt. eigenvalues --    4.26099   4.29488   4.31082   4.33281   4.34969
 Alpha virt. eigenvalues --    4.37600   4.39042   4.41777   4.43694   4.45267
 Alpha virt. eigenvalues --    4.46030   4.46310   4.47510   4.49259   4.49795
 Alpha virt. eigenvalues --    4.50671   4.51635   4.52788   4.54654   4.55409
 Alpha virt. eigenvalues --    4.55878   4.56438   4.57223   4.58301   4.58756
 Alpha virt. eigenvalues --    4.59549   4.60461   4.61077   4.61806   4.63478
 Alpha virt. eigenvalues --    4.64011   4.64639   4.65433   4.66015   4.66470
 Alpha virt. eigenvalues --    4.67424   4.68995   4.69444   4.69717   4.70277
 Alpha virt. eigenvalues --    4.71281   4.72271   4.72696   4.72914   4.74359
 Alpha virt. eigenvalues --    4.75054   4.76146   4.77326   4.77382   4.78825
 Alpha virt. eigenvalues --    4.79475   4.79697   4.80361   4.80997   4.81529
 Alpha virt. eigenvalues --    4.81724   4.83082   4.84621   4.85193   4.86212
 Alpha virt. eigenvalues --    4.86860   4.87572   4.88200   4.89358   4.90672
 Alpha virt. eigenvalues --    4.91969   4.92710   4.93798   4.94964   4.95531
 Alpha virt. eigenvalues --    4.96477   4.97670   4.98003   5.00330   5.00875
 Alpha virt. eigenvalues --    5.02554   5.05354   5.08014   5.08956   5.10989
 Alpha virt. eigenvalues --    5.13240   5.15437   5.20365   5.21071   5.23288
 Alpha virt. eigenvalues --    5.28294   5.30480   5.34024   5.35644   5.37964
 Alpha virt. eigenvalues --    5.40057   5.42623   5.44797   5.46060   5.47486
 Alpha virt. eigenvalues --    5.49325   5.51169   5.52472   5.52688   5.54980
 Alpha virt. eigenvalues --    5.56982   5.61538   5.63893   5.67156   5.70534
 Alpha virt. eigenvalues --    5.79181   5.96423   5.98266   6.05552   6.09159
 Alpha virt. eigenvalues --    6.12270   6.38494   6.62169   7.03496   7.20008
 Alpha virt. eigenvalues --   11.15448  11.28224  11.55332  11.66349  11.83460
 Alpha virt. eigenvalues --   12.00195  12.09079  12.23229  12.39815  12.54238
 Alpha virt. eigenvalues --   12.60421  12.74116  12.90664  13.07686  13.17072
          Condensed to atoms (all electrons):
               1          2          3          4          5          6
     1  C    5.057829   0.389885  -0.043095   0.003949  -0.000013  -0.000014
     2  C    0.389885   4.555327   0.437815  -0.022434  -0.004397  -0.002474
     3  C   -0.043095   0.437815   4.843352   0.411838  -0.022242  -0.000648
     4  C    0.003949  -0.022434   0.411838   4.858422   0.416784  -0.032666
     5  C   -0.000013  -0.004397  -0.022242   0.416784   4.806516   0.416815
     6  C   -0.000014  -0.002474  -0.000648  -0.032666   0.416815   4.886143
     7  C    0.003702  -0.021320  -0.000134   0.000420  -0.031647   0.404748
     8  C    0.000096  -0.004013  -0.001643  -0.002299  -0.003188  -0.028590
     9  C   -0.000390  -0.004261   0.000361   0.000138   0.000109   0.002677
    10  C    0.000023  -0.000682   0.000038  -0.000004   0.000001  -0.000124
    11  C   -0.000001  -0.000001  -0.000001  -0.000000   0.000000   0.000001
    12  C    0.000000   0.000000   0.000000  -0.000000   0.000000  -0.000000
    13  C   -0.000000  -0.000000   0.000000  -0.000000  -0.000000   0.000000
    14  O    0.000000  -0.000000  -0.000000  -0.000000  -0.000000  -0.000000
    15  C   -0.040331   0.422115  -0.028002  -0.007866  -0.002199  -0.031760
    16  H    0.364994  -0.020288  -0.002638   0.000054   0.000001   0.000001
    17  H    0.370961  -0.024596  -0.005472   0.000051  -0.000004  -0.000007
    18  H    0.365983  -0.019719   0.004195  -0.000175   0.000001   0.000002
    19  H   -0.043652   0.367835  -0.044918  -0.003355  -0.000060  -0.000299
    20  H   -0.006113  -0.034531   0.359860  -0.034562  -0.008914  -0.000203
    21  H   -0.003589  -0.029325   0.354324  -0.032577   0.004578  -0.000093
    22  H   -0.000192   0.003435  -0.026870   0.353107  -0.030399   0.004778
    23  H    0.000057  -0.006518  -0.034554   0.367182  -0.037312  -0.007428
    24  H   -0.000053  -0.001804  -0.009861  -0.040635   0.370035  -0.033603
    25  H    0.000003   0.000248   0.003567  -0.031097   0.362110  -0.030641
    26  H    0.000009  -0.000026  -0.000103   0.005421  -0.034483   0.351131
    27  H    0.000002  -0.000149  -0.000026  -0.003121  -0.032164   0.362391
    28  H   -0.000244   0.003946   0.000071  -0.000443   0.005735  -0.036743
    29  H   -0.000018   0.000028   0.000073   0.000101  -0.000068  -0.004301
    30  H   -0.000019   0.003087  -0.001228  -0.003539   0.001265  -0.003033
    31  H    0.000152   0.000186   0.000236   0.000009  -0.000004   0.000265
    32  H    0.000013   0.000155  -0.000024  -0.000004  -0.000002  -0.000009
    33  H   -0.000001   0.000020   0.000002  -0.000001   0.000000   0.000005
    34  H   -0.000019  -0.000133  -0.000053  -0.000039  -0.000002   0.000006
    35  H    0.000018  -0.000004   0.000000  -0.000000  -0.000000   0.000000
    36  H    0.000000  -0.000002  -0.000000  -0.000000  -0.000000   0.000000
    37  H    0.000000  -0.000000  -0.000000   0.000000  -0.000000   0.000000
    38  H   -0.000000   0.000000   0.000000   0.000000  -0.000000   0.000000
    39  H   -0.000000  -0.000000   0.000000   0.000000  -0.000000   0.000000
    40  H   -0.000000   0.000000  -0.000000   0.000000   0.000000  -0.000000
    41  H    0.000000  -0.000000  -0.000000   0.000000   0.000000   0.000000
    42  H   -0.000110  -0.028039  -0.008087  -0.000599   0.001091  -0.010703
    43  H   -0.009872  -0.034699   0.004658   0.000141  -0.000203   0.005262
               7          8          9         10         11         12
     1  C    0.003702   0.000096  -0.000390   0.000023  -0.000001   0.000000
     2  C   -0.021320  -0.004013  -0.004261  -0.000682  -0.000001   0.000000
     3  C   -0.000134  -0.001643   0.000361   0.000038  -0.000001   0.000000
     4  C    0.000420  -0.002299   0.000138  -0.000004  -0.000000  -0.000000
     5  C   -0.031647  -0.003188   0.000109   0.000001   0.000000   0.000000
     6  C    0.404748  -0.028590   0.002677  -0.000124   0.000001  -0.000000
     7  C    4.664464   0.422799  -0.032596   0.002365  -0.000147   0.000001
     8  C    0.422799   4.879215   0.409994  -0.032519   0.002098  -0.000144
     9  C   -0.032596   0.409994   4.852357   0.417172  -0.037482   0.001024
    10  C    0.002365  -0.032519   0.417172   4.806952   0.416270  -0.025317
    11  C   -0.000147   0.002098  -0.037482   0.416270   4.878870   0.338332
    12  C    0.000001  -0.000144   0.001024  -0.025317   0.338332   4.943961
    13  C   -0.000000   0.000000  -0.000124   0.001397  -0.033058   0.415540
    14  O    0.000000  -0.000000   0.000000  -0.000077   0.004034  -0.050971
    15  C    0.398898  -0.038857  -0.003733   0.000361  -0.000005   0.000000
    16  H   -0.000166   0.000008   0.000008   0.000001  -0.000000  -0.000000
    17  H    0.000019   0.000012   0.000004  -0.000001   0.000000  -0.000000
    18  H    0.000134   0.000119  -0.000145  -0.000004  -0.000015  -0.000000
    19  H   -0.009833   0.002467  -0.001519   0.000193  -0.000087  -0.000009
    20  H   -0.000099  -0.000009  -0.000001  -0.000000  -0.000000  -0.000000
    21  H   -0.000226  -0.000027   0.000008  -0.000004   0.000000   0.000000
    22  H   -0.000163   0.000200  -0.000006   0.000000   0.000000   0.000000
    23  H   -0.001064  -0.004785   0.000182  -0.000069   0.000001  -0.000000
    24  H   -0.004274  -0.000122   0.000008  -0.000000   0.000000  -0.000000
    25  H    0.004768   0.000005   0.000001  -0.000000   0.000000  -0.000000
    26  H   -0.021946   0.004088  -0.000215   0.000001  -0.000000   0.000000
    27  H   -0.035274  -0.010661   0.000414  -0.000002   0.000000   0.000000
    28  H    0.350735  -0.042790  -0.003415   0.000081   0.000009   0.000000
    29  H   -0.021363   0.349043  -0.024661  -0.001801   0.000025   0.000008
    30  H   -0.032872   0.368418  -0.041961  -0.006059   0.000413   0.000011
    31  H   -0.005680  -0.036852   0.371714  -0.036041  -0.002156   0.000240
    32  H   -0.000230  -0.026981   0.356645  -0.029790  -0.003407   0.000087
    33  H    0.000091  -0.001143  -0.032443   0.365875  -0.034283  -0.003245
    34  H    0.000238  -0.006093  -0.033343   0.363705  -0.032022  -0.002477
    35  H    0.000016   0.000157  -0.003004  -0.029618   0.363818  -0.033811
    36  H    0.000005   0.000230  -0.002410  -0.034630   0.369703  -0.035632
    37  H    0.000000   0.000007   0.000219  -0.003522  -0.026380   0.360459
    38  H    0.000000   0.000008   0.000204  -0.002622  -0.026805   0.358792
    39  H    0.000000   0.000000   0.000025  -0.000014   0.005015  -0.048968
    40  H    0.000000  -0.000000   0.000007  -0.000062  -0.004657  -0.025546
    41  H    0.000000  -0.000000   0.000000  -0.000001  -0.000261  -0.002394
    42  H   -0.028988   0.004496  -0.000037  -0.000009  -0.000000  -0.000000
    43  H   -0.025287  -0.000581   0.000492   0.000020  -0.000003  -0.000000
              13         14         15         16         17         18
     1  C   -0.000000   0.000000  -0.040331   0.364994   0.370961   0.365983
     2  C   -0.000000  -0.000000   0.422115  -0.020288  -0.024596  -0.019719
     3  C    0.000000  -0.000000  -0.028002  -0.002638  -0.005472   0.004195
     4  C   -0.000000  -0.000000  -0.007866   0.000054   0.000051  -0.000175
     5  C   -0.000000  -0.000000  -0.002199   0.000001  -0.000004   0.000001
     6  C    0.000000  -0.000000  -0.031760   0.000001  -0.000007   0.000002
     7  C   -0.000000   0.000000   0.398898  -0.000166   0.000019   0.000134
     8  C    0.000000  -0.000000  -0.038857   0.000008   0.000012   0.000119
     9  C   -0.000124   0.000000  -0.003733   0.000008   0.000004  -0.000145
    10  C    0.001397  -0.000077   0.000361   0.000001  -0.000001  -0.000004
    11  C   -0.033058   0.004034  -0.000005  -0.000000   0.000000  -0.000015
    12  C    0.415540  -0.050971   0.000000  -0.000000  -0.000000  -0.000000
    13  C    4.736633   0.359782   0.000000  -0.000000  -0.000000   0.000000
    14  O    0.359782   7.844931   0.000000  -0.000000   0.000000  -0.000000
    15  C    0.000000   0.000000   4.940439   0.004421  -0.004823  -0.005145
    16  H   -0.000000  -0.000000   0.004421   0.615088  -0.032445  -0.032537
    17  H   -0.000000   0.000000  -0.004823  -0.032445   0.605231  -0.033071
    18  H    0.000000  -0.000000  -0.005145  -0.032537  -0.033071   0.609801
    19  H   -0.000000   0.000000  -0.049450  -0.004221   0.006734  -0.004654
    20  H   -0.000000   0.000000  -0.006736  -0.000176   0.005763  -0.000082
    21  H    0.000000  -0.000000   0.005668   0.004417  -0.000355  -0.000077
    22  H    0.000000  -0.000000   0.000182   0.000002  -0.000001   0.000003
    23  H    0.000000  -0.000000  -0.000104   0.000001   0.000004   0.000001
    24  H    0.000000  -0.000000   0.002692  -0.000001  -0.000000   0.000002
    25  H    0.000000  -0.000000  -0.000257  -0.000000   0.000000  -0.000000
    26  H   -0.000000   0.000000  -0.000226  -0.000000  -0.000000   0.000000
    27  H    0.000000  -0.000000   0.005033  -0.000000  -0.000000   0.000000
    28  H    0.000000  -0.000000  -0.042617   0.000004  -0.000000  -0.000008
    29  H    0.000000   0.000000   0.004994  -0.000000   0.000000   0.000000
    30  H    0.000000  -0.000000  -0.008632   0.000012  -0.000002  -0.000003
    31  H    0.000011   0.000000   0.001866  -0.000032  -0.000063   0.002022
    32  H    0.000006  -0.000000  -0.000688   0.000000   0.000000  -0.000025
    33  H    0.000139  -0.000002  -0.000002  -0.000000   0.000000   0.000001
    34  H    0.000075  -0.000000   0.000063   0.000002   0.000000  -0.000012
    35  H   -0.003175   0.000031  -0.000019   0.000001   0.000000   0.000104
    36  H   -0.004394   0.000072   0.000002   0.000000  -0.000000  -0.000001
    37  H   -0.029558   0.003638  -0.000000   0.000000   0.000000   0.000000
    38  H   -0.036226  -0.000612   0.000000   0.000000  -0.000000  -0.000000
    39  H    0.360331  -0.029834   0.000000  -0.000000   0.000000  -0.000000
    40  H    0.359328  -0.014276  -0.000000   0.000000   0.000000  -0.000000
    41  H   -0.067710   0.310879  -0.000000   0.000000   0.000000  -0.000000
    42  H   -0.000000   0.000000   0.352569  -0.000179   0.003126  -0.000110
    43  H    0.000000  -0.000000   0.356986   0.000118   0.000095   0.005747
              19         20         21         22         23         24
     1  C   -0.043652  -0.006113  -0.003589  -0.000192   0.000057  -0.000053
     2  C    0.367835  -0.034531  -0.029325   0.003435  -0.006518  -0.001804
     3  C   -0.044918   0.359860   0.354324  -0.026870  -0.034554  -0.009861
     4  C   -0.003355  -0.034562  -0.032577   0.353107   0.367182  -0.040635
     5  C   -0.000060  -0.008914   0.004578  -0.030399  -0.037312   0.370035
     6  C   -0.000299  -0.000203  -0.000093   0.004778  -0.007428  -0.033603
     7  C   -0.009833  -0.000099  -0.000226  -0.000163  -0.001064  -0.004274
     8  C    0.002467  -0.000009  -0.000027   0.000200  -0.004785  -0.000122
     9  C   -0.001519  -0.000001   0.000008  -0.000006   0.000182   0.000008
    10  C    0.000193  -0.000000  -0.000004   0.000000  -0.000069  -0.000000
    11  C   -0.000087  -0.000000   0.000000   0.000000   0.000001   0.000000
    12  C   -0.000009  -0.000000   0.000000   0.000000  -0.000000  -0.000000
    13  C   -0.000000  -0.000000   0.000000   0.000000   0.000000   0.000000
    14  O    0.000000   0.000000  -0.000000  -0.000000  -0.000000  -0.000000
    15  C   -0.049450  -0.006736   0.005668   0.000182  -0.000104   0.002692
    16  H   -0.004221  -0.000176   0.004417   0.000002   0.000001  -0.000001
    17  H    0.006734   0.005763  -0.000355  -0.000001   0.000004  -0.000000
    18  H   -0.004654  -0.000082  -0.000077   0.000003   0.000001   0.000002
    19  H    0.699428   0.007275  -0.008078  -0.000061   0.002030   0.000060
    20  H    0.007275   0.656232  -0.038757  -0.003074   0.005913   0.007345
    21  H   -0.008078  -0.038757   0.669043  -0.005080  -0.001467   0.000158
    22  H   -0.000061  -0.003074  -0.005080   0.665875  -0.036862   0.000719
    23  H    0.002030   0.005913  -0.001467  -0.036862   0.636620   0.006193
    24  H    0.000060   0.007345   0.000158   0.000719   0.006193   0.653015
    25  H    0.000008   0.000156  -0.000276  -0.010589   0.001043  -0.038713
    26  H   -0.000008  -0.000013   0.000004  -0.000198  -0.000060  -0.010759
    27  H   -0.000019   0.000004   0.000009  -0.000134   0.002378   0.006202
    28  H    0.000196  -0.000005   0.000008   0.000002  -0.000011  -0.000111
    29  H    0.000082   0.000002   0.000000  -0.000009   0.000504   0.000008
    30  H   -0.000978  -0.000030   0.000197  -0.000149   0.008634   0.000012
    31  H   -0.002529   0.000000   0.000008  -0.000001   0.000026  -0.000001
    32  H    0.000035   0.000000   0.000000   0.000000   0.000003  -0.000000
    33  H   -0.000083  -0.000000  -0.000000  -0.000000   0.000001  -0.000000
    34  H    0.002208   0.000001   0.000014   0.000000   0.000089   0.000000
    35  H    0.000092   0.000000  -0.000000   0.000000   0.000000   0.000000
    36  H    0.000003   0.000000   0.000000  -0.000000  -0.000000  -0.000000
    37  H    0.000000  -0.000000   0.000000  -0.000000  -0.000000  -0.000000
    38  H   -0.000003  -0.000000  -0.000000  -0.000000   0.000000  -0.000000
    39  H    0.000000  -0.000000   0.000000  -0.000000  -0.000000  -0.000000
    40  H   -0.000000  -0.000000  -0.000000  -0.000000   0.000000   0.000000
    41  H   -0.000000   0.000000  -0.000000  -0.000000   0.000000   0.000000
    42  H    0.006419   0.003696  -0.000010  -0.000048   0.000061   0.001933
    43  H   -0.001726  -0.000097  -0.000213   0.000008  -0.000017   0.000001
              25         26         27         28         29         30
     1  C    0.000003   0.000009   0.000002  -0.000244  -0.000018  -0.000019
     2  C    0.000248  -0.000026  -0.000149   0.003946   0.000028   0.003087
     3  C    0.003567  -0.000103  -0.000026   0.000071   0.000073  -0.001228
     4  C   -0.031097   0.005421  -0.003121  -0.000443   0.000101  -0.003539
     5  C    0.362110  -0.034483  -0.032164   0.005735  -0.000068   0.001265
     6  C   -0.030641   0.351131   0.362391  -0.036743  -0.004301  -0.003033
     7  C    0.004768  -0.021946  -0.035274   0.350735  -0.021363  -0.032872
     8  C    0.000005   0.004088  -0.010661  -0.042790   0.349043   0.368418
     9  C    0.000001  -0.000215   0.000414  -0.003415  -0.024661  -0.041961
    10  C   -0.000000   0.000001  -0.000002   0.000081  -0.001801  -0.006059
    11  C    0.000000  -0.000000   0.000000   0.000009   0.000025   0.000413
    12  C   -0.000000   0.000000   0.000000   0.000000   0.000008   0.000011
    13  C    0.000000  -0.000000   0.000000   0.000000   0.000000   0.000000
    14  O   -0.000000   0.000000  -0.000000  -0.000000   0.000000  -0.000000
    15  C   -0.000257  -0.000226   0.005033  -0.042617   0.004994  -0.008632
    16  H   -0.000000  -0.000000  -0.000000   0.000004  -0.000000   0.000012
    17  H    0.000000  -0.000000  -0.000000  -0.000000   0.000000  -0.000002
    18  H   -0.000000   0.000000   0.000000  -0.000008   0.000000  -0.000003
    19  H    0.000008  -0.000008  -0.000019   0.000196   0.000082  -0.000978
    20  H    0.000156  -0.000013   0.000004  -0.000005   0.000002  -0.000030
    21  H   -0.000276   0.000004   0.000009   0.000008   0.000000   0.000197
    22  H   -0.010589  -0.000198  -0.000134   0.000002  -0.000009  -0.000149
    23  H    0.001043  -0.000060   0.002378  -0.000011   0.000504   0.008634
    24  H   -0.038713  -0.010759   0.006202  -0.000111   0.000008   0.000012
    25  H    0.663129   0.001463  -0.009674  -0.000192   0.000000  -0.000091
    26  H    0.001463   0.670415  -0.039483  -0.011313   0.000049  -0.000007
    27  H   -0.009674  -0.039483   0.661033   0.001891   0.005934   0.000488
    28  H   -0.000192  -0.011313   0.001891   0.719572  -0.005575   0.007124
    29  H    0.000000   0.000049   0.005934  -0.005575   0.654008  -0.044193
    30  H   -0.000091  -0.000007   0.000488   0.007124  -0.044193   0.643496
    31  H    0.000000  -0.000003   0.000011  -0.000478   0.005935  -0.002743
    32  H   -0.000000   0.000004  -0.000004   0.003390  -0.007792   0.006364
    33  H    0.000000   0.000000   0.000001  -0.000001   0.003420  -0.000302
    34  H   -0.000000   0.000000   0.000001   0.000007  -0.000231   0.006909
    35  H   -0.000000   0.000000  -0.000000   0.000000   0.000001   0.000004
    36  H    0.000000   0.000000   0.000000  -0.000002   0.000007   0.000024
    37  H   -0.000000   0.000000  -0.000000   0.000000  -0.000002   0.000002
    38  H    0.000000   0.000000   0.000000  -0.000000   0.000000  -0.000005
[...]
 012,0.00000067,-0.00000066,-0.00000011,-0.00000024,0.00000149,-0.00000
 068,-0.00000195,-0.00000042,-0.00000026,0.00000024,0.00000020,-0.00000
 009,0.00000024,-0.00000048,-0.00000090,-0.00000030,-0.00000238,0.00000
 089,0.00000366,0.00000055,-0.00000212,-0.00000095,-0.00001262,0.000002
 77,-0.00003122,0.00000020,0.00000093,-0.00000409,-0.00016510,-0.000003
 34,-0.00008932,-0.00000836,0.00000588,0.00000488,-0.00037823,-0.000115
 06,-0.00023479,0.00002102,0.00001007,-0.00003827,0.00198419,-0.0029829
 2,-0.00200168,-0.00079883,0.00006960,0.00041823,0.05264812,0.00249581,
 0.07351654,-0.00000021,0.00000029,0.00000301,-0.00000188,-0.00000086,-
 0.00000085,0.00000140,-0.00000004,0.00000076,-0.00000031,-0.00000014,-
 0.00000058,0.00000079,-0.00000127,0.00000056,0.00000052,0.00000162,-0.
 00000181,0.00000273,-0.00000762,0.00000012,0.00000166,0.00000796,-0.00
 002036,-0.00001537,-0.00010442,-0.00000493,-0.00003580,0.00016120,-0.0
 0013286,0.00029532,-0.00011577,-0.00080923,0.00579984,0.01738840,-0.00
 179354,-0.08292328,-0.08282716,0.01608491,0.00428586,0.00568560,-0.000
 88568,0.00000079,0.00000023,0.00000049,0.00000028,0.00000073,0.0000000
 6,-0.00000017,0.00000010,-0.00000076,-0.00000009,-0.00000063,-0.000001
 18,-0.00000015,0.00000067,-0.00000022,-0.00000028,0.00000026,-0.000000
 44,-0.00000001,0.00000057,0.00000038,0.00000029,-0.00000016,-0.0000002
 2,-0.00000006,0.00000043,-0.00000014,-0.00000039,0.00000044,-0.0000004
 4,0.,0.00000010,0.,-0.00000037,-0.00000051,0.00000033,-0.00000047,0.00
 000094,-0.00000006,0.00000147,0.00000253,-0.00000019,-0.00000232,0.000
 00187,0.00000084,-0.00000312,0.00000155,-0.00000129,-0.00000168,-0.000
 00371,0.00000099,0.00001313,-0.00000190,0.00002067,-0.00002595,0.00002
 052,-0.00000667,-0.00005547,-0.00009068,0.00002036,-0.00000275,-0.0001
 0061,0.00013952,0.00017703,-0.00025106,0.00002103,0.00111136,-0.000281
 35,-0.00082420,-0.00061213,0.00314502,0.00191684,-0.01086209,-0.029269
 03,0.00487296,0.08196851,-0.00000079,0.00000080,0.00000588,0.00000014,
 -0.00000235,0.00000118,0.00000076,0.00000054,0.00000314,-0.00000090,-0
 .00000082,-0.00000029,0.00000398,-0.00000182,0.00000176,-0.00000747,-0
 .00000195,-0.00000715,0.00000698,-0.00002009,0.00000463,-0.00001771,0.
 00002041,-0.00002135,0.00006843,-0.00002766,-0.00003363,0.00023542,0.0
 0037113,-0.00035060,-0.00033909,-0.00004188,0.00125475,-0.00785956,-0.
 02213707,0.00234440,-0.07945313,-0.26661903,0.04316399,-0.00087260,-0.
 00370397,0.00716405,0.00000116,0.00000103,0.00000084,0.00000033,0.0000
 0045,0.00000056,-0.00000085,0.00000139,-0.00000354,0.00000291,-0.00000
 237,-0.00000236,-0.00000299,0.00000330,-0.00000091,-0.00000048,0.00000
 111,-0.00000211,0.00000042,0.00000006,-0.00000005,0.00000092,-0.000000
 37,-0.00000186,-0.00000030,0.00000142,0.,-0.00000181,0.00000114,-0.000
 00130,0.00000177,-0.00000104,-0.00000266,0.00000277,0.00000009,0.00000
 066,-0.00000060,0.00000385,0.00000016,0.00000063,0.00000620,-0.0000037
 6,0.00000180,-0.00000332,0.00000203,0.00000128,0.00000904,0.00000584,-
 0.00000597,-0.00000167,-0.00000454,0.00001427,0.00002125,-0.00005936,-
 0.00000366,-0.00003129,0.00001726,-0.00008349,0.00028991,0.00019246,0.
 00003839,0.00004201,-0.00008466,0.00019739,0.00068061,-0.00105070,0.00
 017694,0.00115089,0.00052568,0.00279018,-0.00187788,-0.00258404,-0.000
 68401,-0.00071483,-0.00064602,0.08504442,0.29067340,-0.00000062,0.0000
 0081,0.00000219,0.00000026,-0.00000098,0.00000071,0.00000022,0.0000003
 4,0.00000062,-0.00000004,0.00000010,-0.00000012,0.00000055,-0.00000032
 ,0.00000058,-0.00000103,-0.00000044,0.00000020,-0.00000088,-0.00000118
 ,0.00000260,0.00000113,0.00000319,0.00001373,0.00000263,0.00005218,0.0
 0001041,0.00005299,-0.00012688,0.00002093,-0.00048091,-0.00049493,0.00
 158161,-0.00587688,-0.01694342,0.00345347,0.01131961,0.03326022,-0.052
 29028,0.01145911,0.03850833,-0.02064688,-0.00000009,0.00000038,0.00000
 003,0.00000013,-0.00000025,-0.00000026,-0.00000019,0.00000013,-0.00000
 111,0.00000113,-0.00000049,-0.00000061,-0.00000100,0.00000125,-0.00000
 035,-0.00000012,0.00000016,-0.00000056,0.,-0.00000022,0.,0.00000018,-0
 .00000030,-0.00000067,-0.00000024,0.00000040,0.00000006,-0.00000052,0.
 00000041,-0.00000059,0.00000056,-0.00000023,-0.00000048,0.00000034,-0.
 00000020,0.00000013,-0.00000019,0.00000101,-0.00000002,0.00000043,0.00
 000161,-0.00000198,-0.00000044,-0.00000087,-0.00000035,-0.00000100,0.0
 0000541,0.00000486,-0.00000278,-0.00000096,-0.00000332,0.00000658,0.00
 001718,-0.00003873,-0.00000871,0.00001191,0.00001088,0.00003672,0.0001
 8755,-0.00006315,-0.00001521,-0.00001433,-0.00006568,0.00026810,0.0004
 0663,-0.00027578,-0.00004942,0.00088027,0.00048922,0.00230659,-0.00264
 595,-0.00190636,-0.00105961,-0.00513839,0.00336431,-0.01700374,-0.0500
 1441,0.07356071,0.00000373,-0.00000540,-0.00000265,0.00000719,0.000007
 70,0.00000387,-0.00000368,-0.00000270,0.00000439,0.00000420,0.00000386
 ,0.00000037,0.00000873,-0.00000097,0.00000626,-0.00001274,0.00000208,-
 0.00001314,0.00002010,-0.00002124,0.00001902,-0.00002504,0.00003693,-0
 .00003009,0.00005611,-0.00005231,0.00001845,-0.00006597,0.00009931,-0.
 00008336,0.00028668,0.00012245,0.00030600,-0.00018926,-0.00101524,-0.0
 0041367,0.00069599,0.00680910,-0.00604496,-0.06550586,-0.16616613,0.03
 849391,0.00000553,0.00000255,-0.00000288,-0.00000362,-0.00000607,-0.00
 000164,-0.00000266,0.00000322,-0.00000445,0.00000444,0.00000176,0.0000
 0345,-0.00000405,0.00000592,-0.00000221,-0.00000070,0.00000313,-0.0000
 0267,-0.00000154,-0.00000654,-0.00000351,-0.00000199,-0.00000326,-0.00
 000550,-0.00000152,0.00000145,0.00000104,-0.00000261,0.00000110,-0.000
 00274,0.00000138,-0.00000342,-0.00000673,-0.00000481,-0.00000336,0.000
 00044,0.00000150,0.00000314,0.00000115,-0.00000328,-0.00000056,-0.0000
 0276,-0.00000952,-0.00000364,0.00000164,0.00000627,-0.00000517,0.00000
 221,-0.00002203,0.00000331,-0.00001752,-0.00000050,0.00000638,-0.00000
 949,-0.00004176,-0.00000101,0.00002657,0.00002148,0.00000821,0.0000186
 6,-0.00016321,0.00003296,-0.00020975,-0.00005516,0.00009301,-0.0002094
 5,-0.00042148,-0.00017578,0.00025731,0.00027864,0.00022515,0.00035325,
 0.00083558,0.00143535,-0.00028169,0.00088426,0.00074134,-0.00095429,0.
 06341691,-0.00000042,-0.00000093,-0.00000217,-0.00000217,0.00000360,-0
 .00000195,-0.00000064,-0.00000026,-0.00000135,-0.00000090,0.00000131,-
 0.00000191,0.00000177,0.00000070,-0.00000210,-0.00000075,0.00000317,-0
 .00000298,0.00000482,-0.00000579,-0.00000365,-0.00000725,0.00001871,-0
 .00002255,0.00003003,-0.00007245,-0.00001644,-0.00002464,0.00014996,-0
 .00015356,0.00029456,-0.00060648,-0.00058727,0.00003886,0.00394051,-0.
 00178357,-0.00303193,-0.00821753,-0.00238461,-0.15597592,-0.42950102,0
 .11837243,-0.00000150,0.00000158,0.00000090,-0.00000048,-0.00000141,-0
 .00000126,0.00000081,-0.00000099,0.00000303,-0.00000144,0.00000268,0.0
 0000021,0.00000326,-0.00000243,0.00000159,0.00000089,-0.00000087,0.000
 00156,-0.00000031,-0.00000069,-0.00000078,-0.00000002,0.00000027,0.000
 00081,0.00000115,-0.00000172,0.00000093,0.00000087,-0.00000176,0.00000
 152,-0.00000071,0.00000025,-0.00000019,0.00000051,0.00000034,-0.000000
 55,0.00000003,-0.00000288,0.00000014,-0.00000034,-0.00000305,0.0000021
 8,0.00000379,0.00000040,-0.00000046,-0.00000282,-0.00000635,-0.0000020
 4,0.00000395,0.00000250,0.00000769,0.00000017,-0.00000290,0.00001414,0
 .00002041,-0.00000994,-0.00001239,-0.00001734,-0.00005233,-0.00000762,
 0.00006315,0.00001055,0.00011675,0.00005240,-0.00014542,0.00000644,0.0
 0004557,-0.00010581,0.00006404,-0.00089013,-0.00032751,0.00058235,-0.0
 0002644,0.00039448,-0.00168433,0.00159287,0.00191189,0.00204635,0.1578
 2508,0.43262792,-0.00000249,0.00000219,-0.00001077,-0.00000434,-0.0000
 1397,0.00000050,0.00000353,0.00000173,-0.00001337,0.00000092,-0.000010
 19,0.00000265,-0.00001640,0.00000371,-0.00001128,0.00003112,-0.0000107
 5,0.00002852,-0.00003541,0.00004633,-0.00003140,0.00005921,-0.00007389
 ,0.00005937,-0.00011437,0.00014196,-0.00000223,0.00008551,-0.00031610,
 0.00017695,-0.00060889,-0.00011357,-0.00027867,0.00116540,0.00149124,0
 .00158733,0.01548050,0.04523373,-0.01905882,0.01738760,0.07023820,-0.0
 6238353,0.00000028,-0.00000730,-0.00000654,0.00000470,0.00001287,0.000
 00514,0.00000234,-0.00000440,0.00000409,-0.00000828,-0.00000286,0.0000
 0656,0.00000410,-0.00000716,0.00000076,-0.00000063,-0.00000333,0.00000
 353,0.00000266,0.00001171,0.00000758,-0.00000054,0.00000555,0.00001293
 ,-0.00000047,0.00000088,-0.00000427,0.00000496,0.00000023,0.00000125,-
 0.00000862,0.00000585,0.00001627,0.00000001,0.00000115,0.00000007,-0.0
 0000160,0.00000085,-0.00000235,0.00000444,0.00000191,0.00000272,-0.000
 00629,0.00000517,0.00000021,-0.00000322,0.00001131,-0.00000131,0.00001
 148,-0.00000306,-0.00000098,-0.00000380,-0.00000838,0.00001659,-0.0000
 2263,0.00000621,0.00000260,0.00002495,-0.00003695,-0.00004902,0.000040
 24,0.00004624,0.00000912,-0.00005617,-0.00025205,0.00046699,-0.0000667
 9,-0.00021612,-0.00001795,0.00007165,-0.00169128,-0.00046467,-0.000606
 70,-0.00014363,0.00161776,-0.00159342,0.00019053,-0.00721885,-0.031206
 32,-0.11455062,0.08550812,0.00043825,-0.00007632,0.00055517,0.00043219
 ,-0.00104081,0.00264535,0.00043270,-0.00001640,0.00006557,0.00006547,0
 .00015809,0.00006006,-0.00044283,0.00061403,-0.00007900,0.00080818,-0.
 00029844,-0.00078828,-0.00634775,0.01399953,-0.02733561,-0.00562997,-0
 .00125805,0.00000106,-0.00037660,0.00035552,0.00015876,0.00018082,-0.0
 0016995,-0.00003706,-0.00001338,0.00005404,-0.00005938,0.00003188,-0.0
 0004226,-0.00000163,-0.00002110,0.00002435,0.00001921,0.00001136,-0.00
 001018,-0.00004470,-0.05454731,0.02303120,-0.03520337,-0.00013208,0.00
 014412,-0.00037945,-0.00014817,0.00003437,-0.00029213,0.00018799,-0.00
 008944,-0.00017731,0.00028291,-0.00010468,-0.00013683,0.00007237,0.000
 09665,0.00009869,0.00000962,-0.00015284,0.00010143,0.00006249,-0.00000
 587,0.00000917,-0.00002054,-0.00014287,-0.00000299,-0.00051124,-0.0001
 8095,0.00076347,0.00017036,-0.00017080,0.00012274,0.00000921,-0.000148
 59,0.00007912,0.00009395,-0.00004818,0.00009877,0.00145125,0.00011326,
 0.00016577,-0.00031405,0.00010762,-0.00189825,0.00000641,0.00015004,0.
 00022785,0.00032970,-0.00020869,-0.00017609,0.00011079,-0.00002228,-0.
 00000910,0.00003711,0.00000832,0.00010736,-0.00000927,0.00001518,-0.00
 000182,0.00002224,-0.00001494,-0.00001305,0.00000055,-0.00000453,0.000
 00070,-0.00000008,0.00000214,0.00000266,0.00000047,0.00000462,-0.00000
 337,0.00000473,-0.00000201,-0.00000126,-0.00000004,-0.00000121,-0.0000
 0018,-0.00000652,0.00000024,0.00000981,0.05946954,0.00113634,-0.000292
 23,-0.00004941,0.00692316,-0.02245184,0.02535864,0.00072777,0.00076685
 ,0.00306727,0.00011985,-0.00017585,-0.00039648,0.00003482,-0.00034503,
 0.00046032,0.00027297,-0.00006000,0.00025592,-0.00298431,0.00220247,-0
 .00753829,-0.00185578,0.00013504,-0.00074386,-0.00008914,0.00011140,0.
 00007776,-0.00003494,-0.00003836,0.00001328,0.00000245,0.00001534,-0.0
 0000713,0.00000401,-0.00001431,0.00000138,-0.00000532,0.00000603,0.000
 00336,0.00000317,-0.00000116,-0.00001010,0.02434877,-0.11405404,0.1104
 5985,-0.00048103,0.00010975,-0.00036129,-0.00075945,0.00034236,-0.0001
 9188,0.00004814,0.00002439,-0.00007583,-0.00175966,-0.00580653,-0.0012
 7431,-0.00044333,0.00028165,-0.00167844,-0.00034899,0.00069162,-0.0000
 1846,0.00012300,0.00003248,-0.00006085,-0.00024269,0.00013152,0.000006
 32,-0.00000410,0.00038324,-0.00021787,-0.00010896,0.00016209,-0.000098
 26,0.00009713,0.00000054,-0.00010197,-0.00012838,0.00010495,-0.0000892
 7,-0.00014228,0.00132317,-0.00092832,-0.00025635,0.00010076,-0.0005439
 9,-0.00000576,0.00009227,-0.00013511,0.00001634,0.00007645,0.00010153,
 -0.00006922,-0.00003599,-0.00001303,0.00002129,0.00000508,-0.00001554,
 0.00000605,0.00001127,-0.00000362,0.00000393,-0.00000352,-0.00000034,-
 0.00000136,-0.00000042,-0.00000033,0.00000060,0.00000062,0.00000042,0.
 00000127,0.00000268,-0.00000205,0.00000168,-0.00000077,-0.00000024,-0.
 00000007,0.00000038,0.00000005,-0.00000170,-0.00000127,0.00000178,-0.0
 2255189,0.13130508,0.00012722,0.00026843,-0.00025301,0.00041963,-0.004
 05041,0.00381311,0.00056672,-0.00228529,0.00090701,0.00004172,0.000021
 48,0.00015453,0.00024920,0.00066501,-0.00058400,-0.00000593,-0.0002957
 7,-0.00027510,-0.00141967,0.00430625,-0.00915889,-0.00254532,-0.000880
 01,0.00042969,-0.00016897,0.00032982,0.00020565,-0.00005457,-0.0001002
 9,0.00003076,-0.00003033,0.00007799,-0.00002260,0.00004210,-0.00006023
 ,0.00000094,-0.00003836,0.00004951,0.00004285,0.00002234,-0.00002325,-
 0.00008243,-0.03704545,0.11091923,-0.22005152,0.00013195,0.00011824,0.
 00017607,0.00035330,0.00026490,0.00007475,-0.00013638,-0.00009023,0.00
 017026,0.00029187,-0.00153589,0.00032049,-0.00019435,-0.00010733,0.000
 71590,0.00026370,-0.00027254,0.00027062,-0.00004946,-0.00000275,0.0000
 1670,0.00001557,-0.00001560,-0.00005904,0.00057148,-0.00048063,0.00027
 614,0.00010209,-0.00019453,0.00020213,-0.00010294,0.00004456,0.0000351
 2,0.00002617,-0.00006101,0.00005034,-0.00022453,-0.00066065,0.00068357
 ,-0.00018882,-0.00007582,-0.00087216,0.00019159,-0.00010075,0.00037481
 ,-0.00007981,0.00020753,0.00018785,-0.00014651,-0.00014610,-0.00007584
 ,0.00002959,-0.00000244,-0.00005268,0.00001502,-0.00000420,0.00001555,
 0.00001431,0.00000065,-0.00000224,-0.00000790,-0.00002070,-0.00000634,
 0.00000019,0.00000142,-0.00000003,0.00000109,0.00000115,0.00000009,0.0
 0000897,-0.00000217,-0.00000276,-0.00000207,-0.00000668,-0.00000217,-0
 .00001287,0.00000259,0.00002066,0.04226638,-0.11765270,0.24198049,0.00
 034470,-0.00242082,-0.00118421,0.00180196,-0.00206347,-0.00269617,0.00
 000457,-0.00129893,-0.00109122,-0.00014404,-0.00020133,-0.00000926,0.0
 0044136,-0.00015476,-0.00084639,-0.00394139,-0.00370685,-0.00272546,-0
 .02380889,0.00974708,0.01873941,0.00052087,0.00066344,0.00171840,-0.00
 080854,0.00000263,0.00007635,0.00062590,0.00002371,-0.00024870,0.00001
 769,-0.00008059,-0.00005934,-0.00003232,0.00005917,-0.00001479,0.00003
 115,-0.00005122,-0.00007515,-0.00001512,0.00001764,0.00011929,-0.16040
 761,0.05243175,0.11692563,-0.00009934,-0.00008728,-0.00026562,0.000216
 21,0.00015038,-0.00007349,0.00059415,-0.00013408,-0.00019644,-0.000042
 81,0.00025600,0.00010511,-0.00000005,-0.00009946,0.00011382,0.00030122
 ,-0.00012262,-0.00031530,0.00004120,0.00009212,0.00007227,0.00001348,0
 .00000530,-0.00001072,0.00013120,-0.00006115,0.00006109,0.00001812,-0.
 00001540,0.00010355,-0.00177214,0.00099661,0.00062182,-0.00006387,0.00
 019678,-0.00006009,0.00025227,-0.00054949,-0.00003304,0.00037487,0.000
 08171,0.00024004,0.00006836,0.00031351,-0.00038289,0.00117225,-0.00047
 834,-0.00074244,0.00021209,0.00009708,0.00009311,0.00005453,-0.0000235
 4,0.00032991,-0.00004544,-0.00003485,0.00003604,0.00002369,-0.00000163
 ,-0.00002234,0.00000054,0.00000423,-0.00000233,0.00000447,-0.00000135,
 0.00001023,-0.00000513,-0.00000842,0.00000901,-0.00000158,0.00000441,0
 .00000391,-0.00000083,0.00000402,0.00000085,0.00001077,0.00000096,-0.0
 0002804,0.00379841,-0.00161806,-0.00329794,0.18011310,0.00175441,0.000
 98891,-0.00148712,0.01846465,-0.01149700,-0.02380800,-0.00135416,-0.00
 572940,0.00099712,-0.00045791,-0.00005832,0.00004394,-0.00016829,-0.00
 033195,0.00007196,-0.00055865,0.00022295,-0.00042645,-0.00393962,0.002
 29221,0.00459993,0.00053178,0.00056386,-0.00040705,-0.00057358,-0.0000
 3043,-0.00031706,0.00005331,0.00004565,-0.00005280,0.00000439,-0.00000
 715,0.00001464,-0.00000023,0.00000302,0.00000311,-0.00000106,0.0000056
 7,0.00000876,0.00000014,-0.00000345,-0.00001009,0.05063192,-0.06874296
 ,-0.04890126,0.00023342,0.00041228,0.00037050,-0.00036016,0.00012916,-
 0.00005275,-0.00075750,-0.00042643,0.00079753,0.00018891,-0.00044340,0
 .00032793,-0.00020966,0.00026257,-0.00008698,0.00045253,-0.00040078,-0
 .00195614,0.00017298,0.00009618,-0.00004645,0.00003033,0.00003185,0.00
 000261,0.00007137,0.00015652,-0.00017645,-0.00000512,0.00013805,-0.000
 03520,-0.00016464,0.00014498,0.00007680,-0.00021659,0.00005741,-0.0000
 3119,0.00052262,-0.00004566,0.00020502,-0.00003788,-0.00012055,0.00015
 814,0.00012881,-0.00011474,-0.00008953,-0.00025379,0.00010297,-0.00074
 454,-0.00009436,-0.00011534,-0.00002293,0.00000637,-0.00000901,-0.0000
 0379,0.00000152,-0.00003313,0.00004279,-0.00000185,0.00001096,-0.00000
 260,-0.00000494,-0.00001343,-0.00000777,-0.00000195,-0.00000126,-0.000
 00142,0.00000050,-0.00000390,0.00000495,-0.00000071,0.00000131,-0.0000
 0066,-0.00000135,-0.00000292,-0.00000111,0.00000002,0.00000096,0.00000
 430,-0.01215112,0.00486184,0.01184920,-0.05193487,0.07760191,0.0008086
 7,0.00055134,0.00077317,0.00250975,-0.00204116,-0.00484621,-0.00050014
 ,-0.00180113,0.00026568,-0.00029985,0.00014645,0.00011990,-0.00002293,
 0.00022947,-0.00016662,-0.00240452,-0.00072516,-0.00092581,-0.00928801
 ,0.00364786,0.00773058,-0.00033468,0.00015411,0.00011451,-0.00111916,-
 0.00048596,-0.00106498,-0.00008126,0.00017962,-0.00004696,0.00003757,-
 0.00003617,0.00005221,-0.00002820,0.00002822,0.00000938,0.00002112,-0.
 00001881,0.00000408,-0.00001302,0.00001004,0.00001217,0.11716042,-0.04
 971723,-0.16206674,-0.00024912,0.00039375,0.00030544,-0.00019592,-0.00
 009568,-0.00043866,-0.00050290,-0.00020434,0.00054099,-0.00002684,-0.0
 0023646,-0.00005969,0.00013536,-0.00009386,0.00052768,0.00033903,-0.00
 059176,-0.00038065,0.00004447,0.00002045,-0.00000859,0.00003938,-0.000
 06444,0.00000736,0.00000767,-0.00019299,0.00026046,0.00013181,-0.00008
 943,0.00011616,-0.00062336,0.00025662,0.00030525,0.00002860,0.00002195
 ,0.00001625,0.00056650,0.00005837,0.00007954,0.00019221,-0.00008318,0.
 00025176,0.00013878,0.00005460,0.00012147,-0.00062700,-0.00079746,-0.0
 0140278,0.00006613,0.00000346,0.00009296,0.00001320,0.00000998,-0.0000
 5039,0.00000245,0.00001305,-0.00001557,-0.00001325,-0.00000481,0.00000
 206,0.00000686,0.00000727,0.00000240,-0.00000380,0.00000036,-0.0000045
 9,0.00000139,0.00000033,-0.00000103,-0.00000804,0.00000059,-0.00000012
 ,0.00000105,0.00000220,0.00000102,0.00000636,-0.00000130,-0.00000227,0
 .01908178,-0.00759887,-0.01965530,-0.12499851,0.05909013,0.17942449\\0
 .00000224,0.00000206,-0.00000128,-0.00000225,-0.00000232,0.00000107,0.
 00000278,0.00000222,-0.00000306,-0.00000500,-0.00000624,-0.00000130,0.
 00000343,0.00000155,0.00000529,-0.00000301,0.00000087,-0.00000310,0.00
 000247,0.00000281,0.00000013,0.00000046,0.00000103,0.00000177,0.000002
 19,-0.00000092,0.00000264,-0.00000024,0.00000213,-0.00000315,0.0000010
 6,-0.00000062,0.00000068,-0.00000060,0.00000122,-0.00000241,0.00000211
 ,-0.00000032,0.00000452,-0.00000272,0.00000090,-0.00000248,-0.00000409
 ,0.00000113,0.00000149,0.00000002,-0.00000015,0.00000057,-0.00000033,-
 0.00000025,0.00000036,-0.00000059,0.00000004,0.00000086,-0.00000151,0.
 00000047,-0.00000050,0.00000129,-0.00000064,0.00000061,-0.00000144,0.0
 0000003,0.00000071,0.00000198,0.00000046,0.00000050,-0.00000055,0.0000
 0140,-0.00000013,-0.00000027,-0.00000137,-0.00000041,-0.00000013,0.000
 00021,-0.00000018,0.00000026,-0.00000012,-0.00000222,0.00000205,-0.000
 00140,-0.00000084,-0.00000021,-0.00000117,0.00000124,-0.00000056,-0.00
 000031,-0.00000073,0.00000072,0.00000131,-0.00000010,-0.00000021,-0.00
 000042,-0.00000009,-0.00000068,-0.00000011,-0.00000080,0.00000018,-0.0
 0000154,0.00000102,-0.00000095,-0.00000031,0.00000001,-0.00000045,0.00
 000005,0.00000043,-0.00000008,-0.00000005,-0.00000107,0.00000006,0.000
 00054,0.00000037,0.00000082,-0.00000038,0.00000046,0.00000017,0.000000
 50,-0.00000036,0.00000048,0.00000030,-0.00000113,0.00000181,-0.0000003
 2,0.00000023,0.00000012,-0.00000171,0.00000027,-0.00000082,-0.00000056
 ,0.00000010\\\@


 ONLY A FOOL KNOWS EVERYTHING.

               -- THE CHEMIST ANALYST, SEPTEMBER 1946
 Job cpu time:       0 days 13 hours 36 minutes 26.9 seconds.
 Elapsed time:       0 days  3 hours 24 minutes  9.4 seconds.
 File lengths (MBytes):  RWF=    926 Int=      0 D2E=      0 Chk=     27 Scr=      1
 Normal termination of Gaussian 16 at Tue May 23 02:47:58 2023.
### All Done ###
