### Starting Gaussian ###
 Entering Gaussian System, Link 0=g16
 Initial command:
 /cluster/software/gaussian/gaussian-16-A.03/avx2/g16/l1.exe "/local/scratch/yxie/Gau-29581.inp" -scrdir="/local/scratch/yxie/"
 Entering Link 1 = /cluster/software/gaussian/gaussian-16-A.03/avx2/g16/l1.exe PID=     29582.
  
 Copyright (c) 1988,1990,1992,1993,1995,1998,2003,2009,2016,
            Gaussian, Inc.  All Rights Reserved.
  
 This is part of the Gaussian(R) 16 program.  It is based on
 the Gaussian(R) 09 system (copyright 2009, Gaussian, Inc.),
 the Gaussian(R) 03 system (copyright 2003, Gaussian, Inc.),
 the Gaussian(R) 98 system (copyright 1998, Gaussian, Inc.),
 the Gaussian(R) 94 system (copyright 1995, Gaussian, Inc.),
 the Gaussian 92(TM) system (copyright 1992, Gaussian, Inc.),
 the Gaussian 90(TM) system (copyright 1990, Gaussian, Inc.),
 the Gaussian 88(TM) system (copyright 1988, Gaussian, Inc.),
 the Gaussian 86(TM) system (copyright 1986, Carnegie Mellon
 University), and the Gaussian 82(TM) system (copyright 1983,
 Carnegie Mellon University). Gaussian is a federally registered
 trademark of Gaussian, Inc.
  
 This software contains proprietary and confidential information,
 including trade secrets, belonging to Gaussian, Inc.
  
 This software is provided under written license and may be
 used, copied, transmitted, or stored only in accord with that
 written license.
  
 The following legend is applicable only to US Government
 contracts under FAR:
  
                    RESTRICTED RIGHTS LEGEND
  
 Use, reproduction and disclosure by the US Government is
 subject to restrictions as set forth in subparagraphs (a)
 and (c) of the Commercial Computer Software - Restricted
 Rights clause in FAR 52.227-19.
  
 Gaussian, Inc.
 340 Quinnipiac St., Bldg. 40, Wallingford CT 06492
  
  
 ---------------------------------------------------------------
 Warning -- This program may not be used in any manner that
 competes with the business of Gaussian, Inc. or will provide
 assistance to any competitor of Gaussian, Inc.  The licensee
 of this program is prohibited from giving any competitor of
 Gaussian, Inc. access to this program.  By using this program,
 the user acknowledges that Gaussian, Inc. is engaged in the
 business of creating and licensing software in the field of
 computational chemistry and represents and warrants to the
 licensee that it is not a competitor of Gaussian, Inc. and that
 it will not use this program in any manner prohibited above.
 ---------------------------------------------------------------
  

 Cite this work as:
 Gaussian 16, Revision A.03,
 M. J. Frisch, G. W. Trucks, H. B. Schlegel, G. E. Scuseria, 
 M. A. Robb, J. R. Cheeseman, G. Scalmani, V. Barone, 
 G. A. Petersson, H. Nakatsuji, X. Li, M. Caricato, A. V. Marenich, 
 J. Bloino, B. G. Janesko, R. Gomperts, B. Mennucci, H. P. Hratchian, 
 J. V. Ortiz, A. F. Izmaylov, J. L. Sonnenberg, D. Williams-Young, 
 F. Ding, F. Lipparini, F. Egidi, J. Goings, B. Peng, A. Petrone, 
 T. Henderson, D. Ranasinghe, V. G. Zakrzewski, J. Gao, N. Rega, 
 G. Zheng, W. Liang, M. Hada, M. Ehara, K. Toyota, R. Fukuda, 
 J. Hasegawa, M. Ishida, T. Nakajima, Y. Honda, O. Kitao, H. Nakai, 
 T. Vreven, K. Throssell, J. A. Montgomery, Jr., J. E. Peralta, 
 F. Ogliaro, M. J. Bearpark, J. J. Heyd, E. N. Brothers, K. N. Kudin, 
 V. N. Staroverov, T. A. Keith, R. Kobayashi, J. Normand, 
 K. Raghavachari, A. P. Rendell, J. C. Burant, S. S. Iyengar, 
 J. Tomasi, M. Cossi, J. M. Millam, M. Klene, C. Adamo, R. Cammi, 
 J. W. Ochterski, R. L. Martin, K. Morokuma, O. Farkas, 
 J. B. Foresman, and D. J. Fox, Gaussian, Inc., Wallingford CT, 2016.
 
 ******************************************
 Gaussian 16:  ES64L-G16RevA.03 25-Dec-2016
                22-May-2023 
 ******************************************
 %chk=CC1OCqCCCCCCNOrONCC1Cl.chk
 %NProcShared=20
 Will use up to   20 processors via shared memory.
 -----------------------------
 # opt freq b3lyp/6-31g(2df,p)
 -----------------------------
 1/18=20,19=15,26=3,38=1/1,3;
 2/9=110,12=2,17=6,18=5,40=1/2;
 3/5=1,6=6,7=104,11=2,25=1,30=1,71=1,74=-5/1,2,3;
 4//1;
 5/5=2,38=5/2;
 6/7=2,8=2,9=2,10=2,28=1/1;
 7//1,2,3,16;
 1/18=20,19=15,26=3/3(2);
 2/9=110/2;
 99//99;
 2/9=110/2;
 3/5=1,6=6,7=104,11=2,25=1,30=1,71=1,74=-5/1,2,3;
 4/5=5,16=3,69=1/1;
 5/5=2,38=5/2;
 7//1,2,3,16;
 1/18=20,19=15,26=3/3(-5);
 2/9=110/2;
 6/7=2,8=2,9=2,10=2,19=2,28=1/1;
 99/9=1/99;
 -------------------
 Title Card Required
 -------------------
 Symbolic Z-matrix:
 Charge =  0 Multiplicity = 1
 C                     0.94295  -0.15084  -0.08594 
 C                     2.46195   0.03378  -0.08886 
 O                     3.00215  -1.23622  -0.48757 
 C                     4.43176  -1.31154  -0.55371 
 C                     5.08994  -1.06291   0.80865 
 C                     6.60875  -1.09899   0.78091 
 C                     7.14153  -0.4029    2.02576 
 C                     8.65551  -0.46218   2.04345 
 C                     9.1935    0.18059   3.31263 
 C                     10.70854   0.07095   3.33058 
 N                     11.23403   0.72138   4.52677 
 O                     12.65807   0.42466   4.49583 
 O                     4.90433  -0.55869  -1.68167 
 N                     5.40839   0.77929  -1.38121 
 C                     4.38089   1.60679  -0.7387 
 C                     2.91553   1.21946  -0.98532 
 Cl                    1.92775   2.69768  -0.69209 
 H                     0.6609   -1.05074   0.47129 
 H                     0.55908  -0.26672  -1.1045 
 H                     0.43984   0.69628   0.38902 
 H                     2.74344   0.20996   0.95481 
 H                     4.65082  -2.35537  -0.81138 
 H                     4.70509  -1.7858    1.53905 
 H                     4.78187  -0.10346   1.22307 
 H                     7.01973  -0.5905   -0.09612 
 H                     6.95432  -2.1365    0.72983 
 H                     6.72782  -0.87475   2.92456 
 H                     6.81849   0.64745   2.03474 
 H                     9.05694   0.05534   1.16281 
 H                     8.98201  -1.50697   1.98338 
 H                     8.76643  -0.32076   4.19014 
 H                     8.8836    1.23251   3.35566 
 H                     11.12113   0.56219   2.44182 
 H                     11.00597  -0.98414   3.30308 
 H                     10.91888   0.21708   5.35804 
 H                     12.9997   1.15172   3.94821 
 H                     5.53796   1.12473  -2.33621 
 H                     4.57372   2.634    -1.06904 
 H                     4.58059   1.65302   0.33808 
 H                     2.7812    0.96394  -2.04226 
 

 GradGradGradGradGradGradGradGradGradGradGradGradGradGradGradGradGradGrad
 Berny optimization.
 Initialization pass.
                           ----------------------------
                           !    Initial Parameters    !
                           ! (Angstroms and Degrees)  !
 --------------------------                            --------------------------
 ! Name  Definition              Value          Derivative Info.                !
 --------------------------------------------------------------------------------
 ! R1    R(1,2)                  1.5302         estimate D2E/DX2                !
 ! R2    R(1,18)                 1.0954         estimate D2E/DX2                !
 ! R3    R(1,19)                 1.0946         estimate D2E/DX2                !
 ! R4    R(1,20)                 1.0938         estimate D2E/DX2                !
 ! R5    R(2,3)                  1.4366         estimate D2E/DX2                !
 ! R6    R(2,16)                 1.5541         estimate D2E/DX2                !
 ! R7    R(2,21)                 1.0952         estimate D2E/DX2                !
 ! R8    R(3,4)                  1.4331         estimate D2E/DX2                !
 ! R9    R(4,5)                  1.5333         estimate D2E/DX2                !
 ! R10   R(4,13)                 1.4361         estimate D2E/DX2                !
 ! R11   R(4,22)                 1.0973         estimate D2E/DX2                !
 ! R12   R(5,6)                  1.5195         estimate D2E/DX2                !
 ! R13   R(5,23)                 1.0973         estimate D2E/DX2                !
 ! R14   R(5,24)                 1.0896         estimate D2E/DX2                !
 ! R15   R(6,7)                  1.5225         estimate D2E/DX2                !
 ! R16   R(6,25)                 1.0939         estimate D2E/DX2                !
 ! R17   R(6,26)                 1.0947         estimate D2E/DX2                !
 ! R18   R(7,8)                  1.5152         estimate D2E/DX2                !
 ! R19   R(7,27)                 1.0962         estimate D2E/DX2                !
 ! R20   R(7,28)                 1.0989         estimate D2E/DX2                !
 ! R21   R(8,9)                  1.521          estimate D2E/DX2                !
 ! R22   R(8,29)                 1.0975         estimate D2E/DX2                !
 ! R23   R(8,30)                 1.0963         estimate D2E/DX2                !
 ! R24   R(9,10)                 1.5191         estimate D2E/DX2                !
 ! R25   R(9,31)                 1.0972         estimate D2E/DX2                !
 ! R26   R(9,32)                 1.0975         estimate D2E/DX2                !
 ! R27   R(10,11)                1.4595         estimate D2E/DX2                !
 ! R28   R(10,33)                1.0961         estimate D2E/DX2                !
 ! R29   R(10,34)                1.0966         estimate D2E/DX2                !
 ! R30   R(11,12)                1.455          estimate D2E/DX2                !
 ! R31   R(11,35)                1.0221         estimate D2E/DX2                !
 ! R32   R(12,36)                0.9722         estimate D2E/DX2                !
 ! R33   R(13,14)                1.461          estimate D2E/DX2                !
 ! R34   R(14,15)                1.4674         estimate D2E/DX2                !
 ! R35   R(14,37)                1.0238         estimate D2E/DX2                !
 ! R36   R(15,16)                1.5356         estimate D2E/DX2                !
 ! R37   R(15,38)                1.0961         estimate D2E/DX2                !
 ! R38   R(15,39)                1.0961         estimate D2E/DX2                !
 ! R39   R(16,17)                1.8019         estimate D2E/DX2                !
 ! R40   R(16,40)                1.0957         estimate D2E/DX2                !
 ! A1    A(2,1,18)             110.8362         estimate D2E/DX2                !
 ! A2    A(2,1,19)             111.0458         estimate D2E/DX2                !
 ! A3    A(2,1,20)             111.3462         estimate D2E/DX2                !
 ! A4    A(18,1,19)            107.2224         estimate D2E/DX2                !
 ! A5    A(18,1,20)            107.2737         estimate D2E/DX2                !
 ! A6    A(19,1,20)            108.9501         estimate D2E/DX2                !
 ! A7    A(1,2,3)              105.4952         estimate D2E/DX2                !
 ! A8    A(1,2,16)             112.5122         estimate D2E/DX2                !
 ! A9    A(1,2,21)             105.8266         estimate D2E/DX2                !
 ! A10   A(3,2,16)             113.8682         estimate D2E/DX2                !
 ! A11   A(3,2,21)             108.0619         estimate D2E/DX2                !
 ! A12   A(16,2,21)            110.6062         estimate D2E/DX2                !
 ! A13   A(2,3,4)              115.7465         estimate D2E/DX2                !
 ! A14   A(3,4,5)              112.2516         estimate D2E/DX2                !
 ! A15   A(3,4,13)             109.6914         estimate D2E/DX2                !
 ! A16   A(3,4,22)             105.0695         estimate D2E/DX2                !
 ! A17   A(5,4,13)             118.1385         estimate D2E/DX2                !
 ! A18   A(5,4,22)             106.0938         estimate D2E/DX2                !
 ! A19   A(13,4,22)            104.3927         estimate D2E/DX2                !
 ! A20   A(4,5,6)              114.1414         estimate D2E/DX2                !
 ! A21   A(4,5,23)             109.5138         estimate D2E/DX2                !
 ! A22   A(4,5,24)             111.0609         estimate D2E/DX2                !
 ! A23   A(6,5,23)             110.3077         estimate D2E/DX2                !
 ! A24   A(6,5,24)             108.0873         estimate D2E/DX2                !
 ! A25   A(23,5,24)            103.1654         estimate D2E/DX2                !
 ! A26   A(5,6,7)              108.9047         estimate D2E/DX2                !
 ! A27   A(5,6,25)             112.2796         estimate D2E/DX2                !
 ! A28   A(5,6,26)             109.8085         estimate D2E/DX2                !
 ! A29   A(7,6,25)             108.1515         estimate D2E/DX2                !
 ! A30   A(7,6,26)             111.1607         estimate D2E/DX2                !
 ! A31   A(25,6,26)            106.5309         estimate D2E/DX2                !
 ! A32   A(6,7,8)              109.9562         estimate D2E/DX2                !
 ! A33   A(6,7,27)             109.9702         estimate D2E/DX2                !
 ! A34   A(6,7,28)             109.9255         estimate D2E/DX2                !
 ! A35   A(8,7,27)             110.5288         estimate D2E/DX2                !
 ! A36   A(8,7,28)             109.33           estimate D2E/DX2                !
 ! A37   A(27,7,28)            107.0839         estimate D2E/DX2                !
 ! A38   A(7,8,9)              110.281          estimate D2E/DX2                !
 ! A39   A(7,8,29)             109.7336         estimate D2E/DX2                !
 ! A40   A(7,8,30)             109.5255         estimate D2E/DX2                !
 ! A41   A(9,8,29)             109.9325         estimate D2E/DX2                !
 ! A42   A(9,8,30)             110.068          estimate D2E/DX2                !
 ! A43   A(29,8,30)            107.2475         estimate D2E/DX2                !
 ! A44   A(8,9,10)             109.3977         estimate D2E/DX2                !
 ! A45   A(8,9,31)             109.6698         estimate D2E/DX2                !
 ! A46   A(8,9,32)             109.749          estimate D2E/DX2                !
 ! A47   A(10,9,31)            110.2292         estimate D2E/DX2                !
 ! A48   A(10,9,32)            110.508          estimate D2E/DX2                !
 ! A49   A(31,9,32)            107.2603         estimate D2E/DX2                !
 ! A50   A(9,10,11)            109.6704         estimate D2E/DX2                !
 ! A51   A(9,10,33)            109.4801         estimate D2E/DX2                !
 ! A52   A(9,10,34)            109.8563         estimate D2E/DX2                !
 ! A53   A(11,10,33)           109.2264         estimate D2E/DX2                !
 ! A54   A(11,10,34)           110.5914         estimate D2E/DX2                !
 ! A55   A(33,10,34)           107.9862         estimate D2E/DX2                !
 ! A56   A(10,11,12)           104.1279         estimate D2E/DX2                !
 ! A57   A(10,11,35)           109.614          estimate D2E/DX2                !
 ! A58   A(12,11,35)           102.6187         estimate D2E/DX2                !
 ! A59   A(11,12,36)           101.7354         estimate D2E/DX2                !
 ! A60   A(4,13,14)            115.6003         estimate D2E/DX2                !
 ! A61   A(13,14,15)           111.4011         estimate D2E/DX2                !
 ! A62   A(13,14,37)            99.2551         estimate D2E/DX2                !
 ! A63   A(15,14,37)           107.865          estimate D2E/DX2                !
 ! A64   A(14,15,16)           117.1046         estimate D2E/DX2                !
 ! A65   A(14,15,38)           105.8623         estimate D2E/DX2                !
 ! A66   A(14,15,39)           109.0467         estimate D2E/DX2                !
 ! A67   A(16,15,38)           110.8453         estimate D2E/DX2                !
 ! A68   A(16,15,39)           110.0145         estimate D2E/DX2                !
 ! A69   A(38,15,39)           102.9724         estimate D2E/DX2                !
 ! A70   A(2,16,15)            112.2287         estimate D2E/DX2                !
 ! A71   A(2,16,17)            111.8406         estimate D2E/DX2                !
 ! A72   A(2,16,40)            110.0442         estimate D2E/DX2                !
 ! A73   A(15,16,17)           106.861          estimate D2E/DX2                !
 ! A74   A(15,16,40)           109.3138         estimate D2E/DX2                !
 ! A75   A(17,16,40)           106.3256         estimate D2E/DX2                !
 ! D1    D(18,1,2,3)            49.635          estimate D2E/DX2                !
 ! D2    D(18,1,2,16)          174.3458         estimate D2E/DX2                !
 ! D3    D(18,1,2,21)          -64.7587         estimate D2E/DX2                !
 ! D4    D(19,1,2,3)           -69.4356         estimate D2E/DX2                !
 ! D5    D(19,1,2,16)           55.2752         estimate D2E/DX2                !
 ! D6    D(19,1,2,21)          176.1707         estimate D2E/DX2                !
 ! D7    D(20,1,2,3)           168.966          estimate D2E/DX2                !
 ! D8    D(20,1,2,16)          -66.3231         estimate D2E/DX2                !
 ! D9    D(20,1,2,21)           54.5723         estimate D2E/DX2                !
 ! D10   D(1,2,3,4)           -179.5423         estimate D2E/DX2                !
 ! D11   D(16,2,3,4)            56.599          estimate D2E/DX2                !
 ! D12   D(21,2,3,4)           -66.7064         estimate D2E/DX2                !
 ! D13   D(1,2,16,15)          166.8018         estimate D2E/DX2                !
 ! D14   D(1,2,16,17)           46.7116         estimate D2E/DX2                !
 ! D15   D(1,2,16,40)          -71.2308         estimate D2E/DX2                !
 ! D16   D(3,2,16,15)          -73.2228         estimate D2E/DX2                !
 ! D17   D(3,2,16,17)          166.6871         estimate D2E/DX2                !
 ! D18   D(3,2,16,40)           48.7446         estimate D2E/DX2                !
 ! D19   D(21,2,16,15)          48.687          estimate D2E/DX2                !
 ! D20   D(21,2,16,17)         -71.4032         estimate D2E/DX2                !
 ! D21   D(21,2,16,40)         170.6544         estimate D2E/DX2                !
 ! D22   D(2,3,4,5)             61.8709         estimate D2E/DX2                !
 ! D23   D(2,3,4,13)           -71.5715         estimate D2E/DX2                !
 ! D24   D(2,3,4,22)           176.7272         estimate D2E/DX2                !
 ! D25   D(3,4,5,6)           -178.5722         estimate D2E/DX2                !
 ! D26   D(3,4,5,23)            57.2103         estimate D2E/DX2                !
 ! D27   D(3,4,5,24)           -56.0812         estimate D2E/DX2                !
 ! D28   D(13,4,5,6)           -49.3982         estimate D2E/DX2                !
 ! D29   D(13,4,5,23)         -173.6157         estimate D2E/DX2                !
 ! D30   D(13,4,5,24)           73.0928         estimate D2E/DX2                !
 ! D31   D(22,4,5,6)            67.197          estimate D2E/DX2                !
 ! D32   D(22,4,5,23)          -57.0206         estimate D2E/DX2                !
 ! D33   D(22,4,5,24)         -170.312          estimate D2E/DX2                !
 ! D34   D(3,4,13,14)           99.5552         estimate D2E/DX2                !
 ! D35   D(5,4,13,14)          -30.7984         estimate D2E/DX2                !
 ! D36   D(22,4,13,14)        -148.3014         estimate D2E/DX2                !
 ! D37   D(4,5,6,7)            161.4172         estimate D2E/DX2                !
 ! D38   D(4,5,6,25)            41.67           estimate D2E/DX2                !
 ! D39   D(4,5,6,26)           -76.6504         estimate D2E/DX2                !
 ! D40   D(23,5,6,7)           -74.7915         estimate D2E/DX2                !
 ! D41   D(23,5,6,25)          165.4612         estimate D2E/DX2                !
 ! D42   D(23,5,6,26)           47.1408         estimate D2E/DX2                !
 ! D43   D(24,5,6,7)            37.3161         estimate D2E/DX2                !
 ! D44   D(24,5,6,25)          -82.4311         estimate D2E/DX2                !
 ! D45   D(24,5,6,26)          159.2485         estimate D2E/DX2                !
 ! D46   D(5,6,7,8)            178.2861         estimate D2E/DX2                !
 ! D47   D(5,6,7,27)            56.3553         estimate D2E/DX2                !
 ! D48   D(5,6,7,28)           -61.3028         estimate D2E/DX2                !
 ! D49   D(25,6,7,8)           -59.4373         estimate D2E/DX2                !
 ! D50   D(25,6,7,27)          178.6319         estimate D2E/DX2                !
 ! D51   D(25,6,7,28)           60.9739         estimate D2E/DX2                !
 ! D52   D(26,6,7,8)            57.1774         estimate D2E/DX2                !
 ! D53   D(26,6,7,27)          -64.7534         estimate D2E/DX2                !
 ! D54   D(26,6,7,28)          177.5886         estimate D2E/DX2                !
 ! D55   D(6,7,8,9)           -177.6668         estimate D2E/DX2                !
 ! D56   D(6,7,8,29)            61.0896         estimate D2E/DX2                !
 ! D57   D(6,7,8,30)           -56.3896         estimate D2E/DX2                !
 ! D58   D(27,7,8,9)           -56.0688         estimate D2E/DX2                !
 ! D59   D(27,7,8,29)         -177.3125         estimate D2E/DX2                !
 ! D60   D(27,7,8,30)           65.2084         estimate D2E/DX2                !
 ! D61   D(28,7,8,9)            61.5628         estimate D2E/DX2                !
 ! D62   D(28,7,8,29)          -59.6809         estimate D2E/DX2                !
 ! D63   D(28,7,8,30)         -177.16           estimate D2E/DX2                !
 ! D64   D(7,8,9,10)           178.2155         estimate D2E/DX2                !
 ! D65   D(7,8,9,31)            57.207          estimate D2E/DX2                !
 ! D66   D(7,8,9,32)           -60.382          estimate D2E/DX2                !
 ! D67   D(29,8,9,10)          -60.6593         estimate D2E/DX2                !
 ! D68   D(29,8,9,31)          178.3321         estimate D2E/DX2                !
 ! D69   D(29,8,9,32)           60.7431         estimate D2E/DX2                !
 ! D70   D(30,8,9,10)           57.2618         estimate D2E/DX2                !
 ! D71   D(30,8,9,31)          -63.7467         estimate D2E/DX2                !
 ! D72   D(30,8,9,32)          178.6643         estimate D2E/DX2                !
 ! D73   D(8,9,10,11)          178.3134         estimate D2E/DX2                !
 ! D74   D(8,9,10,33)           58.4858         estimate D2E/DX2                !
 ! D75   D(8,9,10,34)          -59.9376         estimate D2E/DX2                !
 ! D76   D(31,9,10,11)         -61.0182         estimate D2E/DX2                !
 ! D77   D(31,9,10,33)         179.1543         estimate D2E/DX2                !
 ! D78   D(31,9,10,34)          60.7308         estimate D2E/DX2                !
 ! D79   D(32,9,10,11)          57.3708         estimate D2E/DX2                !
 ! D80   D(32,9,10,33)         -62.4568         estimate D2E/DX2                !
 ! D81   D(32,9,10,34)         179.1198         estimate D2E/DX2                !
 ! D82   D(9,10,11,12)         174.1687         estimate D2E/DX2                !
 ! D83   D(9,10,11,35)          64.9698         estimate D2E/DX2                !
 ! D84   D(33,10,11,12)        -65.8488         estimate D2E/DX2                !
 ! D85   D(33,10,11,35)       -175.0477         estimate D2E/DX2                !
 ! D86   D(34,10,11,12)         52.8611         estimate D2E/DX2                !
 ! D87   D(34,10,11,35)        -56.3377         estimate D2E/DX2                !
 ! D88   D(10,11,12,36)         86.8907         estimate D2E/DX2                !
 ! D89   D(35,11,12,36)       -158.8374         estimate D2E/DX2                !
 ! D90   D(4,13,14,15)         -58.6883         estimate D2E/DX2                !
 ! D91   D(4,13,14,37)        -172.1231         estimate D2E/DX2                !
 ! D92   D(13,14,15,16)        -23.5974         estimate D2E/DX2                !
 ! D93   D(13,14,15,38)       -147.7229         estimate D2E/DX2                !
 ! D94   D(13,14,15,39)        102.0964         estimate D2E/DX2                !
 ! D95   D(37,14,15,16)         84.3301         estimate D2E/DX2                !
 ! D96   D(37,14,15,38)        -39.7953         estimate D2E/DX2                !
 ! D97   D(37,14,15,39)       -149.976          estimate D2E/DX2                !
 ! D98   D(14,15,16,2)          79.8183         estimate D2E/DX2                !
 ! D99   D(14,15,16,17)       -157.2384         estimate D2E/DX2                !
 ! D100  D(14,15,16,40)        -42.5643         estimate D2E/DX2                !
 ! D101  D(38,15,16,2)        -158.6183         estimate D2E/DX2                !
 ! D102  D(38,15,16,17)        -35.675          estimate D2E/DX2                !
 ! D103  D(38,15,16,40)         78.9991         estimate D2E/DX2                !
 ! D104  D(39,15,16,2)         -45.3934         estimate D2E/DX2                !
 ! D105  D(39,15,16,17)         77.5498         estimate D2E/DX2                !
 ! D106  D(39,15,16,40)       -167.776          estimate D2E/DX2                !
 --------------------------------------------------------------------------------
 Trust Radius=3.00D-01 FncErr=1.00D-07 GrdErr=1.00D-06 EigMax=2.50D+02 EigMin=1.00D-04
 Number of steps in this run=    231 maximum allowed number of steps=    240.
 GradGradGradGradGradGradGradGradGradGradGradGradGradGradGradGradGradGrad

                          Input orientation:                          
 ---------------------------------------------------------------------
 Center     Atomic      Atomic             Coordinates (Angstroms)
 Number     Number       Type             X           Y           Z
 ---------------------------------------------------------------------
      1          6           0        0.942950   -0.150840   -0.085940
      2          6           0        2.461950    0.033780   -0.088860
      3          8           0        3.002150   -1.236220   -0.487570
      4          6           0        4.431760   -1.311540   -0.553710
      5          6           0        5.089940   -1.062910    0.808650
      6          6           0        6.608750   -1.098990    0.780910
      7          6           0        7.141530   -0.402900    2.025760
      8          6           0        8.655510   -0.462180    2.043450
      9          6           0        9.193500    0.180590    3.312630
     10          6           0       10.708540    0.070950    3.330580
     11          7           0       11.234030    0.721380    4.526770
     12          8           0       12.658070    0.424660    4.495830
     13          8           0        4.904330   -0.558690   -1.681670
     14          7           0        5.408390    0.779290   -1.381210
     15          6           0        4.380890    1.606790   -0.738700
     16          6           0        2.915530    1.219460   -0.985320
     17         17           0        1.927750    2.697680   -0.692090
     18          1           0        0.660900   -1.050740    0.471290
     19          1           0        0.559080   -0.266720   -1.104500
     20          1           0        0.439840    0.696280    0.389020
     21          1           0        2.743440    0.209960    0.954810
     22          1           0        4.650820   -2.355370   -0.811380
     23          1           0        4.705090   -1.785800    1.539050
     24          1           0        4.781870   -0.103460    1.223070
     25          1           0        7.019730   -0.590500   -0.096120
     26          1           0        6.954320   -2.136500    0.729830
     27          1           0        6.727820   -0.874750    2.924560
     28          1           0        6.818490    0.647450    2.034740
     29          1           0        9.056940    0.055340    1.162810
     30          1           0        8.982010   -1.506970    1.983380
     31          1           0        8.766430   -0.320760    4.190140
     32          1           0        8.883600    1.232510    3.355660
     33          1           0       11.121130    0.562190    2.441820
     34          1           0       11.005970   -0.984140    3.303080
     35          1           0       10.918880    0.217080    5.358040
     36          1           0       12.999700    1.151720    3.948210
     37          1           0        5.537960    1.124730   -2.336210
     38          1           0        4.573720    2.634000   -1.069040
     39          1           0        4.580590    1.653020    0.338080
     40          1           0        2.781200    0.963940   -2.042260
 ---------------------------------------------------------------------
                    Distance matrix (angstroms):
                    1          2          3          4          5
     1  C    0.000000
     2  C    1.530181   0.000000
     3  O    2.362131   1.436553   0.000000
     4  C    3.706458   2.430252   1.433120   0.000000
     5  C    4.339319   2.985730   2.463552   1.533311   0.000000
     6  C    5.809622   4.385843   3.825629   2.562357   1.519492
     7  C    6.553259   5.153715   4.913829   3.849954   2.475074
     8  C    8.007173   6.569087   6.242250   5.030578   3.820850
     9  C    8.929261   7.543570   7.401465   6.312623   4.965422
    10  C   10.348360   8.927497   8.699161   7.509791   6.262143
    11  N   11.311242   9.936107   9.835632   8.730116   7.399861
    12  O   12.592373  11.186288  10.992251   9.807366   8.548962
    13  O    4.290131   2.975447   2.345892   1.436106   2.547623
    14  N    4.741626   3.302645   3.263566   2.451557   2.879340
    15  C    3.915966   2.564953   3.169652   2.924630   3.166124
    16  C    2.564698   1.554095   2.507114   2.981812   3.627065
    17  Cl   3.074299   2.783095   4.083103   4.728960   5.137480
    18  H    1.095389   2.175714   2.536783   3.916379   4.441886
    19  H    1.094646   2.177783   2.699838   4.048786   4.982244
    20  H    1.093764   2.180872   3.326920   4.566783   4.989416
    21  H    2.110711   1.095227   2.058841   2.727823   2.673504
    22  H    4.374302   3.319823   2.018777   1.097252   2.118437
    23  H    4.412186   3.315515   2.703559   2.163163   1.097344
    24  H    4.056237   2.668712   2.716033   2.176920   1.089585
    25  H    6.092673   4.600341   4.087926   2.725230   2.183087
    26  H    6.383173   5.055864   4.232282   2.948108   2.152840
    27  H    6.561393   5.301299   5.064969   4.190589   2.682374
    28  H    6.297342   4.885254   4.947192   4.029168   2.723328
    29  H    8.212108   6.712752   6.407212   5.119286   4.136786
    30  H    8.411163   7.012793   6.475927   5.213424   4.089669
    31  H    8.917431   7.627713   7.479703   6.501932   5.049935
    32  H    8.764256   7.385070   7.446912   6.447809   5.113518
    33  H   10.511581   9.036867   8.816657   7.565166   6.456272
    34  H   10.651020   9.248875   8.859667   7.629040   6.420888
    35  H   11.370640  10.060914   9.947756   8.908883   7.504123
    36  H   12.780307  11.339837  11.195062   9.987218   8.793505
    37  H    5.273036   3.962650   3.927071   3.215027   3.857024
    38  H    4.680204   3.490196   4.217409   3.981583   4.178438
    39  H    4.082417   2.700528   3.394242   3.099364   2.803061
    40  H    2.906731   2.186982   2.703069   3.180871   4.191192
                    6          7          8          9         10
     6  C    0.000000
     7  C    1.522513   0.000000
     8  C    2.487722   1.515243   0.000000
     9  C    3.837690   2.491400   1.520988   0.000000
    10  C    4.967681   3.827617   2.481101   1.519108   0.000000
    11  N    6.224020   4.926217   3.770472   2.435231   1.459476
    12  O    7.260607   6.100682   4.777148   3.669166   2.298605
    13  O    3.043234   4.332940   5.287455   6.624692   7.694670
    14  N    3.105409   4.001099   4.879891   6.059508   7.127012
    15  C    3.820186   4.393430   5.503941   6.450468   7.678346
    16  C    4.704748   5.436702   6.704381   7.678837   8.982042
    17  Cl   6.204530   6.647090   7.920268   8.669755  10.009189
    18  H    5.956099   6.695867   8.168958   9.077150  10.506607
    19  H    6.391084   7.290111   8.689072   9.708982  11.081313
    20  H    6.436771   6.985683   8.460284   9.243376  10.700001
    21  H    4.084631   4.567902   6.048924   6.867565   8.313027
    22  H    2.819108   4.250310   5.269892   6.638862   7.729090
    23  H    2.161112   2.843508   4.196690   5.211343   6.534410
    24  H    2.126988   2.510373   3.975775   4.889726   6.292649
    25  H    1.093914   2.133636   2.696294   4.115754   5.078101
    26  H    1.094740   2.172522   2.724517   4.129611   5.072564
    27  H    2.158633   1.096193   2.159296   2.709967   4.111609
    28  H    2.160123   1.098941   2.146159   2.737085   4.140537
    29  H    2.733489   2.150224   1.097497   2.157791   2.725299
    30  H    2.691606   2.146656   1.096265   2.158586   2.699201
    31  H    4.109023   2.707690   2.154201   1.097162   2.159646
    32  H    4.152129   2.734595   2.155434   1.097463   2.163390
    33  H    5.087211   4.116032   2.699503   2.149345   1.096103
    34  H    5.070510   4.111360   2.717310   2.154469   1.096556
    35  H    6.423346   5.075120   4.070718   2.676186   2.043573
    36  H    7.479420   6.358523   5.010466   3.979223   2.607479
    37  H    3.975922   4.892021   5.605250   6.794392   7.743246
    38  H    4.636688   5.039266   5.994575   6.823534   7.972572
    39  H    3.447186   3.692355   4.897686   5.682863   7.000698
    40  H    5.184217   6.117967   7.296188   8.390833   9.618085
                   11         12         13         14         15
    11  N    0.000000
    12  O    1.454954   0.000000
    13  O    8.958148   9.962378   0.000000
    14  N    8.297329   9.339337   1.461008   0.000000
    15  C    8.687615   9.864555   2.419191   1.467423   0.000000
    16  C    9.991429  11.206775   2.757181   2.562192   1.535619
    17  Cl  10.851226  12.133462   4.521420   4.033604   2.685165
    18  H   11.462042  12.739930   4.783727   5.414742   4.729151
    19  H   12.109587  13.350178   4.393128   4.968552   4.272011
    20  H   11.560110  12.892820   5.078817   5.275139   4.199126
    21  H    9.225539  10.530186   3.494466   3.589301   2.738677
    22  H    9.016701  10.000555   2.012394   3.274861   3.972009
    23  H    7.605227   8.768043   3.452323   3.949967   4.099136
    24  H    7.295558   8.545431   2.942745   2.820292   2.633302
    25  H    6.391593   7.342168   2.643841   2.474712   3.493490
    26  H    6.395322   7.298977   3.536563   3.917681   4.774028
    27  H    5.041888   6.270982   4.964108   4.797541   5.008552
    28  H    5.070766   6.340922   4.350918   3.697902   3.814996
    29  H    4.061965   4.920727   5.070727   4.506446   5.280926
    30  H    4.062754   4.853557   5.564108   5.414629   6.186722
    31  H    2.699708   3.974161   7.032111   6.597460   6.873272
    32  H    2.675308   4.024827   6.664659   5.892404   6.097398
    33  H    2.094064   2.569057   7.543749   6.877361   7.525804
    34  H    2.111451   2.477257   7.890421   7.509005   8.181723
    35  H    1.022080   1.952249   9.291617   8.723478   9.046925
    36  H    1.907227   0.972222  10.007800   9.282748   9.821308
    37  H    8.927956   9.892565   1.914109   1.023788   2.030574
    38  H    8.906791  10.060103   3.267704   2.057686   1.096115
    39  H    7.917155   9.167412   3.012617   2.098717   1.096117
    40  H   10.708003  11.857066   2.637444   2.715366   2.161373
                   16         17         18         19         20
    16  C    0.000000
    17  Cl   1.801896   0.000000
    18  H    3.515519   4.124199   0.000000
    19  H    2.788511   3.291050   1.763000   0.000000
    20  H    2.879508   2.718139   1.762871   1.781064   0.000000
    21  H    2.193812   3.092957   2.481961   3.039640   2.421404
    22  H    3.977549   5.741311   4.389392   4.603337   5.337217
    23  H    4.313532   5.726534   4.246869   5.146393   5.067114
    24  H    3.179674   4.433985   4.294753   4.824541   4.493156
    25  H    4.572864   6.090613   6.400664   6.546882   6.722062
    26  H    5.524132   7.117412   6.391624   6.910857   7.111909
    27  H    5.848627   6.991644   6.546528   7.392995   6.959583
    28  H    4.968003   5.963085   6.576028   7.061922   6.587712
    29  H    6.609581   7.826108   8.496770   8.801025   8.675481
    30  H    7.283459   8.637118   8.469677   9.056433   8.964651
    31  H    7.961827   8.928309   8.947756   9.767125   9.209505
    32  H    7.379847   8.180150   9.008086   9.562340   8.965800
    33  H    8.916791   9.944845  10.765730  11.172304  10.877588
    34  H    9.418145  10.579757  10.725854  11.361292  11.088673
    35  H   10.261413  11.117458  11.433016  12.219818  11.607371
    36  H   11.226522  12.104150  13.007144  13.502254  13.062364
    37  H    2.951443   4.267425   6.033278   5.314366   5.796661
    38  H    2.181175   2.673444   5.591072   4.953056   4.792667
    39  H    2.170665   3.031522   4.763616   4.683907   4.250148
    40  H    1.095654   2.357369   3.856493   2.707718   3.385961
                   21         22         23         24         25
    21  H    0.000000
    22  H    3.652183   0.000000
    23  H    2.858752   2.419065   0.000000
    24  H    2.079758   3.037640   1.713478   0.000000
    25  H    4.475695   3.039424   3.075725   2.643007   0.000000
    26  H    4.825764   2.780170   2.415960   3.015970   1.754020
    27  H    4.575128   4.523650   2.615547   2.697532   3.048035
    28  H    4.238358   4.670773   3.260809   2.317433   2.472566
    29  H    6.318817   5.396558   4.740248   4.278443   2.480371
    30  H    6.551760   5.223952   4.308970   4.493227   3.002462
    31  H    6.857509   6.789189   5.066468   4.972670   4.636350
    32  H    6.671676   6.939275   5.465365   4.812166   4.325756
    33  H    8.515924   7.807713   6.891562   6.489581   4.958963
    34  H    8.672350   7.693958   6.592082   6.621288   5.253534
    35  H    9.285812   9.163396   7.563557   7.406998   6.753030
    36  H   10.725587  10.230209   9.123247   8.748405   7.426438
    37  H    4.413271   3.901694   4.917570   3.840390   3.186795
    38  H    3.649913   4.996613   5.133617   3.576420   4.162564
    39  H    2.416174   4.170537   3.644628   1.977105   3.342352
    40  H    3.090686   4.003544   4.907974   3.975475   4.916186
                   26         27         28         29         30
    26  H    0.000000
    27  H    2.541684   0.000000
    28  H    3.077599   1.765529   0.000000
    29  H    3.068003   3.064903   2.474169   0.000000
    30  H    2.465608   2.523271   3.053683   1.766285   0.000000
    31  H    4.307482   2.462626   3.062295   3.064404   2.514629
    32  H    4.686932   3.045288   2.520279   2.494868   3.065548
    33  H    5.251299   4.647473   4.322695   2.480654   3.011216
    34  H    4.936134   4.296255   4.669664   3.075710   2.472119
    35  H    6.532794   4.967786   5.295540   4.592705   4.255836
    36  H    7.597169   6.670151   6.490224   4.950339   5.202982
    37  H    4.694923   5.752338   4.579602   5.076412   6.119329
    38  H    5.626798   5.735880   4.314953   5.632930   6.774800
    39  H    4.488711   4.205960   2.982955   4.823948   5.662601
    40  H    5.891701   6.604990   5.746460   7.105135   7.794948
                   31         32         33         34         35
    31  H    0.000000
    32  H    1.767126   0.000000
    33  H    3.062815   2.508181   0.000000
    34  H    2.498497   3.069325   1.773744   0.000000
    35  H    2.507250   3.030345   2.943526   2.381885   0.000000
    36  H    4.488575   4.159317   2.479069   2.992165   2.681601
    37  H    7.423322   6.603204   7.370062   8.133146   9.432900
    38  H    7.346319   6.333815   7.712789   8.577891   9.349327
    39  H    6.021248   5.272429   6.956601   7.551910   8.211933
    40  H    8.735917   8.151623   9.477490  10.000726  11.024703
                   36         37         38         39         40
    36  H    0.000000
    37  H    9.755625   0.000000
    38  H    9.918018   2.193940   0.000000
    39  H    9.174190   2.889200   1.715330   0.000000
    40  H   11.846465   2.777046   2.636169   3.062459   0.000000
 Stoichiometry    C11H23ClN2O3
 Framework group  C1[X(C11H23ClN2O3)]
 Deg. of freedom   114
 Full point group                 C1      NOp   1
 Largest Abelian subgroup         C1      NOp   1
 Largest concise Abelian subgroup C1      NOp   1
                         Standard orientation:                         
 ---------------------------------------------------------------------
 Center     Atomic      Atomic             Coordinates (Angstroms)
 Number     Number       Type             X           Y           Z
 ---------------------------------------------------------------------
      1          6           0        4.667222   -0.510736   -1.565285
      2          6           0        3.342447   -0.334625   -0.820027
      3          8           0        2.969659   -1.651504   -0.383512
      4          6           0        1.736139   -1.741432    0.340486
      5          6           0        0.534446   -1.298436   -0.502563
      6          6           0       -0.793067   -1.344277    0.235314
      7          6           0       -1.799769   -0.475380   -0.506048
      8          6           0       -3.145835   -0.537492    0.186924
      9          6           0       -4.172035    0.282206   -0.580156
     10          6           0       -5.522473    0.170313    0.106493
     11          7           0       -6.502964    0.986940   -0.601904
     12          8           0       -7.762643    0.683187    0.059784
     13          8           0        1.897735   -1.163944    1.645398
     14          7           0        1.400989    0.201595    1.797351
     15          6           0        2.059767    1.118444    0.859945
     16          6           0        3.440830    0.705022    0.330914
     17         17           0        4.271075    2.214203   -0.198138
     18          1           0        4.595439   -1.318102   -2.302092
     19          1           0        5.474929   -0.773122   -0.874624
     20          1           0        4.943770    0.398861   -2.106093
     21          1           0        2.617149   -0.008500   -1.573094
     22          1           0        1.595111   -2.812625    0.531844
     23          1           0        0.483770   -1.904912   -1.415681
     24          1           0        0.674912   -0.287378   -0.883650
     25          1           0       -0.710842   -0.971482    1.260453
     26          1           0       -1.141914   -2.379445    0.307350
     27          1           0       -1.887374   -0.808730   -1.546645
     28          1           0       -1.450205    0.566227   -0.529065
     29          1           0       -3.052910   -0.156255    1.211875
     30          1           0       -3.474148   -1.581102    0.256819
     31          1           0       -4.239839   -0.083392   -1.612389
     32          1           0       -3.849895    1.330305   -0.626418
     33          1           0       -5.437307    0.524319    1.140353
     34          1           0       -5.841109   -0.878596    0.132910
     35          1           0       -6.647907    0.611198   -1.541296
     36          1           0       -7.759235    1.320751    0.793756
     37          1           0        1.756936    0.402802    2.735946
     38          1           0        2.112255    2.085358    1.373549
     39          1           0        1.382463    1.321204    0.022317
     40          1           0        4.037466    0.297880    1.154757
 ---------------------------------------------------------------------
 Rotational constants (GHZ):           0.8379688           0.1167618           0.1114158
 Standard basis: 6-31G(2df,p) (6D, 7F)
 There are   646 symmetry adapted cartesian basis functions of A   symmetry.
 There are   595 symmetry adapted basis functions of A   symmetry.
   595 basis functions,   933 primitive gaussians,   646 cartesian basis functions
    72 alpha electrons       72 beta electrons
       nuclear repulsion energy      1396.6136098645 Hartrees.
 NAtoms=   40 NActive=   40 NUniq=   40 SFac= 1.00D+00 NAtFMM=   60 NAOKFM=F Big=F
 Integral buffers will be    131072 words long.
 Raffenetti 2 integral format.
 Two-electron integral symmetry is turned on.
 One-electron integrals computed using PRISM.
 PrsmSu:  requested number of processors reduced to:  12 ShMem   1 Linda.
 NBasis=   595 RedAO= T EigKep=  3.69D-04  NBF=   595
 NBsUse=   595 1.00D-06 EigRej= -1.00D+00 NBFU=   595
 ExpMin= 1.43D-01 ExpMax= 2.52D+04 ExpMxC= 3.78D+03 IAcc=3 IRadAn=         5 AccDes= 0.00D+00
 Harris functional with IExCor=  402 and IRadAn=       5 diagonalized for initial guess.
 HarFok:  IExCor=  402 AccDes= 0.00D+00 IRadAn=         5 IDoV= 1 UseB2=F ITyADJ=14
 ICtDFT=  3500011 ScaDFX=  1.000000  1.000000  1.000000  1.000000
 FoFCou: FMM=F IPFlag=           0 FMFlag=      100000 FMFlg1=           0
         NFxFlg=           0 DoJE=T BraDBF=F KetDBF=T FulRan=T
         wScrn=  0.000000 ICntrl=       500 IOpCl=  0 I1Cent=   200000004 NGrid=           0
         NMat0=    1 NMatS0=      1 NMatT0=    0 NMatD0=    1 NMtDS0=    0 NMtDT0=    0
 Petite list used in FoFCou.
 Requested convergence on RMS density matrix=1.00D-08 within 128 cycles.
 Requested convergence on MAX density matrix=1.00D-06.
 Requested convergence on             energy=1.00D-06.
 No special actions if energy rises.
 Integral accuracy reduced to 1.0D-05 until final iterations.
 Initial convergence to 1.0D-05 achieved.  Increase integral accuracy.
 SCF Done:  E(RB3LYP) =  -1228.30791361     A.U. after   12 cycles
            NFock= 12  Conv=0.88D-08     -V/T= 2.0056

 **********************************************************************

            Population analysis using the SCF density.

 **********************************************************************

 Orbital symmetries:
       Occupied  (A) (A) (A) (A) (A) (A) (A) (A) (A) (A) (A) (A)
                 (A) (A) (A) (A) (A) (A) (A) (A) (A) (A) (A) (A)
                 (A) (A) (A) (A) (A) (A) (A) (A) (A) (A) (A) (A)
                 (A) (A) (A) (A) (A) (A) (A) (A) (A) (A) (A) (A)
                 (A) (A) (A) (A) (A) (A) (A) (A) (A) (A) (A) (A)
                 (A) (A) (A) (A) (A) (A) (A) (A) (A) (A) (A) (A)
       Virtual   (A) (A) (A) (A) (A) (A) (A) (A) (A) (A) (A) (A)
                 (A) (A) (A) (A) (A) (A) (A) (A) (A) (A) (A) (A)
                 (A) (A) (A) (A) (A) (A) (A) (A) (A) (A) (A) (A)
                 (A) (A) (A) (A) (A) (A) (A) (A) (A) (A) (A) (A)
                 (A) (A) (A) (A) (A) (A) (A) (A) (A) (A) (A) (A)
                 (A) (A) (A) (A) (A) (A) (A) (A) (A) (A) (A) (A)
                 (A) (A) (A) (A) (A) (A) (A) (A) (A) (A) (A) (A)
                 (A) (A) (A) (A) (A) (A) (A) (A) (A) (A) (A) (A)
                 (A) (A) (A) (A) (A) (A) (A) (A) (A) (A) (A) (A)
                 (A) (A) (A) (A) (A) (A) (A) (A) (A) (A) (A) (A)
                 (A) (A) (A) (A) (A) (A) (A) (A) (A) (A) (A) (A)
                 (A) (A) (A) (A) (A) (A) (A) (A) (A) (A) (A) (A)
                 (A) (A) (A) (A) (A) (A) (A) (A) (A) (A) (A) (A)
                 (A) (A) (A) (A) (A) (A) (A) (A) (A) (A) (A) (A)
                 (A) (A) (A) (A) (A) (A) (A) (A) (A) (A) (A) (A)
                 (A) (A) (A) (A) (A) (A) (A) (A) (A) (A) (A) (A)
                 (A) (A) (A) (A) (A) (A) (A) (A) (A) (A) (A) (A)
                 (A) (A) (A) (A) (A) (A) (A) (A) (A) (A) (A) (A)
                 (A) (A) (A) (A) (A) (A) (A) (A) (A) (A) (A) (A)
                 (A) (A) (A) (A) (A) (A) (A) (A) (A) (A) (A) (A)
                 (A) (A) (A) (A) (A) (A) (A) (A) (A) (A) (A) (A)
                 (A) (A) (A) (A) (A) (A) (A) (A) (A) (A) (A) (A)
                 (A) (A) (A) (A) (A) (A) (A) (A) (A) (A) (A) (A)
                 (A) (A) (A) (A) (A) (A) (A) (A) (A) (A) (A) (A)
                 (A) (A) (A) (A) (A) (A) (A) (A) (A) (A) (A) (A)
                 (A) (A) (A) (A) (A) (A) (A) (A) (A) (A) (A) (A)
                 (A) (A) (A) (A) (A) (A) (A) (A) (A) (A) (A) (A)
                 (A) (A) (A) (A) (A) (A) (A) (A) (A) (A) (A) (A)
                 (A) (A) (A) (A) (A) (A) (A) (A) (A) (A) (A) (A)
                 (A) (A) (A) (A) (A) (A) (A) (A) (A) (A) (A) (A)
                 (A) (A) (A) (A) (A) (A) (A) (A) (A) (A) (A) (A)
                 (A) (A) (A) (A) (A) (A) (A) (A) (A) (A) (A) (A)
                 (A) (A) (A) (A) (A) (A) (A) (A) (A) (A) (A) (A)
                 (A) (A) (A) (A) (A) (A) (A) (A) (A) (A) (A) (A)
                 (A) (A) (A) (A) (A) (A) (A) (A) (A) (A) (A) (A)
                 (A) (A) (A) (A) (A) (A) (A) (A) (A) (A) (A) (A)
                 (A) (A) (A) (A) (A) (A) (A) (A) (A) (A) (A) (A)
                 (A) (A) (A) (A) (A) (A) (A) (A) (A) (A) (A) (A)
                 (A) (A) (A) (A) (A) (A) (A) (A) (A) (A) (A) (A)
                 (A) (A) (A) (A) (A) (A) (A) (A) (A) (A) (A) (A)
                 (A) (A) (A) (A) (A) (A) (A) (A) (A) (A) (A) (A)
                 (A) (A) (A) (A) (A) (A) (A) (A) (A) (A) (A) (A)
                 (A) (A) (A) (A) (A) (A) (A) (A) (A) (A) (A) (A)
                 (A) (A) (A) (A) (A) (A) (A)
 The electronic state is 1-A.
 Alpha  occ. eigenvalues -- -101.53539 -19.17300 -19.15030 -19.14935 -14.38137
 Alpha  occ. eigenvalues --  -14.35815 -10.28383 -10.25615 -10.24874 -10.22621
 Alpha  occ. eigenvalues --  -10.19984 -10.18572 -10.17923 -10.17778 -10.17750
 Alpha  occ. eigenvalues --  -10.17602 -10.17486  -9.45711  -7.22013  -7.21146
 Alpha  occ. eigenvalues --   -7.21133  -1.07682  -1.03944  -1.02035  -0.88520
 Alpha  occ. eigenvalues --   -0.84416  -0.83976  -0.81163  -0.77485  -0.75954
 Alpha  occ. eigenvalues --   -0.72637  -0.70412  -0.66109  -0.63493  -0.60564
 Alpha  occ. eigenvalues --   -0.59305  -0.58448  -0.56881  -0.52417  -0.52006
 Alpha  occ. eigenvalues --   -0.49822  -0.48876  -0.48525  -0.47636  -0.47045
 Alpha  occ. eigenvalues --   -0.45800  -0.44424  -0.43489  -0.43083  -0.41689
 Alpha  occ. eigenvalues --   -0.41225  -0.40218  -0.39570  -0.38645  -0.38323
 Alpha  occ. eigenvalues --   -0.37389  -0.36741  -0.36075  -0.35884  -0.34771
 Alpha  occ. eigenvalues --   -0.34060  -0.33634  -0.33171  -0.32913  -0.32343
 Alpha  occ. eigenvalues --   -0.31553  -0.30399  -0.29692  -0.28300  -0.26459
 Alpha  occ. eigenvalues --   -0.22939  -0.22474
 Alpha virt. eigenvalues --    0.01535   0.06550   0.07420   0.07861   0.08101
 Alpha virt. eigenvalues --    0.08318   0.09767   0.10045   0.10824   0.11172
 Alpha virt. eigenvalues --    0.11898   0.12958   0.13604   0.14320   0.14453
 Alpha virt. eigenvalues --    0.15504   0.15858   0.16793   0.16913   0.17146
 Alpha virt. eigenvalues --    0.17533   0.18515   0.19432   0.19842   0.20257
 Alpha virt. eigenvalues --    0.20497   0.20790   0.22007   0.22069   0.22571
 Alpha virt. eigenvalues --    0.22606   0.23702   0.24748   0.25003   0.25469
 Alpha virt. eigenvalues --    0.26141   0.27140   0.30125   0.31536   0.33509
 Alpha virt. eigenvalues --    0.34310   0.39539   0.40705   0.40985   0.41694
 Alpha virt. eigenvalues --    0.42049   0.44146   0.44321   0.44796   0.46256
 Alpha virt. eigenvalues --    0.46766   0.47160   0.48502   0.48811   0.51017
 Alpha virt. eigenvalues --    0.51419   0.51838   0.52331   0.52560   0.53607
 Alpha virt. eigenvalues --    0.54049   0.54400   0.55077   0.56500   0.57019
 Alpha virt. eigenvalues --    0.57241   0.58689   0.59260   0.60128   0.60583
 Alpha virt. eigenvalues --    0.61122   0.62203   0.64029   0.64253   0.65292
 Alpha virt. eigenvalues --    0.65970   0.67159   0.67505   0.68707   0.69243
 Alpha virt. eigenvalues --    0.69806   0.70695   0.71511   0.72106   0.72743
 Alpha virt. eigenvalues --    0.73122   0.73266   0.74055   0.74750   0.75541
 Alpha virt. eigenvalues --    0.75933   0.76420   0.77234   0.77437   0.78739
 Alpha virt. eigenvalues --    0.78855   0.79277   0.80018   0.80525   0.81265
 Alpha virt. eigenvalues --    0.81462   0.82201   0.83093   0.83432   0.83865
 Alpha virt. eigenvalues --    0.85088   0.85458   0.86106   0.86989   0.87135
 Alpha virt. eigenvalues --    0.88783   0.89326   0.89416   0.90265   0.91501
 Alpha virt. eigenvalues --    0.91797   0.92855   0.94655   0.95456   0.95923
 Alpha virt. eigenvalues --    0.97044   0.99216   0.99831   1.00896   1.01753
 Alpha virt. eigenvalues --    1.02234   1.04522   1.06077   1.07881   1.09150
 Alpha virt. eigenvalues --    1.09490   1.11950   1.12631   1.14215   1.16702
 Alpha virt. eigenvalues --    1.17089   1.19082   1.19844   1.20692   1.20871
 Alpha virt. eigenvalues --    1.22354   1.22767   1.23615   1.25105   1.25599
 Alpha virt. eigenvalues --    1.26514   1.26868   1.28528   1.30412   1.32197
 Alpha virt. eigenvalues --    1.33911   1.35453   1.36770   1.37160   1.37914
 Alpha virt. eigenvalues --    1.38440   1.40089   1.40478   1.40761   1.41378
 Alpha virt. eigenvalues --    1.43225   1.44869   1.46172   1.47571   1.48378
 Alpha virt. eigenvalues --    1.49581   1.51000   1.51308   1.52876   1.54788
 Alpha virt. eigenvalues --    1.55384   1.55718   1.56265   1.58375   1.59267
 Alpha virt. eigenvalues --    1.60572   1.62464   1.64127   1.64745   1.65826
 Alpha virt. eigenvalues --    1.66152   1.67553   1.68568   1.69793   1.70235
 Alpha virt. eigenvalues --    1.71753   1.72491   1.73108   1.74489   1.75215
 Alpha virt. eigenvalues --    1.76086   1.77670   1.78237   1.80608   1.81527
 Alpha virt. eigenvalues --    1.82708   1.84077   1.85095   1.86758   1.87318
 Alpha virt. eigenvalues --    1.87898   1.89617   1.90863   1.92223   1.93553
 Alpha virt. eigenvalues --    1.94376   1.94939   1.96003   1.97619   1.98050
 Alpha virt. eigenvalues --    2.01811   2.03080   2.05568   2.06709   2.08042
 Alpha virt. eigenvalues --    2.08618   2.09428   2.09711   2.11804   2.13099
 Alpha virt. eigenvalues --    2.13692   2.14703   2.15081   2.16694   2.17983
 Alpha virt. eigenvalues --    2.19145   2.20023   2.20692   2.22109   2.24662
 Alpha virt. eigenvalues --    2.26489   2.27635   2.29598   2.32111   2.33414
 Alpha virt. eigenvalues --    2.33783   2.36038   2.36948   2.38005   2.38650
 Alpha virt. eigenvalues --    2.40016   2.41710   2.42321   2.44044   2.46772
 Alpha virt. eigenvalues --    2.48114   2.49727   2.51446   2.52924   2.55370
 Alpha virt. eigenvalues --    2.56725   2.56930   2.59121   2.60335   2.61914
 Alpha virt. eigenvalues --    2.64343   2.64650   2.65283   2.68620   2.69311
 Alpha virt. eigenvalues --    2.72430   2.72934   2.73566   2.74130   2.74275
 Alpha virt. eigenvalues --    2.75419   2.75943   2.76252   2.77625   2.78066
 Alpha virt. eigenvalues --    2.79650   2.80745   2.81147   2.81813   2.81957
 Alpha virt. eigenvalues --    2.82448   2.83468   2.85048   2.86471   2.86650
 Alpha virt. eigenvalues --    2.87673   2.88757   2.89145   2.90546   2.91064
 Alpha virt. eigenvalues --    2.93115   2.94131   2.94429   2.95002   2.95413
 Alpha virt. eigenvalues --    2.96238   2.96790   2.97130   2.97577   2.98627
 Alpha virt. eigenvalues --    2.99707   3.01605   3.02246   3.03321   3.06313
 Alpha virt. eigenvalues --    3.07845   3.11756   3.12295   3.15297   3.16440
 Alpha virt. eigenvalues --    3.17204   3.18093   3.20166   3.21667   3.22441
 Alpha virt. eigenvalues --    3.23535   3.24922   3.26140   3.28471   3.29308
 Alpha virt. eigenvalues --    3.29808   3.34317   3.35625   3.36640   3.37725
 Alpha virt. eigenvalues --    3.38705   3.40408   3.41109   3.43083   3.44206
 Alpha virt. eigenvalues --    3.44532   3.48123   3.50354   3.50524   3.52230
 Alpha virt. eigenvalues --    3.52646   3.53236   3.53992   3.55696   3.57213
 Alpha virt. eigenvalues --    3.58861   3.59680   3.60850   3.63378   3.63640
 Alpha virt. eigenvalues --    3.65090   3.65673   3.67392   3.68382   3.69623
 Alpha virt. eigenvalues --    3.70917   3.72233   3.73596   3.74681   3.76574
 Alpha virt. eigenvalues --    3.77054   3.77848   3.78833   3.80675   3.82349
 Alpha virt. eigenvalues --    3.84053   3.85478   3.86935   3.87489   3.89014
 Alpha virt. eigenvalues --    3.90324   3.91312   3.93285   3.94460   3.98922
 Alpha virt. eigenvalues --    4.03022   4.04970   4.05949   4.07871   4.08905
 Alpha virt. eigenvalues --    4.12636   4.13491   4.15843   4.18342   4.19062
 Alpha virt. eigenvalues --    4.22946   4.26226   4.26844   4.27743   4.30595
 Alpha virt. eigenvalues --    4.31833   4.33313   4.34487   4.35683   4.36677
 Alpha virt. eigenvalues --    4.38319   4.39248   4.41034   4.42693   4.42991
 Alpha virt. eigenvalues --    4.43787   4.44919   4.45323   4.46624   4.47074
 Alpha virt. eigenvalues --    4.47426   4.48479   4.48575   4.50513   4.51177
 Alpha virt. eigenvalues --    4.51892   4.54034   4.54843   4.55060   4.56051
 Alpha virt. eigenvalues --    4.57235   4.57690   4.58557   4.59681   4.60343
 Alpha virt. eigenvalues --    4.61388   4.61949   4.62087   4.62867   4.63113
 Alpha virt. eigenvalues --    4.64185   4.64907   4.65817   4.66265   4.67413
 Alpha virt. eigenvalues --    4.67669   4.69322   4.70127   4.70340   4.71071
 Alpha virt. eigenvalues --    4.71914   4.72676   4.73460   4.74190   4.75317
 Alpha virt. eigenvalues --    4.75511   4.76999   4.77965   4.78902   4.79038
 Alpha virt. eigenvalues --    4.80003   4.80545   4.81608   4.82752   4.83441
 Alpha virt. eigenvalues --    4.84173   4.85728   4.86375   4.88092   4.88956
 Alpha virt. eigenvalues --    4.91171   4.92147   4.93080   4.93449   4.95240
 Alpha virt. eigenvalues --    4.95624   4.97117   4.98762   5.00054   5.01605
 Alpha virt. eigenvalues --    5.02679   5.03384   5.08288   5.10419   5.12819
 Alpha virt. eigenvalues --    5.13422   5.15765   5.17267   5.19460   5.22421
 Alpha virt. eigenvalues --    5.24169   5.25299   5.32522   5.33215   5.37021
 Alpha virt. eigenvalues --    5.38137   5.39853   5.40384   5.41712   5.44008
 Alpha virt. eigenvalues --    5.44631   5.46186   5.47796   5.48148   5.48864
 Alpha virt. eigenvalues --    5.51640   5.54179   5.57045   5.58702   5.63148
 Alpha virt. eigenvalues --    5.63742   5.66711   5.77631   5.82932   5.87199
 Alpha virt. eigenvalues --    5.87412   5.93585   5.95254   6.02189   6.02485
 Alpha virt. eigenvalues --    6.03284   6.05597   6.12807   6.17881   6.26523
 Alpha virt. eigenvalues --    6.29115   6.55744   6.96002   7.15676   7.21409
 Alpha virt. eigenvalues --   10.32419  11.12204  11.27527  11.35558  11.45194
 Alpha virt. eigenvalues --   11.57926  11.69951  11.88456  12.03179  12.11156
 Alpha virt. eigenvalues --   12.29162  12.53742  12.70532  12.77213  13.23437
 Alpha virt. eigenvalues --   13.47403  13.66397  15.13706
          Condensed to atoms (all electrons):
               1          2          3          4          5          6
     1  C    5.022143   0.395786  -0.030055   0.003725   0.000198  -0.000013
     2  C    0.395786   4.646152   0.363325  -0.082865  -0.002894  -0.000028
     3  O   -0.030055   0.363325   7.751485   0.379338  -0.044624   0.002233
     4  C    0.003725  -0.082865   0.379338   4.582222   0.357500  -0.027345
     5  C    0.000198  -0.002894  -0.044624   0.357500   5.032756   0.383187
     6  C   -0.000013  -0.000028   0.002233  -0.027345   0.383187   4.870355
     7  C   -0.000000  -0.000006  -0.000039   0.001588  -0.030716   0.420284
     8  C   -0.000000   0.000000   0.000000  -0.000100   0.001624  -0.038395
     9  C   -0.000000  -0.000000  -0.000000   0.000000  -0.000165   0.002090
    10  C    0.000000  -0.000000   0.000000  -0.000000   0.000000  -0.000166
    11  N   -0.000000   0.000000  -0.000000   0.000000  -0.000000   0.000000
    12  O    0.000000  -0.000000   0.000000   0.000000   0.000000  -0.000000
    13  O   -0.000112  -0.003549  -0.062540   0.351434  -0.040305   0.002943
    14  N    0.000008   0.002693   0.002654  -0.070846   0.003541  -0.010736
    15  C    0.003794  -0.011095   0.005421   0.003229  -0.003826   0.000102
    16  C   -0.033652   0.344361  -0.046551  -0.004257   0.000371   0.000183
    17  Cl  -0.010086  -0.039018   0.001556  -0.000081   0.000013  -0.000002
    18  H    0.364461  -0.015468   0.001397   0.000299   0.000001   0.000001
    19  H    0.370090  -0.023548   0.001078   0.000139   0.000016   0.000000
    20  H    0.370937  -0.015627   0.001920  -0.000140   0.000016  -0.000000
    21  H   -0.043901   0.353179  -0.035406  -0.000865   0.001773  -0.000361
    22  H   -0.000336   0.004601  -0.021901   0.352775  -0.043904  -0.003039
    23  H   -0.000057   0.000009   0.000520  -0.011227   0.350422  -0.026406
    24  H   -0.000077   0.002724  -0.004001  -0.028181   0.361142  -0.037146
    25  H    0.000000  -0.000007   0.000046  -0.005925  -0.027171   0.366243
    26  H    0.000000   0.000013  -0.000015  -0.001102  -0.030996   0.357532
    27  H    0.000000  -0.000000  -0.000001   0.000164  -0.001290  -0.036150
    28  H    0.000000  -0.000016  -0.000000   0.000150  -0.006425  -0.030167
    29  H    0.000000   0.000000  -0.000000   0.000010   0.000198  -0.002557
    30  H   -0.000000  -0.000000   0.000000   0.000004   0.000161  -0.003186
    31  H    0.000000   0.000000   0.000000   0.000000   0.000006   0.000167
    32  H   -0.000000   0.000000   0.000000   0.000000   0.000011   0.000153
    33  H   -0.000000  -0.000000   0.000000   0.000000  -0.000000   0.000005
    34  H    0.000000   0.000000  -0.000000   0.000000   0.000000   0.000016
    35  H   -0.000000  -0.000000   0.000000   0.000000   0.000000  -0.000000
    36  H   -0.000000  -0.000000  -0.000000   0.000000  -0.000000  -0.000000
    37  H    0.000009   0.000022  -0.000106   0.003856  -0.000122   0.000290
    38  H   -0.000174   0.002470  -0.000053  -0.000370   0.000294   0.000009
    39  H    0.000263  -0.006416   0.000018   0.000426  -0.006150  -0.000365
    40  H   -0.003786  -0.029986   0.001230   0.001158   0.000238  -0.000003
               7          8          9         10         11         12
     1  C   -0.000000  -0.000000  -0.000000   0.000000  -0.000000   0.000000
     2  C   -0.000006   0.000000  -0.000000  -0.000000   0.000000  -0.000000
     3  O   -0.000039   0.000000  -0.000000   0.000000  -0.000000   0.000000
     4  C    0.001588  -0.000100   0.000000  -0.000000   0.000000   0.000000
     5  C   -0.030716   0.001624  -0.000165   0.000000  -0.000000   0.000000
     6  C    0.420284  -0.038395   0.002090  -0.000166   0.000000  -0.000000
     7  C    4.805714   0.429248  -0.037733   0.000448  -0.000064   0.000001
     8  C    0.429248   4.803966   0.410955  -0.035219   0.001635  -0.000072
     9  C   -0.037733   0.410955   4.912046   0.348829  -0.035681   0.005938
    10  C    0.000448  -0.035219   0.348829   4.865804   0.373075  -0.053010
    11  N   -0.000064   0.001635  -0.035681   0.373075   6.477400   0.203770
    12  O    0.000001  -0.000072   0.005938  -0.053010   0.203770   7.975274
    13  O    0.000161   0.000005   0.000000  -0.000000   0.000000  -0.000000
    14  N   -0.000424  -0.000027  -0.000001  -0.000000  -0.000000  -0.000000
    15  C    0.000022  -0.000003   0.000000  -0.000000  -0.000000  -0.000000
    16  C   -0.000000  -0.000000  -0.000000   0.000000   0.000000  -0.000000
    17  Cl   0.000000  -0.000000   0.000000   0.000000   0.000000  -0.000000
    18  H    0.000000   0.000000   0.000000   0.000000   0.000000   0.000000
    19  H    0.000000  -0.000000   0.000000  -0.000000   0.000000   0.000000
    20  H    0.000000  -0.000000   0.000000  -0.000000   0.000000   0.000000
    21  H    0.000030  -0.000001   0.000000  -0.000000   0.000000  -0.000000
    22  H   -0.000167   0.000007  -0.000000   0.000000  -0.000000   0.000000
    23  H   -0.001125  -0.000030   0.000009   0.000000   0.000000  -0.000000
    24  H   -0.007526   0.000342   0.000009   0.000000   0.000000   0.000000
    25  H   -0.027227  -0.002538   0.000164   0.000009   0.000000   0.000000
    26  H   -0.034277  -0.003048   0.000126   0.000007   0.000000   0.000000
    27  H    0.365634  -0.033204  -0.003682   0.000186   0.000003   0.000000
    28  H    0.361690  -0.029033  -0.002358   0.000175   0.000002   0.000000
    29  H   -0.029950   0.365739  -0.033468  -0.003196   0.000086  -0.000002
    30  H   -0.034356   0.366554  -0.033932  -0.002362   0.000074  -0.000002
    31  H   -0.003480  -0.031670   0.364817  -0.034574  -0.001646   0.000061
    32  H   -0.002255  -0.028722   0.361834  -0.028637   0.002786   0.000033
    33  H    0.000072  -0.006767  -0.019716   0.351177  -0.022854  -0.000032
    34  H    0.000256   0.001859  -0.033742   0.364661  -0.046413   0.008705
    35  H    0.000009  -0.000451   0.001913  -0.061476   0.332655  -0.021825
    36  H   -0.000000  -0.000008  -0.000565  -0.004148  -0.052394   0.302191
    37  H    0.000004  -0.000000   0.000000  -0.000000   0.000000  -0.000000
    38  H   -0.000009   0.000000   0.000000   0.000000   0.000000   0.000000
    39  H    0.000249  -0.000011   0.000000   0.000000  -0.000000   0.000000
    40  H    0.000000  -0.000000   0.000000  -0.000000   0.000000  -0.000000
              13         14         15         16         17         18
     1  C   -0.000112   0.000008   0.003794  -0.033652  -0.010086   0.364461
     2  C   -0.003549   0.002693  -0.011095   0.344361  -0.039018  -0.015468
     3  O   -0.062540   0.002654   0.005421  -0.046551   0.001556   0.001397
     4  C    0.351434  -0.070846   0.003229  -0.004257  -0.000081   0.000299
     5  C   -0.040305   0.003541  -0.003826   0.000371   0.000013   0.000001
     6  C    0.002943  -0.010736   0.000102   0.000183  -0.000002   0.000001
     7  C    0.000161  -0.000424   0.000022  -0.000000   0.000000   0.000000
     8  C    0.000005  -0.000027  -0.000003  -0.000000  -0.000000   0.000000
     9  C    0.000000  -0.000001   0.000000  -0.000000   0.000000   0.000000
    10  C   -0.000000  -0.000000  -0.000000   0.000000   0.000000   0.000000
    11  N    0.000000  -0.000000  -0.000000   0.000000   0.000000   0.000000
    12  O   -0.000000  -0.000000  -0.000000  -0.000000  -0.000000   0.000000
    13  O    7.904314   0.224317  -0.068737   0.018920   0.000176   0.000009
    14  N    0.224317   6.439575   0.357503  -0.051610   0.002721  -0.000000
    15  C   -0.068737   0.357503   4.984746   0.339617  -0.047301  -0.000118
    16  C    0.018920  -0.051610   0.339617   5.018683   0.215418   0.004317
    17  Cl   0.000176   0.002721  -0.047301   0.215418  17.096338   0.000214
    18  H    0.000009  -0.000000  -0.000118   0.004317   0.000214   0.585330
    19  H   -0.000020  -0.000002   0.000111  -0.008182   0.001641  -0.031265
    20  H    0.000004  -0.000002  -0.000030  -0.003604   0.002237  -0.029334
    21  H   -0.000915   0.000240  -0.008539  -0.066573   0.005748  -0.003351
    22  H   -0.023816   0.003704  -0.000706   0.000409   0.000005   0.000003
    23  H    0.002060  -0.000078  -0.000051   0.000223  -0.000002   0.000021
    24  H   -0.002855  -0.000861  -0.001033  -0.002852  -0.000022  -0.000002
    25  H    0.000355   0.013560  -0.000291   0.000147  -0.000001  -0.000000
    26  H   -0.000368   0.000511  -0.000010  -0.000000  -0.000000  -0.000000
    27  H   -0.000004  -0.000004   0.000001  -0.000000   0.000000   0.000000
    28  H   -0.000002   0.000481  -0.000105   0.000022   0.000000  -0.000000
    29  H   -0.000002   0.000012  -0.000001   0.000000   0.000000   0.000000
    30  H    0.000000   0.000000  -0.000000   0.000000  -0.000000   0.000000
    31  H   -0.000000  -0.000000  -0.000000   0.000000   0.000000   0.000000
    32  H    0.000000  -0.000000  -0.000000   0.000000  -0.000000   0.000000
    33  H    0.000000   0.000000   0.000000   0.000000  -0.000000  -0.000000
    34  H   -0.000000  -0.000000   0.000000  -0.000000   0.000000  -0.000000
    35  H    0.000000   0.000000  -0.000000   0.000000  -0.000000   0.000000
    36  H    0.000000  -0.000000   0.000000   0.000000   0.000000   0.000000
    37  H   -0.026337   0.338191  -0.052460  -0.002497  -0.000178   0.000000
    38  H    0.003594  -0.017584   0.353023  -0.017849  -0.004052   0.000002
    39  H   -0.000467  -0.031392   0.367427  -0.050929   0.005282  -0.000007
    40  H    0.004399  -0.000653  -0.043873   0.352553  -0.036268  -0.000146
              19         20         21         22         23         24
     1  C    0.370090   0.370937  -0.043901  -0.000336  -0.000057  -0.000077
     2  C   -0.023548  -0.015627   0.353179   0.004601   0.000009   0.002724
     3  O    0.001078   0.001920  -0.035406  -0.021901   0.000520  -0.004001
     4  C    0.000139  -0.000140  -0.000865   0.352775  -0.011227  -0.028181
     5  C    0.000016   0.000016   0.001773  -0.043904   0.350422   0.361142
     6  C    0.000000  -0.000000  -0.000361  -0.003039  -0.026406  -0.037146
     7  C    0.000000   0.000000   0.000030  -0.000167  -0.001125  -0.007526
     8  C   -0.000000  -0.000000  -0.000001   0.000007  -0.000030   0.000342
     9  C    0.000000   0.000000   0.000000  -0.000000   0.000009   0.000009
    10  C   -0.000000  -0.000000  -0.000000   0.000000   0.000000   0.000000
    11  N    0.000000   0.000000   0.000000  -0.000000   0.000000   0.000000
    12  O    0.000000   0.000000  -0.000000   0.000000  -0.000000   0.000000
    13  O   -0.000020   0.000004  -0.000915  -0.023816   0.002060  -0.002855
    14  N   -0.000002  -0.000002   0.000240   0.003704  -0.000078  -0.000861
    15  C    0.000111  -0.000030  -0.008539  -0.000706  -0.000051  -0.001033
    16  C   -0.008182  -0.003604  -0.066573   0.000409   0.000223  -0.002852
    17  Cl   0.001641   0.002237   0.005748   0.000005  -0.000002  -0.000022
    18  H   -0.031265  -0.029334  -0.003351   0.000003   0.000021  -0.000002
    19  H    0.584068  -0.028497   0.006192  -0.000008   0.000000   0.000001
    20  H   -0.028497   0.562456  -0.000403   0.000004  -0.000000   0.000011
    21  H    0.006192  -0.000403   0.689836  -0.000193   0.000889   0.002986
    22  H   -0.000008   0.000004  -0.000193   0.622523  -0.004665   0.006106
    23  H    0.000000  -0.000000   0.000889  -0.004665   0.619821  -0.041726
    24  H    0.000001   0.000011   0.002986   0.006106  -0.041726   0.631530
    25  H   -0.000000  -0.000000   0.000010  -0.000106   0.005226  -0.001663
    26  H   -0.000000   0.000000  -0.000003   0.002787  -0.008857   0.006297
    27  H    0.000000  -0.000000   0.000010   0.000003   0.003579   0.000043
    28  H   -0.000000   0.000000  -0.000013   0.000006  -0.000286   0.005855
    29  H   -0.000000   0.000000   0.000000   0.000000   0.000003   0.000012
    30  H    0.000000  -0.000000  -0.000000  -0.000001   0.000007   0.000021
    31  H    0.000000   0.000000  -0.000000  -0.000000  -0.000002   0.000002
    32  H    0.000000  -0.000000   0.000000  -0.000000   0.000000  -0.000004
    33  H    0.000000  -0.000000  -0.000000  -0.000000  -0.000000   0.000000
    34  H    0.000000  -0.000000   0.000000  -0.000000   0.000000  -0.000000
    35  H   -0.000000  -0.000000  -0.000000   0.000000  -0.000000   0.000000
    36  H    0.000000   0.000000   0.000000  -0.000000   0.000000  -0.000000
    37  H   -0.000000   0.000000   0.000004  -0.000268   0.000001  -0.000009
    38  H   -0.000000   0.000009  -0.000053   0.000010  -0.000006   0.000159
    39  H    0.000010  -0.000006   0.004959  -0.000008   0.000141   0.006987
    40  H    0.004116   0.000216   0.006364  -0.000050  -0.000000  -0.000034
              25         26         27         28         29         30
     1  C    0.000000   0.000000   0.000000   0.000000   0.000000  -0.000000
     2  C   -0.000007   0.000013  -0.000000  -0.000016   0.000000  -0.000000
     3  O    0.000046  -0.000015  -0.000001  -0.000000  -0.000000   0.000000
     4  C   -0.005925  -0.001102   0.000164   0.000150   0.000010   0.000004
     5  C   -0.027171  -0.030996  -0.001290  -0.006425   0.000198   0.000161
     6  C    0.366243   0.357532  -0.036150  -0.030167  -0.002557  -0.003186
     7  C   -0.027227  -0.034277   0.365634   0.361690  -0.029950  -0.034356
     8  C   -0.002538  -0.003048  -0.033204  -0.029033   0.365739   0.366554
     9  C    0.000164   0.000126  -0.003682  -0.002358  -0.033468  -0.033932
    10  C    0.000009   0.000007   0.000186   0.000175  -0.003196  -0.002362
    11  N    0.000000   0.000000   0.000003   0.000002   0.000086   0.000074
    12  O    0.000000   0.000000   0.000000   0.000000  -0.000002  -0.000002
    13  O    0.000355  -0.000368  -0.000004  -0.000002  -0.000002   0.000000
    14  N    0.013560   0.000511  -0.000004   0.000481   0.000012   0.000000
    15  C   -0.000291  -0.000010   0.000001  -0.000105  -0.000001  -0.000000
    16  C    0.000147  -0.000000  -0.000000   0.000022   0.000000   0.000000
    17  Cl  -0.000001  -0.000000   0.000000   0.000000   0.000000  -0.000000
    18  H   -0.000000  -0.000000   0.000000  -0.000000   0.000000   0.000000
    19  H   -0.000000  -0.000000   0.000000  -0.000000  -0.000000   0.000000
    20  H   -0.000000   0.000000  -0.000000   0.000000   0.000000  -0.000000
    21  H    0.000010  -0.000003   0.000010  -0.000013   0.000000  -0.000000
    22  H   -0.000106   0.002787   0.000003   0.000006   0.000000  -0.000001
    23  H    0.005226  -0.008857   0.003579  -0.000286   0.000003   0.000007
    24  H   -0.001663   0.006297   0.000043   0.005855   0.000012   0.000021
    25  H    0.582062  -0.039556   0.005903  -0.005832   0.004925  -0.000574
    26  H   -0.039556   0.657287  -0.005424   0.006078  -0.000492   0.005311
    27  H    0.005903  -0.005424   0.653453  -0.044690   0.006231  -0.005117
    28  H   -0.005832   0.006078  -0.044690   0.643809  -0.006343   0.006309
    29  H    0.004925  -0.000492   0.006231  -0.006343   0.638153  -0.042298
    30  H   -0.000574   0.005311  -0.005117   0.006309  -0.042298   0.643186
    31  H    0.000009   0.000009   0.005345  -0.000469   0.006132  -0.005321
    32  H    0.000002   0.000005  -0.000409   0.004603  -0.005798   0.006078
    33  H   -0.000003   0.000001   0.000007   0.000011   0.004890  -0.000567
    34  H    0.000001  -0.000004   0.000016   0.000002  -0.000466   0.005291
    35  H   -0.000000   0.000000  -0.000002   0.000001   0.000012   0.000002
    36  H    0.000000   0.000000  -0.000000   0.000000  -0.000001   0.000001
    37  H   -0.000278  -0.000021   0.000000  -0.000010   0.000000  -0.000000
    38  H    0.000007   0.000001  -0.000000   0.000008  -0.000000  -0.000000
    39  H   -0.000426  -0.000029  -0.000007   0.000794  -0.000003   0.000000
    40  H   -0.000002  -0.000000   0.000000   0.000000   0.000000  -0.000000
              31         32         33         34         35         36
     1  C    0.000000  -0.000000  -0.000000   0.000000  -0.000000  -0.000000
     2  C    0.000000   0.000000  -0.000000   0.000000  -0.000000  -0.000000
     3  O    0.000000   0.000000   0.000000  -0.000000   0.000000  -0.000000
     4  C    0.000000   0.000000   0.000000   0.000000   0.000000   0.000000
     5  C    0.000006   0.000011  -0.000000   0.000000   0.000000  -0.000000
     6  C    0.000167   0.000153   0.000005   0.000016  -0.000000  -0.000000
     7  C   -0.003480  -0.002255   0.000072   0.000256   0.000009  -0.000000
     8  C   -0.031670  -0.028722  -0.006767   0.001859  -0.000451  -0.000008
     9  C    0.364817   0.361834  -0.019716  -0.033742   0.001913  -0.000565
    10  C   -0.034574  -0.028637   0.351177   0.364661  -0.061476  -0.004148
    11  N   -0.001646   0.002786  -0.022854  -0.046413   0.332655  -0.052394
    12  O    0.000061   0.000033  -0.000032   0.008705  -0.021825   0.302191
    13  O   -0.000000   0.000000   0.000000  -0.000000   0.000000   0.000000
    14  N   -0.000000  -0.000000   0.000000  -0.000000   0.000000  -0.000000
    15  C   -0.000000  -0.000000   0.000000   0.000000  -0.000000   0.000000
    16  C    0.000000   0.000000   0.000000  -0.000000   0.000000   0.000000
    17  Cl   0.000000  -0.000000  -0.000000   0.000000  -0.000000   0.000000
    18  H    0.000000   0.000000  -0.000000  -0.000000   0.000000   0.000000
    19  H    0.000000   0.000000   0.000000   0.000000  -0.000000   0.000000
    20  H    0.000000  -0.000000  -0.000000  -0.000000  -0.000000   0.000000
    21  H   -0.000000   0.000000  -0.000000   0.000000  -0.000000   0.000000
    22  H   -0.000000  -0.000000  -0.000000  -0.000000   0.000000  -0.000000
    23  H   -0.000002   0.000000  -0.000000   0.000000  -0.000000   0.000000
    24  H    0.000002  -0.000004   0.000000  -0.000000   0.000000  -0.000000
    25  H    0.000009   0.000002  -0.000003   0.000001  -0.000000   0.000000
    26  H    0.000009   0.000005   0.000001  -0.000004   0.000000   0.000000
    27  H    0.005345  -0.000409   0.000007   0.000016  -0.000002  -0.000000
    28  H   -0.000469   0.004603   0.000011   0.000002   0.000001   0.000000
    29  H    0.006132  -0.005798   0.004890  -0.000466   0.000012  -0.000001
    30  H   -0.005321   0.006078  -0.000567   0.005291   0.000002   0.000001
    31  H    0.649524  -0.043196   0.006260  -0.006961   0.005238   0.000020
    32  H   -0.043196   0.628240  -0.006302   0.006590  -0.000524   0.000016
    33  H    0.006260  -0.006302   0.639847  -0.052826   0.006669   0.004243
    34  H   -0.006961   0.006590  -0.052826   0.669062  -0.007808  -0.000685
    35  H    0.005238  -0.000524   0.006669  -0.007808   0.500372   0.005004
    36  H    0.000020   0.000016   0.004243  -0.000685   0.005004   0.450489
    37  H    0.000000   0.000000  -0.000000   0.000000  -0.000000   0.000000
    38  H   -0.000000  -0.000000  -0.000000  -0.000000   0.000000  -0.000000
    39  H   -0.000000   0.000000   0.000000  -0.000000   0.000000   0.000000
    40  H    0.000000  -0.000000  -0.000000   0.000000  -0.000000   0.000000
              37         38         39         40
     1  C    0.000009  -0.000174   0.000263  -0.003786
     2  C    0.000022   0.002470  -0.006416  -0.029986
     3  O   -0.000106  -0.000053   0.000018   0.001230
     4  C    0.003856  -0.000370   0.000426   0.001158
     5  C   -0.000122   0.000294  -0.006150   0.000238
     6  C    0.000290   0.000009  -0.000365  -0.000003
     7  C    0.000004  -0.000009   0.000249   0.000000
     8  C   -0.000000   0.000000  -0.000011  -0.000000
     9  C    0.000000   0.000000   0.000000   0.000000
    10  C   -0.000000   0.000000   0.000000  -0.000000
    11  N    0.000000   0.000000  -0.000000   0.000000
    12  O   -0.000000   0.000000   0.000000  -0.000000
    13  O   -0.026337   0.003594  -0.000467   0.004399
    14  N    0.338191  -0.017584  -0.031392  -0.000653
    15  C   -0.052460   0.353023   0.367427  -0.043873
    16  C   -0.002497  -0.017849  -0.050929   0.352553
    17  Cl  -0.000178  -0.004052   0.005282  -0.036268
    18  H    0.000000   0.000002  -0.000007  -0.000146
    19  H   -0.000000  -0.000000   0.000010   0.004116
    20  H    0.000000   0.000009  -0.000006   0.000216
    21  H    0.000004  -0.000053   0.004959   0.006364
    22  H   -0.000268   0.000010  -0.000008  -0.000050
    23  H    0.000001  -0.000006   0.000141  -0.000000
    24  H   -0.000009   0.000159   0.006987  -0.000034
    25  H   -0.000278   0.000007  -0.000426  -0.000002
    26  H   -0.000021   0.000001  -0.000029  -0.000000
    27  H    0.000000  -0.000000  -0.000007   0.000000
    28  H   -0.000010   0.000008   0.000794   0.000000
    29  H    0.000000  -0.000000  -0.000003   0.000000
    30  H   -0.000000  -0.000000   0.000000  -0.000000
    31  H    0.000000  -0.000000  -0.000000   0.000000
    32  H    0.000000  -0.000000   0.000000  -0.000000
    33  H   -0.000000  -0.000000   0.000000  -0.000000
    34  H    0.000000  -0.000000  -0.000000   0.000000
    35  H   -0.000000   0.000000   0.000000  -0.000000
    36  H    0.000000  -0.000000   0.000000   0.000000
    37  H    0.489748  -0.009262   0.006294   0.001757
[...]
 044,0.00000182,-0.00000009,-0.00000054,-0.00000169,0.00000142,0.000000
 74,0.00000006,-0.00000293,0.00000008,0.00000003,-0.00000009,0.00000003
 ,0.00000058,-0.00000073,-0.00000344,-0.00000295,-0.00000018,0.00000368
 ,-0.00000024,-0.00000025,-0.00000030,0.00000097,0.00000005,-0.00000396
 ,0.00001046,-0.00001387,-0.00000294,-0.00000245,-0.00000340,0.00003974
 ,0.00000020,-0.00000080,-0.00000508,-0.00007441,-0.00005425,0.00001797
 ,-0.00006242,-0.00004009,-0.00004296,-0.00030523,-0.00019189,0.0002603
 8,0.00016132,0.00023206,0.00058901,0.00194025,0.00036151,-0.00102341,0
 .18191024,0.40473753,0.00000112,-0.00000050,-0.00000021,-0.00001748,0.
 00000906,0.00000556,0.00004184,-0.00000563,0.00000015,-0.00003912,-0.0
 0000978,-0.00000902,-0.00000341,0.00000100,0.00000137,-0.00002411,-0.0
 0000603,0.00000608,-0.00003222,-0.00000704,-0.00007814,-0.00023931,0.0
 0003754,0.00008447,-0.00012625,0.00047619,-0.00095919,-0.00398049,-0.0
 0203186,-0.00037096,0.00156797,-0.00034114,-0.00277312,-0.04459288,-0.
 08189806,-0.01742595,0.00002038,0.00000095,-0.00000051,0.00000566,0.00
 000389,0.00000545,-0.00001332,-0.00000059,-0.00000306,-0.00000632,0.00
 000917,0.00000507,0.00000786,-0.00000748,-0.00000477,-0.00000136,0.000
 00115,0.00000015,0.00000032,0.00000096,0.00000046,0.00000187,-0.000001
 18,0.00000004,-0.00000112,0.00000029,0.00000102,0.00000031,-0.00000230
 ,-0.00000035,0.00000476,0.00000283,-0.00000200,0.00000010,-0.00000172,
 -0.00000013,-0.00000068,0.00000594,-0.00000773,-0.00000004,-0.00000258
 ,-0.00000002,0.00001586,0.00000403,-0.00000391,0.00000558,-0.00000538,
 0.00000408,0.00000337,0.00002466,-0.00002758,0.00000796,-0.00000086,0.
 00000733,0.00014174,-0.00003723,0.00003524,-0.00014226,0.00001044,0.00
 003796,-0.00026339,0.00031890,-0.00048720,0.00022814,0.00044453,0.0002
 5399,0.00364939,0.00121972,0.00049036,0.04377902,0.08178767,0.02121876
 ,0.00009373,-0.00008576,-0.00002051,-0.00012869,0.00114002,-0.00051549
 ,0.00130735,-0.00024870,-0.00050428,-0.00189541,0.00288893,0.00249598,
 0.00025175,0.00006493,0.00001860,0.00024432,0.00014051,-0.00022361,-0.
 00009164,-0.00000440,0.00005335,0.00002343,0.00001863,-0.00006420,-0.0
 0002202,0.00000098,0.00000761,0.00000198,0.00000771,-0.00001770,-0.000
 00430,-0.00000086,0.00000362,0.00000193,-0.00000287,0.00000653,0.01039
 136,0.02302787,-0.00898160,-0.21935936,-0.15617400,0.10560456,-0.02274
 700,-0.01818134,0.01847816,-0.00458841,-0.00063670,-0.00529897,0.00020
 730,0.00012585,0.00002036,-0.00000530,-0.00002418,0.00004961,0.0000024
 4,0.00004393,0.00002474,0.00004857,0.00000869,-0.00003357,0.00009813,-
 0.00000275,0.00001447,0.00021509,0.00097886,-0.00076177,-0.00007902,-0
 .00002143,-0.00012297,0.00003570,-0.00009935,-0.00005615,-0.00012375,0
 .00002543,0.00004976,-0.00002029,-0.00006389,0.00003802,0.00000420,-0.
 00001438,0.00004172,0.00001043,-0.00000714,-0.00003272,-0.00003061,-0.
 00001028,0.00001342,0.00000048,-0.00000895,0.00000589,0.00000100,-0.00
 000433,0.00001165,0.00000216,-0.00000141,-0.00000636,-0.00000663,-0.00
 000367,0.00000299,0.00000081,-0.00000204,0.00000158,0.00000120,-0.0000
 0177,0.00000092,-0.00000121,0.00000097,-0.00000512,0.23619493,-0.00003
 773,0.00011222,0.00004145,0.00023303,-0.00021949,-0.00026742,-0.000439
 44,0.00087854,-0.00025305,0.00385891,-0.00621878,-0.00561124,-0.000226
 59,0.00022784,-0.00049590,-0.00010325,-0.00003694,0.00013736,0.0000477
 7,0.00007490,0.00000041,-0.00000105,-0.00000931,0.00000494,-0.00000014
 ,0.00001221,0.00000330,0.00000223,0.00000261,0.00000061,-0.00000029,-0
 .00000574,-0.00000335,-0.00000291,-0.00000193,-0.00000197,-0.01563148,
 -0.03871911,0.02191783,-0.13851071,-0.16660949,0.09196054,0.00090974,0
 .00166278,0.00105641,0.00107664,0.00168541,0.00034753,-0.00014504,-0.0
 0009140,-0.00004954,0.00001893,0.00003904,-0.00004263,0.00002976,-0.00
 000446,-0.00002033,-0.00001643,-0.00001180,0.00002006,0.00003092,0.000
 13004,0.00009179,-0.00035990,-0.00148442,0.00152977,-0.00000616,0.0000
 3616,-0.00001995,0.00006077,0.00016397,0.00024843,0.00006383,0.0000309
 4,-0.00000600,-0.00003829,0.00004639,-0.00003612,-0.00000717,-0.000007
 95,-0.00002945,0.00000516,-0.00001374,-0.00000129,0.00000420,0.0000087
 9,0.00000246,0.00000280,-0.00000679,0.00000011,-0.00000071,-0.00000210
 ,-0.00000233,0.00000021,-0.00000502,-0.00000469,-0.00000084,0.00000150
 ,0.00000134,0.00000142,-0.00000409,0.,0.,0.00000172,0.00000119,-0.0000
 0050,0.00000267,0.,0.14678962,0.20763169,0.00001780,0.00010924,0.00022
 974,-0.00014524,-0.00037629,-0.00008249,-0.00079754,-0.00025163,-0.000
 09972,0.00085107,-0.00037712,-0.00108910,-0.00007662,0.00076573,0.0003
 5882,0.00019699,0.00028460,-0.00031412,-0.00012381,0.00009779,0.000065
 65,-0.00000850,0.00000056,-0.00006635,-0.00001553,0.00001533,-0.000000
 58,-0.00001901,0.00001377,-0.00001072,-0.00000513,-0.00000210,-0.00000
 257,0.00003399,-0.00001112,0.00001462,-0.00480734,-0.01478840,0.001529
 63,0.14017541,0.14042032,-0.10686661,-0.02262203,-0.01448976,0.0009386
 9,-0.00105400,0.00041708,-0.00119472,-0.00006702,-0.00016801,-0.000131
 69,0.00000738,0.00003056,-0.00001735,0.00009202,0.00006572,-0.00006203
 ,0.00002657,-0.00000181,-0.00000821,0.00005454,0.00002877,0.00040337,0
 .00005100,0.00011425,0.00019369,-0.00007235,-0.00009122,-0.00010128,0.
 00039990,-0.00005198,0.00029372,-0.00019953,0.00006320,0.00016362,-0.0
 0009519,-0.00015008,0.00006356,0.00001713,-0.00004720,0.00005068,0.000
 01824,-0.00004876,-0.00009037,-0.00003405,0.00000494,0.00002035,0.0000
 1992,-0.00003053,0.00000910,0.00000219,-0.00000897,0.00001242,-0.00000
 037,-0.00001141,-0.00001646,-0.00000650,0.00000109,0.00000421,0.000006
 42,-0.00000865,0.00000375,-0.00000351,0.00000068,-0.00000233,-0.000008
 86,0.00000138,-0.00000507,-0.11180935,-0.11073833,0.10405911,0.0001436
 8,-0.00005054,0.00016286,-0.00131446,0.00073303,-0.00011642,0.00087018
 ,-0.00058355,-0.00035334,-0.00031027,0.00011163,0.00017210,0.00001524,
 -0.00028927,-0.00016579,0.00002731,0.00002433,0.00005124,0.00001633,-0
 .00000601,0.00001880,0.00001168,-0.00000314,-0.00000513,-0.00000884,0.
 00000253,0.00000966,0.00001155,-0.00000441,-0.00000126,0.00000034,-0.0
 0000431,0.00000004,-0.00001710,0.00000333,-0.00000891,0.00344595,-0.00
 359340,0.00242688,-0.01194448,-0.01663007,-0.03364886,-0.04728074,0.01
 014950,0.01657179,-0.00210745,0.01200849,0.01842477,-0.00371063,0.0011
 0240,0.00391090,-0.00004364,-0.00010814,0.00002100,-0.00001151,-0.0000
 3117,-0.00001380,0.00007801,0.00005471,-0.00005032,-0.00003193,-0.0000
 0841,0.00002662,0.00011738,0.00014731,-0.00014204,-0.00002702,0.000173
 75,0.00004887,-0.00009180,0.00010683,0.00028662,0.00005482,-0.00003104
 ,-0.00002694,-0.00002951,0.00002991,-0.00001180,-0.00000354,0.00001101
 ,-0.00001420,0.00000015,0.00000715,0.00001746,0.00000490,-0.00000075,-
 0.00000246,-0.00000442,0.00000431,-0.00000157,0.00000003,0.00000260,-0
 .00000392,0.00000029,-0.00000002,0.00000185,0.00000099,-0.00000020,-0.
 00000088,-0.00000125,0.00000001,-0.00000177,0.00000132,0.00000182,0.00
 000242,0.00000248,0.00000132,0.00000229,0.00047278,0.00019680,-0.00103
 263,0.06100186,0.00006976,-0.00009044,0.00001636,-0.00072422,0.0002913
 0,-0.00026228,0.00101581,-0.00080803,0.00037209,-0.00073459,-0.0009134
 4,0.00089104,0.00013214,-0.00007085,-0.00009202,0.00005824,-0.00001295
 ,-0.00000650,-0.00000987,0.00000880,0.00002850,0.00001638,-0.00000543,
 -0.00001892,-0.00001411,0.00000416,0.00001175,0.00001656,-0.00000443,-
 0.00000489,0.00000117,-0.00000554,0.00000120,-0.00002646,0.00000461,-0
 .00001030,0.00023813,0.00299452,0.00329051,0.00038475,0.00034790,-0.00
 182520,0.00670265,-0.13939548,-0.12025906,-0.00127199,0.00409712,0.008
 02038,-0.00062145,0.00140749,0.00101862,-0.00001323,-0.00003818,0.0000
 1264,-0.00001205,0.00000964,0.00001438,0.00002777,-0.00000008,-0.00001
 034,0.00002602,0.00002479,-0.00001176,0.00008598,0.00011145,-0.0001095
 6,-0.00003193,0.00001052,-0.00006045,-0.00003500,-0.00000109,0.0000199
 6,0.00002174,0.00000282,0.00000560,-0.00001329,0.00001560,0.00000314,-
 0.00000239,0.00000357,-0.00000906,0.00000013,0.00000143,0.00000186,-0.
 00000129,-0.00000157,0.00000071,-0.00000371,0.00000312,0.00000012,-0.0
 0000009,0.00000115,-0.00000197,0.00000078,0.00000008,0.00000038,-0.000
 00050,-0.00000129,0.00000001,-0.00000158,-0.00000002,-0.00000193,0.000
 00255,0.00000102,0.00000336,0.00000450,0.00000210,0.00000162,-0.000289
 10,-0.00042686,-0.00034161,-0.00594460,0.14620638,-0.00015505,0.000136
 53,-0.00009766,0.00142657,-0.00088486,-0.00024763,-0.00039590,0.000386
 02,0.00109818,-0.00062131,0.00006145,-0.00077218,0.00011331,-0.0002088
 3,-0.00006613,0.00001709,0.00004274,0.00008135,0.00002305,-0.00002046,
 0.00000010,0.00000674,0.00000130,0.00000594,-0.00000051,-0.00000209,0.
 00000199,0.00000602,-0.00000374,-0.00000072,0.00000121,0.00000078,0.00
 000139,-0.00001003,0.00000241,-0.00000316,0.00287362,-0.00050882,0.003
 98862,-0.01272171,-0.01001542,-0.01890842,0.01457933,-0.11726889,-0.20
 628357,0.00308131,-0.01153471,-0.01585346,0.00175905,0.00031905,-0.000
 96500,0.00004868,0.00008966,-0.00002140,0.00006304,0.00005542,0.000000
 82,-0.00006288,-0.00003689,0.00003810,-0.00006660,-0.00006113,0.000263
 06,0.00002652,0.00005572,-0.00003147,-0.00000991,0.00006017,0.00003475
 ,-0.00002589,0.00004176,0.00021329,0.00001248,-0.00001852,-0.00002072,
 -0.00003252,0.00002471,-0.00000515,-0.00000007,0.00000604,-0.00000434,
 0.00000274,0.00001332,0.00001512,0.00000214,-0.00000160,-0.00000173,-0
 .00000514,0.00000553,-0.00000099,-0.00000015,0.00000061,-0.00000134,0.
 00000062,0.00000263,0.00000207,0.00000026,-0.00000055,-0.00000040,-0.0
 0000157,0.00000193,-0.00000068,0.00000105,-0.00000105,0.00000090,0.000
 00235,0.00000031,0.00000058,-0.00015443,0.00020666,-0.00051613,-0.0101
 2334,0.13295103,0.22687153,0.00081051,-0.00096438,0.00104298,-0.004559
 35,0.00058460,0.00117940,0.00159436,0.00017818,-0.00052457,-0.00351680
 ,-0.00115965,0.00194444,0.00025921,0.00030074,-0.00002784,0.00001064,-
 0.00004618,0.00000047,0.00000962,0.00003535,0.00001949,0.00001556,-0.0
 0000669,-0.00001728,-0.00001338,0.00000625,0.00001158,0.00001185,-0.00
 000252,-0.00000512,0.00000005,-0.00000537,0.00000015,-0.00001719,0.000
 00210,-0.00000732,-0.00544817,0.00468093,-0.00624417,-0.00556383,0.027
 80033,-0.00722059,-0.05383015,0.03006755,-0.01452059,0.00381546,-0.023
 11527,0.01009730,0.00016042,-0.00017603,0.00077987,-0.00044078,-0.0003
 1968,0.00019556,-0.00001965,0.00002406,-0.00003369,0.00006322,0.000031
 10,-0.00004242,0.00004660,-0.00012289,0.00016879,0.00033619,0.00030202
 ,-0.00031335,-0.00003889,0.00001907,-0.00017669,-0.00001089,-0.0000915
 9,0.00004845,0.00008388,0.00003066,0.00001151,0.00000836,-0.00000602,-
 0.00000117,-0.00000921,-0.00000133,-0.00002029,-0.00000213,-0.00000939
 ,-0.00000928,-0.00000059,0.00000147,0.00000277,-0.00000029,-0.00000107
 ,0.00000118,-0.00000009,0.00000062,-0.00000172,0.00000045,-0.00000186,
 -0.00000196,-0.00000088,-0.00000027,0.00000032,-0.00000039,-0.00000150
 ,-0.00000114,0.00000135,0.00000142,0.00000263,0.00000209,0.00000226,0.
 00000090,0.00090931,0.00170273,0.00120932,0.00043267,0.00039319,0.0004
 2559,0.06513312,0.00030096,-0.00019316,0.00035935,-0.00119429,0.000026
 52,-0.00054884,-0.00016114,0.00037057,0.00027067,-0.00030016,0.0006102
 8,-0.00027964,0.00002233,-0.00004970,0.00004511,-0.00002444,0.00002500
 ,0.00001978,0.00001175,-0.00001925,-0.00002101,-0.00001113,0.00000541,
 0.00001693,0.00001072,-0.00000519,-0.00000787,-0.00001099,0.00000195,0
 .00000449,-0.00000100,0.00000442,-0.00000074,0.00001714,-0.00000276,0.
 00000603,0.00091079,0.00119554,0.00090156,-0.00012297,-0.00117190,-0.0
 0054336,0.03513145,-0.28531275,0.07589980,0.00254459,-0.00906760,0.001
 35223,0.00148107,0.00203654,-0.00174352,-0.00017203,-0.00002893,0.0000
 6800,0.00001880,0.00000958,-0.00002214,-0.00006010,-0.00000002,0.00002
 839,0.00001362,0.00001792,0.00007808,0.00008307,0.00008152,-0.00008984
 ,-0.00000262,0.00000595,0.00002168,-0.00000724,-0.00000609,-0.00001223
 ,-0.00001953,-0.00000512,-0.00000448,0.00000712,-0.00000734,0.00000337
 ,0.00000267,0.00000204,0.00000481,-0.00000011,0.00000328,0.00000336,0.
 00000245,0.00000093,-0.00000223,0.00000102,-0.00000048,-0.00000017,0.0
 0000007,0.00000019,0.00000014,-0.00000062,0.00000078,0.00000090,0.0000
 0113,0.00000102,-0.00000049,0.00000058,0.00000081,0.00000122,-0.000001
 55,-0.00000067,-0.00000236,-0.00000250,-0.00000161,-0.00000044,0.00097
 784,0.00096177,-0.00027294,0.00169124,-0.01500434,0.00582996,-0.040600
 16,0.30556584,-0.00063153,0.00066658,-0.00086401,0.00367494,0.00066234
 ,-0.00097641,0.00036893,-0.00073674,0.00073538,-0.00070973,0.00000452,
 0.00038028,0.00001488,0.00008348,0.00003630,0.00000962,-0.00001602,0.0
 0000080,-0.00000194,0.00002188,0.00001248,0.00000456,-0.00000447,-0.00
 000819,-0.00000598,0.00000576,0.00000487,0.00000343,-0.00000038,-0.000
 00117,-0.00000025,-0.00000341,-0.00000120,-0.00000462,-0.00000005,-0.0
 0000329,-0.00098077,-0.00012534,-0.00163081,-0.00328467,0.01551846,-0.
 00476390,-0.01566875,0.06884650,-0.06881541,0.00061374,0.01914343,-0.0
 0962768,-0.00049912,0.00067791,0.00075893,0.00033187,0.00021143,-0.000
 14708,0.00000963,-0.00002358,0.00002340,0.00003817,-0.00000633,-0.0000
 1561,-0.00010161,-0.00006337,0.00000998,0.00007346,0.00013310,-0.00013
 887,-0.00000820,-0.00001129,-0.00002162,0.00000266,-0.00001875,0.00002
 209,0.00001172,0.00001083,0.00000491,0.00000079,-0.00000588,-0.0000009
 1,-0.00000132,-0.00000144,-0.00000563,-0.00000095,-0.00000776,-0.00000
 557,-0.00000081,0.00000139,0.00000115,0.00000159,-0.00000237,0.0000001
 1,0.00000012,0.00000001,-0.00000075,-0.00000012,-0.00000255,-0.0000014
 8,-0.00000023,0.00000032,0.00000020,0.00000055,-0.00000174,-0.00000058
 ,0.00000007,0.00000152,0.00000123,-0.00000003,0.00000124,0.00000085,0.
 00048553,0.00015871,0.00178656,0.00336044,-0.02337440,0.00970455,0.012
 42496,-0.08169620,0.07372791,0.00048463,-0.00034530,0.00140856,-0.0039
 4526,-0.00395581,-0.00493718,0.00070049,0.00050121,0.00046379,-0.00035
 818,-0.00058859,0.00049357,0.00003209,-0.00002064,-0.00005354,0.000040
 24,0.00002305,0.00003975,0.00000399,0.00001348,0.00002378,0.00001107,-
 0.00000853,-0.00001016,-0.00001063,0.00000495,0.00001019,0.00001280,-0
 .00000481,-0.00000172,0.00000121,-0.00000545,0.00000006,-0.00001979,0.
 00000406,-0.00000988,0.00003385,0.00064347,-0.00014046,-0.00343733,-0.
 00351465,0.00290568,-0.01614919,-0.00648624,-0.01485807,-0.19759906,-0
 .07017924,-0.11864091,0.00612353,0.01186456,0.01174339,-0.00003673,0.0
 0007718,0.00027582,0.00064311,0.00036595,-0.00020219,0.00018535,0.0001
 8159,-0.00003446,0.00017368,0.00096306,-0.00021518,0.00000369,0.000078
 52,-0.00004758,0.00000205,0.00001194,-0.00004684,0.00000097,0.00006026
 ,0.00008756,0.00002368,0.00000204,-0.00000048,-0.00002830,0.00001541,-
 0.00000533,-0.00000190,0.00000301,-0.00001167,-0.00000032,-0.00000129,
 0.00000235,0.00000158,0.00000110,-0.00000074,-0.00000202,0.00000170,-0
 .00000035,0.00000013,0.00000158,-0.00000336,0.00000012,-0.00000089,0.0
 0000029,0.00000049,0.,-0.00000047,-0.00000093,-0.00000060,-0.00000178,
 0.00000149,0.00000197,0.00000258,0.00000258,0.00000138,0.00000242,-0.0
 0141674,0.00049315,-0.00017579,0.00022865,0.00055319,-0.00008577,-0.00
 023224,-0.00053786,0.00046895,0.21452713,0.00131023,0.00146392,-0.0000
 3645,0.01485282,0.00841209,0.01637736,-0.00116803,0.00049571,-0.001006
 26,-0.00028042,-0.00002826,0.00015209,0.00012967,0.00003892,0.00001246
 ,-0.00005931,-0.00005525,-0.00005230,0.00000708,-0.00001454,-0.0000248
 0,-0.00000608,0.00000463,0.00001361,0.00000818,-0.00000559,-0.00000685
 ,-0.00000574,0.00000081,0.00000246,0.00000081,0.00000417,0.00000078,0.
 00000748,-0.00000051,0.00000413,-0.00021492,0.00031353,0.00003213,-0.0
 0102588,-0.00035288,0.00122059,-0.00645163,-0.00039745,-0.00645622,-0.
 07271398,-0.07226506,-0.04753014,-0.00562008,-0.01829509,-0.01855250,0
 .00003363,0.00007722,-0.00013545,-0.00022944,-0.00032422,-0.00040535,-
 0.00017903,-0.00005679,-0.00000936,0.00094843,-0.00285364,0.00322060,0
 .00005314,-0.00000202,-0.00004591,-0.00002302,0.00006598,-0.00003986,-
 0.00006596,-0.00011068,-0.00002025,0.00003208,0.00000388,-0.00000465,0
 .00004107,-0.00000970,0.00000224,-0.00000227,0.00000208,-0.00000073,-0
 .00000272,0.00000408,0.00000342,0.00000251,-0.00000029,-0.00000138,-0.
 00000026,0.00000176,-0.00000005,-0.00000027,-0.00000018,0.00000064,-0.
 00000016,0.00000223,0.00000143,0.00000054,0.00000003,-0.00000019,-0.00
 000026,0.00000155,0.00000080,-0.00000075,-0.00000178,-0.00000151,-0.00
 000033,-0.00000133,-0.00000073,-0.00035144,0.00016819,-0.00016712,0.00
 072502,0.00123047,0.00027180,0.00046721,-0.00005094,-0.00004737,0.0697
 8208,0.08253489,-0.00071865,-0.00127912,0.00108523,-0.01658115,-0.0076
 8112,-0.01530838,-0.00032263,0.00127073,0.00110872,0.00050117,0.000441
 65,-0.00058052,-0.00010443,-0.00017847,0.00001292,0.00005404,0.0000737
 1,0.00003591,-0.00000574,-0.00001029,0.00001244,0.00000644,0.00000168,
 -0.00000741,-0.00000444,-0.00000136,0.00000265,0.00000497,-0.00000214,
 -0.00000318,0.00000062,0.00000041,0.00000188,-0.00000735,0.00000166,-0
 .00000189,-0.00000776,-0.00037926,0.00010447,0.00286098,0.00259881,-0.
 00189582,0.01491315,0.00533306,0.00998469,-0.12064113,-0.04750817,-0.1
 3744405,-0.00237394,-0.00982390,-0.00768856,0.00017806,-0.00004068,0.0
 0052151,0.00056927,0.00091116,0.00021263,0.00010412,-0.00008409,-0.000
 27090,-0.00083033,0.00314203,-0.00245988,-0.00010787,-0.00004161,0.000
 08498,0.00002666,-0.00005987,0.00004167,0.00002854,0.00015611,-0.00002
 818,-0.00004549,-0.00000521,0.00000357,-0.00004587,0.00000956,0.000004
 05,0.00000355,-0.00000304,0.00000582,0.00000583,0.00000744,-0.00000020
 ,-0.00000405,-0.00000153,0.00000134,-0.00000320,0.00000171,0.00000090,
 0.00000035,-0.00000060,0.00000062,0.00000087,0.00000190,-0.00000015,-0
 .00000089,-0.00000058,0.00000011,-0.00000108,0.00000100,-0.00000015,0.
 00000081,-0.00000111,0.00000066,0.00000133,0.00000033,-0.00000006,0.00
 117976,-0.00014730,0.00047661,0.00020877,-0.00026502,0.00147993,-0.000
 39847,0.00033267,-0.00018179,0.12155516,0.05322887,0.15068781\\-0.0000
 0226,-0.00000027,0.00000065,-0.00000564,0.00000318,0.00000563,0.000014
 92,0.00000373,-0.00000314,-0.00002520,-0.00001357,0.00000740,0.0000018
 1,0.00000070,0.00000164,-0.00000112,0.00000015,-0.00000095,0.00000196,
 -0.00000032,-0.00000053,-0.00000076,0.00000052,0.00000252,-0.00000084,
 -0.00000180,-0.00000211,0.00000110,0.00000010,0.00000016,0.00000034,0.
 00000025,0.00000025,0.00000012,0.00000056,-0.00000026,0.00000686,0.000
 00557,-0.00000506,0.00000037,0.00000674,-0.00000295,0.00000154,-0.0000
 0304,0.00000363,0.00000080,-0.00000322,-0.00000315,-0.00000226,-0.0000
 0014,0.00000250,-0.00000072,0.00000081,-0.00000049,0.00000109,0.000000
 35,-0.00000002,0.00000104,0.00000229,-0.00000073,0.00000136,0.00000077
 ,-0.00000192,0.00000110,0.00000136,-0.00000069,0.00000082,0.00000152,-
 0.00000143,0.00000109,0.00000063,-0.00000017,-0.00000013,-0.00000039,-
 0.00000036,-0.00000088,-0.00000005,0.00000077,0.00000029,-0.00000048,0
 .00000053,-0.00000037,-0.00000013,-0.00000050,-0.00000027,-0.00000010,
 0.,0.00000030,-0.00000030,-0.00000055,-0.00000004,-0.00000055,-0.00000
 052,0.00000112,0.00000043,0.00000042,0.00000015,-0.00000138,0.00000071
 ,-0.00000058,-0.00000090,0.00000084,-0.00000088,-0.00000109,0.00000011
 ,0.00000047,-0.00000122,-0.00000047,0.00000225,-0.00000055,-0.00000069
 ,-0.00000088,-0.00000010,-0.00000236,0.00000283,0.00000011,0.00000068,
 -0.00000088,-0.00000020,0.00000064\\\@


 CHINESE FORTUNE COOKIE OF JAN 1 1967 SAY....
 ALL THINGS ARE DIFFICULT BEFORE THEY ARE EASY.
 WE LEARN SO LITTLE AND FORGET SO MUCH.
 YOU WILL OVERCOME OBSTACLES TO ACHIEVE SUCCESS.
 AH SO.
 Job cpu time:       0 days 16 hours 41 minutes 29.4 seconds.
 Elapsed time:       0 days  4 hours 11 minutes 39.9 seconds.
 File lengths (MBytes):  RWF=   1057 Int=      0 D2E=      0 Chk=     30 Scr=      1
 Normal termination of Gaussian 16 at Tue May 23 10:49:02 2023.
### All Done ###
