### Starting Gaussian ###
 Entering Gaussian System, Link 0=g16
 Initial command:
 /cluster/software/gaussian/gaussian-16-A.03/avx2/g16/l1.exe "/local/scratch/linjian/Gau-9441.inp" -scrdir="/local/scratch/linjian/"
 Entering Link 1 = /cluster/software/gaussian/gaussian-16-A.03/avx2/g16/l1.exe PID=      9442.
  
 Copyright (c) 1988,1990,1992,1993,1995,1998,2003,2009,2016,
            Gaussian, Inc.  All Rights Reserved.
  
 This is part of the Gaussian(R) 16 program.  It is based on
 the Gaussian(R) 09 system (copyright 2009, Gaussian, Inc.),
 the Gaussian(R) 03 system (copyright 2003, Gaussian, Inc.),
 the Gaussian(R) 98 system (copyright 1998, Gaussian, Inc.),
 the Gaussian(R) 94 system (copyright 1995, Gaussian, Inc.),
 the Gaussian 92(TM) system (copyright 1992, Gaussian, Inc.),
 the Gaussian 90(TM) system (copyright 1990, Gaussian, Inc.),
 the Gaussian 88(TM) system (copyright 1988, Gaussian, Inc.),
 the Gaussian 86(TM) system (copyright 1986, Carnegie Mellon
 University), and the Gaussian 82(TM) system (copyright 1983,
 Carnegie Mellon University). Gaussian is a federally registered
 trademark of Gaussian, Inc.
  
 This software contains proprietary and confidential information,
 including trade secrets, belonging to Gaussian, Inc.
  
 This software is provided under written license and may be
 used, copied, transmitted, or stored only in accord with that
 written license.
  
 The following legend is applicable only to US Government
 contracts under FAR:
  
                    RESTRICTED RIGHTS LEGEND
  
 Use, reproduction and disclosure by the US Government is
 subject to restrictions as set forth in subparagraphs (a)
 and (c) of the Commercial Computer Software - Restricted
 Rights clause in FAR 52.227-19.
  
 Gaussian, Inc.
 340 Quinnipiac St., Bldg. 40, Wallingford CT 06492
  
  
 ---------------------------------------------------------------
 Warning -- This program may not be used in any manner that
 competes with the business of Gaussian, Inc. or will provide
 assistance to any competitor of Gaussian, Inc.  The licensee
 of this program is prohibited from giving any competitor of
 Gaussian, Inc. access to this program.  By using this program,
 the user acknowledges that Gaussian, Inc. is engaged in the
 business of creating and licensing software in the field of
 computational chemistry and represents and warrants to the
 licensee that it is not a competitor of Gaussian, Inc. and that
 it will not use this program in any manner prohibited above.
 ---------------------------------------------------------------
  

 Cite this work as:
 Gaussian 16, Revision A.03,
 M. J. Frisch, G. W. Trucks, H. B. Schlegel, G. E. Scuseria, 
 M. A. Robb, J. R. Cheeseman, G. Scalmani, V. Barone, 
 G. A. Petersson, H. Nakatsuji, X. Li, M. Caricato, A. V. Marenich, 
 J. Bloino, B. G. Janesko, R. Gomperts, B. Mennucci, H. P. Hratchian, 
 J. V. Ortiz, A. F. Izmaylov, J. L. Sonnenberg, D. Williams-Young, 
 F. Ding, F. Lipparini, F. Egidi, J. Goings, B. Peng, A. Petrone, 
 T. Henderson, D. Ranasinghe, V. G. Zakrzewski, J. Gao, N. Rega, 
 G. Zheng, W. Liang, M. Hada, M. Ehara, K. Toyota, R. Fukuda, 
 J. Hasegawa, M. Ishida, T. Nakajima, Y. Honda, O. Kitao, H. Nakai, 
 T. Vreven, K. Throssell, J. A. Montgomery, Jr., J. E. Peralta, 
 F. Ogliaro, M. J. Bearpark, J. J. Heyd, E. N. Brothers, K. N. Kudin, 
 V. N. Staroverov, T. A. Keith, R. Kobayashi, J. Normand, 
 K. Raghavachari, A. P. Rendell, J. C. Burant, S. S. Iyengar, 
 J. Tomasi, M. Cossi, J. M. Millam, M. Klene, C. Adamo, R. Cammi, 
 J. W. Ochterski, R. L. Martin, K. Morokuma, O. Farkas, 
 J. B. Foresman, and D. J. Fox, Gaussian, Inc., Wallingford CT, 2016.
 
 ******************************************
 Gaussian 16:  ES64L-G16RevA.03 25-Dec-2016
                28-May-2023 
 ******************************************
 %chk=CC1qCrC2CC1C2qCrC.chk
 %NProcShared=20
 Will use up to   20 processors via shared memory.
 -----------------------------
 # opt freq b3lyp/6-31g(2df,p)
 -----------------------------
 1/18=20,19=15,26=3,38=1/1,3;
 2/9=110,12=2,17=6,18=5,40=1/2;
 3/5=1,6=6,7=104,11=2,25=1,30=1,71=1,74=-5/1,2,3;
 4//1;
 5/5=2,38=5/2;
 6/7=2,8=2,9=2,10=2,28=1/1;
 7//1,2,3,16;
 1/18=20,19=15,26=3/3(2);
 2/9=110/2;
 99//99;
 2/9=110/2;
 3/5=1,6=6,7=104,11=2,25=1,30=1,71=1,74=-5/1,2,3;
 4/5=5,16=3,69=1/1;
 5/5=2,38=5/2;
 7//1,2,3,16;
 1/18=20,19=15,26=3/3(-5);
 2/9=110/2;
 6/7=2,8=2,9=2,10=2,19=2,28=1/1;
 99/9=1/99;
 -------------------
 Title Card Required
 -------------------
 Symbolic Z-matrix:
 Charge =  0 Multiplicity = 1
 C                     0.82507  -0.0425    0.02093 
 C                     2.3482    0.21852   0.05323 
 C                     2.8295   -0.02229  -1.38011 
 C                     3.30689   1.36106   0.73729 
 C                     4.24364   0.10776   1.14176 
 C                     2.76882  -0.33222   1.47315 
 C                     2.34647   1.3041    2.00538 
 C                     3.09162   1.85218   3.23742 
 C                     1.24451   2.33932   1.69677 
 H                     0.32127   0.67082  -0.63998 
 H                     0.34738  -0.01047   1.00711 
 H                     0.6138   -1.04877  -0.36028 
 H                     2.3861    0.74787  -2.02832 
 H                     2.49125  -0.99128  -1.76434 
 H                     3.90935   0.04256  -1.51852 
 H                     3.65224   2.25919   0.26698 
 H                     4.85494   0.19243   2.04659 
 H                     4.83712  -0.37343   0.36617 
 H                     2.48653  -1.31193   1.82034 
 H                     3.79786   1.14562   3.67643 
 H                     2.39085   2.14618   4.02737 
 H                     3.64353   2.75671   2.9503 
 H                     0.53994   2.09255   0.90798 
 H                     1.7144    3.27894   1.37741 
 H                     0.64799   2.56646   2.58604 
 

 GradGradGradGradGradGradGradGradGradGradGradGradGradGradGradGradGradGrad
 Berny optimization.
 Initialization pass.
                           ----------------------------
                           !    Initial Parameters    !
                           ! (Angstroms and Degrees)  !
 --------------------------                            --------------------------
 ! Name  Definition              Value          Derivative Info.                !
 --------------------------------------------------------------------------------
 ! R1    R(1,2)                  1.5457         estimate D2E/DX2                !
 ! R2    R(1,10)                 1.0952         estimate D2E/DX2                !
 ! R3    R(1,11)                 1.0963         estimate D2E/DX2                !
 ! R4    R(1,12)                 1.0966         estimate D2E/DX2                !
 ! R5    R(2,3)                  1.531          estimate D2E/DX2                !
 ! R6    R(2,4)                  1.6409         estimate D2E/DX2                !
 ! R7    R(2,6)                  1.58           estimate D2E/DX2                !
 ! R8    R(3,13)                 1.1            estimate D2E/DX2                !
 ! R9    R(3,14)                 1.0959         estimate D2E/DX2                !
 ! R10   R(3,15)                 1.0906         estimate D2E/DX2                !
 ! R11   R(4,5)                  1.6161         estimate D2E/DX2                !
 ! R12   R(4,7)                  1.5918         estimate D2E/DX2                !
 ! R13   R(4,16)                 1.071          estimate D2E/DX2                !
 ! R14   R(5,6)                  1.5743         estimate D2E/DX2                !
 ! R15   R(5,17)                 1.0953         estimate D2E/DX2                !
 ! R16   R(5,18)                 1.0887         estimate D2E/DX2                !
 ! R17   R(6,7)                  1.7718         estimate D2E/DX2                !
 ! R18   R(6,19)                 1.0771         estimate D2E/DX2                !
 ! R19   R(7,8)                  1.5406         estimate D2E/DX2                !
 ! R20   R(7,9)                  1.5431         estimate D2E/DX2                !
 ! R21   R(8,20)                 1.0912         estimate D2E/DX2                !
 ! R22   R(8,21)                 1.0961         estimate D2E/DX2                !
 ! R23   R(8,22)                 1.0978         estimate D2E/DX2                !
 ! R24   R(9,23)                 1.086          estimate D2E/DX2                !
 ! R25   R(9,24)                 1.098          estimate D2E/DX2                !
 ! R26   R(9,25)                 1.0946         estimate D2E/DX2                !
 ! A1    A(2,1,10)             110.8501         estimate D2E/DX2                !
 ! A2    A(2,1,11)             113.9326         estimate D2E/DX2                !
 ! A3    A(2,1,12)             110.6143         estimate D2E/DX2                !
 ! A4    A(10,1,11)            108.8683         estimate D2E/DX2                !
 ! A5    A(10,1,12)            107.4132         estimate D2E/DX2                !
 ! A6    A(11,1,12)            104.8082         estimate D2E/DX2                !
 ! A7    A(1,2,3)              105.2868         estimate D2E/DX2                !
 ! A8    A(1,2,4)              134.5907         estimate D2E/DX2                !
 ! A9    A(1,2,6)              102.8412         estimate D2E/DX2                !
 ! A10   A(3,2,4)              108.4294         estimate D2E/DX2                !
 ! A11   A(3,2,6)              134.6536         estimate D2E/DX2                !
 ! A12   A(4,2,6)               73.2928         estimate D2E/DX2                !
 ! A13   A(2,3,13)             108.3516         estimate D2E/DX2                !
 ! A14   A(2,3,14)             111.7327         estimate D2E/DX2                !
 ! A15   A(2,3,15)             114.8798         estimate D2E/DX2                !
 ! A16   A(13,3,14)            106.7416         estimate D2E/DX2                !
 ! A17   A(13,3,15)            106.4216         estimate D2E/DX2                !
 ! A18   A(14,3,15)            108.2815         estimate D2E/DX2                !
 ! A19   A(2,4,5)               84.4339         estimate D2E/DX2                !
 ! A20   A(2,4,7)               87.4024         estimate D2E/DX2                !
 ! A21   A(2,4,16)             126.1023         estimate D2E/DX2                !
 ! A22   A(5,4,7)               97.0421         estimate D2E/DX2                !
 ! A23   A(5,4,16)             124.9813         estimate D2E/DX2                !
 ! A24   A(7,4,16)             125.0571         estimate D2E/DX2                !
 ! A25   A(4,5,6)               74.1225         estimate D2E/DX2                !
 ! A26   A(4,5,17)             118.0551         estimate D2E/DX2                !
 ! A27   A(4,5,18)             118.7134         estimate D2E/DX2                !
 ! A28   A(6,5,17)             111.7505         estimate D2E/DX2                !
 ! A29   A(6,5,18)             122.4864         estimate D2E/DX2                !
 ! A30   A(17,5,18)            108.5692         estimate D2E/DX2                !
 ! A31   A(2,6,5)               87.8683         estimate D2E/DX2                !
 ! A32   A(2,6,7)               83.3721         estimate D2E/DX2                !
 ! A33   A(2,6,19)             122.4783         estimate D2E/DX2                !
 ! A34   A(5,6,7)               91.6295         estimate D2E/DX2                !
 ! A35   A(5,6,19)             124.5826         estimate D2E/DX2                !
 ! A36   A(7,6,19)             132.9034         estimate D2E/DX2                !
 ! A37   A(4,7,6)               69.5071         estimate D2E/DX2                !
 ! A38   A(4,7,8)              109.4222         estimate D2E/DX2                !
 ! A39   A(4,7,9)              104.3321         estimate D2E/DX2                !
 ! A40   A(6,7,8)              116.9672         estimate D2E/DX2                !
 ! A41   A(6,7,9)              136.8631         estimate D2E/DX2                !
 ! A42   A(8,7,9)              105.4657         estimate D2E/DX2                !
 ! A43   A(7,8,20)             113.8544         estimate D2E/DX2                !
 ! A44   A(7,8,21)             111.2549         estimate D2E/DX2                !
 ! A45   A(7,8,22)             109.0938         estimate D2E/DX2                !
 ! A46   A(20,8,21)            107.3074         estimate D2E/DX2                !
 ! A47   A(20,8,22)            108.2609         estimate D2E/DX2                !
 ! A48   A(21,8,22)            106.7914         estimate D2E/DX2                !
 ! A49   A(7,9,23)             117.1354         estimate D2E/DX2                !
 ! A50   A(7,9,24)             109.0654         estimate D2E/DX2                !
 ! A51   A(7,9,25)             111.4622         estimate D2E/DX2                !
 ! A52   A(23,9,24)            105.1187         estimate D2E/DX2                !
 ! A53   A(23,9,25)            106.478          estimate D2E/DX2                !
 ! A54   A(24,9,25)            106.9729         estimate D2E/DX2                !
 ! D1    D(10,1,2,3)           -62.822          estimate D2E/DX2                !
 ! D2    D(10,1,2,4)            74.0353         estimate D2E/DX2                !
 ! D3    D(10,1,2,6)           153.1219         estimate D2E/DX2                !
 ! D4    D(11,1,2,3)           173.9725         estimate D2E/DX2                !
 ! D5    D(11,1,2,4)           -49.1702         estimate D2E/DX2                !
 ! D6    D(11,1,2,6)            29.9165         estimate D2E/DX2                !
 ! D7    D(12,1,2,3)            56.2169         estimate D2E/DX2                !
 ! D8    D(12,1,2,4)          -166.9258         estimate D2E/DX2                !
 ! D9    D(12,1,2,6)           -87.8392         estimate D2E/DX2                !
 ! D10   D(1,2,3,13)            65.8685         estimate D2E/DX2                !
 ! D11   D(1,2,3,14)           -51.4501         estimate D2E/DX2                !
 ! D12   D(1,2,3,15)          -175.3051         estimate D2E/DX2                !
 ! D13   D(4,2,3,13)           -83.2477         estimate D2E/DX2                !
 ! D14   D(4,2,3,14)           159.4337         estimate D2E/DX2                !
 ! D15   D(4,2,3,15)            35.5787         estimate D2E/DX2                !
 ! D16   D(6,2,3,13)          -167.6958         estimate D2E/DX2                !
 ! D17   D(6,2,3,14)            74.9856         estimate D2E/DX2                !
 ! D18   D(6,2,3,15)           -48.8693         estimate D2E/DX2                !
 ! D19   D(1,2,4,5)            136.4303         estimate D2E/DX2                !
 ! D20   D(1,2,4,7)             39.092          estimate D2E/DX2                !
 ! D21   D(1,2,4,16)           -93.6389         estimate D2E/DX2                !
 ! D22   D(3,2,4,5)            -87.6193         estimate D2E/DX2                !
 ! D23   D(3,2,4,7)            175.0424         estimate D2E/DX2                !
 ! D24   D(3,2,4,16)            42.3115         estimate D2E/DX2                !
 ! D25   D(6,2,4,5)             44.7142         estimate D2E/DX2                !
 ! D26   D(6,2,4,7)            -52.6241         estimate D2E/DX2                !
 ! D27   D(6,2,4,16)           174.645          estimate D2E/DX2                !
 ! D28   D(1,2,6,5)           -179.1073         estimate D2E/DX2                !
 ! D29   D(1,2,6,7)            -87.2178         estimate D2E/DX2                !
 ! D30   D(1,2,6,19)            50.3813         estimate D2E/DX2                !
 ! D31   D(3,2,6,5)             53.6392         estimate D2E/DX2                !
 ! D32   D(3,2,6,7)            145.5287         estimate D2E/DX2                !
 ! D33   D(3,2,6,19)           -76.8722         estimate D2E/DX2                !
 ! D34   D(4,2,6,5)            -46.0003         estimate D2E/DX2                !
 ! D35   D(4,2,6,7)             45.8892         estimate D2E/DX2                !
 ! D36   D(4,2,6,19)          -176.5117         estimate D2E/DX2                !
 ! D37   D(2,4,5,6)            -44.6784         estimate D2E/DX2                !
 ! D38   D(2,4,5,17)          -151.2357         estimate D2E/DX2                !
 ! D39   D(2,4,5,18)            74.065          estimate D2E/DX2                !
 ! D40   D(7,4,5,6)             42.0011         estimate D2E/DX2                !
 ! D41   D(7,4,5,17)           -64.5562         estimate D2E/DX2                !
 ! D42   D(7,4,5,18)           160.7445         estimate D2E/DX2                !
 ! D43   D(16,4,5,6)          -175.5501         estimate D2E/DX2                !
 ! D44   D(16,4,5,17)           77.8925         estimate D2E/DX2                !
 ! D45   D(16,4,5,18)          -56.8068         estimate D2E/DX2                !
 ! D46   D(2,4,7,6)             46.4353         estimate D2E/DX2                !
 ! D47   D(2,4,7,8)            158.8651         estimate D2E/DX2                !
 ! D48   D(2,4,7,9)            -88.6823         estimate D2E/DX2                !
 ! D49   D(5,4,7,6)            -37.6276         estimate D2E/DX2                !
 ! D50   D(5,4,7,8)             74.8021         estimate D2E/DX2                !
 ! D51   D(5,4,7,9)           -172.7452         estimate D2E/DX2                !
 ! D52   D(16,4,7,6)           179.9645         estimate D2E/DX2                !
 ! D53   D(16,4,7,8)           -67.6057         estimate D2E/DX2                !
 ! D54   D(16,4,7,9)            44.8469         estimate D2E/DX2                !
 ! D55   D(4,5,6,2)             46.6579         estimate D2E/DX2                !
 ! D56   D(4,5,6,7)            -36.6457         estimate D2E/DX2                !
 ! D57   D(4,5,6,19)           175.488          estimate D2E/DX2                !
 ! D58   D(17,5,6,2)           161.0498         estimate D2E/DX2                !
 ! D59   D(17,5,6,7)            77.7461         estimate D2E/DX2                !
 ! D60   D(17,5,6,19)          -70.1202         estimate D2E/DX2                !
 ! D61   D(18,5,6,2)           -67.612          estimate D2E/DX2                !
 ! D62   D(18,5,6,7)          -150.9157         estimate D2E/DX2                !
 ! D63   D(18,5,6,19)           61.2181         estimate D2E/DX2                !
 ! D64   D(2,6,7,4)            -49.1821         estimate D2E/DX2                !
 ! D65   D(2,6,7,8)           -151.1954         estimate D2E/DX2                !
 ! D66   D(2,6,7,9)             40.1086         estimate D2E/DX2                !
 ! D67   D(5,6,7,4)             38.4814         estimate D2E/DX2                !
 ! D68   D(5,6,7,8)            -63.5318         estimate D2E/DX2                !
 ! D69   D(5,6,7,9)            127.7722         estimate D2E/DX2                !
 ! D70   D(19,6,7,4)          -178.2335         estimate D2E/DX2                !
 ! D71   D(19,6,7,8)            79.7532         estimate D2E/DX2                !
 ! D72   D(19,6,7,9)           -88.9428         estimate D2E/DX2                !
 ! D73   D(4,7,8,20)           -77.8658         estimate D2E/DX2                !
 ! D74   D(4,7,8,21)           160.7329         estimate D2E/DX2                !
 ! D75   D(4,7,8,22)            43.1735         estimate D2E/DX2                !
 ! D76   D(6,7,8,20)            -1.5815         estimate D2E/DX2                !
 ! D77   D(6,7,8,21)          -122.9828         estimate D2E/DX2                !
 ! D78   D(6,7,8,22)           119.4578         estimate D2E/DX2                !
 ! D79   D(9,7,8,20)           170.4251         estimate D2E/DX2                !
 ! D80   D(9,7,8,21)            49.0238         estimate D2E/DX2                !
 ! D81   D(9,7,8,22)           -68.5356         estimate D2E/DX2                !
 ! D82   D(4,7,9,23)            70.2089         estimate D2E/DX2                !
 ! D83   D(4,7,9,24)           -48.9487         estimate D2E/DX2                !
 ! D84   D(4,7,9,25)          -166.8369         estimate D2E/DX2                !
 ! D85   D(6,7,9,23)            -4.9704         estimate D2E/DX2                !
 ! D86   D(6,7,9,24)          -124.128          estimate D2E/DX2                !
 ! D87   D(6,7,9,25)           117.9838         estimate D2E/DX2                !
 ! D88   D(8,7,9,23)          -174.527          estimate D2E/DX2                !
 ! D89   D(8,7,9,24)            66.3154         estimate D2E/DX2                !
 ! D90   D(8,7,9,25)           -51.5728         estimate D2E/DX2                !
 --------------------------------------------------------------------------------
 Trust Radius=3.00D-01 FncErr=1.00D-07 GrdErr=1.00D-06 EigMax=2.50D+02 EigMin=1.00D-04
 Number of steps in this run=    150 maximum allowed number of steps=    150.
 GradGradGradGradGradGradGradGradGradGradGradGradGradGradGradGradGradGrad

                          Input orientation:                          
 ---------------------------------------------------------------------
 Center     Atomic      Atomic             Coordinates (Angstroms)
 Number     Number       Type             X           Y           Z
 ---------------------------------------------------------------------
      1          6           0        0.825070   -0.042500    0.020930
      2          6           0        2.348200    0.218520    0.053230
      3          6           0        2.829500   -0.022290   -1.380110
      4          6           0        3.306890    1.361060    0.737290
      5          6           0        4.243640    0.107760    1.141760
      6          6           0        2.768820   -0.332220    1.473150
      7          6           0        2.346470    1.304100    2.005380
      8          6           0        3.091620    1.852180    3.237420
      9          6           0        1.244510    2.339320    1.696770
     10          1           0        0.321270    0.670820   -0.639980
     11          1           0        0.347380   -0.010470    1.007110
     12          1           0        0.613800   -1.048770   -0.360280
     13          1           0        2.386100    0.747870   -2.028320
     14          1           0        2.491250   -0.991280   -1.764340
     15          1           0        3.909350    0.042560   -1.518520
     16          1           0        3.652240    2.259190    0.266980
     17          1           0        4.854940    0.192430    2.046590
     18          1           0        4.837120   -0.373430    0.366170
     19          1           0        2.486530   -1.311930    1.820340
     20          1           0        3.797860    1.145620    3.676430
     21          1           0        2.390850    2.146180    4.027370
     22          1           0        3.643530    2.756710    2.950300
     23          1           0        0.539940    2.092550    0.907980
     24          1           0        1.714400    3.278940    1.377410
     25          1           0        0.647990    2.566460    2.586040
 ---------------------------------------------------------------------
                    Distance matrix (angstroms):
                    1          2          3          4          5
     1  C    0.000000
     2  C    1.545671   0.000000
     3  C    2.445621   1.531046   0.000000
     4  C    2.939827   1.640860   2.573896   0.000000
     5  C    3.600758   2.188574   2.894224   1.616124   0.000000
     6  C    2.443572   1.580003   2.870685   1.923072   1.574324
     7  C    2.840076   2.233691   3.667993   1.591761   2.403398
     8  C    4.367250   3.655213   4.990384   2.556988   2.960058
     9  C    2.942352   2.901232   4.190058   2.476087   3.779243
    10  H    1.095190   2.189420   2.705441   3.359647   4.344723
    11  H    1.096250   2.228364   3.443817   3.273010   3.900378
    12  H    1.096602   2.187500   2.646326   3.776860   4.095049
    13  H    2.694610   2.148138   1.099966   2.978667   3.729558
    14  H    2.619834   2.188068   1.095896   3.529437   3.567096
    15  H    3.448177   2.222285   1.090614   2.681432   2.681994
    16  H    3.653930   2.431161   2.931716   1.071025   2.396590
    17  H    4.516452   3.202797   3.986325   2.340175   1.095251
    18  H    4.040452   2.577413   2.683902   2.342603   1.088716
    19  H    2.758583   2.341813   3.467518   2.998477   2.358692
    20  H    4.859196   4.011061   5.279236   2.987643   2.774964
    21  H    4.826339   4.417180   5.842561   3.504307   3.989327
    22  H    4.935636   4.063656   5.209408   2.637912   3.263110
    23  H    2.329505   2.740874   3.866522   2.867093   4.208496
    24  H    3.696337   3.394308   4.443589   2.573721   4.063123
    25  H    3.663034   3.849502   5.214495   3.455519   4.589101
                    6          7          8          9         10
     6  C    0.000000
     7  C    1.771776   0.000000
     8  C    2.826385   1.540637   0.000000
     9  C    3.083935   1.543126   2.454124   0.000000
    10  H    3.385544   3.391225   4.909652   3.016068   0.000000
    11  H    2.486783   2.592489   3.996824   2.608062   1.782623
    12  H    2.918736   3.759586   5.243906   4.013528   1.766577
    13  H    3.684204   4.072063   5.426350   4.208591   2.489367
    14  H    3.315531   4.415939   5.784748   4.962513   2.955601
    15  H    3.223563   4.056100   5.153870   4.765980   3.747114
    16  H    2.991769   2.374714   3.050158   2.801408   3.800113
    17  H    2.226205   2.744072   2.698545   4.215058   5.291567
    18  H    2.346267   3.421177   4.030408   4.694290   4.742963
    19  H    1.077061   2.626303   3.519352   3.858693   3.830512
    20  H    2.845589   2.219022   1.091207   3.444353   5.562689
    21  H    3.579018   2.190779   1.096146   2.604438   5.314509
    22  H    3.533918   2.164559   1.097824   2.738768   5.317749
    23  H    3.341681   2.255990   3.463400   1.086050   2.113129
    24  H    3.763169   2.166530   2.718826   1.098031   3.579520
    25  H    3.760158   2.194437   2.627893   1.094637   3.755982
                   11         12         13         14         15
    11  H    0.000000
    12  H    1.737470   0.000000
    13  H    3.734340   3.025115   0.000000
    14  H    3.638558   2.345103   1.762210   0.000000
    15  H    4.366835   3.659668   1.754323   1.772078   0.000000
    16  H    4.076917   4.535215   3.025822   4.004961   2.857895
    17  H    4.630311   5.031985   4.796726   4.638037   3.691424
    18  H    4.549759   4.338231   3.605329   3.228609   2.141462
    19  H    2.632699   2.886429   4.366354   3.598996   3.873893
    20  H    4.513051   5.590046   5.890284   5.989620   5.311937
    21  H    4.236612   5.711137   6.215036   6.587689   6.122741
    22  H    4.722063   5.883951   5.513912   6.132129   5.235229
    23  H    2.114143   3.388485   3.719990   4.523153   4.630689
    24  H    3.581352   4.791655   4.296102   5.358066   4.866043
    25  H    3.037096   4.663889   5.255532   5.914468   5.818415
                   16         17         18         19         20
    16  H    0.000000
    17  H    2.980771   0.000000
    18  H    2.888679   1.773225   0.000000
    19  H    4.065059   2.814899   2.919018   0.000000
    20  H    3.589651   2.163878   3.787532   3.347269   0.000000
    21  H    3.967922   3.716499   5.073170   4.103494   1.761805
    22  H    2.729067   2.976531   4.230858   4.378275   1.773892
    23  H    3.181990   4.850373   4.984012   4.026425   4.378931
    24  H    2.455233   4.453913   4.910580   4.676372   3.765283
    25  H    3.807620   4.860602   5.578493   4.359866   3.623454
                   21         22         23         24         25
    21  H    0.000000
    22  H    1.761259   0.000000
    23  H    3.627580   3.774182   0.000000
    24  H    2.960239   2.543275   1.734140   0.000000
    25  H    2.300354   3.023597   1.747041   1.762284   0.000000
 Stoichiometry    C9H16
 Framework group  C1[X(C9H16)]
 Deg. of freedom    69
 Full point group                 C1      NOp   1
 Largest Abelian subgroup         C1      NOp   1
 Largest concise Abelian subgroup C1      NOp   1
                         Standard orientation:                         
 ---------------------------------------------------------------------
 Center     Atomic      Atomic             Coordinates (Angstroms)
 Number     Number       Type             X           Y           Z
 ---------------------------------------------------------------------
      1          6           0       -1.379038    1.453115    0.690021
      2          6           0       -1.096591    0.079472    0.040078
      3          6           0       -2.409770   -0.325314   -0.635061
      4          6           0        0.147140   -0.552178   -0.823968
      5          6           0       -0.066922   -1.850318    0.114577
      6          6           0       -0.124352   -0.607338    1.079045
      7          6           0        1.128955    0.234110    0.151478
      8          6           0        2.523859   -0.418616    0.109605
      9          6           0        1.301287    1.616255   -0.512760
     10          1           0       -1.624320    2.201429   -0.071100
     11          1           0       -0.555139    1.831270    1.306426
     12          1           0       -2.233816    1.388219    1.373891
     13          1           0       -2.610456    0.381345   -1.453771
     14          1           0       -3.258405   -0.258128    0.055077
     15          1           0       -2.408919   -1.320885   -1.080344
     16          1           0        0.227324   -0.572987   -1.891785
     17          1           0        0.801311   -2.485006    0.321746
     18          1           0       -0.928882   -2.490270   -0.066496
     19          1           0       -0.346503   -0.660038    2.131628
     20          1           0        2.598467   -1.338164    0.692355
     21          1           0        3.294505    0.266513    0.481409
     22          1           0        2.781015   -0.649847   -0.932326
     23          1           0        0.442826    2.281414   -0.502175
     24          1           0        1.542016    1.476240   -1.574889
     25          1           0        2.131559    2.173771   -0.067728
 ---------------------------------------------------------------------
 Rotational constants (GHZ):           2.4552085           1.4807461           1.1613798
 Standard basis: 6-31G(2df,p) (6D, 7F)
 There are   359 symmetry adapted cartesian basis functions of A   symmetry.
 There are   332 symmetry adapted basis functions of A   symmetry.
   332 basis functions,   508 primitive gaussians,   359 cartesian basis functions
    35 alpha electrons       35 beta electrons
       nuclear repulsion energy       486.0660233007 Hartrees.
 NAtoms=   25 NActive=   25 NUniq=   25 SFac= 1.00D+00 NAtFMM=   60 NAOKFM=F Big=F
 Integral buffers will be    131072 words long.
 Raffenetti 2 integral format.
 Two-electron integral symmetry is turned on.
 One-electron integrals computed using PRISM.
 PrsmSu:  requested number of processors reduced to:  13 ShMem   1 Linda.
 NBasis=   332 RedAO= T EigKep=  3.41D-04  NBF=   332
 NBsUse=   332 1.00D-06 EigRej= -1.00D+00 NBFU=   332
 ExpMin= 1.61D-01 ExpMax= 3.05D+03 ExpMxC= 4.57D+02 IAcc=3 IRadAn=         5 AccDes= 0.00D+00
 Harris functional with IExCor=  402 and IRadAn=       5 diagonalized for initial guess.
 HarFok:  IExCor=  402 AccDes= 0.00D+00 IRadAn=         5 IDoV= 1 UseB2=F ITyADJ=14
 ICtDFT=  3500011 ScaDFX=  1.000000  1.000000  1.000000  1.000000
 FoFCou: FMM=F IPFlag=           0 FMFlag=      100000 FMFlg1=           0
         NFxFlg=           0 DoJE=T BraDBF=F KetDBF=T FulRan=T
         wScrn=  0.000000 ICntrl=       500 IOpCl=  0 I1Cent=   200000004 NGrid=           0
         NMat0=    1 NMatS0=      1 NMatT0=    0 NMatD0=    1 NMtDS0=    0 NMtDT0=    0
 Petite list used in FoFCou.
 Requested convergence on RMS density matrix=1.00D-08 within 128 cycles.
 Requested convergence on MAX density matrix=1.00D-06.
 Requested convergence on             energy=1.00D-06.
 No special actions if energy rises.
 Integral accuracy reduced to 1.0D-05 until final iterations.
 Initial convergence to 1.0D-05 achieved.  Increase integral accuracy.
 SCF Done:  E(RB3LYP) =  -352.455680225     A.U. after   12 cycles
            NFock= 12  Conv=0.50D-08     -V/T= 2.0097

 **********************************************************************

            Population analysis using the SCF density.

 **********************************************************************

 Orbital symmetries:
       Occupied  (A) (A) (A) (A) (A) (A) (A) (A) (A) (A) (A) (A)
                 (A) (A) (A) (A) (A) (A) (A) (A) (A) (A) (A) (A)
                 (A) (A) (A) (A) (A) (A) (A) (A) (A) (A) (A)
       Virtual   (A) (A) (A) (A) (A) (A) (A) (A) (A) (A) (A) (A)
                 (A) (A) (A) (A) (A) (A) (A) (A) (A) (A) (A) (A)
                 (A) (A) (A) (A) (A) (A) (A) (A) (A) (A) (A) (A)
                 (A) (A) (A) (A) (A) (A) (A) (A) (A) (A) (A) (A)
                 (A) (A) (A) (A) (A) (A) (A) (A) (A) (A) (A) (A)
                 (A) (A) (A) (A) (A) (A) (A) (A) (A) (A) (A) (A)
                 (A) (A) (A) (A) (A) (A) (A) (A) (A) (A) (A) (A)
                 (A) (A) (A) (A) (A) (A) (A) (A) (A) (A) (A) (A)
                 (A) (A) (A) (A) (A) (A) (A) (A) (A) (A) (A) (A)
                 (A) (A) (A) (A) (A) (A) (A) (A) (A) (A) (A) (A)
                 (A) (A) (A) (A) (A) (A) (A) (A) (A) (A) (A) (A)
                 (A) (A) (A) (A) (A) (A) (A) (A) (A) (A) (A) (A)
                 (A) (A) (A) (A) (A) (A) (A) (A) (A) (A) (A) (A)
                 (A) (A) (A) (A) (A) (A) (A) (A) (A) (A) (A) (A)
                 (A) (A) (A) (A) (A) (A) (A) (A) (A) (A) (A) (A)
                 (A) (A) (A) (A) (A) (A) (A) (A) (A) (A) (A) (A)
                 (A) (A) (A) (A) (A) (A) (A) (A) (A) (A) (A) (A)
                 (A) (A) (A) (A) (A) (A) (A) (A) (A) (A) (A) (A)
                 (A) (A) (A) (A) (A) (A) (A) (A) (A) (A) (A) (A)
                 (A) (A) (A) (A) (A) (A) (A) (A) (A) (A) (A) (A)
                 (A) (A) (A) (A) (A) (A) (A) (A) (A) (A) (A) (A)
                 (A) (A) (A) (A) (A) (A) (A) (A) (A) (A) (A) (A)
                 (A) (A) (A) (A) (A) (A) (A) (A) (A) (A) (A) (A)
                 (A) (A) (A) (A) (A) (A) (A) (A) (A) (A) (A) (A)
                 (A) (A) (A) (A) (A) (A) (A) (A) (A)
 The electronic state is 1-A.
 Alpha  occ. eigenvalues --  -10.20765 -10.20670 -10.19419 -10.19171 -10.18167
 Alpha  occ. eigenvalues --  -10.17250 -10.16748 -10.16541 -10.16442  -0.87533
 Alpha  occ. eigenvalues --   -0.76397  -0.73592  -0.68274  -0.67122  -0.62214
 Alpha  occ. eigenvalues --   -0.60740  -0.54528  -0.50009  -0.47642  -0.45273
 Alpha  occ. eigenvalues --   -0.44174  -0.42481  -0.41278  -0.39306  -0.38634
 Alpha  occ. eigenvalues --   -0.37747  -0.36250  -0.35958  -0.34876  -0.33537
 Alpha  occ. eigenvalues --   -0.31429  -0.29436  -0.27957  -0.26443  -0.24126
 Alpha virt. eigenvalues --    0.05270   0.09141   0.09537   0.11056   0.12345
 Alpha virt. eigenvalues --    0.12911   0.13832   0.14741   0.15349   0.16105
 Alpha virt. eigenvalues --    0.16774   0.18051   0.18295   0.18580   0.19729
 Alpha virt. eigenvalues --    0.20751   0.21241   0.22494   0.23380   0.23934
 Alpha virt. eigenvalues --    0.24862   0.25555   0.26424   0.27288   0.29326
 Alpha virt. eigenvalues --    0.31822   0.43588   0.44790   0.45529   0.46083
 Alpha virt. eigenvalues --    0.47263   0.48790   0.49323   0.50266   0.52438
 Alpha virt. eigenvalues --    0.54637   0.55943   0.58515   0.58760   0.60793
 Alpha virt. eigenvalues --    0.61600   0.63228   0.63918   0.64728   0.66257
 Alpha virt. eigenvalues --    0.68780   0.69383   0.70865   0.72162   0.73450
 Alpha virt. eigenvalues --    0.73598   0.74453   0.74692   0.75080   0.75522
 Alpha virt. eigenvalues --    0.76193   0.77294   0.77826   0.78096   0.79240
 Alpha virt. eigenvalues --    0.79292   0.82477   0.83031   0.84482   0.88028
 Alpha virt. eigenvalues --    0.88392   0.89217   0.90814   0.92647   0.94266
 Alpha virt. eigenvalues --    0.95382   0.97746   1.02738   1.05452   1.08592
 Alpha virt. eigenvalues --    1.11437   1.12510   1.15044   1.19619   1.20203
 Alpha virt. eigenvalues --    1.24545   1.25433   1.27674   1.28923   1.31515
 Alpha virt. eigenvalues --    1.33939   1.35905   1.37118   1.37552   1.43001
 Alpha virt. eigenvalues --    1.44371   1.45696   1.47166   1.48480   1.48607
 Alpha virt. eigenvalues --    1.51864   1.51994   1.53785   1.55626   1.56863
 Alpha virt. eigenvalues --    1.58466   1.59777   1.60885   1.64970   1.65348
 Alpha virt. eigenvalues --    1.66933   1.69765   1.70703   1.72699   1.76480
 Alpha virt. eigenvalues --    1.77865   1.81567   1.84146   1.85568   1.87963
 Alpha virt. eigenvalues --    1.88702   1.90419   1.92848   1.93051   1.97163
 Alpha virt. eigenvalues --    1.99173   1.99627   2.00479   2.02524   2.04051
 Alpha virt. eigenvalues --    2.04678   2.22208   2.23910   2.24886   2.26337
 Alpha virt. eigenvalues --    2.29978   2.32862   2.33964   2.35091   2.38040
 Alpha virt. eigenvalues --    2.38455   2.40876   2.43386   2.44464   2.46787
 Alpha virt. eigenvalues --    2.48117   2.50341   2.53633   2.54214   2.57206
 Alpha virt. eigenvalues --    2.58848   2.62386   2.67679   2.69355   2.69704
 Alpha virt. eigenvalues --    2.72948   2.74119   2.77640   2.78731   2.81019
 Alpha virt. eigenvalues --    2.82008   2.83509   2.84322   2.85078   2.88007
 Alpha virt. eigenvalues --    2.90427   2.91409   2.93280   2.94280   2.94718
 Alpha virt. eigenvalues --    2.95361   2.96749   2.97491   2.99159   3.00584
 Alpha virt. eigenvalues --    3.01592   3.02249   3.05318   3.07076   3.08721
 Alpha virt. eigenvalues --    3.10206   3.10485   3.11344   3.14052   3.15822
 Alpha virt. eigenvalues --    3.19265   3.23468   3.25760   3.29071   3.30078
 Alpha virt. eigenvalues --    3.31187   3.33019   3.34863   3.38943   3.39851
 Alpha virt. eigenvalues --    3.41336   3.42174   3.45923   3.46837   3.48860
 Alpha virt. eigenvalues --    3.51717   3.52351   3.55973   3.57975   3.59419
 Alpha virt. eigenvalues --    3.61520   3.62871   3.65959   3.66642   3.67840
 Alpha virt. eigenvalues --    3.71238   3.76178   3.79209   3.81561   3.83056
 Alpha virt. eigenvalues --    3.85123   3.85320   3.86512   3.86771   3.94256
 Alpha virt. eigenvalues --    3.94520   3.97245   4.00398   4.02421   4.03955
 Alpha virt. eigenvalues --    4.08233   4.10724   4.14942   4.16448   4.22262
 Alpha virt. eigenvalues --    4.24067   4.26177   4.28532   4.34648   4.36529
 Alpha virt. eigenvalues --    4.41331   4.42356   4.43180   4.43833   4.46033
 Alpha virt. eigenvalues --    4.46862   4.50300   4.52108   4.53096   4.53444
 Alpha virt. eigenvalues --    4.53706   4.56186   4.56817   4.59617   4.63318
 Alpha virt. eigenvalues --    4.64650   4.67382   4.67868   4.70751   4.72098
 Alpha virt. eigenvalues --    4.72988   4.74089   4.75955   4.76922   4.77882
 Alpha virt. eigenvalues --    4.79452   4.80592   4.83706   4.84781   4.87488
 Alpha virt. eigenvalues --    4.88092   4.91844   4.92693   4.95014   4.97265
 Alpha virt. eigenvalues --    4.98994   5.01993   5.05539   5.07760   5.10114
 Alpha virt. eigenvalues --    5.15903   5.19917   5.23075   5.29419   5.31901
 Alpha virt. eigenvalues --    5.38823   5.40279   5.42528   5.47551   5.54118
 Alpha virt. eigenvalues --    5.62377   5.68751   5.72498   5.75053   5.82191
 Alpha virt. eigenvalues --    6.12682   6.45715   7.19131  11.13258  11.46199
 Alpha virt. eigenvalues --   11.65736  11.89306  11.95183  12.12596  12.32187
 Alpha virt. eigenvalues --   12.46968  13.05321
          Condensed to atoms (all electrons):
               1          2          3          4          5          6
     1  C    5.201426   0.373376  -0.076409  -0.026300   0.007576  -0.079886
     2  C    0.373376   4.374501   0.367323   0.352166  -0.015608   0.352644
     3  C   -0.076409   0.367323   5.196664  -0.063156  -0.004439  -0.027385
     4  C   -0.026300   0.352166  -0.063156   5.032440   0.315937  -0.065741
     5  C    0.007576  -0.015608  -0.004439   0.315937   5.047915   0.305985
     6  C   -0.079886   0.352644  -0.027385  -0.065741   0.305985   5.087047
     7  C   -0.005679  -0.013514   0.002575   0.325806  -0.008979   0.313324
     8  C    0.000574  -0.001013  -0.000466  -0.038336  -0.008352  -0.024805
     9  C   -0.005171  -0.000422   0.000318  -0.049708   0.005559  -0.028676
    10  H    0.348016  -0.024788   0.001885  -0.002915  -0.000419   0.007521
    11  H    0.364397  -0.014416   0.006637  -0.001483   0.000710  -0.004449
    12  H    0.363256  -0.015654  -0.009634   0.003226  -0.000145  -0.004060
    13  H   -0.007125  -0.017356   0.369489  -0.005120  -0.000212   0.004211
    14  H   -0.002301  -0.018047   0.352384   0.005826  -0.000003  -0.002910
    15  H    0.006862  -0.013242   0.354707  -0.002595   0.000887  -0.003658
    16  H   -0.000370  -0.033104   0.002024   0.333552  -0.043818   0.013657
    17  H   -0.000568   0.002106   0.000331  -0.011159   0.346282  -0.020312
    18  H    0.000328  -0.009142   0.001779  -0.021695   0.377172  -0.016822
    19  H    0.001138  -0.038666  -0.000823   0.014580  -0.046867   0.340761
    20  H    0.000020   0.000480  -0.000001  -0.001885   0.001195  -0.006962
    21  H   -0.000008  -0.000201   0.000004   0.004889   0.000025   0.000398
    22  H   -0.000012   0.000414   0.000023  -0.014379  -0.000025   0.003681
    23  H   -0.001178  -0.002706  -0.000301   0.002176  -0.000140  -0.000705
    24  H    0.000203  -0.000238   0.000104  -0.013813   0.000228   0.002448
    25  H   -0.000007   0.000306  -0.000009   0.004770  -0.000217   0.000009
               7          8          9         10         11         12
     1  C   -0.005679   0.000574  -0.005171   0.348016   0.364397   0.363256
     2  C   -0.013514  -0.001013  -0.000422  -0.024788  -0.014416  -0.015654
     3  C    0.002575  -0.000466   0.000318   0.001885   0.006637  -0.009634
     4  C    0.325806  -0.038336  -0.049708  -0.002915  -0.001483   0.003226
     5  C   -0.008979  -0.008352   0.005559  -0.000419   0.000710  -0.000145
     6  C    0.313324  -0.024805  -0.028676   0.007521  -0.004449  -0.004060
     7  C    4.590880   0.356057   0.406780   0.000068   0.002135  -0.000253
     8  C    0.356057   5.118159  -0.062897  -0.000019  -0.000527  -0.000004
     9  C    0.406780  -0.062897   5.086199  -0.004412  -0.004081   0.000768
    10  H    0.000068  -0.000019  -0.004412   0.627968  -0.033642  -0.032930
    11  H    0.002135  -0.000527  -0.004081  -0.033642   0.602410  -0.035999
    12  H   -0.000253  -0.000004   0.000768  -0.032930  -0.035999   0.614382
    13  H    0.000013   0.000005   0.000026   0.004548  -0.000055   0.000057
    14  H   -0.000215   0.000006   0.000002  -0.000825  -0.000061   0.005815
    15  H    0.000532  -0.000002   0.000024  -0.000191  -0.000229   0.000073
    16  H   -0.040699  -0.001930  -0.003804   0.000316  -0.000025  -0.000033
    17  H   -0.013759   0.005465   0.000019   0.000011  -0.000011   0.000010
    18  H    0.003707  -0.000132  -0.000215  -0.000006   0.000009  -0.000012
    19  H   -0.032538   0.001386  -0.000158  -0.000166  -0.000048   0.002085
    20  H   -0.012243   0.362122   0.004693  -0.000000   0.000004  -0.000000
    21  H   -0.020187   0.362084  -0.009017   0.000001   0.000034  -0.000001
    22  H   -0.021296   0.367420   0.000824  -0.000000   0.000014   0.000000
    23  H   -0.018366   0.005653   0.359796   0.006725  -0.002498  -0.000020
    24  H   -0.022383  -0.001452   0.371386   0.000195   0.000316  -0.000025
    25  H   -0.023955  -0.006794   0.361738  -0.000045   0.000780  -0.000023
              13         14         15         16         17         18
     1  C   -0.007125  -0.002301   0.006862  -0.000370  -0.000568   0.000328
     2  C   -0.017356  -0.018047  -0.013242  -0.033104   0.002106  -0.009142
     3  C    0.369489   0.352384   0.354707   0.002024   0.000331   0.001779
     4  C   -0.005120   0.005826  -0.002595   0.333552  -0.011159  -0.021695
     5  C   -0.000212  -0.000003   0.000887  -0.043818   0.346282   0.377172
     6  C    0.004211  -0.002910  -0.003658   0.013657  -0.020312  -0.016822
     7  C    0.000013  -0.000215   0.000532  -0.040699  -0.013759   0.003707
     8  C    0.000005   0.000006  -0.000002  -0.001930   0.005465  -0.000132
     9  C    0.000026   0.000002   0.000024  -0.003804   0.000019  -0.000215
    10  H    0.004548  -0.000825  -0.000191   0.000316   0.000011  -0.000006
    11  H   -0.000055  -0.000061  -0.000229  -0.000025  -0.000011   0.000009
    12  H    0.000057   0.005815   0.000073  -0.000033   0.000010  -0.000012
    13  H    0.600246  -0.035892  -0.033818   0.001782  -0.000005  -0.000047
    14  H   -0.035892   0.624375  -0.032160  -0.000141   0.000014  -0.000163
    15  H   -0.033818  -0.032160   0.612213  -0.000173  -0.000363   0.004099
    16  H    0.001782  -0.000141  -0.000173   0.701487   0.001332   0.000317
    17  H   -0.000005   0.000014  -0.000363   0.001332   0.646879  -0.048233
    18  H   -0.000047  -0.000163   0.004099   0.000317  -0.048233   0.596747
    19  H   -0.000076   0.000608  -0.000045  -0.000995   0.000984   0.000192
    20  H    0.000000  -0.000000   0.000000  -0.000182   0.002955  -0.000059
    21  H   -0.000000  -0.000000   0.000000  -0.000120  -0.000139  -0.000001
    22  H   -0.000001   0.000000   0.000001   0.005262  -0.000019   0.000019
    23  H    0.000102   0.000001  -0.000013   0.000076   0.000008  -0.000003
    24  H   -0.000013   0.000000  -0.000004   0.007640  -0.000011   0.000007
    25  H   -0.000001  -0.000000   0.000000  -0.000172  -0.000002   0.000003
              19         20         21         22         23         24
     1  C    0.001138   0.000020  -0.000008  -0.000012  -0.001178   0.000203
     2  C   -0.038666   0.000480  -0.000201   0.000414  -0.002706  -0.000238
     3  C   -0.000823  -0.000001   0.000004   0.000023  -0.000301   0.000104
     4  C    0.014580  -0.001885   0.004889  -0.014379   0.002176  -0.013813
     5  C   -0.046867   0.001195   0.000025  -0.000025  -0.000140   0.000228
     6  C    0.340761  -0.006962   0.000398   0.003681  -0.000705   0.002448
     7  C   -0.032538  -0.012243  -0.020187  -0.021296  -0.018366  -0.022383
     8  C    0.001386   0.362122   0.362084   0.367420   0.005653  -0.001452
     9  C   -0.000158   0.004693  -0.009017   0.000824   0.359796   0.371386
    10  H   -0.000166  -0.000000   0.000001  -0.000000   0.006725   0.000195
    11  H   -0.000048   0.000004   0.000034   0.000014  -0.002498   0.000316
    12  H    0.002085  -0.000000  -0.000001   0.000000  -0.000020  -0.000025
    13  H   -0.000076   0.000000  -0.000000  -0.000001   0.000102  -0.000013
    14  H    0.000608  -0.000000  -0.000000   0.000000   0.000001   0.000000
    15  H   -0.000045   0.000000   0.000000   0.000001  -0.000013  -0.000004
    16  H   -0.000995  -0.000182  -0.000120   0.005262   0.000076   0.007640
    17  H    0.000984   0.002955  -0.000139  -0.000019   0.000008  -0.000011
    18  H    0.000192  -0.000059  -0.000001   0.000019  -0.000003   0.000007
    19  H    0.690815   0.000093   0.000069  -0.000144   0.000034  -0.000067
    20  H    0.000093   0.599708  -0.030919  -0.032462  -0.000216  -0.000026
    21  H    0.000069  -0.030919   0.621437  -0.036562   0.000149  -0.000266
    22  H   -0.000144  -0.032462  -0.036562   0.610820  -0.000182   0.003383
    23  H    0.000034  -0.000216   0.000149  -0.000182   0.589192  -0.033880
    24  H   -0.000067  -0.000026  -0.000266   0.003383  -0.033880   0.599141
    25  H    0.000055   0.000098   0.006323  -0.000619  -0.030204  -0.035437
              25
     1  C   -0.000007
     2  C    0.000306
     3  C   -0.000009
     4  C    0.004770
     5  C   -0.000217
     6  C    0.000009
     7  C   -0.023955
     8  C   -0.006794
     9  C    0.361738
    10  H   -0.000045
    11  H    0.000780
    12  H   -0.000023
    13  H   -0.000001
    14  H   -0.000000
    15  H    0.000000
    16  H   -0.000172
    17  H   -0.000002
    18  H    0.000003
    19  H    0.000055
    20  H    0.000098
    21  H    0.006323
    22  H   -0.000619
    23  H   -0.030204
    24  H   -0.035437
    25  H    0.617265
 Mulliken charges:
               1
     1  C   -0.462159
     2  C    0.394799
     3  C   -0.473623
     4  C   -0.077083
     5  C   -0.280248
     6  C   -0.145315
     7  C    0.232187
     8  C   -0.432201
     9  C   -0.429569
    10  H    0.103105
    11  H    0.120076
    12  H    0.109119
    13  H    0.119244
    14  H    0.103686
    15  H    0.107097
    16  H    0.058120
    17  H    0.088187
    18  H    0.112149
    19  H    0.067794
    20  H    0.113587
    21  H    0.102005
    22  H    0.113841
    23  H    0.126500
    24  H    0.122564
    25  H    0.106138
 Sum of Mulliken charges =  -0.00000
 Mulliken charges with hydrogens summed into heavy atoms:
               1
     1  C   -0.129859
     2  C    0.394799
     3  C   -0.143596
     4  C   -0.018963
     5  C   -0.079912
     6  C   -0.077521
     7  C    0.232187
     8  C   -0.102768
     9  C   -0.074368
 Electronic spatial extent (au):  <R**2>=           1227.6156
 Charge=             -0.0000 electrons
 Dipole moment (field-independent basis, Debye):
    X=             -0.1670    Y=              0.0384    Z=             -0.1939  Tot=              0.2588
 Quadrupole moment (field-independent basis, Debye-Ang):
   XX=            -59.2219   YY=            -58.4891   ZZ=            -57.4970
   XY=              0.5185   XZ=             -0.5060   YZ=             -0.3696
 Traceless Quadrupole moment (field-independent basis, Debye-Ang):
   XX=             -0.8192   YY=             -0.0864   ZZ=              0.9056
   XY=              0.5185   XZ=             -0.5060   YZ=             -0.3696
 Octapole moment (field-independent basis, Debye-Ang**2):
  XXX=             -0.6632  YYY=             -2.2570  ZZZ=             -1.0364  XYY=             -0.2914
  XXY=              1.5257  XXZ=              0.7655  XZZ=             -0.7549  YZZ=              0.5823
  YYZ=             -0.4551  XYZ=             -0.0242
 Hexadecapole moment (field-independent basis, Debye-Ang**3):
 XXXX=           -952.5781 YYYY=           -530.6314 ZZZZ=           -235.3596 XXXY=              3.3544
 XXXZ=             -4.5956 YYYX=              5.0983 YYYZ=             -1.7632 ZZZX=             -4.9754
 ZZZY=             -1.4148 XXYY=           -242.0293 XXZZ=           -193.0089 YYZZ=           -129.5696
 XXYZ=              0.0581 YYXZ=              5.2304 ZZXY=             -1.0968
 N-N= 4.860660233007D+02 E-N=-1.786615360455D+03  KE= 3.490834688851D+02
 PrsmSu:  requested number of processors reduced to:  13 ShMem   1 Linda.
 Calling FoFJK, ICntrl=      2127 FMM=F ISym2X=0 I1Cent= 0 IOpClX= 0 NMat=1 NMatS=1 NMatT=0.
 ***** Axes restored to original set *****
 -------------------------------------------------------------------
 Center     Atomic                   Forces (Hartrees/Bohr)
 Number     Number              X              Y              Z
 -------------------------------------------------------------------
      1        6          -0.010236355    0.023997846   -0.003957677
      2        6          -0.004360126   -0.003288076    0.004671679
      3        6           0.005916351   -0.018903981    0.002154204
      4        6          -0.023305495   -0.044701876    0.009454470
      5        6          -0.031193262    0.030808695    0.036290443
      6        6           0.014738762    0.021590811   -0.037533472
      7        6           0.075394083    0.006800421   -0.024293605
      8        6          -0.005740285   -0.007761270    0.007872742
      9        6          -0.020593471   -0.012737497    0.006952157
     10        1          -0.007090475   -0.002624216   -0.001437478
     11        1           0.002193143    0.002645282   -0.003399650
     12        1           0.007700690    0.000118956   -0.003337852
     13        1          -0.000846498   -0.000742807    0.004031971
     14        1           0.001673177   -0.000760834   -0.002999151
     15        1           0.001950695   -0.000618416    0.000956385
     16        1           0.002256617    0.015177243   -0.006247879
     17        1           0.003600935    0.008273363   -0.003850066
     18        1          -0.010297315   -0.004300218   -0.003226432
     19        1          -0.007647837   -0.005680185    0.011413933
     20        1           0.001311693   -0.000075213   -0.000399927
     21        1           0.000470985   -0.001614687    0.001391124
     22        1          -0.000393846   -0.000667187    0.001368540
     23        1           0.000638605   -0.001987967   -0.000904102
     24        1           0.004795323   -0.002788494    0.003949166
     25        1          -0.000936096   -0.000159693    0.001080475
 -------------------------------------------------------------------
 Cartesian Forces:  Max     0.075394083 RMS     0.015141612

 GradGradGradGradGradGradGradGradGradGradGradGradGradGradGradGradGradGrad
 Berny optimization.
 FormGI is forming the generalized inverse of G from B-inverse, IUseBI=4.
 Internal  Forces:  Max     0.028149344 RMS     0.006572167
 Search for a local minimum.
 Step number   1 out of a maximum of  150
 All quantities printed in internal units (Hartrees-Bohrs-Radians)
 Mixed Optimization -- RFO/linear search
 Second derivative matrix not updated -- first step.
 ITU=  0
     Eigenvalues ---    0.00230   0.00230   0.00230   0.00355   0.01523
     Eigenvalues ---    0.01816   0.01915   0.02043   0.02401   0.02574
     Eigenvalues ---    0.02919   0.03110   0.03284   0.04051   0.04514
     Eigenvalues ---    0.04722   0.05012   0.05056   0.05073   0.05097
     Eigenvalues ---    0.05143   0.05482   0.05529   0.05600   0.05742
     Eigenvalues ---    0.06921   0.08068   0.09346   0.10389   0.10511
     Eigenvalues ---    0.14247   0.16000   0.16000   0.16000   0.16000
     Eigenvalues ---    0.16000   0.16000   0.16000   0.16000   0.16000
     Eigenvalues ---    0.16000   0.16000   0.16000   0.16160   0.16744
     Eigenvalues ---    0.18068   0.20066   0.21218   0.23351   0.28022
     Eigenvalues ---    0.28244   0.28463   0.29327   0.33686   0.33901
     Eigenvalues ---    0.33924   0.34061   0.34100   0.34112   0.34140
     Eigenvalues ---    0.34213   0.34220   0.34282   0.34674   0.34742
     Eigenvalues ---    0.34961   0.35273   0.36352   0.37101
 RFO step:  Lambda=-5.16147630D-02 EMin= 2.30000000D-03
 Linear search not attempted -- first point.
 Maximum step size (   0.300) exceeded in Quadratic search.
    -- Step size scaled by   0.849
 Iteration  1 RMS(Cart)=  0.10567598 RMS(Int)=  0.00345234
 Iteration  2 RMS(Cart)=  0.00574372 RMS(Int)=  0.00120951
 Iteration  3 RMS(Cart)=  0.00001268 RMS(Int)=  0.00120949
 Iteration  4 RMS(Cart)=  0.00000001 RMS(Int)=  0.00120949
 Variable       Old X    -DE/DX   Delta X   Delta X   Delta X     New X
                                 (Linear)    (Quad)   (Total)
    R1        2.92090   0.00350   0.00000   0.00896   0.00896   2.92986
    R2        2.06961   0.00242   0.00000   0.00522   0.00522   2.07483
    R3        2.07161  -0.00394   0.00000  -0.00851  -0.00851   2.06310
    R4        2.07228  -0.00043   0.00000  -0.00094  -0.00094   2.07134
    R5        2.89326   0.00216   0.00000   0.00532   0.00532   2.89858
    R6        3.10078  -0.00406   0.00000  -0.01676  -0.01789   3.08289
    R7        2.98577  -0.00380   0.00000  -0.00961  -0.01005   2.97572
    R8        2.07864  -0.00255   0.00000  -0.00558  -0.00558   2.07305
    R9        2.07094   0.00121   0.00000   0.00261   0.00261   2.07355
   R10        2.06096   0.00177   0.00000   0.00377   0.00377   2.06473
   R11        3.05403  -0.02815   0.00000  -0.08779  -0.08654   2.96749
   R12        3.00799  -0.01638   0.00000  -0.04528  -0.04612   2.96188
   R13        2.02394   0.01620   0.00000   0.03255   0.03255   2.05649
   R14        2.97504  -0.02614   0.00000  -0.06246  -0.06143   2.91361
   R15        2.06972  -0.00053   0.00000  -0.00115  -0.00115   2.06858
   R16        2.05737  -0.00141   0.00000  -0.00299  -0.00299   2.05438
   R17        3.34817  -0.02358   0.00000  -0.10917  -0.10900   3.23918
   R18        2.03535   0.01085   0.00000   0.02220   0.02220   2.05755
   R19        2.91138   0.00248   0.00000   0.00626   0.00626   2.91764
   R20        2.91608  -0.00258   0.00000  -0.00656  -0.00656   2.90953
   R21        2.06208   0.00074   0.00000   0.00157   0.00157   2.06365
   R22        2.07142   0.00027   0.00000   0.00058   0.00058   2.07199
   R23        2.07459  -0.00111   0.00000  -0.00240  -0.00240   2.07218
   R24        2.05234   0.00069   0.00000   0.00146   0.00146   2.05379
   R25        2.07498  -0.00148   0.00000  -0.00322  -0.00322   2.07176
   R26        2.06856   0.00136   0.00000   0.00292   0.00292   2.07148
    A1        1.93470   0.01181   0.00000   0.04931   0.04941   1.98411
    A2        1.98850  -0.00096   0.00000  -0.00133  -0.00176   1.98674
    A3        1.93058  -0.01311   0.00000  -0.05694  -0.05670   1.87388
    A4        1.90011  -0.00405   0.00000  -0.00873  -0.00918   1.89093
    A5        1.87471  -0.00081   0.00000  -0.00815  -0.00737   1.86735
    A6        1.82925   0.00669   0.00000   0.02353   0.02320   1.85245
    A7        1.83760  -0.00148   0.00000   0.00470   0.00427   1.84187
    A8        2.34905  -0.00505   0.00000  -0.04482  -0.04380   2.30525
    A9        1.79492   0.01093   0.00000   0.07028   0.07226   1.86718
   A10        1.89245   0.00740   0.00000   0.03749   0.03787   1.93032
   A11        2.35015  -0.00993   0.00000  -0.08565  -0.08440   2.26574
   A12        1.27920  -0.00707   0.00000  -0.02309  -0.02309   1.25611
   A13        1.89109  -0.00511   0.00000  -0.02157  -0.02157   1.86952
   A14        1.95010   0.00565   0.00000   0.02406   0.02413   1.97424
   A15        2.00503  -0.00176   0.00000  -0.00738  -0.00746   1.99758
   A16        1.86299   0.00019   0.00000   0.00154   0.00169   1.86468
   A17        1.85741   0.00291   0.00000   0.00905   0.00890   1.86631
   A18        1.88987  -0.00188   0.00000  -0.00586  -0.00585   1.88402
   A19        1.47365   0.00378   0.00000   0.02748   0.02869   1.50234
   A20        1.52546   0.00772   0.00000   0.05365   0.05283   1.57829
   A21        2.20090  -0.00603   0.00000  -0.02227  -0.02281   2.17809
   A22        1.69370  -0.01070   0.00000  -0.07789  -0.08072   1.61299
   A23        2.18133   0.00008   0.00000  -0.00246  -0.00207   2.17926
   A24        2.18266   0.00555   0.00000   0.02777   0.02775   2.21040
   A25        1.29368   0.00449   0.00000   0.00776   0.00696   1.30065
   A26        2.06045  -0.00090   0.00000  -0.01010  -0.01074   2.04971
   A27        2.07194  -0.00424   0.00000  -0.01678  -0.01685   2.05509
   A28        1.95041   0.00554   0.00000   0.05029   0.05066   2.00108
   A29        2.13779  -0.00915   0.00000  -0.05614  -0.05591   2.08188
   A30        1.89489   0.00366   0.00000   0.01875   0.01913   1.91402
   A31        1.53359   0.00366   0.00000   0.01991   0.02075   1.55434
   A32        1.45512   0.00943   0.00000   0.06779   0.06724   1.52236
   A33        2.13765  -0.00281   0.00000   0.00483   0.00566   2.14331
   A34        1.59924  -0.00885   0.00000  -0.05998  -0.06348   1.53576
   A35        2.17438   0.00656   0.00000   0.03159   0.02894   2.20332
   A36        2.31960  -0.00500   0.00000  -0.03961  -0.03960   2.28000
   A37        1.21313   0.00047   0.00000   0.00755   0.00738   1.22051
   A38        1.90978   0.00499   0.00000   0.04474   0.04454   1.95432
   A39        1.82094   0.00004   0.00000   0.02814   0.02891   1.84985
   A40        2.04146  -0.00034   0.00000  -0.00856  -0.00920   2.03227
   A41        2.38871  -0.00639   0.00000  -0.03767  -0.03856   2.35015
   A42        1.84072   0.00549   0.00000   0.03032   0.02654   1.86726
   A43        1.98713  -0.00077   0.00000  -0.00438  -0.00437   1.98276
   A44        1.94176   0.00094   0.00000   0.00423   0.00421   1.94597
   A45        1.90405   0.00159   0.00000   0.00717   0.00715   1.91120
   A46        1.87287  -0.00059   0.00000  -0.00380  -0.00379   1.86908
   A47        1.88951  -0.00081   0.00000  -0.00418  -0.00417   1.88534
   A48        1.86386  -0.00043   0.00000   0.00092   0.00088   1.86474
   A49        2.04440  -0.00118   0.00000  -0.00297  -0.00302   2.04138
   A50        1.90355  -0.00795   0.00000  -0.03382  -0.03390   1.86965
   A51        1.94538   0.00131   0.00000   0.00550   0.00547   1.95085
   A52        1.83467   0.00534   0.00000   0.02131   0.02122   1.85589
   A53        1.85839   0.00084   0.00000   0.00653   0.00653   1.86492
   A54        1.86703   0.00231   0.00000   0.00564   0.00558   1.87261
    D1       -1.09645  -0.00147   0.00000  -0.00449  -0.00351  -1.09996
    D2        1.29216   0.00358   0.00000   0.01431   0.01613   1.30829
    D3        2.67248   0.00393   0.00000   0.04746   0.04562   2.71810
    D4        3.03639  -0.00460   0.00000  -0.03038  -0.02974   3.00666
    D5       -0.85818   0.00045   0.00000  -0.01157  -0.01009  -0.86827
    D6        0.52214   0.00080   0.00000   0.02157   0.01940   0.54154
    D7        0.98117  -0.00335   0.00000  -0.01972  -0.01936   0.96181
    D8       -2.91340   0.00170   0.00000  -0.00091   0.00029  -2.91312
    D9       -1.53308   0.00205   0.00000   0.03223   0.02977  -1.50331
   D10        1.14962  -0.00218   0.00000  -0.01737  -0.01752   1.13211
   D11       -0.89797  -0.00251   0.00000  -0.01981  -0.01984  -0.91781
   D12       -3.05965  -0.00323   0.00000  -0.02589  -0.02592  -3.08557
   D13       -1.45295  -0.00095   0.00000   0.00453   0.00291  -1.45004
   D14        2.78264  -0.00128   0.00000   0.00209   0.00059   2.78323
   D15        0.62097  -0.00200   0.00000  -0.00400  -0.00549   0.61548
   D16       -2.92684   0.00439   0.00000   0.02191   0.02343  -2.90341
   D17        1.30875   0.00406   0.00000   0.01946   0.02111   1.32985
   D18       -0.85293   0.00334   0.00000   0.01338   0.01503  -0.83790
   D19        2.38116   0.00577   0.00000   0.07225   0.07197   2.45313
   D20        0.68228   0.01757   0.00000   0.15782   0.15827   0.84056
   D21       -1.63431   0.00625   0.00000   0.08210   0.08271  -1.55159
   D22       -1.52925   0.00821   0.00000   0.08081   0.08074  -1.44851
   D23        3.05507   0.02000   0.00000   0.16639   0.16704  -3.06108
   D24        0.73847   0.00869   0.00000   0.09066   0.09148   0.82995
   D25        0.78041  -0.00432   0.00000  -0.01783  -0.01828   0.76213
   D26       -0.91846   0.00748   0.00000   0.06775   0.06802  -0.85044
   D27        3.04813  -0.00384   0.00000  -0.00798  -0.00754   3.04059
   D28       -3.12601   0.01238   0.00000   0.08610   0.08619  -3.03982
   D29       -1.52224   0.00265   0.00000   0.02054   0.01892  -1.50331
   D30        0.87932   0.00239   0.00000   0.02710   0.02785   0.90717
   D31        0.93618   0.00981   0.00000   0.06736   0.06879   1.00497
   D32        2.53995   0.00007   0.00000   0.00179   0.00152   2.54148
   D33       -1.34167  -0.00018   0.00000   0.00835   0.01045  -1.33122
   D34       -0.80286   0.00472   0.00000   0.02467   0.02510  -0.77775
   D35        0.80092  -0.00501   0.00000  -0.04089  -0.04216   0.75876
   D36       -3.08071  -0.00526   0.00000  -0.03434  -0.03323  -3.11394
   D37       -0.77978   0.00024   0.00000   0.00926   0.01027  -0.76952
   D38       -2.63956  -0.00832   0.00000  -0.05321  -0.05183  -2.69139
   D39        1.29268  -0.00799   0.00000  -0.05072  -0.04934   1.24333
   D40        0.73306   0.00967   0.00000   0.07533   0.07284   0.80590
   D41       -1.12672   0.00111   0.00000   0.01286   0.01075  -1.11597
   D42        2.80552   0.00144   0.00000   0.01534   0.01323   2.81875
   D43       -3.06393   0.00492   0.00000   0.01652   0.01690  -3.04703
   D44        1.35948  -0.00364   0.00000  -0.04595  -0.04519   1.31429
   D45       -0.99147  -0.00331   0.00000  -0.04347  -0.04271  -1.03417
   D46        0.81045  -0.00235   0.00000  -0.03377  -0.03647   0.77398
   D47        2.77272  -0.00390   0.00000  -0.05297  -0.05564   2.71708
   D48       -1.54780   0.00448   0.00000   0.01423   0.01179  -1.53601
   D49       -0.65673  -0.00779   0.00000  -0.07297  -0.07189  -0.72862
   D50        1.30554  -0.00934   0.00000  -0.09217  -0.09106   1.21449
   D51       -3.01497  -0.00095   0.00000  -0.02497  -0.02363  -3.03860
   D52        3.14097  -0.00007   0.00000   0.00226   0.00305  -3.13916
   D53       -1.17994  -0.00163   0.00000  -0.01694  -0.01611  -1.19606
   D54        0.78273   0.00676   0.00000   0.05026   0.05131   0.83404
   D55        0.81433  -0.00006   0.00000  -0.01020  -0.01160   0.80273
   D56       -0.63959  -0.00998   0.00000  -0.08118  -0.08058  -0.72017
   D57        3.06284   0.00271   0.00000   0.02921   0.03113   3.09397
   D58        2.81085  -0.00037   0.00000  -0.02536  -0.02687   2.78398
   D59        1.35693  -0.01029   0.00000  -0.09635  -0.09584   1.26108
   D60       -1.22383   0.00239   0.00000   0.01405   0.01586  -1.20797
   D61       -1.18005   0.00219   0.00000   0.00388   0.00201  -1.17805
   D62       -2.63398  -0.00773   0.00000  -0.06710  -0.06697  -2.70094
   D63        1.06846   0.00495   0.00000   0.04329   0.04474   1.11319
   D64       -0.85839   0.00350   0.00000   0.04602   0.04737  -0.81102
   D65       -2.63886  -0.00257   0.00000  -0.01132  -0.00934  -2.64820
   D66        0.70003   0.00654   0.00000   0.11126   0.11104   0.81107
   D67        0.67163   0.00854   0.00000   0.07537   0.07336   0.74499
   D68       -1.10884   0.00247   0.00000   0.01803   0.01665  -1.09219
   D69        2.23005   0.01158   0.00000   0.14062   0.13703   2.36708
   D70       -3.11076   0.00032   0.00000  -0.01200  -0.00946  -3.12022
   D71        1.39196  -0.00575   0.00000  -0.06934  -0.06617   1.32579
   D72       -1.55234   0.00335   0.00000   0.05324   0.05421  -1.49813
   D73       -1.35901   0.00143   0.00000   0.02451   0.02590  -1.33311
   D74        2.80532   0.00204   0.00000   0.02948   0.03088   2.83620
   D75        0.75352   0.00102   0.00000   0.02141   0.02279   0.77631
   D76       -0.02760   0.00407   0.00000   0.05071   0.05103   0.02342
   D77       -2.14645   0.00469   0.00000   0.05567   0.05600  -2.09045
   D78        2.08493   0.00367   0.00000   0.04760   0.04791   2.13284
   D79        2.97448  -0.00350   0.00000  -0.04223  -0.04394   2.93054
   D80        0.85563  -0.00288   0.00000  -0.03726  -0.03896   0.81667
   D81       -1.19617  -0.00390   0.00000  -0.04533  -0.04706  -1.24323
   D82        1.22538  -0.00356   0.00000  -0.02738  -0.02889   1.19649
   D83       -0.85432  -0.00358   0.00000  -0.02698  -0.02852  -0.88284
   D84       -2.91185  -0.00221   0.00000  -0.01599  -0.01754  -2.92939
   D85       -0.08675  -0.00441   0.00000  -0.06827  -0.06704  -0.15379
   D86       -2.16644  -0.00442   0.00000  -0.06787  -0.06668  -2.23312
   D87        2.05921  -0.00305   0.00000  -0.05688  -0.05569   2.00351
   D88       -3.04607   0.00430   0.00000   0.04712   0.04747  -2.99861
   D89        1.15742   0.00428   0.00000   0.04751   0.04783   1.20525
   D90       -0.90011   0.00565   0.00000   0.05850   0.05881  -0.84130
         Item               Value     Threshold  Converged?
 Maximum Force            0.028149     0.000450     NO 
 RMS     Force            0.006572     0.000300     NO 
 Maximum Displacement     0.389267     0.001800     NO 
 RMS     Displacement     0.105861     0.001200     NO 
 Predicted change in Energy=-3.396006D-02
 GradGradGradGradGradGradGradGradGradGradGradGradGradGradGradGradGradGrad

                          Input orientation:                          
 ---------------------------------------------------------------------
 Center     Atomic      Atomic             Coordinates (Angstroms)
 Number     Number       Type             X           Y           Z
 ---------------------------------------------------------------------
      1          6           0        0.787427    0.051294   -0.093413
      2          6           0        2.323543    0.233065    0.011904
      3          6           0        2.878497   -0.156341   -1.364004
      4          6           0        3.242729    1.395862    0.693409
      5          6           0        4.182454    0.228029    1.161400
      6          6           0        2.747621   -0.259070    1.446332
      7          6           0        2.386501    1.321004    2.004087
      8          6           0        3.174634    1.811404    3.237836
      9          6           0        1.214411    2.298577    1.801367
     10          1           0        0.314418    0.713987   -0.830027
     11          1           0        0.263512    0.165216    0.857608
     12          1           0        0.601533   -0.977651   -0.422296
     13          1           0        2.495528    0.575827   -2.085599
     14          1           0        2.538642   -1.143411   -1.701948
     15          1           0        3.968541   -0.133051   -1.435138
     16          1           0        3.577777    2.299016    0.187108
     17          1           0        4.792544    0.398421    2.054150
     18          1           0        4.775531   -0.278755    0.404243
     19          1           0        2.465350   -1.232884    1.843208
     20          1           0        3.903747    1.087149    3.607158
     21          1           0        2.505671    2.049791    4.073221
     22          1           0        3.710643    2.734462    2.986672
     23          1           0        0.471216    2.028957    1.055615
     24          1           0        1.643390    3.254173    1.477725
     25          1           0        0.673411    2.484309    2.736479
 ---------------------------------------------------------------------
                    Distance matrix (angstroms):
                    1          2          3          4          5
     1  C    0.000000
     2  C    1.550415   0.000000
     3  C    2.455624   1.533862   0.000000
     4  C    2.907828   1.631395   2.602873   0.000000
     5  C    3.623810   2.185616   2.868049   1.570329   0.000000
     6  C    2.511873   1.574682   2.815257   1.884364   1.541816
     7  C    2.927235   2.270764   3.710612   1.567357   2.264987
     8  C    4.460265   3.690819   5.013646   2.579035   2.798994
     9  C    2.970318   2.949354   4.337669   2.481238   3.675052
    10  H    1.097952   2.230855   2.759910   3.370581   4.377629
    11  H    1.091745   2.227902   3.446318   3.227567   3.931201
    12  H    1.096106   2.149345   2.597293   3.722134   4.096920
    13  H    2.676107   2.132272   1.097012   2.992266   3.675553
    14  H    2.661101   2.208674   1.097276   3.561093   3.575154
    15  H    3.457412   2.221259   1.092610   2.719392   2.630237
    16  H    3.594023   2.423211   2.987259   1.088249   2.367249
    17  H    4.557794   3.208438   3.956653   2.290945   1.094644
    18  H    4.032564   2.535377   2.596231   2.288546   1.087132
    19  H    2.866189   2.350061   3.408202   2.972652   2.355329
    20  H    4.947592   4.018999   5.225883   3.003694   2.607201
    21  H    4.930232   4.452859   5.879577   3.520512   3.822188
    22  H    5.023097   4.126775   5.289384   2.696265   3.136308
    23  H    2.308984   2.783105   4.052787   2.865883   4.126478
    24  H    3.668730   3.426125   4.607875   2.574171   3.962885
    25  H    3.733745   3.900557   5.352513   3.458359   4.459267
                    6          7          8          9         10
     6  C    0.000000
     7  C    1.714099   0.000000
     8  C    2.771045   1.543950   0.000000
     9  C    3.003056   1.539656   2.478559   0.000000
    10  H    3.471185   3.562892   5.092413   3.200804   0.000000
    11  H    2.587937   2.675320   4.104881   2.519150   1.775346
    12  H    2.934932   3.789097   5.272214   4.006740   1.763609
    13  H    3.638014   4.158450   5.506977   4.440454   2.520474
    14  H    3.276797   4.453222   5.791104   5.086657   3.026110
    15  H    3.131996   4.055293   5.123269   4.896224   3.799506
    16  H    2.969615   2.382658   3.115643   2.862050   3.767810
    17  H    2.232363   2.577345   2.452604   4.059252   5.335884
    18  H    2.280078   3.290319   3.867931   4.612611   4.733971
    19  H    1.088806   2.560164   3.422829   3.746707   3.944996
    20  H    2.796086   2.219585   1.092039   3.458463   5.719365
    21  H    3.505699   2.196963   1.096452   2.624989   5.534238
    22  H    3.501613   2.171794   1.096552   2.797520   5.493983
    23  H    3.251115   2.251468   3.481075   1.086820   2.304209
    24  H    3.682824   2.136916   2.743043   1.096326   3.680275
    25  H    3.673277   2.196441   2.638234   1.096181   3.997860
                   11         12         13         14         15
    11  H    0.000000
    12  H    1.748874   0.000000
    13  H    3.716580   2.960927   0.000000
    14  H    3.666067   2.327526   1.762052   0.000000
    15  H    4.367252   3.616067   1.759368   1.771052   0.000000
    16  H    3.998378   4.468327   3.050548   4.061852   2.949463
    17  H    4.690227   5.058748   4.737644   4.643876   3.624441
    18  H    4.556421   4.312062   3.482533   3.191762   2.013898
    19  H    2.788222   2.944735   4.325259   3.547042   3.770513
    20  H    4.654169   5.603973   5.886596   5.918235   5.188240
    21  H    4.349605   5.744634   6.332751   6.599257   6.103016
    22  H    4.797567   5.921774   5.644833   6.196340   5.276508
    23  H    1.885703   3.352744   4.009570   4.684263   4.807225
    24  H    3.439514   4.754354   4.538387   5.500049   5.036307
    25  H    3.012701   4.687024   5.496804   6.028190   5.925441
                   16         17         18         19         20
    16  H    0.000000
    17  H    2.928099   0.000000
    18  H    2.850731   1.783550   0.000000
    19  H    4.056412   2.849821   2.884080   0.000000
    20  H    3.643023   1.917327   3.589480   3.250085   0.000000
    21  H    4.038985   3.468928   4.902632   3.968695   1.760259
    22  H    2.836339   2.738100   4.108820   4.312551   1.770857
    23  H    3.236967   4.725419   4.927164   3.903392   4.379456
    24  H    2.513935   4.290076   4.841927   4.576338   3.786778
    25  H    3.868975   4.667307   5.468203   4.222144   3.625632
                   21         22         23         24         25
    21  H    0.000000
    22  H    1.761057   0.000000
    23  H    3.639420   3.836743   0.000000
    24  H    2.988421   2.611619   1.747376   0.000000
    25  H    2.309298   3.057769   1.753149   1.765789   0.000000
 Stoichiometry    C9H16
 Framework group  C1[X(C9H16)]
 Deg. of freedom    69
 Full point group                 C1      NOp   1
 Largest Abelian subgroup         C1      NOp   1
 Largest concise Abelian subgroup C1      NOp   1
                         Standard orientation:                         
 ---------------------------------------------------------------------
 Center     Atomic      Atomic             Coordinates (Angstroms)
 Number     Number       Type             X           Y           Z
 ---------------------------------------------------------------------
      1          6           0       -1.464155    1.499811    0.544503
      2          6           0       -1.127894    0.077269    0.027697
      3          6           0       -2.451294   -0.491823   -0.499066
      4          6           0        0.130035   -0.504291   -0.833031
      5          6           0        0.048258   -1.763409    0.101778
      6          6           0       -0.093047   -0.546261    1.037611
      7          6           0        1.136150    0.223090    0.123659
      8          6           0        2.522861   -0.455730    0.127929
      9          6           0        1.328603    1.635631   -0.457918
     10          1           0       -1.817708    2.181847   -0.239924
     11          1           0       -0.640715    1.982797    1.074198
     12          1           0       -2.277554    1.399667    1.272376
     13          1           0       -2.748294    0.123251   -1.357501
     14          1           0       -3.267257   -0.432211    0.232142
     15          1           0       -2.390923   -1.523837   -0.852762
     16          1           0        0.176091   -0.538312   -1.919772
     17          1           0        0.964080   -2.345638    0.245039
     18          1           0       -0.796237   -2.435718   -0.027393
     19          1           0       -0.263195   -0.577162    2.112596
     20          1           0        2.555101   -1.380762    0.707432
     21          1           0        3.293797    0.207899    0.537152
     22          1           0        2.819033   -0.689859   -0.901581
     23          1           0        0.476755    2.308812   -0.409328
     24          1           0        1.567650    1.517079   -1.521277
     25          1           0        2.172275    2.156429    0.009629
 ---------------------------------------------------------------------
 Rotational constants (GHZ):           2.5520400           1.4736279           1.1393234
 Standard basis: 6-31G(2df,p) (6D, 7F)
 There are   359 symmetry adapted cartesian basis functions of A   symmetry.
 There are   332 symmetry adapted basis functions of A   symmetry.
   332 basis functions,   508 primitive gaussians,   359 cartesian basis functions
    35 alpha electrons       35 beta electrons
       nuclear repulsion energy       487.8658585238 Hartrees.
 NAtoms=   25 NActive=   25 NUniq=   25 SFac= 1.00D+00 NAtFMM=   60 NAOKFM=F Big=F
 Integral buffers will be    131072 words long.
 Raffenetti 2 integral format.
 Two-electron integral symmetry is turned on.
 One-electron integrals computed using PRISM.
 PrsmSu:  requested number of processors reduced to:  13 ShMem   1 Linda.
 NBasis=   332 RedAO= T EigKep=  2.94D-04  NBF=   332
 NBsUse=   332 1.00D-06 EigRej= -1.00D+00 NBFU=   332
 Initial guess from the checkpoint file:  "CC1qCrC2CC1C2qCrC.chk"
 B after Tr=    -0.000000    0.000000    0.000000
         Rot=    0.999862    0.012621   -0.001619   -0.010669 Ang=   1.90 deg.
 ExpMin= 1.61D-01 ExpMax= 3.05D+03 ExpMxC= 4.57D+02 IAcc=2 IRadAn=         4 AccDes= 0.00D+00
 Harris functional with IExCor=  402 and IRadAn=       4 diagonalized for initial guess.
 HarFok:  IExCor=  402 AccDes= 0.00D+00 IRadAn=         4 IDoV= 1 UseB2=F ITyADJ=14
 ICtDFT=  3500011 ScaDFX=  1.000000  1.000000  1.000000  1.000000
 FoFCou: FMM=F IPFlag=           0 FMFlag=      100000 FMFlg1=           0
         NFxFlg=           0 DoJE=T BraDBF=F KetDBF=T FulRan=T
         wScrn=  0.000000 ICntrl=       500 IOpCl=  0 I1Cent=   200000004 NGrid=           0
         NMat0=    1 NMatS0=      1 NMatT0=    0 NMatD0=    1 NMtDS0=    0 NMtDT0=    0
 Petite list used in FoFCou.
 Requested convergence on RMS density matrix=1.00D-08 within 128 cycles.
 Requested convergence on MAX density matrix=1.00D-06.
 Requested convergence on             energy=1.00D-06.
 No special actions if energy rises.
 Integral accuracy reduced to 1.0D-05 until final iterations.
 Initial convergence to 1.0D-05 achieved.  Increase integral accuracy.
 SCF Done:  E(RB3LYP) =  -352.488031439     A.U. after   10 cycles
            NFock= 10  Conv=0.94D-08     -V/T= 2.0094
 PrsmSu:  requested number of processors reduced to:  13 ShMem   1 Linda.
 Calling FoFJK, ICntrl=      2127 FMM=F ISym2X=0 I1Cent= 0 IOpClX= 0 NMat=1 NMatS=1 NMatT=0.
 ***** Axes restored to original set *****
 -------------------------------------------------------------------
 Center     Atomic                   Forces (Hartrees/Bohr)
 Number     Number              X              Y              Z
 -------------------------------------------------------------------
      1        6          -0.001113248    0.013435226   -0.003194113
      2        6          -0.004258131    0.002191406    0.010027306
      3        6           0.005444219   -0.009896647    0.004352062
      4        6          -0.009000797   -0.018612404   -0.004145785
      5        6          -0.008192477    0.012401538    0.014031888
      6        6          -0.003109739    0.006493081   -0.013458806
[...]
 009968,0.00011742,0.04744329,0.06991153,0.00033351,-0.00096824,0.00054
 337,-0.00049155,0.00042707,-0.00153801,-0.00015031,0.00021241,-0.00027
 738,-0.00568692,-0.00515919,-0.00689127,-0.12772505,-0.05873464,-0.196
 86950,0.00563453,0.00298247,0.00861666,0.00020734,0.00095189,-0.000480
 36,0.00352026,-0.00241536,-0.00364791,-0.00007703,-0.00002036,-0.00013
 025,0.00019329,0.00000175,0.00008731,-0.00021950,0.00002697,0.00002117
 ,-0.00025064,0.00009398,0.00006653,-0.00037349,-0.00006256,0.00002246,
 -0.00012002,-0.00007902,-0.00006426,-0.00052556,0.00010186,0.00038030,
 -0.00012039,0.00018120,-0.00016739,0.13474835,0.07123341,0.21804330,0.
 00039972,-0.00010474,-0.00014527,-0.00004241,0.00170330,0.00347413,-0.
 00144691,-0.00068262,-0.00039955,-0.00642060,0.00087987,0.00775309,-0.
 10742032,0.07315696,0.08272414,-0.00792188,0.01604431,0.01020378,-0.00
 850755,0.00231260,-0.00047465,-0.00005442,-0.00007194,-0.00136234,0.00
 063274,0.00138006,0.00159943,0.00001165,0.00000857,-0.00001128,0.00023
 071,-0.00001923,-0.00003267,-0.00009277,-0.00012615,-0.00007670,0.0007
 7550,-0.00002101,0.00004353,0.00020689,-0.00008359,-0.00016154,0.00079
 185,-0.00043390,-0.00300159,0.00025875,-0.00002777,-0.00038060,0.00943
 705,-0.01084833,-0.01230643,0.11888213,-0.00005330,0.00010999,0.000130
 66,-0.00045291,-0.00176780,0.00025674,-0.00073415,0.00024891,-0.002611
 05,0.00863964,-0.00775549,-0.01659814,0.07645275,-0.13963303,-0.108053
 94,-0.00544231,0.00833237,0.00982811,0.00189021,-0.00311379,0.00122858
 ,0.00013393,0.00048665,0.00012524,0.00042377,0.00160977,-0.00116924,0.
 00000729,-0.00001009,-0.00004002,-0.00004014,-0.00002863,0.00002432,0.
 00010338,0.00009777,0.00007596,-0.00062743,-0.00007968,-0.00004118,-0.
 00029612,-0.00009392,0.00003764,-0.00191689,0.00092670,-0.00110306,0.0
 0003199,-0.00011928,-0.00005645,0.00389589,-0.00441245,-0.00556903,-0.
 08265324,0.14525252,0.00012094,-0.00007775,-0.00014342,0.00037967,0.00
 117789,-0.00006547,-0.00397316,-0.00049236,-0.00410965,-0.00539617,0.0
 0613262,0.00952313,0.08758493,-0.10969404,-0.16992272,0.00228458,-0.00
 596968,-0.00547803,-0.00025969,0.00044625,-0.00156256,0.00026234,0.000
 07408,-0.00042176,-0.00078788,-0.00053612,0.00070248,0.00004049,-0.000
 04751,0.00003309,0.00007303,-0.00003083,0.00004508,-0.00001398,0.00004
 408,0.00002747,-0.00060836,0.00014195,0.00001844,0.00049768,-0.0000121
 3,0.00009210,-0.00399589,-0.00125817,-0.00486660,0.00020536,-0.0000839
 1,0.00024791,0.01041041,-0.01278541,-0.01422467,-0.08814548,0.12350922
 ,0.18949602,0.00109046,0.00024937,0.00032524,0.00206146,0.00801405,-0.
 00144895,-0.00032066,0.00012130,0.00065005,-0.00252204,-0.00215639,0.0
 0109481,0.00439986,-0.01591169,0.00894800,-0.06819020,-0.05207638,0.03
 306556,-0.00009003,0.00323676,-0.00447333,-0.00006350,-0.00015167,-0.0
 0039249,0.00104400,0.00004810,-0.00069302,-0.00028509,-0.00001477,0.00
 012652,-0.00020358,-0.00004562,0.00023379,0.00007795,-0.00003308,-0.00
 003106,0.00009493,-0.00007581,-0.00010469,0.00013137,-0.00020599,0.000
 05052,0.00018113,-0.00011266,-0.00020603,0.00305405,-0.00092947,0.0006
 4183,0.00014888,-0.00017450,-0.00022550,0.00012802,0.00017403,0.000226
 25,0.05950670,0.00020064,0.00021791,0.00027998,0.00002158,-0.00015432,
 -0.00283356,0.00018818,0.00090371,0.00033641,-0.00134766,-0.00773493,0
 .00362488,0.00234060,0.00009178,-0.00149242,-0.05428649,-0.22251793,0.
 10752132,-0.00650030,-0.00437277,0.01294640,0.00031086,0.00024701,0.00
 066647,-0.00080001,0.00048408,0.00029576,0.00000477,-0.00000331,-0.000
 09140,0.00021946,-0.00026090,0.00005270,0.00015950,0.00004072,0.000103
 34,-0.00003703,-0.00013743,-0.00004567,-0.00007257,-0.00000586,0.00051
 570,0.00000832,-0.00004392,-0.00002361,-0.00117878,0.00005087,0.002072
 93,-0.00013137,-0.00002534,0.00002627,-0.00036247,0.00018867,0.0000397
 5,0.06054300,0.23361699,0.00114930,-0.00011666,0.00044088,0.00964519,0
 .01507867,-0.00080995,-0.00005836,0.00097774,0.00106843,0.00070814,0.0
 0350413,-0.00478049,-0.00194850,0.00017692,-0.00213694,0.03378019,0.10
 689089,-0.12088423,-0.00423359,-0.00593145,0.00615537,0.00006173,0.000
 39162,0.00113167,-0.00085642,0.00040447,0.00028406,-0.00045047,0.00008
 945,-0.00001979,-0.00062631,-0.00005491,0.00022831,-0.00025339,-0.0001
 0237,-0.00011413,0.00004172,-0.00034087,-0.00030480,-0.00004350,-0.000
 80696,-0.00028053,0.00009716,-0.00009252,-0.00015426,0.00065363,0.0020
 8589,0.00223672,0.00028997,-0.00025655,0.00026370,0.00001040,0.0001690
 3,-0.00015121,-0.03838822,-0.12236490,0.11856653,0.00003232,-0.0000283
 5,0.00002002,-0.00025429,-0.00001690,-0.00005862,0.00000316,-0.0001240
 6,0.00012646,-0.00032054,-0.00002454,0.00046061,-0.00086320,0.00154429
 ,0.00259741,-0.00071319,0.00093639,0.00029440,-0.01173319,0.00646605,0
 .00056193,-0.23275081,0.11469016,-0.04891230,-0.00108032,0.00004238,-0
 .00457429,0.00002457,-0.00004194,0.00007573,0.00009106,0.00011863,-0.0
 0001494,0.00005064,-0.00006413,-0.00005179,0.00006067,0.00002399,0.000
 04233,0.00000228,-0.00000763,-0.00002788,0.00011424,-0.00001531,-0.000
 05811,0.00015878,-0.00012226,-0.00008921,0.00119831,0.00175632,0.00345
 488,0.00059208,0.00006390,0.00052644,0.00001167,-0.00034733,-0.0001128
 1,0.25527517,-0.00003782,0.00001785,0.00004081,0.00004194,0.00019529,0
 .00018432,0.00009560,-0.00000544,-0.00000013,0.00057779,0.00009402,-0.
 00012391,0.00136407,-0.00077908,-0.00251921,-0.00007483,0.00022949,0.0
 0047682,-0.00886790,0.00467225,-0.00040777,0.11613414,-0.12031470,0.03
 038567,-0.00046283,-0.00028258,-0.00207688,0.00003214,-0.00002434,0.00
 001523,-0.00002545,0.00001834,0.00002454,-0.00001228,-0.00000263,0.000
 01780,-0.00003774,0.00000523,0.00003784,-0.00000466,0.00000322,0.00000
 011,-0.00005103,0.00000113,0.00000541,-0.00000435,-0.00003599,-0.00003
 499,0.00033404,-0.00032855,-0.00325359,-0.00031254,-0.00007313,-0.0002
 0598,-0.00013836,-0.00005984,0.00007894,-0.13081271,0.12852332,-0.0000
 1685,0.00005313,0.00020816,0.00030691,0.00023810,0.00031242,0.00009480
 ,-0.00012312,0.00010109,-0.00033719,0.00098430,0.00016956,-0.00047862,
 -0.00155675,-0.00280990,0.00006305,-0.00030064,0.00155566,-0.01800201,
 0.01574278,-0.00037869,-0.04656559,0.02795962,-0.05870535,-0.00233768,
 -0.00155630,-0.00354123,0.00006162,-0.00002132,0.00006727,0.00008523,0
 .00008786,-0.00001015,0.00006112,-0.00004513,-0.00002434,0.00002731,0.
 00002777,0.00007195,0.00002695,0.00000876,-0.00001639,0.00007504,-0.00
 002914,-0.00005772,0.00020260,-0.00014520,-0.00013943,0.00272852,-0.00
 243444,-0.00402141,0.00040943,0.00009679,0.00049306,0.00024789,-0.0003
 0463,-0.00018185,0.04749900,-0.02686425,0.06320652,0.00009556,-0.00002
 665,0.00003986,0.00045619,-0.00002646,-0.00072188,-0.00017116,-0.00029
 785,0.00010548,-0.00192996,-0.00067337,-0.00232621,-0.00145507,0.00045
 878,0.00000128,0.00021819,0.00019294,0.00062844,0.00819777,0.00273044,
 -0.01343707,-0.14634415,-0.01632344,0.12663373,0.00047005,0.00089305,-
 0.00243112,0.00002415,0.00001170,0.00001307,-0.00002106,-0.00002464,-0
 .00000859,-0.00000688,0.00001595,0.00001708,0.00002299,0.00002221,0.00
 002736,0.00004516,-0.00006331,-0.00008926,0.00005544,0.00000261,-0.000
 01128,0.00009490,-0.00008896,-0.00016016,0.00076048,0.00010350,0.00068
 226,0.00033027,0.00003244,0.00032432,0.00010758,0.00001025,0.00011750,
 -0.01648592,-0.00405358,0.02025082,0.16082943,-0.00002238,-0.00004635,
 -0.00002374,0.00010700,0.00005028,-0.00041097,-0.00009445,-0.00014910,
 -0.00005098,-0.00050617,-0.00053500,-0.00083623,0.00081865,-0.00023873
 ,-0.00081178,0.00065931,0.00103113,0.00016884,0.00651697,0.00065522,-0
 .00869750,-0.01538632,-0.04774537,0.02021760,0.00068239,0.00052070,0.0
 0062930,-0.00000524,-0.00000489,0.00000604,-0.00001554,0.00001132,-0.0
 0001585,-0.00000957,-0.00000740,-0.00002000,-0.00003569,-0.00000178,-0
 .00001893,-0.00001659,-0.00004765,-0.00004460,-0.00005684,0.00001684,0
 .00003319,-0.00002014,-0.00013815,-0.00028140,-0.00050101,-0.00014901,
 -0.00024579,-0.00021767,-0.00003733,-0.00027120,-0.00009876,-0.0001227
 5,0.00012180,0.01093101,0.00192268,-0.01406856,0.01768215,0.04908003,0
 .00017501,-0.00004887,-0.00000069,0.00108324,-0.00024799,-0.00132096,-
 0.00047995,-0.00050009,0.00002793,-0.00387852,-0.00189313,-0.00087781,
 -0.00088286,0.00084001,-0.00007978,0.00023806,0.00045891,0.00043337,0.
 01604585,0.00338209,-0.02407012,0.12417795,0.02113139,-0.20077025,0.00
 126710,-0.00098665,0.00064066,-0.00003927,0.00004207,-0.00004813,-0.00
 014020,-0.00005371,0.00002427,-0.00011275,0.00001298,0.00000660,-0.000
 02082,-0.00000174,-0.00006928,0.00001694,-0.00016861,-0.00020583,-0.00
 001682,0.00005663,0.00006560,0.00011489,-0.00010914,-0.00030286,0.0000
 4765,0.00000482,0.00010216,0.00001870,-0.00007581,0.00007038,0.0000289
 2,-0.00049583,-0.00004614,-0.00376341,-0.00117521,0.00513075,-0.134512
 50,-0.02127848,0.22277835,0.00012250,0.00004569,0.00001675,0.00017065,
 -0.00037650,-0.00008089,-0.00005165,0.00012419,-0.00016707,0.00099163,
 0.00086113,0.00021431,-0.00008162,-0.00004092,0.00034429,-0.00170093,0
 .00056912,-0.00096563,-0.00415806,-0.01378241,0.00150572,-0.06109838,-
 0.05811259,0.00366732,0.00047605,-0.00166136,-0.00031040,-0.00002062,0
 .00001976,-0.00003962,0.00000528,-0.00001375,0.00004565,-0.00000563,0.
 00001555,0.00000782,0.00005759,-0.00003747,-0.00006841,-0.00002497,0.0
 0000408,0.00002664,0.00000693,0.00000302,-0.00001570,0.00022948,-0.000
 12769,-0.00031358,0.00032287,0.00005465,-0.00040860,0.00006346,0.00003
 592,0.00007569,0.00002937,-0.00018701,-0.00011168,0.00753915,0.0267469
 9,-0.00247027,-0.00553128,-0.02045655,0.00147545,0.06313800,0.00011807
 ,0.00009642,0.00003318,0.00042859,-0.00050074,-0.00022201,-0.00016701,
 0.00022261,-0.00030209,0.00003232,0.00101358,0.00002772,-0.00042499,-0
 .00024234,-0.00000428,-0.00133115,0.00162486,-0.00091312,-0.00105674,-
 0.01051720,-0.00090256,-0.05901738,-0.28831458,0.02061714,0.00101280,0
 .00020586,-0.00051946,-0.00004918,0.00002172,-0.00005629,-0.00003525,-
 0.00003243,0.00004078,-0.00002925,0.00000461,0.00002159,0.00002025,-0.
 00006593,-0.00013940,-0.00000145,-0.00000971,0.00003900,0.00000316,-0.
 00000223,0.00002135,0.00016581,-0.00010103,-0.00070768,-0.00017070,-0.
 00017620,0.00023552,0.00002142,0.00001534,-0.00013008,0.00009864,-0.00
 012372,-0.00003877,-0.00457916,-0.01528233,0.00185931,-0.00006294,-0.0
 0335908,0.00044030,0.06522424,0.31435949,0.00015736,0.00003363,-0.0000
 0216,0.00015986,-0.00126000,-0.00012711,-0.00009811,0.00042844,-0.0004
 9287,0.00060933,0.00018431,0.00215028,-0.00049231,-0.00024856,0.000418
 37,-0.00336941,-0.00071052,-0.00353804,-0.00753433,-0.02841434,0.00004
 384,0.00364784,0.01999247,-0.04488256,0.00117312,-0.00041517,-0.000411
 86,-0.00006278,0.00002407,-0.00004405,0.00001850,-0.00000997,0.0000323
 2,0.00002898,0.00001869,-0.00000753,0.00008465,-0.00009372,-0.00020010
 ,-0.00001681,0.00005137,0.00009216,0.00002670,-0.00001439,-0.00001561,
 0.00027800,0.00045190,-0.00028346,0.00019220,-0.00003554,0.00005563,0.
 00010705,0.00006583,-0.00004151,0.00007298,-0.00038768,-0.00032501,0.0
 0201879,0.00501151,-0.00141474,0.00535921,0.02515088,-0.00215669,-0.00
 251944,-0.02019432,0.05058980,-0.00016755,-0.00091643,-0.00053993,-0.0
 0020763,0.00111409,0.00032189,0.00006060,-0.00009748,0.00012384,0.0015
 6230,-0.00063067,-0.00052514,0.00037421,-0.00028935,-0.00041266,-0.000
 41360,0.00005034,-0.00031477,-0.00999612,0.00313210,-0.02498456,-0.005
 09522,0.00347291,0.00044527,-0.09234906,0.02759748,-0.09837454,0.00037
 218,-0.00025488,0.00015577,0.00048485,-0.00147565,-0.00067544,0.000175
 57,-0.00041471,-0.00011891,-0.00000542,0.00002412,0.00008833,0.0000217
 9,-0.00000195,-0.00002209,0.00003046,0.00001542,-0.00002362,-0.0003276
 8,-0.00020226,0.00044895,0.00019078,-0.00009166,-0.00005800,0.00002951
 ,-0.00014691,0.00020809,-0.00013184,0.00018033,0.00016809,-0.00128838,
 -0.00057281,-0.00145668,0.00014327,0.00017257,0.00016645,0.00009404,-0
 .00010518,0.00005742,0.09957245,-0.00022030,-0.00234005,-0.00178839,0.
 00110735,-0.00033397,0.00049504,-0.00036998,0.00004098,-0.00015906,-0.
 00024021,0.00142905,-0.00033721,-0.00036582,0.00002824,-0.00006516,0.0
 0054743,-0.00023811,0.00059974,0.00277017,-0.00306361,0.01266315,0.001
 35411,-0.00047884,-0.00070711,0.02616088,-0.05911374,0.05404034,-0.000
 10384,-0.00003182,-0.00089944,-0.00069913,-0.00343744,-0.00097969,-0.0
 0032624,0.00029663,-0.00005979,0.00004208,-0.00001918,-0.00011206,-0.0
 0001654,-0.00004233,0.00000122,-0.00013830,0.00008258,0.00010035,0.000
 10188,-0.00017575,-0.00034422,-0.00010942,0.00001351,-0.00000118,0.000
 05292,0.00009917,-0.00008585,-0.00002686,-0.00010564,-0.00012271,0.000
 18116,0.00060355,0.00040399,-0.00019051,-0.00024099,-0.00004557,0.0003
 7011,0.00024321,0.00004861,-0.02707629,0.06458990,-0.00120825,-0.00550
 020,-0.00133471,-0.00019609,0.00018463,0.00003819,0.00008869,0.0000843
 3,0.00000874,0.00016913,-0.00003390,0.00053798,-0.00010173,-0.00005176
 ,0.00003466,0.00014191,-0.00032472,0.00024211,0.00283839,-0.00213443,0
 .00435740,-0.00001095,0.00060549,-0.00012217,-0.09966738,0.05908577,-0
 .26452341,-0.00034948,-0.00077205,-0.00066677,0.00037834,-0.00131955,-
 0.00184010,0.00049757,-0.00078998,-0.00097781,-0.00000575,-0.00001378,
 0.00003901,-0.00001888,0.00006114,0.00002550,0.00003488,0.00001235,-0.
 00001372,-0.00024361,0.00015485,0.00026724,0.00006169,-0.00000578,0.00
 004293,-0.00007207,0.00005489,0.00003795,0.00002595,-0.00003010,-0.000
 01611,-0.00000744,-0.00009588,0.00030373,-0.00010193,-0.00011593,0.000
 65084,0.00008813,-0.00000572,0.00002604,0.10963019,-0.05404011,0.29058
 013,-0.00074049,-0.00102356,-0.00002772,-0.00045693,-0.00006376,-0.000
 92155,0.00013899,-0.00009379,0.00008715,-0.00010946,0.00053004,-0.0005
 0245,-0.00067613,0.00131840,0.00107921,-0.00368592,-0.00068962,-0.0000
 5705,0.00128909,0.02680966,0.01299884,-0.00095993,0.00324952,0.0002799
 7,-0.04863329,-0.02874623,-0.01629043,0.00006828,0.00001287,0.00011138
 ,0.00060287,0.00017454,-0.00064915,0.00026214,-0.00011774,-0.00037191,
 -0.00001898,0.00001530,0.00009987,0.00000434,0.00002685,-0.00001467,0.
 00007152,-0.00003203,-0.00006315,-0.00001849,-0.00014434,0.00018113,-0
 .00004801,-0.00002740,0.00002655,-0.00069825,-0.00010759,0.00017515,-0
 .00012429,0.00022916,0.00015532,0.00026800,-0.00015684,0.00011529,-0.0
 0002255,0.00003777,-0.00013130,-0.00085688,-0.00022968,-0.00000660,-0.
 00187673,-0.01058842,-0.00514095,0.05921547,-0.00060281,0.00005375,0.0
 0054581,-0.00005305,0.00011157,0.00057377,0.00006800,0.00011281,-0.000
 04123,0.00037568,-0.00053739,0.00045099,0.00024616,-0.00084342,-0.0008
 1397,0.00196941,0.00177644,0.00020114,-0.00046287,-0.01455722,-0.00626
 237,-0.00122140,0.00095283,-0.00159330,-0.02629639,-0.23491638,-0.1100
 7863,0.00000213,0.00008197,-0.00019482,0.00032869,-0.00007896,-0.00041
 806,0.00008997,0.00016389,-0.00011181,-0.00000969,-0.00000628,-0.00004
 761,-0.00001811,-0.00000231,0.00002875,0.00002327,-0.00002287,-0.00000
 484,0.00007886,0.00010091,-0.00021687,0.00020211,0.00003986,0.00005482
 ,0.00045874,0.00011025,0.00000600,-0.00001657,-0.00010831,-0.00006030,
 -0.00051893,0.00074962,0.00005140,-0.00009360,-0.00053954,0.00082200,0
 .00057339,0.00070116,0.00030808,0.00056072,0.00681573,0.00325654,0.027
 01030,0.25607447,-0.00069789,-0.00127919,-0.00002336,-0.00045140,0.000
 28045,0.00009527,0.00009769,0.00002180,0.00004157,0.00010305,-0.000611
 51,0.00019037,0.00019429,-0.00003285,-0.00004579,-0.00044803,0.0010186
 4,-0.00000294,-0.00045840,-0.00240741,-0.00222745,-0.00271667,0.001549
 32,-0.00031546,-0.01508097,-0.11245393,-0.11330632,-0.00007911,-0.0000
 5287,0.00040572,0.00025045,-0.00012167,-0.00102986,0.00033149,-0.00031
 930,-0.00034323,-0.00002768,-0.00000626,0.00001740,0.00000646,0.000025
 89,-0.00001040,0.00006436,-0.00001516,-0.00002497,0.00008879,0.0000491
 1,-0.00007811,0.00008902,0.00002256,0.00004052,0.00010770,-0.00009729,
 0.00011581,0.00009618,-0.00010103,-0.00004214,-0.00020714,0.00027564,-
 0.00014783,-0.00044236,0.00071511,0.00012324,0.00011365,0.00042952,0.0
 0039544,-0.00366512,-0.02546594,-0.01393019,0.02045032,0.12324365,0.12
 128654,-0.00026544,0.00055772,-0.00006422,-0.00050245,-0.00043093,-0.0
 0022006,0.00017785,0.00007513,-0.00001479,-0.00317694,0.00099186,-0.00
 234375,-0.00020399,0.00010195,0.00087178,0.00202013,-0.00002766,-0.000
 38166,-0.01775465,-0.01586301,0.01599925,-0.00037734,0.00072910,0.0013
 7954,-0.15259338,-0.09541369,0.08551128,0.00022686,-0.00013326,-0.0001
 6834,0.00048974,-0.00008392,0.00004518,0.00008842,0.00002097,0.0000019
 3,0.00000709,-0.00000522,0.00006208,-0.00000554,0.00007027,0.00006859,
 0.00003099,-0.00006436,-0.00006602,-0.00023626,0.00013085,0.00040212,0
 .00000764,-0.00000980,-0.00006195,-0.00016522,0.00058586,-0.00021475,-
 0.00013617,0.00083437,0.00020491,0.00006773,0.00029901,-0.00059070,0.0
 0011660,-0.00016492,-0.00087781,0.00028303,0.00013478,0.00010778,0.008
 74724,0.00778378,-0.00683034,-0.00299436,-0.00269402,0.00228132,0.1661
 4843,-0.00004048,-0.00008679,-0.00008750,0.00015835,0.00023144,-0.0002
 6719,0.00006586,-0.00002282,0.00003808,0.00297286,-0.00080294,-0.00032
 836,0.00024673,0.00012494,-0.00048646,-0.00089417,0.00129940,-0.000395
 93,0.01125790,0.00896533,-0.00890217,-0.00029692,-0.00046087,-0.000133
 89,-0.09430107,-0.12728718,0.07769815,0.00001229,-0.00001805,-0.000130
 27,0.00006660,-0.00013495,-0.00085636,-0.00000055,0.00007887,-0.000075
 34,-0.00002454,0.00000643,0.00001138,-0.00000707,-0.00000497,-0.000013
 66,0.00001400,-0.00001356,0.00001766,0.00014788,-0.00008671,-0.0001345
 2,-0.00001202,0.00000058,-0.00002066,-0.00005356,-0.00035347,0.0001091
 7,-0.00031665,-0.00006477,0.00031944,-0.00005104,0.00015260,-0.0000643
 4,-0.00023068,0.00007491,-0.00011037,0.00014841,0.00021867,0.00001440,
 -0.00404385,-0.00462107,0.00173387,-0.01739341,-0.01623256,0.01533270,
 0.10257515,0.13903754,0.00063118,0.00071442,-0.00067747,0.00037522,0.0
 0044864,0.00024953,-0.00020291,-0.00005645,0.00001415,0.00085446,-0.00
 064043,0.00110145,0.00013514,-0.00020719,-0.00041467,-0.00008774,0.000
 09153,0.00068354,0.00225679,-0.00019500,-0.00324749,-0.00015228,-0.000
 54786,0.00028072,0.08400785,0.07734793,-0.11452290,0.00007622,-0.00020
 728,0.00023406,-0.00045926,-0.00072583,-0.00067978,-0.00023391,-0.0000
 9831,0.00038856,-0.00000058,0.00000957,-0.00004228,0.00000982,-0.00006
 208,-0.00003255,-0.00006190,0.00004711,0.00005014,-0.00018654,0.000003
 92,0.00001486,-0.00001354,-0.00004057,0.00002639,0.00011881,-0.0001878
 0,0.00008467,0.00012883,-0.00031109,-0.00012809,0.00019994,0.00020316,
 -0.00017112,0.00004195,0.00014916,-0.00010564,-0.00011012,0.00037038,0
 .00013943,0.01935718,0.01686104,-0.01376744,-0.01158326,-0.00969913,0.
 00881619,-0.09510136,-0.08326785,0.12170573\\-0.00001527,0.00000528,-0
 .00000526,0.00001787,-0.00002044,-0.00004905,-0.00001431,0.00001189,0.
 00002629,0.00000099,-0.00001247,-0.00000881,0.00001295,0.00001640,-0.0
 0000152,0.00000255,0.00001277,0.00002402,-0.00000356,0.00001867,0.0000
 0522,0.00001929,0.00000049,0.00001287,-0.00002022,-0.00000061,0.000010
 38,0.00000862,-0.00000283,0.00000042,-0.00000462,-0.00000302,-0.000000
 53,-0.00000646,-0.00000566,-0.00000106,0.00000355,-0.00000066,-0.00000
 592,0.00000084,-0.00000178,-0.00000313,0.00000349,-0.00000662,-0.00000
 490,-0.00000101,0.00000413,0.00000494,0.00000392,-0.00000589,0.0000118
 9,-0.00000157,-0.00000035,-0.00000221,-0.00000047,-0.00000538,-0.00000
 767,0.00000860,-0.00000111,-0.00000172,-0.00000305,0.00000211,0.000010
 20,-0.00000376,-0.00001536,-0.00001241,-0.00000657,0.00000140,0.000007
 24,0.00000045,0.00000039,-0.00000281,-0.00000225,0.00000865,-0.0000064
 9\\\@


 I SUPPOSE A BABY LLAMA HAS A MMAMA AND A PPOPA.
     -- RICHARD AMOUR
 Job cpu time:       0 days  3 hours 16 minutes 11.9 seconds.
 Elapsed time:       0 days  0 hours 49 minutes  3.9 seconds.
 File lengths (MBytes):  RWF=    199 Int=      0 D2E=      0 Chk=     10 Scr=      1
 Normal termination of Gaussian 16 at Mon May 29 00:23:55 2023.
### All Done ###
