### Starting Gaussian ###
 Entering Gaussian System, Link 0=g16
 Initial command:
 /cluster/software/gaussian/gaussian-16-A.03/avx2/g16/l1.exe "/local/scratch/linjian/Gau-15435.inp" -scrdir="/local/scratch/linjian/"
 Entering Link 1 = /cluster/software/gaussian/gaussian-16-A.03/avx2/g16/l1.exe PID=     15436.
  
 Copyright (c) 1988,1990,1992,1993,1995,1998,2003,2009,2016,
            Gaussian, Inc.  All Rights Reserved.
  
 This is part of the Gaussian(R) 16 program.  It is based on
 the Gaussian(R) 09 system (copyright 2009, Gaussian, Inc.),
 the Gaussian(R) 03 system (copyright 2003, Gaussian, Inc.),
 the Gaussian(R) 98 system (copyright 1998, Gaussian, Inc.),
 the Gaussian(R) 94 system (copyright 1995, Gaussian, Inc.),
 the Gaussian 92(TM) system (copyright 1992, Gaussian, Inc.),
 the Gaussian 90(TM) system (copyright 1990, Gaussian, Inc.),
 the Gaussian 88(TM) system (copyright 1988, Gaussian, Inc.),
 the Gaussian 86(TM) system (copyright 1986, Carnegie Mellon
 University), and the Gaussian 82(TM) system (copyright 1983,
 Carnegie Mellon University). Gaussian is a federally registered
 trademark of Gaussian, Inc.
  
 This software contains proprietary and confidential information,
 including trade secrets, belonging to Gaussian, Inc.
  
 This software is provided under written license and may be
 used, copied, transmitted, or stored only in accord with that
 written license.
  
 The following legend is applicable only to US Government
 contracts under FAR:
  
                    RESTRICTED RIGHTS LEGEND
  
 Use, reproduction and disclosure by the US Government is
 subject to restrictions as set forth in subparagraphs (a)
 and (c) of the Commercial Computer Software - Restricted
 Rights clause in FAR 52.227-19.
  
 Gaussian, Inc.
 340 Quinnipiac St., Bldg. 40, Wallingford CT 06492
  
  
 ---------------------------------------------------------------
 Warning -- This program may not be used in any manner that
 competes with the business of Gaussian, Inc. or will provide
 assistance to any competitor of Gaussian, Inc.  The licensee
 of this program is prohibited from giving any competitor of
 Gaussian, Inc. access to this program.  By using this program,
 the user acknowledges that Gaussian, Inc. is engaged in the
 business of creating and licensing software in the field of
 computational chemistry and represents and warrants to the
 licensee that it is not a competitor of Gaussian, Inc. and that
 it will not use this program in any manner prohibited above.
 ---------------------------------------------------------------
  

 Cite this work as:
 Gaussian 16, Revision A.03,
 M. J. Frisch, G. W. Trucks, H. B. Schlegel, G. E. Scuseria, 
 M. A. Robb, J. R. Cheeseman, G. Scalmani, V. Barone, 
 G. A. Petersson, H. Nakatsuji, X. Li, M. Caricato, A. V. Marenich, 
 J. Bloino, B. G. Janesko, R. Gomperts, B. Mennucci, H. P. Hratchian, 
 J. V. Ortiz, A. F. Izmaylov, J. L. Sonnenberg, D. Williams-Young, 
 F. Ding, F. Lipparini, F. Egidi, J. Goings, B. Peng, A. Petrone, 
 T. Henderson, D. Ranasinghe, V. G. Zakrzewski, J. Gao, N. Rega, 
 G. Zheng, W. Liang, M. Hada, M. Ehara, K. Toyota, R. Fukuda, 
 J. Hasegawa, M. Ishida, T. Nakajima, Y. Honda, O. Kitao, H. Nakai, 
 T. Vreven, K. Throssell, J. A. Montgomery, Jr., J. E. Peralta, 
 F. Ogliaro, M. J. Bearpark, J. J. Heyd, E. N. Brothers, K. N. Kudin, 
 V. N. Staroverov, T. A. Keith, R. Kobayashi, J. Normand, 
 K. Raghavachari, A. P. Rendell, J. C. Burant, S. S. Iyengar, 
 J. Tomasi, M. Cossi, J. M. Millam, M. Klene, C. Adamo, R. Cammi, 
 J. W. Ochterski, R. L. Martin, K. Morokuma, O. Farkas, 
 J. B. Foresman, and D. J. Fox, Gaussian, Inc., Wallingford CT, 2016.
 
 ******************************************
 Gaussian 16:  ES64L-G16RevA.03 25-Dec-2016
                28-May-2023 
 ******************************************
 %chk=CC1qCrC2C3CC2qCrC31.chk
 %NProcShared=20
 Will use up to   20 processors via shared memory.
 -----------------------------
 # opt freq b3lyp/6-31g(2df,p)
 -----------------------------
 1/18=20,19=15,26=3,38=1/1,3;
 2/9=110,12=2,17=6,18=5,40=1/2;
 3/5=1,6=6,7=104,11=2,25=1,30=1,71=1,74=-5/1,2,3;
 4//1;
 5/5=2,38=5/2;
 6/7=2,8=2,9=2,10=2,28=1/1;
 7//1,2,3,16;
 1/18=20,19=15,26=3/3(2);
 2/9=110/2;
 99//99;
 2/9=110/2;
 3/5=1,6=6,7=104,11=2,25=1,30=1,71=1,74=-5/1,2,3;
 4/5=5,16=3,69=1/1;
 5/5=2,38=5/2;
 7//1,2,3,16;
 1/18=20,19=15,26=3/3(-5);
 2/9=110/2;
 6/7=2,8=2,9=2,10=2,19=2,28=1/1;
 99/9=1/99;
 -------------------
 Title Card Required
 -------------------
 Symbolic Z-matrix:
 Charge =  0 Multiplicity = 1
 C                     0.85969  -0.06315   0.32309 
 C                     2.40084   0.04196   0.09535 
 C                     3.05383   0.45897   1.40853 
 C                     3.43988  -0.67831  -0.83463 
 C                     2.26795  -0.92342  -1.74709 
 C                     3.29222  -0.78027  -2.89932 
 C                     3.41322   0.60227  -2.11131 
 C                     2.53652   1.49283  -3.16384 
 C                     2.17835   0.8137   -1.18648 
 H                     0.59341  -0.82007   1.05519 
 H                     0.2828   -0.28081  -0.59309 
 H                     0.47838   0.91595   0.65576 
 H                     2.7917   -0.26803   2.19099 
 H                     2.69494   1.43598   1.74859 
 H                     4.14527   0.48951   1.36022 
 H                     4.06136  -1.54046  -0.63423 
 H                     1.68894  -1.7967   -1.49549 
 H                     2.84355  -0.8711   -3.89162 
 H                     4.23075  -1.34718  -2.91454 
 H                     2.20846   0.94917  -4.06097 
 H                     3.10001   2.36781  -3.486 
 H                     1.56954   1.89734  -2.78933 
 H                     2.65753   1.74991  -0.81486 
 

 GradGradGradGradGradGradGradGradGradGradGradGradGradGradGradGradGradGrad
 Berny optimization.
 Initialization pass.
                           ----------------------------
                           !    Initial Parameters    !
                           ! (Angstroms and Degrees)  !
 --------------------------                            --------------------------
 ! Name  Definition              Value          Derivative Info.                !
 --------------------------------------------------------------------------------
 ! R1    R(1,2)                  1.5614         estimate D2E/DX2                !
 ! R2    R(1,10)                 1.0862         estimate D2E/DX2                !
 ! R3    R(1,11)                 1.1043         estimate D2E/DX2                !
 ! R4    R(1,12)                 1.1021         estimate D2E/DX2                !
 ! R5    R(2,3)                  1.5247         estimate D2E/DX2                !
 ! R6    R(2,4)                  1.5695         estimate D2E/DX2                !
 ! R7    R(2,9)                  1.5127         estimate D2E/DX2                !
 ! R8    R(3,13)                 1.0998         estimate D2E/DX2                !
 ! R9    R(3,14)                 1.095          estimate D2E/DX2                !
 ! R10   R(3,15)                 1.0929         estimate D2E/DX2                !
 ! R11   R(4,5)                  1.5054         estimate D2E/DX2                !
 ! R12   R(4,7)                  1.8085         estimate D2E/DX2                !
 ! R13   R(4,16)                 1.0815         estimate D2E/DX2                !
 ! R14   R(5,6)                  1.5483         estimate D2E/DX2                !
 ! R15   R(5,9)                  1.8275         estimate D2E/DX2                !
 ! R16   R(5,17)                 1.0776         estimate D2E/DX2                !
 ! R17   R(6,7)                  1.5959         estimate D2E/DX2                !
 ! R18   R(6,18)                 1.0928         estimate D2E/DX2                !
 ! R19   R(6,19)                 1.0966         estimate D2E/DX2                !
 ! R20   R(7,8)                  1.6339         estimate D2E/DX2                !
 ! R21   R(7,9)                  1.5572         estimate D2E/DX2                !
 ! R22   R(8,20)                 1.0991         estimate D2E/DX2                !
 ! R23   R(8,21)                 1.0894         estimate D2E/DX2                !
 ! R24   R(8,22)                 1.1131         estimate D2E/DX2                !
 ! R25   R(9,23)                 1.1154         estimate D2E/DX2                !
 ! A1    A(2,1,10)             112.7794         estimate D2E/DX2                !
 ! A2    A(2,1,11)             114.0708         estimate D2E/DX2                !
 ! A3    A(2,1,12)             109.0082         estimate D2E/DX2                !
 ! A4    A(10,1,11)            107.0832         estimate D2E/DX2                !
 ! A5    A(10,1,12)            109.3177         estimate D2E/DX2                !
 ! A6    A(11,1,12)            104.1685         estimate D2E/DX2                !
 ! A7    A(1,2,3)              108.3912         estimate D2E/DX2                !
 ! A8    A(1,2,4)              135.1506         estimate D2E/DX2                !
 ! A9    A(1,2,9)               90.7314         estimate D2E/DX2                !
 ! A10   A(3,2,4)              110.6295         estimate D2E/DX2                !
 ! A11   A(3,2,9)              130.7901         estimate D2E/DX2                !
 ! A12   A(4,2,9)               80.1769         estimate D2E/DX2                !
 ! A13   A(2,3,13)             109.2624         estimate D2E/DX2                !
 ! A14   A(2,3,14)             111.786          estimate D2E/DX2                !
 ! A15   A(2,3,15)             113.4069         estimate D2E/DX2                !
 ! A16   A(13,3,14)            106.9028         estimate D2E/DX2                !
 ! A17   A(13,3,15)            106.735          estimate D2E/DX2                !
 ! A18   A(14,3,15)            108.4275         estimate D2E/DX2                !
 ! A19   A(2,4,5)               85.3249         estimate D2E/DX2                !
 ! A20   A(2,4,7)               94.7943         estimate D2E/DX2                !
 ! A21   A(2,4,16)             129.5287         estimate D2E/DX2                !
 ! A22   A(5,4,7)               71.0898         estimate D2E/DX2                !
 ! A23   A(5,4,16)             115.4595         estimate D2E/DX2                !
 ! A24   A(7,4,16)             134.729          estimate D2E/DX2                !
 ! A25   A(4,5,6)               85.4697         estimate D2E/DX2                !
 ! A26   A(4,5,9)               72.3898         estimate D2E/DX2                !
 ! A27   A(4,5,17)             114.1258         estimate D2E/DX2                !
 ! A28   A(6,5,9)               99.9528         estimate D2E/DX2                !
 ! A29   A(6,5,17)             127.1676         estimate D2E/DX2                !
 ! A30   A(9,5,17)             132.2485         estimate D2E/DX2                !
 ! A31   A(5,6,7)               76.2787         estimate D2E/DX2                !
 ! A32   A(5,6,18)             113.3567         estimate D2E/DX2                !
 ! A33   A(5,6,19)             121.9198         estimate D2E/DX2                !
 ! A34   A(7,6,18)             123.4687         estimate D2E/DX2                !
 ! A35   A(7,6,19)             112.9434         estimate D2E/DX2                !
 ! A36   A(18,6,19)            107.207          estimate D2E/DX2                !
 ! A37   A(4,7,6)               74.7081         estimate D2E/DX2                !
 ! A38   A(4,7,8)              148.0645         estimate D2E/DX2                !
 ! A39   A(4,7,9)               71.8545         estimate D2E/DX2                !
 ! A40   A(6,7,8)               96.5125         estimate D2E/DX2                !
 ! A41   A(6,7,9)              110.5326         estimate D2E/DX2                !
 ! A42   A(8,7,9)               83.2853         estimate D2E/DX2                !
 ! A43   A(7,8,20)             114.6053         estimate D2E/DX2                !
 ! A44   A(7,8,21)             110.5316         estimate D2E/DX2                !
 ! A45   A(7,8,22)             116.5826         estimate D2E/DX2                !
 ! A46   A(20,8,21)            108.0759         estimate D2E/DX2                !
 ! A47   A(20,8,22)            101.2501         estimate D2E/DX2                !
 ! A48   A(21,8,22)            104.8897         estimate D2E/DX2                !
 ! A49   A(2,9,5)               76.5728         estimate D2E/DX2                !
 ! A50   A(2,9,7)              108.5034         estimate D2E/DX2                !
 ! A51   A(2,9,23)              94.744          estimate D2E/DX2                !
 ! A52   A(5,9,7)               69.5054         estimate D2E/DX2                !
 ! A53   A(5,9,23)             151.5137         estimate D2E/DX2                !
 ! A54   A(7,9,23)              88.3473         estimate D2E/DX2                !
 ! D1    D(10,1,2,3)           -62.2719         estimate D2E/DX2                !
 ! D2    D(10,1,2,4)            87.1237         estimate D2E/DX2                !
 ! D3    D(10,1,2,9)           163.8797         estimate D2E/DX2                !
 ! D4    D(11,1,2,3)           175.2793         estimate D2E/DX2                !
 ! D5    D(11,1,2,4)           -35.3251         estimate D2E/DX2                !
 ! D6    D(11,1,2,9)            41.4309         estimate D2E/DX2                !
 ! D7    D(12,1,2,3)            59.339          estimate D2E/DX2                !
 ! D8    D(12,1,2,4)          -151.2654         estimate D2E/DX2                !
 ! D9    D(12,1,2,9)           -74.5094         estimate D2E/DX2                !
 ! D10   D(1,2,3,13)            57.0213         estimate D2E/DX2                !
 ! D11   D(1,2,3,14)           -61.101          estimate D2E/DX2                !
 ! D12   D(1,2,3,15)           175.9452         estimate D2E/DX2                !
 ! D13   D(4,2,3,13)          -100.419          estimate D2E/DX2                !
 ! D14   D(4,2,3,14)           141.4587         estimate D2E/DX2                !
 ! D15   D(4,2,3,15)            18.5049         estimate D2E/DX2                !
 ! D16   D(9,2,3,13)           164.759          estimate D2E/DX2                !
 ! D17   D(9,2,3,14)            46.6367         estimate D2E/DX2                !
 ! D18   D(9,2,3,15)           -76.3171         estimate D2E/DX2                !
 ! D19   D(1,2,4,5)             25.7374         estimate D2E/DX2                !
 ! D20   D(1,2,4,7)             96.2762         estimate D2E/DX2                !
 ! D21   D(1,2,4,16)           -93.7156         estimate D2E/DX2                !
 ! D22   D(3,2,4,5)            174.6594         estimate D2E/DX2                !
 ! D23   D(3,2,4,7)           -114.8019         estimate D2E/DX2                !
 ! D24   D(3,2,4,16)            55.2063         estimate D2E/DX2                !
 ! D25   D(9,2,4,5)            -55.3058         estimate D2E/DX2                !
 ! D26   D(9,2,4,7)             15.2329         estimate D2E/DX2                !
 ! D27   D(9,2,4,16)          -174.7589         estimate D2E/DX2                !
 ! D28   D(1,2,9,5)            -91.892          estimate D2E/DX2                !
 ! D29   D(1,2,9,7)           -154.5387         estimate D2E/DX2                !
 ! D30   D(1,2,9,23)           115.6186         estimate D2E/DX2                !
 ! D31   D(3,2,9,5)            152.7818         estimate D2E/DX2                !
 ! D32   D(3,2,9,7)             90.1351         estimate D2E/DX2                !
 ! D33   D(3,2,9,23)             0.2924         estimate D2E/DX2                !
 ! D34   D(4,2,9,5)             43.9449         estimate D2E/DX2                !
 ! D35   D(4,2,9,7)            -18.7018         estimate D2E/DX2                !
 ! D36   D(4,2,9,23)          -108.5445         estimate D2E/DX2                !
 ! D37   D(2,4,5,6)            146.6612         estimate D2E/DX2                !
 ! D38   D(2,4,5,9)             44.7115         estimate D2E/DX2                !
 ! D39   D(2,4,5,17)           -84.3948         estimate D2E/DX2                !
 ! D40   D(7,4,5,6)             49.962          estimate D2E/DX2                !
 ! D41   D(7,4,5,9)            -51.9877         estimate D2E/DX2                !
 ! D42   D(7,4,5,17)           178.906          estimate D2E/DX2                !
 ! D43   D(16,4,5,6)           -81.3999         estimate D2E/DX2                !
 ! D44   D(16,4,5,9)           176.6504         estimate D2E/DX2                !
 ! D45   D(16,4,5,17)           47.5441         estimate D2E/DX2                !
 ! D46   D(2,4,7,6)           -133.5265         estimate D2E/DX2                !
 ! D47   D(2,4,7,8)            -56.0221         estimate D2E/DX2                !
 ! D48   D(2,4,7,9)            -15.346          estimate D2E/DX2                !
 ! D49   D(5,4,7,6)            -50.1411         estimate D2E/DX2                !
 ! D50   D(5,4,7,8)             27.3632         estimate D2E/DX2                !
 ! D51   D(5,4,7,9)             68.0394         estimate D2E/DX2                !
 ! D52   D(16,4,7,6)            57.3313         estimate D2E/DX2                !
 ! D53   D(16,4,7,8)           134.8357         estimate D2E/DX2                !
 ! D54   D(16,4,7,9)           175.5118         estimate D2E/DX2                !
 ! D55   D(4,5,6,7)            -57.6564         estimate D2E/DX2                !
 ! D56   D(4,5,6,18)          -178.5144         estimate D2E/DX2                !
 ! D57   D(4,5,6,19)            51.0465         estimate D2E/DX2                !
 ! D58   D(9,5,6,7)             13.5579         estimate D2E/DX2                !
 ! D59   D(9,5,6,18)          -107.3001         estimate D2E/DX2                !
 ! D60   D(9,5,6,19)           122.2608         estimate D2E/DX2                !
 ! D61   D(17,5,6,7)          -174.6872         estimate D2E/DX2                !
 ! D62   D(17,5,6,18)           64.4548         estimate D2E/DX2                !
 ! D63   D(17,5,6,19)          -65.9843         estimate D2E/DX2                !
 ! D64   D(4,5,9,2)            -48.4151         estimate D2E/DX2                !
 ! D65   D(4,5,9,7)             67.5331         estimate D2E/DX2                !
 ! D66   D(4,5,9,23)            26.4156         estimate D2E/DX2                !
 ! D67   D(6,5,9,2)           -130.3768         estimate D2E/DX2                !
 ! D68   D(6,5,9,7)            -14.4285         estimate D2E/DX2                !
 ! D69   D(6,5,9,23)           -55.5461         estimate D2E/DX2                !
 ! D70   D(17,5,9,2)            58.5041         estimate D2E/DX2                !
 ! D71   D(17,5,9,7)           174.4524         estimate D2E/DX2                !
 ! D72   D(17,5,9,23)          133.3348         estimate D2E/DX2                !
 ! D73   D(5,6,7,4)             46.6179         estimate D2E/DX2                !
 ! D74   D(5,6,7,8)           -102.064          estimate D2E/DX2                !
 ! D75   D(5,6,7,9)            -16.82           estimate D2E/DX2                !
 ! D76   D(18,6,7,4)           155.7532         estimate D2E/DX2                !
 ! D77   D(18,6,7,8)             7.0712         estimate D2E/DX2                !
 ! D78   D(18,6,7,9)            92.3153         estimate D2E/DX2                !
 ! D79   D(19,6,7,4)           -72.5691         estimate D2E/DX2                !
 ! D80   D(19,6,7,8)           138.749          estimate D2E/DX2                !
 ! D81   D(19,6,7,9)          -136.007          estimate D2E/DX2                !
 ! D82   D(4,7,8,20)           -75.1843         estimate D2E/DX2                !
 ! D83   D(4,7,8,21)           162.4094         estimate D2E/DX2                !
 ! D84   D(4,7,8,22)            42.7909         estimate D2E/DX2                !
 ! D85   D(6,7,8,20)            -3.7674         estimate D2E/DX2                !
 ! D86   D(6,7,8,21)          -126.1737         estimate D2E/DX2                !
 ! D87   D(6,7,8,22)           114.2078         estimate D2E/DX2                !
 ! D88   D(9,7,8,20)          -113.7672         estimate D2E/DX2                !
 ! D89   D(9,7,8,21)           123.8265         estimate D2E/DX2                !
 ! D90   D(9,7,8,22)             4.208          estimate D2E/DX2                !
 ! D91   D(4,7,9,2)             16.7706         estimate D2E/DX2                !
 ! D92   D(4,7,9,5)            -50.4924         estimate D2E/DX2                !
 ! D93   D(4,7,9,23)           111.2208         estimate D2E/DX2                !
 ! D94   D(6,7,9,2)             81.9921         estimate D2E/DX2                !
 ! D95   D(6,7,9,5)             14.7291         estimate D2E/DX2                !
 ! D96   D(6,7,9,23)           176.4423         estimate D2E/DX2                !
 ! D97   D(8,7,9,2)            176.4575         estimate D2E/DX2                !
 ! D98   D(8,7,9,5)            109.1945         estimate D2E/DX2                !
 ! D99   D(8,7,9,23)           -89.0924         estimate D2E/DX2                !
 --------------------------------------------------------------------------------
 Trust Radius=3.00D-01 FncErr=1.00D-07 GrdErr=1.00D-06 EigMax=2.50D+02 EigMin=1.00D-04
 Number of steps in this run=    138 maximum allowed number of steps=    138.
 GradGradGradGradGradGradGradGradGradGradGradGradGradGradGradGradGradGrad

                          Input orientation:                          
 ---------------------------------------------------------------------
 Center     Atomic      Atomic             Coordinates (Angstroms)
 Number     Number       Type             X           Y           Z
 ---------------------------------------------------------------------
      1          6           0        0.859690   -0.063150    0.323090
      2          6           0        2.400840    0.041960    0.095350
      3          6           0        3.053830    0.458970    1.408530
      4          6           0        3.439880   -0.678310   -0.834630
      5          6           0        2.267950   -0.923420   -1.747090
      6          6           0        3.292220   -0.780270   -2.899320
      7          6           0        3.413220    0.602270   -2.111310
      8          6           0        2.536520    1.492830   -3.163840
      9          6           0        2.178350    0.813700   -1.186480
     10          1           0        0.593410   -0.820070    1.055190
     11          1           0        0.282800   -0.280810   -0.593090
     12          1           0        0.478380    0.915950    0.655760
     13          1           0        2.791700   -0.268030    2.190990
     14          1           0        2.694940    1.435980    1.748590
     15          1           0        4.145270    0.489510    1.360220
     16          1           0        4.061360   -1.540460   -0.634230
     17          1           0        1.688940   -1.796700   -1.495490
     18          1           0        2.843550   -0.871100   -3.891620
     19          1           0        4.230750   -1.347180   -2.914540
     20          1           0        2.208460    0.949170   -4.060970
     21          1           0        3.100010    2.367810   -3.486000
     22          1           0        1.569540    1.897340   -2.789330
     23          1           0        2.657530    1.749910   -0.814860
 ---------------------------------------------------------------------
                    Distance matrix (angstroms):
                    1          2          3          4          5
     1  C    0.000000
     2  C    1.561428   0.000000
     3  C    2.503006   1.524708   0.000000
     4  C    2.894152   1.569476   2.544446   0.000000
     5  C    2.647434   2.084275   3.533631   1.505351   0.000000
     6  C    4.100657   3.230893   4.488888   2.072473   1.548307
     7  C    3.590209   2.491628   3.541041   1.808455   1.942171
     8  C    4.170313   3.570119   4.716253   3.309853   2.813818
     9  C    2.187814   1.512671   2.761589   1.985283   1.827539
    10  H    1.086188   2.220629   2.795435   3.419636   3.266120
    11  H    1.104339   2.250383   3.497480   3.191160   2.384425
    12  H    1.102136   2.184896   2.721844   3.678778   3.515612
    13  H    2.695123   2.154199   1.099766   3.121353   4.026453
    14  H    2.765426   2.182427   1.094985   3.420261   4.238970
    15  H    3.489428   2.200735   1.092935   2.584327   3.895648
    16  H    3.653710   2.407004   3.030793   1.081527   2.198980
    17  H    2.645767   2.533425   3.922283   2.180212   1.077577
    18  H    4.727818   4.114073   5.468537   3.120571   2.221050
    19  H    4.847167   3.786518   4.830761   2.323551   2.322735
    20  H    4.697228   4.258525   5.556112   3.817638   2.977276
    21  H    5.043587   4.327180   5.253782   4.052668   3.814227
    22  H    3.746274   3.529146   4.679108   3.735371   3.087188
    23  H    2.795415   1.952297   2.601354   2.551218   2.857887
                    6          7          8          9         10
     6  C    0.000000
     7  C    1.595938   0.000000
     8  C    2.409987   1.633866   0.000000
     9  C    2.591383   1.557215   2.121192   0.000000
    10  H    4.787829   4.472259   5.188969   3.194734   0.000000
    11  H    3.824234   3.589478   3.851468   2.267857   1.761848
    12  H    4.840811   4.045783   4.376994   2.508825   1.785089
    13  H    5.140444   4.433226   5.642690   3.599117   2.535206
    14  H    5.183780   4.013705   4.915313   3.044459   3.160220
    15  H    4.525894   3.549667   4.905288   3.234123   3.797862
    16  H    2.510000   2.682003   4.233782   3.064764   3.924255
    17  H    2.361012   3.017852   3.784546   2.673798   2.942781
    18  H    1.092801   2.380094   2.492408   3.255584   5.434764
    19  H    1.096566   2.261391   3.316357   3.444988   5.409884
    20  H    2.348389   2.317965   1.099105   2.877838   5.649220
    21  H    3.208044   2.259426   1.089449   2.924467   6.088352
    22  H    3.185800   2.352886   1.113075   2.028313   4.808064
    23  H    3.339104   1.889161   2.366102   1.115439   3.789786
                   11         12         13         14         15
    11  H    0.000000
    12  H    1.740722   0.000000
    13  H    3.747779   3.018309   0.000000
    14  H    3.774818   2.525440   1.763159   0.000000
    15  H    4.396304   3.758217   1.759601   1.774850   0.000000
    16  H    3.983206   4.531641   3.348579   4.050201   2.847042
    17  H    2.255987   3.667670   4.140416   4.688956   4.406290
    18  H    4.217367   5.428282   6.112653   6.095627   5.579208
    19  H    4.702402   5.652352   5.413120   5.643534   4.653419
    20  H    4.152976   5.024124   6.395995   5.850182   5.775104
    21  H    4.829160   5.112242   6.266652   5.332290   5.301550
    22  H    3.350150   3.744650   5.566515   4.698095   5.082828
    23  H    3.132467   2.758062   3.622874   2.582872   2.921122
                   16         17         18         19         20
    16  H    0.000000
    17  H    2.536889   0.000000
    18  H    3.541425   2.816256   0.000000
    19  H    2.294747   2.945602   1.762289   0.000000
    20  H    4.623207   3.793599   1.935304   3.267596   0.000000
    21  H    4.932683   4.826634   3.274269   3.925085   1.771438
    22  H    4.761522   3.915892   3.240741   4.198169   1.710062
    23  H    3.581885   3.738966   4.046078   4.059020   3.373437
                   21         22         23
    21  H    0.000000
    22  H    1.746147   0.000000
    23  H    2.777153   2.259201   0.000000
 Stoichiometry    C9H14
 Framework group  C1[X(C9H14)]
 Deg. of freedom    63
 Full point group                 C1      NOp   1
 Largest Abelian subgroup         C1      NOp   1
 Largest concise Abelian subgroup C1      NOp   1
                         Standard orientation:                         
 ---------------------------------------------------------------------
 Center     Atomic      Atomic             Coordinates (Angstroms)
 Number     Number       Type             X           Y           Z
 ---------------------------------------------------------------------
      1          6           0        1.715244    0.709530    1.218581
      2          6           0        1.200354   -0.058484   -0.039631
      3          6           0        2.347017   -0.168836   -1.038491
      4          6           0        0.130671   -1.177087   -0.299945
      5          6           0       -0.534952   -0.658535    0.946703
      6          6           0       -1.863008   -1.043637    0.250126
      7          6           0       -1.181037   -0.025009   -0.771798
      8          6           0       -2.095510    1.270950   -0.379690
      9          6           0       -0.054698    0.785533   -0.065186
     10          1           0        2.520838    0.189118    1.728477
     11          1           0        0.934115    0.915271    1.971623
     12          1           0        2.063737    1.708974    0.911386
     13          1           0        3.199769   -0.670230   -0.557970
     14          1           0        2.698702    0.815761   -1.363881
     15          1           0        2.095426   -0.756215   -1.925168
     16          1           0        0.254884   -2.250355   -0.348589
     17          1           0       -0.137031   -1.067122    1.860973
     18          1           0       -2.748964   -0.800877    0.842042
     19          1           0       -2.023971   -2.038711   -0.181585
     20          1           0       -2.887908    1.066742    0.354092
     21          1           0       -2.559878    1.694273   -1.269667
     22          1           0       -1.568587    2.125057    0.101754
     23          1           0        0.174377    1.261759   -1.047498
 ---------------------------------------------------------------------
 Rotational constants (GHZ):           3.0069935           1.3672226           1.2914342
 Standard basis: 6-31G(2df,p) (6D, 7F)
 There are   349 symmetry adapted cartesian basis functions of A   symmetry.
 There are   322 symmetry adapted basis functions of A   symmetry.
   322 basis functions,   494 primitive gaussians,   349 cartesian basis functions
    34 alpha electrons       34 beta electrons
       nuclear repulsion energy       471.0132766837 Hartrees.
 NAtoms=   23 NActive=   23 NUniq=   23 SFac= 1.00D+00 NAtFMM=   60 NAOKFM=F Big=F
 Integral buffers will be    131072 words long.
 Raffenetti 2 integral format.
 Two-electron integral symmetry is turned on.
 One-electron integrals computed using PRISM.
 PrsmSu:  requested number of processors reduced to:  13 ShMem   1 Linda.
 NBasis=   322 RedAO= T EigKep=  2.83D-04  NBF=   322
 NBsUse=   322 1.00D-06 EigRej= -1.00D+00 NBFU=   322
 ExpMin= 1.61D-01 ExpMax= 3.05D+03 ExpMxC= 4.57D+02 IAcc=3 IRadAn=         5 AccDes= 0.00D+00
 Harris functional with IExCor=  402 and IRadAn=       5 diagonalized for initial guess.
 HarFok:  IExCor=  402 AccDes= 0.00D+00 IRadAn=         5 IDoV= 1 UseB2=F ITyADJ=14
 ICtDFT=  3500011 ScaDFX=  1.000000  1.000000  1.000000  1.000000
 FoFCou: FMM=F IPFlag=           0 FMFlag=      100000 FMFlg1=           0
         NFxFlg=           0 DoJE=T BraDBF=F KetDBF=T FulRan=T
         wScrn=  0.000000 ICntrl=       500 IOpCl=  0 I1Cent=   200000004 NGrid=           0
         NMat0=    1 NMatS0=      1 NMatT0=    0 NMatD0=    1 NMtDS0=    0 NMtDT0=    0
 Petite list used in FoFCou.
 Requested convergence on RMS density matrix=1.00D-08 within 128 cycles.
 Requested convergence on MAX density matrix=1.00D-06.
 Requested convergence on             energy=1.00D-06.
 No special actions if energy rises.
 Integral accuracy reduced to 1.0D-05 until final iterations.
 Initial convergence to 1.0D-05 achieved.  Increase integral accuracy.
 SCF Done:  E(RB3LYP) =  -350.869816148     A.U. after   17 cycles
            NFock= 17  Conv=0.23D-08     -V/T= 2.0077

 **********************************************************************

            Population analysis using the SCF density.

 **********************************************************************

 Orbital symmetries:
       Occupied  (A) (A) (A) (A) (A) (A) (A) (A) (A) (A) (A) (A)
                 (A) (A) (A) (A) (A) (A) (A) (A) (A) (A) (A) (A)
                 (A) (A) (A) (A) (A) (A) (A) (A) (A) (A)
       Virtual   (A) (A) (A) (A) (A) (A) (A) (A) (A) (A) (A) (A)
                 (A) (A) (A) (A) (A) (A) (A) (A) (A) (A) (A) (A)
                 (A) (A) (A) (A) (A) (A) (A) (A) (A) (A) (A) (A)
                 (A) (A) (A) (A) (A) (A) (A) (A) (A) (A) (A) (A)
                 (A) (A) (A) (A) (A) (A) (A) (A) (A) (A) (A) (A)
                 (A) (A) (A) (A) (A) (A) (A) (A) (A) (A) (A) (A)
                 (A) (A) (A) (A) (A) (A) (A) (A) (A) (A) (A) (A)
                 (A) (A) (A) (A) (A) (A) (A) (A) (A) (A) (A) (A)
                 (A) (A) (A) (A) (A) (A) (A) (A) (A) (A) (A) (A)
                 (A) (A) (A) (A) (A) (A) (A) (A) (A) (A) (A) (A)
                 (A) (A) (A) (A) (A) (A) (A) (A) (A) (A) (A) (A)
                 (A) (A) (A) (A) (A) (A) (A) (A) (A) (A) (A) (A)
                 (A) (A) (A) (A) (A) (A) (A) (A) (A) (A) (A) (A)
                 (A) (A) (A) (A) (A) (A) (A) (A) (A) (A) (A) (A)
                 (A) (A) (A) (A) (A) (A) (A) (A) (A) (A) (A) (A)
                 (A) (A) (A) (A) (A) (A) (A) (A) (A) (A) (A) (A)
                 (A) (A) (A) (A) (A) (A) (A) (A) (A) (A) (A) (A)
                 (A) (A) (A) (A) (A) (A) (A) (A) (A) (A) (A) (A)
                 (A) (A) (A) (A) (A) (A) (A) (A) (A) (A) (A) (A)
                 (A) (A) (A) (A) (A) (A) (A) (A) (A) (A) (A) (A)
                 (A) (A) (A) (A) (A) (A) (A) (A) (A) (A) (A) (A)
                 (A) (A) (A) (A) (A) (A) (A) (A) (A) (A) (A) (A)
                 (A) (A) (A) (A) (A) (A) (A) (A) (A) (A) (A) (A)
                 (A) (A) (A) (A) (A) (A) (A) (A) (A) (A) (A) (A)
 The electronic state is 1-A.
 Alpha  occ. eigenvalues --  -10.23857 -10.23457 -10.20540 -10.18978 -10.18886
 Alpha  occ. eigenvalues --  -10.18010 -10.17435 -10.17088 -10.16210  -0.92619
 Alpha  occ. eigenvalues --   -0.78557  -0.73582  -0.68878  -0.68137  -0.62957
 Alpha  occ. eigenvalues --   -0.58443  -0.55942  -0.51432  -0.46701  -0.45350
 Alpha  occ. eigenvalues --   -0.43604  -0.42712  -0.41950  -0.39153  -0.38017
 Alpha  occ. eigenvalues --   -0.37355  -0.37028  -0.34785  -0.32609  -0.30682
 Alpha  occ. eigenvalues --   -0.28737  -0.25311  -0.21471  -0.16473
 Alpha virt. eigenvalues --   -0.07041  -0.03512   0.08930   0.10300   0.11482
 Alpha virt. eigenvalues --    0.13310   0.13666   0.14807   0.15473   0.15755
 Alpha virt. eigenvalues --    0.16413   0.17405   0.17741   0.18192   0.19599
 Alpha virt. eigenvalues --    0.19995   0.21628   0.21842   0.23312   0.24723
 Alpha virt. eigenvalues --    0.25050   0.26155   0.28799   0.31254   0.37823
 Alpha virt. eigenvalues --    0.42024   0.44410   0.46136   0.47232   0.48768
 Alpha virt. eigenvalues --    0.49010   0.51157   0.51968   0.52409   0.54098
 Alpha virt. eigenvalues --    0.54887   0.58014   0.58528   0.59699   0.60442
 Alpha virt. eigenvalues --    0.61324   0.62222   0.64594   0.65690   0.68738
 Alpha virt. eigenvalues --    0.69960   0.70951   0.71157   0.72049   0.73463
 Alpha virt. eigenvalues --    0.73853   0.74314   0.74777   0.75475   0.75844
 Alpha virt. eigenvalues --    0.76248   0.78409   0.79434   0.81382   0.81667
 Alpha virt. eigenvalues --    0.83671   0.84637   0.87432   0.87679   0.88290
 Alpha virt. eigenvalues --    0.91630   0.92736   0.94476   0.96396   0.98633
 Alpha virt. eigenvalues --    1.06569   1.08134   1.09381   1.14611   1.15254
 Alpha virt. eigenvalues --    1.17864   1.20038   1.22524   1.26055   1.27489
 Alpha virt. eigenvalues --    1.29326   1.30738   1.31437   1.34233   1.37733
 Alpha virt. eigenvalues --    1.38506   1.41009   1.45284   1.46012   1.47464
 Alpha virt. eigenvalues --    1.49561   1.50884   1.52541   1.54732   1.55214
 Alpha virt. eigenvalues --    1.57042   1.58178   1.58907   1.61382   1.62370
 Alpha virt. eigenvalues --    1.64883   1.65918   1.70182   1.72001   1.72290
 Alpha virt. eigenvalues --    1.75967   1.78846   1.82681   1.84482   1.85239
 Alpha virt. eigenvalues --    1.86667   1.89615   1.90955   1.93180   1.94768
 Alpha virt. eigenvalues --    1.95500   1.98101   1.99805   2.03251   2.04758
 Alpha virt. eigenvalues --    2.05379   2.11422   2.11829   2.20483   2.24061
 Alpha virt. eigenvalues --    2.27341   2.29817   2.30820   2.31993   2.36438
 Alpha virt. eigenvalues --    2.37779   2.39836   2.44199   2.45993   2.47273
 Alpha virt. eigenvalues --    2.49588   2.50122   2.52429   2.55366   2.56316
 Alpha virt. eigenvalues --    2.61551   2.65287   2.66628   2.68653   2.70327
 Alpha virt. eigenvalues --    2.72965   2.74976   2.75679   2.77707   2.81237
 Alpha virt. eigenvalues --    2.82487   2.83930   2.85546   2.87560   2.87988
 Alpha virt. eigenvalues --    2.89873   2.91650   2.93879   2.94404   2.95191
 Alpha virt. eigenvalues --    2.96836   2.98059   3.00403   3.00653   3.03174
 Alpha virt. eigenvalues --    3.04836   3.05856   3.06994   3.09787   3.11429
 Alpha virt. eigenvalues --    3.14454   3.15814   3.17953   3.19950   3.22308
 Alpha virt. eigenvalues --    3.23479   3.26272   3.28318   3.31834   3.33862
 Alpha virt. eigenvalues --    3.36352   3.39229   3.39433   3.41024   3.44367
 Alpha virt. eigenvalues --    3.45659   3.49598   3.51165   3.52392   3.55593
 Alpha virt. eigenvalues --    3.58652   3.59569   3.61443   3.63263   3.63985
 Alpha virt. eigenvalues --    3.66176   3.66772   3.68754   3.73311   3.76309
 Alpha virt. eigenvalues --    3.80890   3.82003   3.84328   3.88336   3.91738
 Alpha virt. eigenvalues --    3.95100   3.96004   3.98514   4.01660   4.04732
 Alpha virt. eigenvalues --    4.07898   4.08123   4.12209   4.17058   4.18747
 Alpha virt. eigenvalues --    4.19939   4.24057   4.28446   4.29665   4.32163
 Alpha virt. eigenvalues --    4.35220   4.36232   4.39063   4.40036   4.43653
 Alpha virt. eigenvalues --    4.45546   4.46900   4.50264   4.52071   4.53599
 Alpha virt. eigenvalues --    4.54557   4.58411   4.60282   4.61882   4.64093
 Alpha virt. eigenvalues --    4.65484   4.66615   4.68817   4.70520   4.71607
 Alpha virt. eigenvalues --    4.73366   4.74911   4.76454   4.78438   4.80079
 Alpha virt. eigenvalues --    4.82896   4.84218   4.86300   4.89150   4.91269
 Alpha virt. eigenvalues --    4.91689   4.95702   4.96369   4.98903   5.01166
 Alpha virt. eigenvalues --    5.03424   5.05401   5.10516   5.14494   5.16079
 Alpha virt. eigenvalues --    5.19518   5.23006   5.24145   5.27593   5.33183
 Alpha virt. eigenvalues --    5.35481   5.39467   5.40531   5.48021   5.57120
 Alpha virt. eigenvalues --    5.59526   5.64683   5.73549   5.73621   5.77120
 Alpha virt. eigenvalues --    5.90816   6.07311   6.31280   6.85729  11.11904
 Alpha virt. eigenvalues --   11.48190  11.78207  11.84843  12.02958  12.13340
 Alpha virt. eigenvalues --   12.33177  12.49397  12.97526
          Condensed to atoms (all electrons):
               1          2          3          4          5          6
     1  C    5.142548   0.395860  -0.078987  -0.015982  -0.033031   0.001838
     2  C    0.395860   4.591305   0.342529   0.398444  -0.063402   0.002482
     3  C   -0.078987   0.342529   5.247773  -0.068070   0.010349  -0.001201
     4  C   -0.015982   0.398444  -0.068070   5.197751   0.387782  -0.102026
     5  C   -0.033031  -0.063402   0.010349   0.387782   5.061537   0.316804
     6  C    0.001838   0.002482  -0.001201  -0.102026   0.316804   5.117495
     7  C    0.010940  -0.046884  -0.001133   0.146022  -0.121047   0.365599
     8  C   -0.000436   0.009733   0.000083   0.008491  -0.017157  -0.070305
     9  C   -0.085764   0.365664  -0.035283  -0.116554   0.228274  -0.038558
    10  H    0.332153  -0.034452   0.005266  -0.002363   0.002443  -0.000040
    11  H    0.363832  -0.019151   0.006102  -0.000198   0.001222  -0.000248
    12  H    0.370991  -0.025114  -0.004674   0.003139   0.001367  -0.000053
    13  H   -0.009982  -0.016488   0.369651  -0.000711  -0.000526   0.000012
    14  H    0.003847  -0.022660   0.337533   0.006950  -0.000179   0.000030
    15  H    0.005100  -0.012957   0.360323  -0.004171   0.000584   0.000010
    16  H   -0.000184  -0.036987  -0.000592   0.327988  -0.052550  -0.003035
    17  H    0.006369  -0.009353  -0.000451  -0.051777   0.320208  -0.038406
    18  H    0.000003  -0.000504   0.000025   0.012891  -0.018773   0.336377
    19  H   -0.000035   0.001508   0.000007  -0.016695  -0.017818   0.380154
    20  H    0.000048  -0.000369   0.000003   0.000986   0.003426  -0.019836
    21  H   -0.000005  -0.000476   0.000012  -0.000514   0.002098   0.003815
    22  H   -0.000282   0.000087   0.000031   0.001690   0.001287   0.002956
    23  H   -0.000410  -0.095575  -0.005273   0.008126   0.007920   0.005014
               7          8          9         10         11         12
     1  C    0.010940  -0.000436  -0.085764   0.332153   0.363832   0.370991
     2  C   -0.046884   0.009733   0.365664  -0.034452  -0.019151  -0.025114
     3  C   -0.001133   0.000083  -0.035283   0.005266   0.006102  -0.004674
     4  C    0.146022   0.008491  -0.116554  -0.002363  -0.000198   0.003139
     5  C   -0.121047  -0.017157   0.228274   0.002443   0.001222   0.001367
     6  C    0.365599  -0.070305  -0.038558  -0.000040  -0.000248  -0.000053
     7  C    5.319873   0.345006   0.205383  -0.000877  -0.000062   0.000124
     8  C    0.345006   5.169991  -0.075469   0.000032  -0.000239  -0.000202
     9  C    0.205383  -0.075469   5.296101   0.008791  -0.002760  -0.004421
    10  H   -0.000877   0.000032   0.008791   0.671883  -0.032212  -0.035475
    11  H   -0.000062  -0.000239  -0.002760  -0.032212   0.589529  -0.031128
    12  H    0.000124  -0.000202  -0.004421  -0.035475  -0.031128   0.594989
    13  H   -0.000188   0.000002   0.003547   0.005053  -0.000037  -0.000341
    14  H   -0.000077  -0.000031  -0.006520  -0.001004  -0.000107   0.005361
    15  H    0.001786  -0.000016  -0.001021  -0.000111  -0.000197   0.000050
    16  H   -0.015705  -0.000505   0.019441  -0.000005  -0.000128  -0.000070
    17  H    0.023315  -0.002103  -0.017695  -0.002122  -0.000869   0.000002
    18  H   -0.030939  -0.010613  -0.000448   0.000002   0.000073  -0.000002
    19  H   -0.024469   0.002241   0.004697   0.000001  -0.000004   0.000001
    20  H   -0.032520   0.367708   0.007625  -0.000001   0.000059   0.000006
    21  H   -0.026964   0.344702   0.004678  -0.000000   0.000007   0.000007
    22  H   -0.032325   0.366261   0.005204   0.000028   0.000140   0.000026
    23  H   -0.038726  -0.040059   0.363407  -0.000134   0.000464   0.003616
              13         14         15         16         17         18
     1  C   -0.009982   0.003847   0.005100  -0.000184   0.006369   0.000003
     2  C   -0.016488  -0.022660  -0.012957  -0.036987  -0.009353  -0.000504
     3  C    0.369651   0.337533   0.360323  -0.000592  -0.000451   0.000025
     4  C   -0.000711   0.006950  -0.004171   0.327988  -0.051777   0.012891
     5  C   -0.000526  -0.000179   0.000584  -0.052550   0.320208  -0.018773
     6  C    0.000012   0.000030   0.000010  -0.003035  -0.038406   0.336377
     7  C   -0.000188  -0.000077   0.001786  -0.015705   0.023315  -0.030939
     8  C    0.000002  -0.000031  -0.000016  -0.000505  -0.002103  -0.010613
     9  C    0.003547  -0.006520  -0.001021   0.019441  -0.017695  -0.000448
    10  H    0.005053  -0.001004  -0.000111  -0.000005  -0.002122   0.000002
    11  H   -0.000037  -0.000107  -0.000197  -0.000128  -0.000869   0.000073
    12  H   -0.000341   0.005361   0.000050  -0.000070   0.000002  -0.000002
    13  H    0.603485  -0.033200  -0.035524   0.000698   0.000078  -0.000000
    14  H   -0.033200   0.632791  -0.029827  -0.000189  -0.000023  -0.000001
    15  H   -0.035524  -0.029827   0.606680  -0.000094  -0.000012   0.000001
    16  H    0.000698  -0.000189  -0.000094   0.638398   0.010717  -0.000483
    17  H    0.000078  -0.000023  -0.000012   0.010717   0.651171  -0.001607
    18  H   -0.000000  -0.000001   0.000001  -0.000483  -0.001607   0.694334
    19  H   -0.000001   0.000001  -0.000006   0.003156   0.000451  -0.057037
    20  H   -0.000000   0.000001   0.000001  -0.000079  -0.000402   0.006829
    21  H   -0.000000   0.000003   0.000000   0.000013   0.000002   0.000353
    22  H    0.000001  -0.000004  -0.000001  -0.000062   0.000021   0.001587
    23  H   -0.000638   0.008976   0.000568  -0.001862  -0.000518  -0.000038
              19         20         21         22         23
     1  C   -0.000035   0.000048  -0.000005  -0.000282  -0.000410
     2  C    0.001508  -0.000369  -0.000476   0.000087  -0.095575
     3  C    0.000007   0.000003   0.000012   0.000031  -0.005273
     4  C   -0.016695   0.000986  -0.000514   0.001690   0.008126
     5  C   -0.017818   0.003426   0.002098   0.001287   0.007920
     6  C    0.380154  -0.019836   0.003815   0.002956   0.005014
     7  C   -0.024469  -0.032520  -0.026964  -0.032325  -0.038726
     8  C    0.002241   0.367708   0.344702   0.366261  -0.040059
     9  C    0.004697   0.007625   0.004678   0.005204   0.363407
    10  H    0.000001  -0.000001  -0.000000   0.000028  -0.000134
    11  H   -0.000004   0.000059   0.000007   0.000140   0.000464
    12  H    0.000001   0.000006   0.000007   0.000026   0.003616
    13  H   -0.000001  -0.000000  -0.000000   0.000001  -0.000638
    14  H    0.000001   0.000001   0.000003  -0.000004   0.008976
    15  H   -0.000006   0.000001   0.000000  -0.000001   0.000568
    16  H    0.003156  -0.000079   0.000013  -0.000062  -0.001862
    17  H    0.000451  -0.000402   0.000002   0.000021  -0.000518
    18  H   -0.057037   0.006829   0.000353   0.001587  -0.000038
    19  H    0.618323   0.000934  -0.000144  -0.000247  -0.000287
    20  H    0.000934   0.599251  -0.024779  -0.040482   0.002325
    21  H   -0.000144  -0.024779   0.604092  -0.032303   0.004939
    22  H   -0.000247  -0.040482  -0.032303   0.579102  -0.000294
    23  H   -0.000287   0.002325   0.004939  -0.000294   0.639118
 Mulliken charges:
               1
     1  C   -0.408430
     2  C    0.276761
     3  C   -0.484025
     4  C   -0.121198
     5  C   -0.020815
     6  C   -0.258881
     7  C   -0.046132
     8  C   -0.397114
     9  C   -0.128320
    10  H    0.083145
    11  H    0.125914
    12  H    0.121803
    13  H    0.115112
    14  H    0.098330
    15  H    0.108836
    16  H    0.112121
    17  H    0.113005
    18  H    0.067971
    19  H    0.105271
    20  H    0.129268
    21  H    0.120462
    22  H    0.147577
    23  H    0.139340
 Sum of Mulliken charges =  -0.00000
 Mulliken charges with hydrogens summed into heavy atoms:
               1
     1  C   -0.077568
     2  C    0.276761
     3  C   -0.161748
     4  C   -0.009078
     5  C    0.092190
     6  C   -0.085640
     7  C   -0.046132
     8  C    0.000193
     9  C    0.011020
 Electronic spatial extent (au):  <R**2>=           1152.1665
 Charge=             -0.0000 electrons
 Dipole moment (field-independent basis, Debye):
    X=              0.0426    Y=             -0.6299    Z=              0.7091  Tot=              0.9494
 Quadrupole moment (field-independent basis, Debye-Ang):
   XX=            -58.8753   YY=            -54.6668   ZZ=            -58.5720
   XY=             -0.7898   XZ=             -1.0690   YZ=             -1.0391
 Traceless Quadrupole moment (field-independent basis, Debye-Ang):
   XX=             -1.5039   YY=              2.7046   ZZ=             -1.2007
   XY=             -0.7898   XZ=             -1.0690   YZ=             -1.0391
 Octapole moment (field-independent basis, Debye-Ang**2):
  XXX=             -2.4084  YYY=             -5.3134  ZZZ=              4.2674  XYY=             -0.1386
  XXY=              1.9434  XXZ=              3.0043  XZZ=              0.6715  YZZ=              0.1557
  YYZ=             -0.5867  XYZ=             -0.5620
 Hexadecapole moment (field-independent basis, Debye-Ang**3):
 XXXX=           -970.1680 YYYY=           -342.2902 ZZZZ=           -296.2533 XXXY=             -7.0820
 XXXZ=             -2.0962 YYYX=              1.2578 YYYZ=              2.4599 ZZZX=             -4.2139
 ZZZY=             -5.9854 XXYY=           -212.3262 XXZZ=           -216.8351 YYZZ=           -106.5482
 XXYZ=             -0.2118 YYXZ=              0.7156 ZZXY=             -3.7480
 N-N= 4.710132766837D+02 E-N=-1.753618045396D+03  KE= 3.481969506197D+02
 PrsmSu:  requested number of processors reduced to:  13 ShMem   1 Linda.
 Calling FoFJK, ICntrl=      2127 FMM=F ISym2X=0 I1Cent= 0 IOpClX= 0 NMat=1 NMatS=1 NMatT=0.
 ***** Axes restored to original set *****
 -------------------------------------------------------------------
 Center     Atomic                   Forces (Hartrees/Bohr)
 Number     Number              X              Y              Z
 -------------------------------------------------------------------
      1        6          -0.011243738   -0.042257673    0.011230758
      2        6           0.025836173    0.001816579    0.034134227
      3        6          -0.003998587    0.015303506    0.002476102
      4        6          -0.094016077   -0.001400903    0.054729335
      5        6           0.083349971   -0.013474262   -0.047336142
      6        6          -0.049742081    0.007742817   -0.009597824
      7        6          -0.023286428   -0.026227427   -0.065381539
      8        6           0.031509133    0.048198423   -0.031089203
      9        6           0.053909730   -0.018411649    0.026511303
     10        1          -0.006635872   -0.002384079    0.011569109
     11        1           0.006000899   -0.000613149    0.010397874
     12        1           0.009994241   -0.002275446    0.002141040
     13        1          -0.000044886    0.001371049   -0.001482912
     14        1           0.000256705    0.003465889    0.004218111
     15        1           0.000442212    0.001888579   -0.002640152
     16        1           0.021240793    0.003935825    0.002126913
     17        1          -0.025414977    0.000010106    0.000569186
     18        1           0.005027308    0.009283575   -0.007083573
     19        1          -0.007486067   -0.005257759    0.012760084
     20        1           0.014255385   -0.004600517    0.004359844
     21        1          -0.000185220    0.006508978   -0.004860348
     22        1           0.015423047   -0.005215824    0.011622141
     23        1          -0.045191662    0.022593362   -0.019374334
 -------------------------------------------------------------------
 Cartesian Forces:  Max     0.094016077 RMS     0.026194290

 GradGradGradGradGradGradGradGradGradGradGradGradGradGradGradGradGradGrad
 Berny optimization.
 FormGI is forming the generalized inverse of G from B-inverse, IUseBI=4.
 Internal  Forces:  Max     0.051781665 RMS     0.013444534
 Search for a local minimum.
 Step number   1 out of a maximum of  138
 All quantities printed in internal units (Hartrees-Bohrs-Radians)
 Mixed Optimization -- RFO/linear search
 Second derivative matrix not updated -- first step.
 ITU=  0
     Eigenvalues ---    0.00230   0.00230   0.00439   0.00935   0.01029
     Eigenvalues ---    0.01404   0.01574   0.01844   0.01945   0.02430
     Eigenvalues ---    0.03289   0.03502   0.04224   0.04748   0.04827
     Eigenvalues ---    0.04972   0.05039   0.05228   0.05422   0.05516
     Eigenvalues ---    0.05687   0.05722   0.06595   0.06871   0.07581
     Eigenvalues ---    0.08516   0.09321   0.11028   0.12293   0.13280
     Eigenvalues ---    0.15231   0.16000   0.16000   0.16000   0.16000
     Eigenvalues ---    0.16000   0.16000   0.16000   0.16000   0.16000
     Eigenvalues ---    0.18714   0.19408   0.21532   0.21592   0.22473
     Eigenvalues ---    0.24586   0.25654   0.26702   0.29918   0.32031
     Eigenvalues ---    0.32277   0.33207   0.33447   0.33708   0.33781
     Eigenvalues ---    0.34065   0.34243   0.34476   0.34491   0.34876
     Eigenvalues ---    0.35257   0.35810   0.36289
 RFO step:  Lambda=-1.31928401D-01 EMin= 2.30000000D-03
 Linear search not attempted -- first point.
 Maximum step size (   0.300) exceeded in Quadratic search.
    -- Step size scaled by   0.626
 Iteration  1 RMS(Cart)=  0.10142034 RMS(Int)=  0.00289327
 Iteration  2 RMS(Cart)=  0.00467411 RMS(Int)=  0.00068607
 Iteration  3 RMS(Cart)=  0.00000983 RMS(Int)=  0.00068604
 Iteration  4 RMS(Cart)=  0.00000001 RMS(Int)=  0.00068604
 Variable       Old X    -DE/DX   Delta X   Delta X   Delta X     New X
                                 (Linear)    (Quad)   (Total)
    R1        2.95067   0.01021   0.00000   0.01603   0.01603   2.96671
    R2        2.05260   0.01109   0.00000   0.01433   0.01433   2.06693
    R3        2.08690  -0.01164   0.00000  -0.01571  -0.01571   2.07118
    R4        2.08273  -0.00483   0.00000  -0.00649  -0.00649   2.07624
    R5        2.88128   0.00681   0.00000   0.00989   0.00989   2.89117
    R6        2.96588  -0.01128   0.00000  -0.02914  -0.02952   2.93636
    R7        2.85853   0.05178   0.00000   0.08286   0.08183   2.94036
    R8        2.07826  -0.00195   0.00000  -0.00261  -0.00261   2.07565
    R9        2.06922   0.00432   0.00000   0.00570   0.00570   2.07492
   R10        2.06535   0.00061   0.00000   0.00080   0.00080   2.06615
   R11        2.84470   0.00943   0.00000   0.01238   0.01302   2.85772
   R12        3.41748   0.02143   0.00000   0.04656   0.04781   3.46530
   R13        2.04379   0.00946   0.00000   0.01209   0.01209   2.05588
   R14        2.92588  -0.01504   0.00000  -0.02994  -0.03042   2.89546
   R15        3.45355   0.00658   0.00000   0.00881   0.00782   3.46137
   R16        2.03633   0.01378   0.00000   0.01744   0.01744   2.05377
   R17        3.01589  -0.00492   0.00000  -0.00423  -0.00389   3.01200
   R18        2.06509   0.00360   0.00000   0.00472   0.00472   2.06982
   R19        2.07221  -0.00387   0.00000  -0.00512  -0.00512   2.06709
   R20        3.08756   0.00460   0.00000   0.00828   0.00828   3.09584
   R21        2.94271   0.03297   0.00000   0.06393   0.06452   3.00723
   R22        2.07701  -0.00554   0.00000  -0.00738  -0.00738   2.06962
   R23        2.05876   0.00657   0.00000   0.00856   0.00856   2.06732
   R24        2.10341  -0.01138   0.00000  -0.01568  -0.01568   2.08773
   R25        2.10787  -0.00691   0.00000  -0.00956  -0.00956   2.09831
    A1        1.96837   0.00753   0.00000   0.01610   0.01602   1.98439
    A2        1.99091   0.00266   0.00000   0.00793   0.00786   1.99877
    A3        1.90255  -0.01399   0.00000  -0.03214  -0.03208   1.87047
    A4        1.86895  -0.00234   0.00000  -0.00147  -0.00164   1.86731
    A5        1.90795  -0.00042   0.00000  -0.00505  -0.00500   1.90295
    A6        1.81808   0.00654   0.00000   0.01438   0.01444   1.83252
    A7        1.89178  -0.01629   0.00000  -0.02980  -0.02984   1.86194
    A8        2.35882  -0.00924   0.00000  -0.03215  -0.03192   2.32690
    A9        1.58356   0.02654   0.00000   0.07368   0.07473   1.65829
   A10        1.93085   0.02303   0.00000   0.04942   0.04909   1.97994
   A11        2.28272  -0.00971   0.00000  -0.04123  -0.04024   2.24248
   A12        1.39935  -0.01807   0.00000  -0.03261  -0.03204   1.36731
   A13        1.90699  -0.00041   0.00000  -0.00063  -0.00064   1.90635
   A14        1.95103   0.00520   0.00000   0.01115   0.01116   1.96219
   A15        1.97932  -0.00378   0.00000  -0.00836  -0.00835   1.97097
   A16        1.86581  -0.00182   0.00000  -0.00340  -0.00342   1.86239
   A17        1.86288   0.00210   0.00000   0.00448   0.00447   1.86735
   A18        1.89242  -0.00134   0.00000  -0.00331  -0.00328   1.88913
   A19        1.48920   0.02665   0.00000   0.06070   0.06055   1.54975
   A20        1.65447   0.03068   0.00000   0.05444   0.05381   1.70828
   A21        2.26070  -0.01754   0.00000  -0.02587  -0.02682   2.23389
   A22        1.24075  -0.00377   0.00000  -0.00632  -0.00676   1.23399
   A23        2.01515   0.00014   0.00000   0.00880   0.00892   2.02407
   A24        2.35146  -0.01565   0.00000  -0.03801  -0.03782   2.31364
   A25        1.49173   0.01676   0.00000   0.04381   0.04342   1.53515
   A26        1.26344  -0.00974   0.00000  -0.02081  -0.02043   1.24301
   A27        1.99187  -0.00032   0.00000   0.00311   0.00255   1.99443
   A28        1.74451   0.00523   0.00000   0.00950   0.00958   1.75409
   A29        2.21949  -0.00225   0.00000   0.00319   0.00272   2.22221
   A30        2.30817  -0.00377   0.00000  -0.01664  -0.01663   2.29154
   A31        1.33131   0.00931   0.00000   0.01815   0.01831   1.34963
   A32        1.97845   0.01287   0.00000   0.03997   0.04062   2.01907
   A33        2.12790  -0.02193   0.00000  -0.05798  -0.05836   2.06954
   A34        2.15494  -0.00312   0.00000  -0.01059  -0.01136   2.14358
   A35        1.97123  -0.00515   0.00000  -0.00701  -0.00699   1.96424
   A36        1.87111   0.00553   0.00000   0.01085   0.01123   1.88235
   A37        1.30390   0.00777   0.00000   0.02030   0.01909   1.32300
   A38        2.58421   0.03681   0.00000   0.10475   0.10517   2.68938
   A39        1.25410  -0.01807   0.00000  -0.04042  -0.03978   1.21432
   A40        1.68446   0.00080   0.00000   0.01057   0.01170   1.69616
   A41        1.92916  -0.01045   0.00000  -0.02583  -0.02647   1.90269
   A42        1.45360   0.04611   0.00000   0.11651   0.11726   1.57086
   A43        2.00024  -0.01286   0.00000  -0.02730  -0.02746   1.97278
   A44        1.92914   0.01163   0.00000   0.02456   0.02480   1.95394
   A45        2.03475  -0.01915   0.00000  -0.04098  -0.04109   1.99366
   A46        1.88628   0.00011   0.00000   0.00008   0.00025   1.88653
   A47        1.76715   0.01927   0.00000   0.04199   0.04154   1.80869
   A48        1.83067   0.00290   0.00000   0.00574   0.00599   1.83666
   A49        1.33645   0.00968   0.00000   0.02791   0.02696   1.36341
   A50        1.89374   0.00357   0.00000   0.00819   0.00705   1.90079
   A51        1.65359  -0.00179   0.00000   0.00137   0.00087   1.65447
   A52        1.21310  -0.00399   0.00000  -0.00552  -0.00545   1.20765
   A53        2.64441   0.02029   0.00000   0.06444   0.06456   2.70898
   A54        1.54195   0.02000   0.00000   0.05220   0.05256   1.59451
    D1       -1.08685   0.00321   0.00000   0.01494   0.01491  -1.07194
    D2        1.52059   0.00342   0.00000  -0.00052   0.00083   1.52142
    D3        2.86024   0.00687   0.00000   0.03573   0.03459   2.89483
    D4        3.05920  -0.00173   0.00000  -0.00210  -0.00225   3.05695
    D5       -0.61654  -0.00152   0.00000  -0.01756  -0.01633  -0.63287
    D6        0.72311   0.00194   0.00000   0.01869   0.01743   0.74054
    D7        1.03566  -0.00220   0.00000  -0.00347  -0.00356   1.03210
    D8       -2.64008  -0.00199   0.00000  -0.01893  -0.01764  -2.65772
    D9       -1.30043   0.00146   0.00000   0.01732   0.01612  -1.28431
   D10        0.99521  -0.00709   0.00000  -0.02473  -0.02527   0.96993
   D11       -1.06641  -0.00774   0.00000  -0.02691  -0.02747  -1.09388
   D12        3.07082  -0.00713   0.00000  -0.02484  -0.02538   3.04544
   D13       -1.75264   0.00022   0.00000   0.00729   0.00703  -1.74561
   D14        2.46892  -0.00043   0.00000   0.00510   0.00484   2.47376
   D15        0.32297   0.00018   0.00000   0.00717   0.00692   0.32990
   D16        2.87559   0.00914   0.00000   0.02701   0.02781   2.90340
   D17        0.81396   0.00849   0.00000   0.02482   0.02562   0.83958
   D18       -1.33198   0.00910   0.00000   0.02689   0.02771  -1.30428
   D19        0.44920   0.03135   0.00000   0.10865   0.10787   0.55707
   D20        1.68034   0.02711   0.00000   0.10309   0.10421   1.78455
   D21       -1.63565   0.01365   0.00000   0.05169   0.05227  -1.58337
   D22        3.04838   0.02308   0.00000   0.07572   0.07490   3.12328
   D23       -2.00367   0.01884   0.00000   0.07015   0.07124  -1.93243
   D24        0.96353   0.00538   0.00000   0.01875   0.01930   0.98284
   D25       -0.96527   0.00849   0.00000   0.02467   0.02355  -0.94172
   D26        0.26586   0.00425   0.00000   0.01910   0.01990   0.28576
   D27       -3.05012  -0.00921   0.00000  -0.03229  -0.03204  -3.08216
   D28       -1.60382   0.00841   0.00000   0.02880   0.02876  -1.57506
   D29       -2.69721   0.00971   0.00000   0.02477   0.02459  -2.67262
   D30        2.01792  -0.01114   0.00000  -0.03157  -0.03206   1.98586
   D31        2.66655   0.00960   0.00000   0.01675   0.01757   2.68412
   D32        1.57315   0.01089   0.00000   0.01273   0.01340   1.58655
   D33        0.00510  -0.00995   0.00000  -0.04362  -0.04325  -0.03815
   D34        0.76698  -0.00443   0.00000  -0.01636  -0.01646   0.75053
   D35       -0.32641  -0.00314   0.00000  -0.02038  -0.02063  -0.34703
   D36       -1.89446  -0.02399   0.00000  -0.07673  -0.07728  -1.97174
   D37        2.55972   0.01146   0.00000   0.00842   0.00755   2.56727
   D38        0.78036   0.01019   0.00000   0.01022   0.00988   0.79024
   D39       -1.47297   0.01742   0.00000   0.03524   0.03470  -1.43826
   D40        0.87200  -0.01221   0.00000  -0.02876  -0.02874   0.84326
   D41       -0.90736  -0.01347   0.00000  -0.02697  -0.02641  -0.93377
   D42        3.12250  -0.00625   0.00000  -0.00194  -0.00158   3.12091
   D43       -1.42070   0.00639   0.00000   0.01579   0.01599  -1.40471
   D44        3.08313   0.00513   0.00000   0.01759   0.01832   3.10145
   D45        0.82980   0.01235   0.00000   0.04261   0.04315   0.87295
   D46       -2.33048   0.00042   0.00000  -0.00250  -0.00247  -2.33295
   D47       -0.97777  -0.00813   0.00000  -0.01340  -0.01198  -0.98975
   D48       -0.26784  -0.00694   0.00000  -0.02333  -0.02434  -0.29218
   D49       -0.87513   0.01744   0.00000   0.04202   0.04196  -0.83317
   D50        0.47758   0.00889   0.00000   0.03111   0.03245   0.51003
   D51        1.18751   0.01008   0.00000   0.02119   0.02009   1.20760
   D52        1.00062   0.01487   0.00000   0.05033   0.05050   1.05112
   D53        2.35333   0.00632   0.00000   0.03942   0.04100   2.39432
   D54        3.06326   0.00751   0.00000   0.02950   0.02863   3.09189
   D55       -1.00629   0.00935   0.00000   0.02486   0.02507  -0.98122
   D56       -3.11566   0.00976   0.00000   0.03097   0.03047  -3.08519
   D57        0.89093   0.00966   0.00000   0.02974   0.02964   0.92057
   D58        0.23663   0.00217   0.00000   0.01146   0.01213   0.24876
   D59       -1.87274   0.00258   0.00000   0.01757   0.01753  -1.85521
   D60        2.13385   0.00248   0.00000   0.01634   0.01670   2.15055
   D61       -3.04887  -0.00315   0.00000  -0.01562  -0.01531  -3.06418
   D62        1.12495  -0.00274   0.00000  -0.00951  -0.00991   1.11504
   D63       -1.15164  -0.00284   0.00000  -0.01073  -0.01074  -1.16239
   D64       -0.84500   0.01325   0.00000   0.03402   0.03407  -0.81094
   D65        1.17868   0.01401   0.00000   0.03114   0.03032   1.20900
   D66        0.46104   0.01321   0.00000   0.04404   0.04414   0.50518
   D67       -2.27551  -0.00075   0.00000  -0.00506  -0.00473  -2.28023
   D68       -0.25183   0.00001   0.00000  -0.00795  -0.00848  -0.26030
   D69       -0.96946  -0.00079   0.00000   0.00496   0.00534  -0.96412
   D70        1.02109   0.00472   0.00000   0.02140   0.02174   1.04283
   D71        3.04477   0.00549   0.00000   0.01851   0.01799   3.06276
   D72        2.32713   0.00469   0.00000   0.03142   0.03181   2.35894
   D73        0.81364  -0.01024   0.00000  -0.02866  -0.02896   0.78467
   D74       -1.78135  -0.04726   0.00000  -0.13165  -0.13213  -1.91348
   D75       -0.29356   0.00154   0.00000  -0.00514  -0.00560  -0.29916
   D76        2.71841   0.01101   0.00000   0.03074   0.03074   2.74915
   D77        0.12342  -0.02601   0.00000  -0.07224  -0.07242   0.05100
   D78        1.61121   0.02279   0.00000   0.05427   0.05411   1.66531
   D79       -1.26657   0.01012   0.00000   0.02772   0.02764  -1.23893
   D80        2.42163  -0.02690   0.00000  -0.07526  -0.07552   2.34611
   D81       -2.37377   0.02191   0.00000   0.05125   0.05100  -2.32276
   D82       -1.31221  -0.00375   0.00000  -0.01778  -0.01687  -1.32908
   D83        2.83458  -0.00353   0.00000  -0.01700  -0.01595   2.81862
   D84        0.74684  -0.00286   0.00000  -0.01468  -0.01343   0.73341
   D85       -0.06575  -0.00280   0.00000  -0.00487  -0.00387  -0.06962
   D86       -2.20215  -0.00258   0.00000  -0.00409  -0.00295  -2.20510
   D87        1.99330  -0.00191   0.00000  -0.00177  -0.00043   1.99287
   D88       -1.98561   0.00420   0.00000   0.01294   0.01056  -1.97505
   D89        2.16118   0.00442   0.00000   0.01372   0.01148   2.17266
   D90        0.07344   0.00508   0.00000   0.01605   0.01400   0.08744
   D91        0.29270   0.00060   0.00000   0.01337   0.01323   0.30594
   D92       -0.88126  -0.00688   0.00000  -0.01243  -0.01213  -0.89339
   D93        1.94117   0.00537   0.00000   0.03220   0.03220   1.97337
   D94        1.43103   0.00527   0.00000   0.02861   0.02853   1.45956
   D95        0.25707  -0.00221   0.00000   0.00281   0.00317   0.26024
   D96        3.07950   0.01004   0.00000   0.04744   0.04750   3.12700
   D97        3.07976   0.02396   0.00000   0.08493   0.08326  -3.12016
   D98        1.90580   0.01648   0.00000   0.05913   0.05790   1.96370
   D99       -1.55496   0.02872   0.00000   0.10376   0.10223  -1.45272
         Item               Value     Threshold  Converged?
 Maximum Force            0.051782     0.000450     NO 
 RMS     Force            0.013445     0.000300     NO 
 Maximum Displacement     0.424386     0.001800     NO 
 RMS     Displacement     0.101468     0.001200     NO 
 Predicted change in Energy=-7.201737D-02
 GradGradGradGradGradGradGradGradGradGradGradGradGradGradGradGradGradGrad

                          Input orientation:                          
 ---------------------------------------------------------------------
 Center     Atomic      Atomic             Coordinates (Angstroms)
 Number     Number       Type             X           Y           Z
 ---------------------------------------------------------------------
      1          6           0        0.858416   -0.193484    0.454858
      2          6           0        2.379838    0.021207    0.132666
      3          6           0        3.035479    0.520712    1.421601
      4          6           0        3.373638   -0.678542   -0.835412
      5          6           0        2.222677   -0.931282   -1.783187
      6          6           0        3.214237   -0.777666   -2.941149
      7          6           0        3.381859    0.597282   -2.152557
      8          6           0        2.677787    1.563159   -3.272925
      9          6           0        2.129939    0.799620   -1.191222
     10          1           0        0.674908   -0.940278    1.232649
     11          1           0        0.245596   -0.474031   -0.409442
     12          1           0        0.457208    0.774369    0.785670
     13          1           0        2.835304   -0.195224    2.230192
     14          1           0        2.631930    1.487874    1.749254
     15          1           0        4.121731    0.613537    1.338682
     16          1           0        4.019118   -1.530337   -0.631980
     17          1           0        1.626042   -1.806019   -1.538210
     18          1           0        2.783111   -0.836755   -3.946297
     19          1           0        4.126994   -1.380415   -2.931833
     20          1           0        2.394906    1.026233   -4.184599
     21          1           0        3.324586    2.398328   -3.557408
     22          1           0        1.732353    2.028285   -2.940742
     23          1           0        2.541484    1.759327   -0.813689
 ---------------------------------------------------------------------
                    Distance matrix (angstroms):
                    1          2          3          4          5
     1  C    0.000000
     2  C    1.569913   0.000000
     3  C    2.486820   1.529942   0.000000
     4  C    2.868174   1.553854   2.578113   0.000000
     5  C    2.722939   2.145327   3.611038   1.512239   0.000000
     6  C    4.174209   3.283711   4.555363   2.114087   1.532209
     7  C    3.713716   2.560889   3.591719   1.833757   1.953623
     8  C    4.504694   3.750259   4.822159   3.383918   2.940863
     9  C    2.304909   1.555974   2.779323   1.964269   1.831678
    10  H    1.093771   2.245262   2.782532   3.410063   3.389828
    11  H    1.096024   2.257019   3.482194   3.163531   2.450532
    12  H    1.098701   2.165681   2.667626   3.639289   3.553189
    13  H    2.657048   2.157291   1.098387   3.149814   4.126051
    14  H    2.765462   2.197275   1.098003   3.453112   4.300923
    15  H    3.475868   2.199891   1.093360   2.637384   3.967233
    16  H    3.599782   2.383109   3.064562   1.087927   2.216155
    17  H    2.676160   2.588202   4.020033   2.195272   1.086808
    18  H    4.846484   4.187680   5.542629   3.170388   2.236530
    19  H    4.854079   3.795820   4.874226   2.335627   2.268817
    20  H    5.037168   4.432728   5.665277   3.883455   3.102951
    21  H    5.375664   4.489977   5.329123   4.108381   3.930440
    22  H    4.150918   3.727390   4.795931   3.801729   3.215492
    23  H    2.873222   1.985643   2.602829   2.576074   2.877662
                    6          7          8          9         10
     6  C    0.000000
     7  C    1.593881   0.000000
     8  C    2.424318   1.638250   0.000000
     9  C    2.593411   1.591355   2.283992   0.000000
    10  H    4.888274   4.599054   5.529821   3.319565   0.000000
    11  H    3.913383   3.744638   4.273785   2.405019   1.760158
    12  H    4.888681   4.149472   4.693118   2.589742   1.785273
    13  H    5.217815   4.487234   5.779361   3.632262   2.493493
    14  H    5.241339   4.071815   5.022953   3.061386   3.161129
    15  H    4.590855   3.568813   4.924802   3.225256   3.782350
    16  H    2.558634   2.691657   4.282929   3.051303   3.874113
    17  H    2.355443   3.039107   3.932780   2.676503   3.054803
    18  H    1.095301   2.373281   2.494816   3.270290   5.592559
    19  H    1.093855   2.252506   3.298662   3.430818   5.427110
    20  H    2.339129   2.299406   1.095198   3.013614   6.014327
    21  H    3.237111   2.284875   1.093977   3.095462   6.411843
    22  H    3.173223   2.321611   1.104777   2.174515   5.229508
    23  H    3.378612   1.961925   2.470811   1.110378   3.867748
                   11         12         13         14         15
    11  H    0.000000
    12  H    1.741142   0.000000
    13  H    3.708367   2.946539   0.000000
    14  H    3.768770   2.483344   1.762238   0.000000
    15  H    4.388983   3.709504   1.761754   1.775539   0.000000
    16  H    3.924892   4.473098   3.372828   4.087072   2.913801
    17  H    2.225745   3.664013   4.272917   4.761192   4.512119
    18  H    4.368054   5.513353   6.209935   6.153540   5.641476
    19  H    4.716910   5.650686   5.451572   5.689892   4.713085
    20  H    4.595883   5.340569   6.544879   5.956500   5.801627
    21  H    5.257406   5.451736   6.360992   5.428569   5.271870
    22  H    3.857398   4.133334   5.735770   4.805970   5.101384
    23  H    3.228376   2.805762   3.629299   2.578864   2.905635
                   16         17         18         19         20
    16  H    0.000000
    17  H    2.573726   0.000000
    18  H    3.604645   2.842035   0.000000
    19  H    2.307258   2.894492   1.769386   0.000000
    20  H    4.668535   3.951731   1.917868   3.218930   0.000000
    21  H    4.947213   4.963743   3.303058   3.913324   1.772093
    22  H    4.819073   4.084150   3.213049   4.165768   1.729237
    23  H    3.610860   3.751621   4.075691   4.105893   3.452817
                   21         22         23
    21  H    0.000000
    22  H    1.747116   0.000000
    23  H    2.923964   2.291591   0.000000
 Stoichiometry    C9H14
 Framework group  C1[X(C9H14)]
 Deg. of freedom    63
 Full point group                 C1      NOp   1
 Largest Abelian subgroup         C1      NOp   1
 Largest concise Abelian subgroup C1      NOp   1
                         Standard orientation:                         
 ---------------------------------------------------------------------
 Center     Atomic      Atomic             Coordinates (Angstroms)
 Number     Number       Type             X           Y           Z
 ---------------------------------------------------------------------
      1          6           0        1.878398    0.036639    1.352827
      2          6           0        1.242704   -0.021018   -0.081465
      3          6           0        2.332247    0.415950   -1.062626
      4          6           0        0.151678   -0.918330   -0.728733
      5          6           0       -0.524343   -1.014561    0.620563
      6          6           0       -1.865650   -1.079137   -0.117267
      7          6           0       -1.234075    0.280583   -0.658314
      8          6           0       -2.261329    1.302182    0.106502
      9          6           0       -0.059926    0.731033    0.316817
     10          1           0        2.731964   -0.634855    1.482668
     11          1           0        1.178310   -0.173731    2.169460
     12          1           0        2.207831    1.071332    1.520245
     13          1           0        3.216873   -0.221039   -0.927960
     14          1           0        2.659115    1.450220   -0.892178
     15          1           0        2.026702    0.321523   -2.108170
     16          1           0        0.286304   -1.856899   -1.262164
     17          1           0       -0.098727   -1.765484    1.280955
     18          1           0       -2.756622   -1.107904    0.519149
     19          1           0       -1.993181   -1.825571   -0.906628
     20          1           0       -3.054136    0.781910    0.654438
     21          1           0       -2.732550    2.004028   -0.587868
     22          1           0       -1.783167    1.933141    0.877076
     23          1           0        0.153061    1.623292   -0.308842
 ---------------------------------------------------------------------
 Rotational constants (GHZ):           3.0243944           1.2849961           1.2296818
 Standard basis: 6-31G(2df,p) (6D, 7F)
 There are   349 symmetry adapted cartesian basis functions of A   symmetry.
 There are   322 symmetry adapted basis functions of A   symmetry.
   322 basis functions,   494 primitive gaussians,   349 cartesian basis functions
    34 alpha electrons       34 beta electrons
       nuclear repulsion energy       464.7756420810 Hartrees.
 NAtoms=   23 NActive=   23 NUniq=   23 SFac= 1.00D+00 NAtFMM=   60 NAOKFM=F Big=F
 Integral buffers will be    131072 words long.
 Raffenetti 2 integral format.
 Two-electron integral symmetry is turned on.
 One-electron integrals computed using PRISM.
 PrsmSu:  requested number of processors reduced to:  13 ShMem   1 Linda.
 NBasis=   322 RedAO= T EigKep=  2.98D-04  NBF=   322
 NBsUse=   322 1.00D-06 EigRej= -1.00D+00 NBFU=   322
 Initial guess from the checkpoint file:  "CC1qCrC2C3CC2qCrC31.chk"
 B after Tr=     0.000000    0.000000    0.000000
         Rot=    0.975653   -0.218785   -0.012665   -0.008646 Ang= -25.34 deg.
 ExpMin= 1.61D-01 ExpMax= 3.05D+03 ExpMxC= 4.57D+02 IAcc=2 IRadAn=         4 AccDes= 0.00D+00
 Harris functional with IExCor=  402 and IRadAn=       4 diagonalized for initial guess.
 HarFok:  IExCor=  402 AccDes= 0.00D+00 IRadAn=         4 IDoV= 1 UseB2=F ITyADJ=14
 ICtDFT=  3500011 ScaDFX=  1.000000  1.000000  1.000000  1.000000
 FoFCou: FMM=F IPFlag=           0 FMFlag=      100000 FMFlg1=           0
         NFxFlg=           0 DoJE=T BraDBF=F KetDBF=T FulRan=T
         wScrn=  0.000000 ICntrl=       500 IOpCl=  0 I1Cent=   200000004 NGrid=           0
         NMat0=    1 NMatS0=      1 NMatT0=    0 NMatD0=    1 NMtDS0=    0 NMtDT0=    0
 Petite list used in FoFCou.
 Requested convergence on RMS density matrix=1.00D-08 within 128 cycles.
 Requested convergence on MAX density matrix=1.00D-06.
 Requested convergence on             energy=1.00D-06.
 No special actions if energy rises.
 Integral accuracy reduced to 1.0D-05 until final iterations.
 Initial convergence to 1.0D-05 achieved.  Increase integral accuracy.
 SCF Done:  E(RB3LYP) =  -350.940616035     A.U. after   14 cycles
            NFock= 14  Conv=0.22D-08     -V/T= 2.0087
 PrsmSu:  requested number of processors reduced to:  13 ShMem   1 Linda.
 Calling FoFJK, ICntrl=      2127 FMM=F ISym2X=0 I1Cent= 0 IOpClX= 0 NMat=1 NMatS=1 NMatT=0.
 ***** Axes restored to original set *****
 -------------------------------------------------------------------
 Center     Atomic                   Forces (Hartrees/Bohr)
 Number     Number              X              Y              Z
 -------------------------------------------------------------------
      1        6           0.002435090   -0.032102316    0.005465568
      2        6           0.020638835    0.010009583    0.012632309
      3        6          -0.000291140    0.011509607   -0.001897719
      4        6          -0.077236120   -0.008694734    0.046203540
      5        6           0.064383060   -0.010391268   -0.027092316
      6        6          -0.041993067    0.011109413   -0.000650010
      7        6          -0.030765888   -0.020847290   -0.050561685
      8        6           0.038457444    0.038885838   -0.007276055
      9        6           0.043882968   -0.028831631    0.017920059
     10        1          -0.001206682    0.000731978    0.006057069
     11        1           0.004401391   -0.000188586    0.003013056
     12        1           0.006093084   -0.001167400    0.001644181
     13        1           0.000336984    0.000794063   -0.001091672
     14        1           0.000258924    0.001117927    0.001331071
     15        1           0.000498882    0.001720479   -0.001756936
     16        1           0.018559634    0.005354381   -0.000631744
     17        1          -0.021148534    0.004665546   -0.000604444
     18        1           0.003539019    0.007351206   -0.002170133
     19        1          -0.005475342   -0.005431456    0.008847877
     20        1           0.010697474   -0.003402820    0.004124099
     21        1          -0.000654082    0.003129830   -0.004061602
     22        1           0.008798462   -0.005435963    0.011951644
     23        1          -0.044210394    0.020113612   -0.021396160
 -------------------------------------------------------------------
 Cartesian Forces:  Max     0.077236120 RMS     0.021334569

 GradGradGradGradGradGradGradGradGradGradGradGradGradGradGradGradGradGrad
 Berny optimization.
 Using GEDIIS/GDIIS optimizer.
 FormGI is forming the generalized inverse of G from B-inverse, IUseBI=4.
 Internal  Forces:  Max     0.035235165 RMS     0.009629472
 Search for a local minimum.
 Step number   2 out of a maximum of  138
 All quantities printed in internal units (Hartrees-Bohrs-Radians)
 Mixed Optimization -- RFO/linear search
 Update second derivatives using D2CorX and points    1    2
 DE= -7.08D-02 DEPred=-7.20D-02 R= 9.83D-01
 TightC=F SS=  1.41D+00  RLast= 4.82D-01 DXNew= 5.0454D-01 1.4460D+00
 Trust test= 9.83D-01 RLast= 4.82D-01 DXMaxT set to 5.05D-01
 ITU=  1  0
 Use linear search instead of GDIIS.
 Linear search step of   0.601 exceeds DXMaxT=   0.505 but not scaled.
 Quartic linear search produced a step of  2.00000.
 Iteration  1 RMS(Cart)=  0.18796851 RMS(Int)=  0.01312728
 Iteration  2 RMS(Cart)=  0.02134231 RMS(Int)=  0.00396785
 Iteration  3 RMS(Cart)=  0.00073594 RMS(Int)=  0.00390891
 Iteration  4 RMS(Cart)=  0.00000323 RMS(Int)=  0.00390891
 Iteration  5 RMS(Cart)=  0.00000002 RMS(Int)=  0.00390891
 Variable       Old X    -DE/DX   Delta X   Delta X   Delta X     New X
                                 (Linear)    (Quad)   (Total)
    R1        2.96671  -0.00356   0.03207   0.00000   0.03207   2.99878
[...]
 12758830,-0.04967827,-0.00390459,-0.00229039,0.00017414,0.00054375,-0.
 00033026,-0.00091726,-0.00041881,0.00016267,-0.00037965,-0.00014774,-0
 .00036127,0.00042844,-0.00016346,-0.00015807,0.00003276,-0.00030423,0.
 00079324,0.00012994,-0.00003275,-0.00007200,0.00002374,-0.00025159,0.0
 0055160,0.00006548,-0.00107673,-0.00017333,0.00042388,0.00784115,-0.00
 641618,-0.00358222,-0.11818061,0.13972217,0.00033809,0.00097923,0.0002
 1999,0.01391058,-0.01048161,-0.00795719,0.06786393,-0.04991779,-0.0766
 9085,-0.00249133,-0.00210417,-0.00001107,0.00032713,-0.00066630,-0.000
 51044,-0.00022801,0.00008620,-0.00011491,0.00026998,0.00000910,0.00053
 024,-0.00004395,0.00027719,-0.00010765,0.00087371,0.00037602,0.0008348
 7,-0.00016095,0.00006134,0.00009369,-0.00013463,0.00022426,-0.00017308
 ,-0.00026172,0.00004622,0.00057122,-0.01968503,0.01474323,0.00943371,-
 0.07413638,0.05804028,0.08171258,-0.00043443,-0.00224887,-0.00224785,-
 0.00781000,-0.00448952,0.00743980,-0.13913734,-0.09177427,0.09003061,0
 .00057484,0.00040412,-0.00001152,-0.00001770,0.00016227,0.00000589,-0.
 00006625,0.00001059,-0.00001179,0.00033705,-0.00056640,-0.00075168,-0.
 00073005,-0.00007423,0.00132626,-0.00014405,0.00028844,0.00069463,0.00
 012959,-0.00010285,0.00030914,-0.00000787,-0.00076448,0.00075706,0.000
 53699,0.00018115,-0.00034197,0.01119164,0.01076164,-0.01056880,-0.0139
 0858,-0.01429229,0.01406801,0.14891938,-0.00168536,-0.00418834,-0.0041
 9991,-0.01353642,-0.01334548,0.01763569,-0.09083026,-0.13594285,0.0873
 4132,0.00049565,0.00050686,0.00121667,0.00015567,0.00027695,0.00035861
 ,0.00006518,0.00001891,0.00000016,-0.00015507,-0.00042101,-0.00134626,
 -0.00033487,-0.00051121,0.00041423,0.00002703,0.00124897,0.00041049,0.
 00028553,0.00031350,-0.00034308,-0.00142016,-0.00075063,0.00111826,-0.
 00020034,0.00026005,0.00003331,-0.00596084,-0.00623040,0.00569493,0.01
 069624,0.01125881,-0.01133021,0.10196389,0.14554001,-0.00111435,-0.002
 54638,-0.00151967,-0.01096187,-0.00926837,0.01150473,0.09194963,0.0901
 4885,-0.13615284,0.00066924,0.00032607,0.00074153,-0.00000889,0.000337
 70,0.00058341,0.00009868,0.00016312,-0.00004060,0.00008533,-0.00012594
 ,-0.00003404,0.00080761,-0.00034095,-0.00331141,-0.00032910,0.00080219
 ,0.00072592,0.00012080,-0.00032740,0.00021308,-0.00057554,-0.00082615,
 0.00079812,-0.00013887,0.00004017,-0.00014035,0.01538029,0.01300426,-0
 .01430125,0.00493873,0.00594821,-0.00669024,-0.10270785,-0.09792781,0.
 15082258,0.00019814,0.00021532,-0.00043231,-0.00374619,0.00027584,-0.0
 0800156,0.00006975,-0.00032294,0.00022744,-0.21247972,0.11692448,-0.04
 944778,-0.00590619,0.01148338,0.00129295,-0.00050129,-0.00112157,-0.00
 009226,0.00460842,-0.00388836,0.00159864,0.00087378,0.00027961,-0.0003
 9495,-0.00718140,0.00438472,-0.00125659,-0.00007634,-0.00013142,0.0005
 0565,-0.00018835,-0.00004489,-0.00003470,-0.00010404,-0.00014266,0.000
 22561,0.00014733,0.00032584,0.00036795,-0.00000452,0.00016605,0.000064
 80,0.00007114,0.00012294,0.00002428,0.22378396,-0.00035850,-0.00011904
 ,-0.00009522,0.00261694,-0.00297413,0.00765607,0.00034841,0.00033388,0
 .00061988,0.11863509,-0.12777862,0.03363253,-0.00820387,0.00912296,-0.
 00161013,-0.00128248,-0.00094134,0.00088150,0.01220169,-0.00412849,-0.
 00276143,0.00047502,0.00061987,-0.00031408,0.00402164,-0.00419779,0.00
 068210,0.00017689,0.00019791,-0.00032151,0.00007047,0.00013163,-0.0000
 8664,0.00014855,0.00003682,-0.00008214,-0.00015348,-0.00008139,-0.0003
 9713,-0.00015992,-0.00019633,-0.00021809,-0.00000901,-0.00021908,0.000
 03092,-0.13077978,0.12807451,-0.00039511,-0.00071672,0.00151426,0.0090
 4518,-0.00505125,0.00977120,0.00068766,0.00072313,0.00123769,-0.047923
 80,0.03219337,-0.07094528,-0.00180597,0.01000859,-0.00169288,-0.001011
 99,0.00148546,0.00200192,-0.01419713,0.00033169,0.00096042,-0.00029149
 ,-0.00053502,0.00062289,-0.00162876,0.00101379,-0.00337783,-0.00027210
 ,0.00024390,-0.00026273,0.00017412,0.00021149,-0.00014164,0.00019359,0
 .00026381,-0.00044856,-0.00033120,0.00012276,-0.00021925,-0.00019661,-
 0.00033203,-0.00037843,-0.00016623,-0.00022723,-0.00010356,0.05721402,
 -0.03928838,0.05941909,-0.00044026,-0.00061945,0.00035886,-0.00137966,
 0.00088844,-0.00032503,0.00057923,-0.00033790,0.00003636,-0.00435606,-
 0.01196725,0.00803618,-0.14254852,-0.12871223,0.02704264,-0.00306527,-
 0.00436927,-0.00368643,-0.00477762,-0.00378447,0.00182366,0.00204928,-
 0.00136368,-0.00012159,0.00767920,0.00714249,-0.00284182,0.00001404,0.
 00005153,0.00003705,0.00067145,0.00060956,0.00077172,0.00024213,0.0003
 3735,0.00003327,0.00001219,0.00006923,0.00011516,-0.00000094,-0.000180
 24,-0.00020362,0.00003231,0.00014892,0.00003011,0.00011715,0.00017982,
 0.00009941,0.14530091,-0.00058183,-0.00070338,0.00008787,0.00031061,-0
 .00097762,0.00135155,-0.00011562,0.00032634,-0.00066349,0.00389117,0.0
 0042586,0.00069616,-0.12811688,-0.21658282,0.03197470,0.00146455,-0.00
 014817,-0.00196732,-0.00402225,-0.00673139,0.00143868,-0.00110409,0.00
 128494,-0.00008646,-0.01486339,-0.00545974,0.00459480,0.00023745,0.000
 42652,0.00008462,0.00050794,0.00108613,-0.00034746,0.00012133,0.000202
 80,0.00010043,-0.00010592,-0.00013678,-0.00026169,0.00002687,-0.000051
 08,-0.00000214,0.00015031,0.00020624,0.00009321,-0.00013742,0.00031640
 ,-0.00028728,0.14249170,0.22662542,0.00043241,0.00019558,-0.00078005,-
 0.00149698,-0.00035994,0.00160664,0.00048760,-0.00000466,-0.00063162,-
 0.00200241,-0.01219553,0.00493789,0.02824600,0.03373358,-0.06051711,0.
 00815264,0.01531996,0.00561263,0.00134443,0.00073738,-0.00405738,0.000
 40405,0.00068057,0.00312689,-0.00527289,-0.00072281,-0.00121016,-0.000
 02829,-0.00000342,0.00009307,0.00056704,-0.00064641,-0.00247696,0.0000
 3822,0.00010056,0.00008818,-0.00006088,-0.00000692,-0.00007058,0.00003
 729,-0.00016161,-0.00014398,0.00003280,0.00009691,0.00004077,0.0001777
 2,0.00040940,0.00045332,-0.03123210,-0.03775582,0.05310257,0.00023669,
 -0.00022204,-0.00012295,0.00086166,0.00038828,0.00009320,-0.00023236,0
 .00021113,0.00003238,0.00089398,-0.00124818,0.00219050,0.01135661,-0.0
 0348460,0.01074053,-0.13934622,0.04768553,-0.11140929,-0.00559127,0.00
 490923,-0.00607949,-0.00005349,0.00048025,-0.00039414,0.00105247,-0.00
 215280,-0.00034539,-0.00001735,0.00004930,0.00000268,0.00001237,0.0000
 1227,-0.00001205,0.00004537,0.00003654,-0.00009155,-0.00002818,-0.0000
 4243,-0.00003424,0.00003187,0.00006674,0.00001723,-0.00000731,0.000015
 41,0.00001721,0.00016856,0.00038567,0.00035370,0.00020960,-0.00008804,
 -0.00029706,0.14268967,0.00038750,-0.00026005,-0.00006763,0.00008734,0
 .00120292,-0.00047845,-0.00025873,0.00016334,0.00017525,-0.00137223,-0
 .00024149,-0.00278727,0.00805988,-0.00342558,0.00656515,0.04742787,-0.
 07286222,0.05609610,-0.01196706,0.00997436,-0.01540218,0.00041843,0.00
 122600,-0.00020108,-0.00227517,0.00008566,0.00087204,-0.00002926,-0.00
 000161,0.00006074,0.00002389,0.00000820,-0.00003064,0.00009192,0.00005
 310,-0.00009113,0.00003441,-0.00000218,0.00002148,0.00005532,0.0000449
 0,0.00005247,0.00000185,0.00001564,0.00000796,0.00026377,0.00026648,-0
 .00056817,0.00024192,-0.00013146,0.00043930,-0.05237490,0.06922657,0.0
 0016615,-0.00031095,0.00000468,-0.00107967,0.00028750,-0.00131567,0.00
 054448,-0.00022610,-0.00010124,0.00125340,-0.00174517,-0.00652909,-0.0
 1516225,0.00144282,-0.01318683,-0.11027250,0.05588556,-0.18931274,-0.0
 0444491,0.00797712,-0.01081079,0.00032737,0.00026314,0.00023917,-0.000
 73676,0.00101091,0.00137591,-0.00004004,-0.00004396,0.00000692,-0.0000
 4481,0.00002493,0.00006355,0.00014853,0.00005633,-0.00011063,-0.000002
 51,0.00005394,0.00002587,-0.00003929,-0.00022171,-0.00014175,-0.000038
 16,0.00001106,0.00002967,-0.00024431,-0.00011719,-0.00092486,0.0002295
 7,0.00021225,0.00015839,0.12296844,-0.06010510,0.21242331,-0.00007046,
 0.00015267,-0.00012016,0.00057229,0.00063611,0.00021108,0.00018235,-0.
 00021290,0.00038091,0.00058001,-0.00150874,0.00110710,-0.00866514,0.01
 042508,0.00201828,-0.18658768,0.11376859,0.05358166,0.00827885,-0.0065
 1789,-0.00196279,0.00072329,0.00048953,-0.00000868,0.00135136,-0.00140
 155,0.00091311,0.00001274,0.00000646,-0.00000464,0.00000603,0.00001416
 ,-0.00006068,-0.00001615,0.00001288,0.00004467,0.00004205,0.00012537,0
 .00009661,-0.00002894,0.00003257,-0.00000594,0.00000324,0.00001611,-0.
 00001581,0.00026279,0.00030609,0.00074385,-0.00033815,0.00008942,0.000
 25794,-0.01259854,0.01069376,0.00607491,0.19625931,-0.00038825,0.00015
 839,-0.00040253,0.00087759,0.00062835,-0.00035978,0.00016764,-0.000032
 51,0.00017632,-0.00145980,-0.00069123,0.00004236,-0.00920278,0.0082583
 8,0.00208010,0.11423080,-0.14170919,-0.04525511,0.01837512,-0.00947828
 ,-0.00477109,0.00095195,0.00049151,-0.00010737,-0.00112360,-0.00051997
 ,-0.00172380,0.00009209,0.00008895,-0.00015809,0.00001832,0.00001384,-
 0.00000066,0.00002299,-0.00001303,0.00004990,0.00000172,0.00003657,-0.
 00001746,-0.00001029,-0.00002237,-0.00001308,0.00001286,0.00000278,0.0
 0003678,0.00005721,0.00030454,-0.00062471,-0.00013672,0.00026368,-0.00
 019458,0.00601595,-0.00520108,-0.00308731,-0.12774593,0.14732428,-0.00
 027039,0.00004354,-0.00010687,0.00126379,-0.00130170,-0.00045227,-0.00
 031225,0.00031332,-0.00031970,0.00134933,-0.00030921,0.00262435,0.0115
 1386,-0.01675713,-0.00484215,0.05286327,-0.04444013,-0.07324516,0.0126
 7178,-0.00439146,-0.00522193,0.00008152,0.00061403,0.00019796,0.002159
 37,-0.00231030,-0.00670667,0.00004125,0.00011209,-0.00011377,0.0000041
 1,-0.00000943,0.00006432,-0.00005139,-0.00004815,0.00001712,-0.0001208
 8,-0.00014361,-0.00014375,0.00003150,0.00005553,0.00004679,0.00000555,
 -0.00001596,0.00003213,-0.00064501,0.00035660,-0.00013975,-0.00005691,
 0.00034137,0.00031127,-0.01723617,0.01445269,0.00787190,-0.06311957,0.
 05426390,0.08076079,-0.00013717,0.00016999,0.00001114,0.00039681,-0.00
 032008,-0.00011920,-0.00014580,-0.00002263,0.00004933,-0.00194280,-0.0
 0251717,0.00002386,0.00046642,-0.00013909,0.00070427,0.00057796,0.0006
 6956,-0.00025349,0.00835267,-0.01234064,0.01793583,-0.08837713,0.05523
 129,-0.07911593,0.00134506,0.00055489,0.00003410,0.00001992,0.00000633
 ,-0.00002351,0.00003045,0.00001298,-0.00001444,-0.00006225,-0.00001341
 ,0.00007397,0.00000147,0.00000178,-0.00000282,0.00003164,0.00005139,0.
 00002718,0.00002130,0.00006908,-0.00004271,-0.00019954,-0.00021163,0.0
 0014013,-0.00028600,0.00010616,-0.00035958,-0.00005856,0.00009911,-0.0
 0024089,-0.00002344,0.00000098,-0.00009333,0.09460793,-0.00016301,0.00
 032667,0.00009557,0.00015185,-0.00064330,-0.00028218,-0.00010151,-0.00
 018514,-0.00011883,-0.00241384,-0.00057013,-0.00178576,0.00015071,0.00
 008154,0.00080947,0.00070170,0.00073794,-0.00031863,0.01013248,-0.0161
 7383,0.02158779,0.05542728,-0.11689825,0.10066243,-0.00000816,0.000817
 17,-0.00015991,0.00003046,-0.00001382,0.00000547,0.00003644,0.00002468
 ,-0.00004003,-0.00010606,-0.00005225,0.00011358,0.00004074,0.00003612,
 -0.00004270,0.00008577,0.00013824,-0.00002894,-0.00000984,0.00024149,0
 .00012521,-0.00012858,-0.00018553,0.00011257,-0.00044372,0.00002199,-0
 .00049371,-0.00043298,-0.00019787,-0.00054408,-0.00003567,0.00000290,-
 0.00009170,-0.05843350,0.12782198,0.00008039,-0.00002415,0.00005599,-0
 .00015839,-0.00008667,-0.00003778,-0.00016944,-0.00048750,0.00002038,0
 .00041972,-0.00064438,0.00215211,0.00022843,0.00012070,0.00014470,0.00
 051665,0.00002125,0.00070943,-0.00241063,0.00547540,-0.00836877,-0.079
 47514,0.10069403,-0.19048619,-0.00032631,-0.00003117,-0.00007706,-0.00
 002277,-0.00002044,0.00001697,0.00001450,0.00003855,0.00000198,0.00003
 848,-0.00000594,-0.00004320,0.00006852,0.00005869,-0.00006731,0.000159
 27,0.00008226,-0.00018384,0.00009930,0.00038543,-0.00008607,0.00008482
 ,0.00009303,-0.00011707,0.00027963,0.00000474,0.00017044,0.00017591,0.
 00040533,0.00029030,-0.00003074,-0.00003059,0.00007183,0.08626986,-0.1
 1346137,0.20581895,0.00022765,-0.00000280,0.00017989,-0.00031814,-0.00
 015367,-0.00033570,0.00009356,0.00000513,-0.00010120,0.00060168,0.0000
 0798,0.00016396,-0.00012155,0.00007785,0.00044309,0.00055052,0.0002398
 8,-0.00040654,-0.02078944,0.00636329,0.00795781,-0.24548324,0.08158819
 ,0.07094567,0.00189986,-0.00206051,-0.00123282,-0.00005117,-0.00006702
 ,0.00011094,0.00001025,0.00000635,-0.00003404,-0.00001396,0.00002573,-
 0.00001144,0.00004240,0.00004077,0.00006103,0.00000682,0.00000512,-0.0
 0000728,-0.00002890,0.00000772,0.00016587,-0.00004309,-0.00047801,0.00
 034201,0.00027611,-0.00049267,-0.00016813,0.00005251,-0.00002895,-0.00
 006384,0.00002049,-0.00068219,-0.00037780,-0.01159339,0.00473897,0.004
 22813,0.26928462,0.00025126,-0.00000934,0.00020454,-0.00048509,0.00001
 357,-0.00051435,-0.00014747,-0.00028569,0.00002425,0.00043847,0.001230
 64,-0.00026966,-0.00060412,0.00072487,0.00059874,0.00057953,0.00113297
 ,-0.00026164,-0.02568269,0.00921944,0.00962586,0.08133368,-0.07895241,
 -0.02969273,-0.00154465,-0.00328164,0.00025894,-0.00004900,-0.00005991
 ,0.00011012,0.00002826,0.00004436,-0.00003403,-0.00000575,0.00001356,-
 0.00002289,0.00009688,0.00013276,-0.00004585,0.00003607,0.00003527,-0.
 00004078,0.00022677,0.00014557,0.00005072,0.00026204,-0.00018058,0.000
 10570,0.00037695,-0.00039285,-0.00021873,0.00004695,-0.00006923,-0.000
 06667,0.00030098,-0.00020235,-0.00018463,0.01424949,-0.00666535,-0.006
 22414,-0.08704762,0.08503931,-0.00004931,0.00009090,0.00002780,-0.0000
 1296,-0.00029516,0.00001889,-0.00035263,-0.00030027,-0.00011806,0.0002
 5901,-0.00078610,0.00024778,0.00012386,0.00012884,0.00008880,-0.000417
 19,0.00050785,0.00034859,0.00884754,-0.00266480,-0.00462558,0.07117963
 ,-0.02991027,-0.07132330,-0.00038256,0.00094273,0.00102027,-0.00000514
 ,0.00000830,-0.00004662,0.00002911,0.00002189,0.00000248,-0.00002712,-
 0.00001877,0.00002347,0.00011313,0.00011247,-0.00018914,0.00006357,0.0
 0006583,-0.00007241,0.00030912,0.00021144,0.00005990,-0.00017120,0.000
 21252,-0.00007684,-0.00015714,0.00023152,0.00002394,-0.00004729,-0.000
 01186,0.00006759,0.00011908,0.00020016,0.00021608,-0.02223970,0.008706
 08,0.00811766,-0.08001289,0.03115206,0.07392838,-0.00003544,0.00020129
 ,0.00014488,-0.00007987,-0.00050651,-0.00002029,-0.00076982,-0.0005051
 8,0.00053384,0.00062063,-0.00002768,0.00059587,0.00032516,-0.00026464,
 -0.00057183,-0.00077202,-0.00187203,0.00215013,-0.00331594,-0.01108345
 ,-0.01887341,-0.05343966,-0.02779177,-0.03347303,0.00010177,0.00083342
 ,-0.00032167,0.00000430,-0.00000806,0.00000809,0.00008629,0.00008971,-
 0.00005246,-0.00005383,-0.00000657,0.00004967,0.00023379,0.00023371,-0
 .00020502,0.00006239,0.00011262,-0.00005755,0.00062308,0.00004800,0.00
 160740,-0.00007225,-0.00003160,0.00019503,-0.00029449,-0.00005057,0.00
 055145,0.00007381,0.00015757,0.00003384,-0.00012649,-0.00046407,-0.000
 06641,-0.00282420,-0.00871073,-0.01044929,0.00552334,0.01754324,0.0227
 0830,0.05429228,0.00008510,0.00013728,0.00027932,-0.00051402,-0.000500
 16,-0.00002157,-0.00046182,-0.00097841,-0.00010434,0.00074323,0.000308
 67,0.00010558,-0.00013255,-0.00027641,-0.00080420,-0.00227738,-0.00060
 460,0.00300645,-0.00161076,-0.01546636,-0.02241899,-0.02824408,-0.1489
 5899,-0.12620979,-0.00034724,0.00070485,0.00024601,-0.00002303,-0.0000
 4986,0.00008518,0.00012187,0.00016409,-0.00004275,-0.00004431,-0.00000
 883,0.00003592,0.00019359,0.00022173,-0.00016993,0.00032734,0.00029603
 ,-0.00026758,0.00021444,0.00158429,0.00026277,-0.00002834,-0.00016353,
 0.00020872,-0.00031153,-0.00014964,0.00077165,-0.00029266,-0.00023113,
 -0.00012343,0.00008672,0.00002924,0.00002696,0.00254488,0.01139904,0.0
 1359867,-0.00198493,-0.00740416,-0.00871947,0.03212894,0.15997212,-0.0
 0009047,-0.00006382,0.00001416,-0.00003451,-0.00004502,0.00027438,0.00
 060779,0.00000485,-0.00203302,-0.00082636,-0.00014457,0.00002409,-0.00
 030392,-0.00041229,0.00037856,0.00133528,0.00181789,0.00096789,0.00038
 683,0.00569431,0.00834545,-0.03439419,-0.12755684,-0.20299495,0.000266
 75,-0.00072068,0.00014088,-0.00001959,-0.00001479,0.00001889,0.0000133
 0,0.00005325,0.00007545,-0.00002999,-0.00002067,0.00003606,0.00000454,
 0.00011260,-0.00012087,0.00009245,-0.00002734,-0.00002300,0.00195212,0
 .00076740,-0.00307924,0.00000920,-0.00000573,0.00001433,0.00002033,-0.
 00000367,-0.00014264,0.00015763,0.00017917,0.00005323,0.00001367,0.000
 02223,-0.00000625,-0.00262498,-0.01498914,-0.01806807,-0.00193936,-0.0
 0468641,-0.00761344,0.03544104,0.14003169,0.22377095,0.00043953,-0.000
 28756,-0.00040084,-0.00221178,0.00060692,0.00402292,0.00008203,0.00000
 317,-0.00002151,-0.00712546,0.00381116,-0.00208999,0.00220674,-0.00417
 963,0.00134321,-0.00082451,-0.00096196,-0.00016123,-0.00501218,0.01128
 737,-0.01011267,0.00070245,0.00041906,-0.00029940,-0.21229950,0.112866
 39,-0.05971820,-0.00008249,0.00006380,0.00000810,0.00002343,0.00004432
 ,-0.00000967,0.00013943,0.00020440,-0.00035016,-0.00002953,-0.00008841
 ,-0.00003615,-0.00002447,-0.00021205,-0.00034426,-0.00014807,0.0000059
 5,-0.00000019,0.00020192,0.00210200,-0.00096830,0.00030337,0.00028117,
 0.00018873,0.00024811,0.00026175,0.00066328,0.00016020,0.00038840,0.00
 036477,-0.00020134,-0.00050879,0.00037910,-0.00014692,-0.00020417,0.00
 012275,-0.00016283,-0.00017346,-0.00003754,0.22376186,-0.00005051,-0.0
 0009888,0.00004261,-0.00183575,-0.00087039,-0.00172500,-0.00039256,0.0
 0061189,0.00054138,0.00415480,-0.00392180,0.00131128,0.01672551,-0.001
 02557,0.00864325,-0.00083538,-0.00120573,0.00100599,-0.00578139,0.0023
 0337,-0.00303860,0.00018732,0.00080251,-0.00051661,0.11123342,-0.12001
 867,0.03821375,-0.00004740,0.00001963,0.00000557,0.00013369,-0.0000719
 6,-0.00003341,-0.00004567,0.00001916,0.00023921,0.00006516,-0.00016512
 ,-0.00007867,0.00021432,0.00011598,0.00017516,-0.00004659,-0.00001107,
 -0.00001514,0.00196475,0.00176083,0.00060582,-0.00031144,0.00027859,0.
 00027925,0.00003540,0.00035671,-0.00063390,0.00026617,0.00026659,-0.00
 057660,0.00023024,-0.00006427,0.00003829,-0.00010861,-0.00022879,0.000
 11412,-0.00002564,-0.00002525,0.00000759,-0.12572985,0.12117224,-0.001
 12125,-0.00033356,0.00125275,-0.01323514,0.01067151,0.00613403,0.00007
 685,0.00125278,0.00094522,-0.00175852,0.00092221,-0.00370960,0.0069081
 9,0.00062792,0.00034064,0.00069003,0.00029977,0.00259100,0.00370444,-0
 .00902695,0.00414679,-0.00047553,-0.00040205,0.00061236,-0.06108482,0.
 03988291,-0.07887983,0.00040560,0.00019304,-0.00045269,0.00019657,0.00
 027492,-0.00014980,0.00054687,-0.00015332,-0.00030000,-0.00012453,-0.0
 0047407,-0.00038536,0.00024882,-0.00049468,-0.00024426,-0.00018446,-0.
 00030546,-0.00009257,-0.00107240,0.00072312,0.00283357,-0.00028929,0.0
 0016343,0.00030445,-0.00067981,0.00041583,-0.00017689,-0.00023387,-0.0
 0012557,-0.00091627,-0.00013910,0.00013884,-0.00003537,0.00009266,0.00
 013158,-0.00012622,0.00007143,0.00022314,-0.00003286,0.06745725,-0.044
 60534,0.06634092\\-0.00000119,-0.00000029,0.00000175,0.00000097,0.0000
 1053,-0.00000427,-0.00000060,-0.00000376,-0.00000056,-0.00000595,-0.00
 001724,0.00000203,0.00001336,0.00000723,0.00001435,0.00000647,-0.00000
 590,0.00000986,-0.00002375,0.00000493,-0.00000391,-0.00000157,-0.00000
 062,0.00000655,0.00001815,-0.00000039,-0.00002366,-0.00000032,0.000001
 93,-0.00000077,0.00000041,-0.00000043,-0.00000125,-0.00000032,0.000000
 67,0.00000105,0.00000301,-0.00000161,-0.00000105,0.00000123,-0.0000016
 0,-0.00000083,-0.00000108,0.00000258,0.00000286,-0.00000051,0.00000417
 ,-0.00000128,-0.00000149,0.00000315,0.00000214,-0.00000392,0.00000109,
 0.00000099,-0.00000296,0.00000003,-0.00000572,0.00000110,-0.00000038,-
 0.00000013,0.00000009,0.00000089,-0.00000102,-0.00000019,-0.00000250,-
 0.00000023,-0.00000093,-0.00000248,0.00000310\\\@


 ABSOLUTISM, OBSOLETISM -- IF IT WORKS, IT'S OUT OF DATE

                          -- STAFFORD BEER
 Job cpu time:       0 days  2 hours 44 minutes 46.3 seconds.
 Elapsed time:       0 days  0 hours 41 minutes 12.8 seconds.
 File lengths (MBytes):  RWF=    175 Int=      0 D2E=      0 Chk=     10 Scr=      1
 Normal termination of Gaussian 16 at Sun May 28 21:43:46 2023.
### All Done ###
