### Starting Gaussian ###
 Entering Gaussian System, Link 0=g16
 Initial command:
 /cluster/software/gaussian/gaussian-16-A.03/avx2/g16/l1.exe "/local/scratch/ks29c/Gau-15041.inp" -scrdir="/local/scratch/ks29c/"
 Entering Link 1 = /cluster/software/gaussian/gaussian-16-A.03/avx2/g16/l1.exe PID=     15042.
  
 Copyright (c) 1988,1990,1992,1993,1995,1998,2003,2009,2016,
            Gaussian, Inc.  All Rights Reserved.
  
 This is part of the Gaussian(R) 16 program.  It is based on
 the Gaussian(R) 09 system (copyright 2009, Gaussian, Inc.),
 the Gaussian(R) 03 system (copyright 2003, Gaussian, Inc.),
 the Gaussian(R) 98 system (copyright 1998, Gaussian, Inc.),
 the Gaussian(R) 94 system (copyright 1995, Gaussian, Inc.),
 the Gaussian 92(TM) system (copyright 1992, Gaussian, Inc.),
 the Gaussian 90(TM) system (copyright 1990, Gaussian, Inc.),
 the Gaussian 88(TM) system (copyright 1988, Gaussian, Inc.),
 the Gaussian 86(TM) system (copyright 1986, Carnegie Mellon
 University), and the Gaussian 82(TM) system (copyright 1983,
 Carnegie Mellon University). Gaussian is a federally registered
 trademark of Gaussian, Inc.
  
 This software contains proprietary and confidential information,
 including trade secrets, belonging to Gaussian, Inc.
  
 This software is provided under written license and may be
 used, copied, transmitted, or stored only in accord with that
 written license.
  
 The following legend is applicable only to US Government
 contracts under FAR:
  
                    RESTRICTED RIGHTS LEGEND
  
 Use, reproduction and disclosure by the US Government is
 subject to restrictions as set forth in subparagraphs (a)
 and (c) of the Commercial Computer Software - Restricted
 Rights clause in FAR 52.227-19.
  
 Gaussian, Inc.
 340 Quinnipiac St., Bldg. 40, Wallingford CT 06492
  
  
 ---------------------------------------------------------------
 Warning -- This program may not be used in any manner that
 competes with the business of Gaussian, Inc. or will provide
 assistance to any competitor of Gaussian, Inc.  The licensee
 of this program is prohibited from giving any competitor of
 Gaussian, Inc. access to this program.  By using this program,
 the user acknowledges that Gaussian, Inc. is engaged in the
 business of creating and licensing software in the field of
 computational chemistry and represents and warrants to the
 licensee that it is not a competitor of Gaussian, Inc. and that
 it will not use this program in any manner prohibited above.
 ---------------------------------------------------------------
  

 Cite this work as:
 Gaussian 16, Revision A.03,
 M. J. Frisch, G. W. Trucks, H. B. Schlegel, G. E. Scuseria, 
 M. A. Robb, J. R. Cheeseman, G. Scalmani, V. Barone, 
 G. A. Petersson, H. Nakatsuji, X. Li, M. Caricato, A. V. Marenich, 
 J. Bloino, B. G. Janesko, R. Gomperts, B. Mennucci, H. P. Hratchian, 
 J. V. Ortiz, A. F. Izmaylov, J. L. Sonnenberg, D. Williams-Young, 
 F. Ding, F. Lipparini, F. Egidi, J. Goings, B. Peng, A. Petrone, 
 T. Henderson, D. Ranasinghe, V. G. Zakrzewski, J. Gao, N. Rega, 
 G. Zheng, W. Liang, M. Hada, M. Ehara, K. Toyota, R. Fukuda, 
 J. Hasegawa, M. Ishida, T. Nakajima, Y. Honda, O. Kitao, H. Nakai, 
 T. Vreven, K. Throssell, J. A. Montgomery, Jr., J. E. Peralta, 
 F. Ogliaro, M. J. Bearpark, J. J. Heyd, E. N. Brothers, K. N. Kudin, 
 V. N. Staroverov, T. A. Keith, R. Kobayashi, J. Normand, 
 K. Raghavachari, A. P. Rendell, J. C. Burant, S. S. Iyengar, 
 J. Tomasi, M. Cossi, J. M. Millam, M. Klene, C. Adamo, R. Cammi, 
 J. W. Ochterski, R. L. Martin, K. Morokuma, O. Farkas, 
 J. B. Foresman, and D. J. Fox, Gaussian, Inc., Wallingford CT, 2016.
 
 ******************************************
 Gaussian 16:  ES64L-G16RevA.03 25-Dec-2016
                23-May-2023 
 ******************************************
 %chk=CC1qCrOCCCCCqCdOrC1O.chk
 %NProcShared=20
 Will use up to   20 processors via shared memory.
 -----------------------------
 # opt freq b3lyp/6-31g(2df,p)
 -----------------------------
 1/18=20,19=15,26=3,38=1/1,3;
 2/9=110,12=2,17=6,18=5,40=1/2;
 3/5=1,6=6,7=104,11=2,25=1,30=1,71=1,74=-5/1,2,3;
 4//1;
 5/5=2,38=5/2;
 6/7=2,8=2,9=2,10=2,28=1/1;
 7//1,2,3,16;
 1/18=20,19=15,26=3/3(2);
 2/9=110/2;
 99//99;
 2/9=110/2;
 3/5=1,6=6,7=104,11=2,25=1,30=1,71=1,74=-5/1,2,3;
 4/5=5,16=3,69=1/1;
 5/5=2,38=5/2;
 7//1,2,3,16;
 1/18=20,19=15,26=3/3(-5);
 2/9=110/2;
 6/7=2,8=2,9=2,10=2,19=2,28=1/1;
 99/9=1/99;
 -------------------
 Title Card Required
 -------------------
 Symbolic Z-matrix:
 Charge =  0 Multiplicity = 1
 C                     1.0015   -0.05719  -0.06555 
 C                     2.53824  -0.01203   0.1492 
 C                     2.55649  -0.00495   1.69067 
 O                     3.09094  -1.22711  -0.39207 
 C                     4.49136  -1.5112   -0.28602 
 C                     5.06362  -1.37766   1.1188 
 C                     5.76106  -0.0091    1.39797 
 C                     5.09384   1.37758   1.12818 
 C                     4.62215   1.57074  -0.31844 
 C                     4.96919   2.96863  -0.78393 
 O                     4.92094   3.32071  -1.97026 
 C                     3.12141   1.27105  -0.55166 
 O                     2.35257   2.42734  -0.18297 
 H                     0.58198  -0.95677   0.40577 
 H                     0.69756  -0.06438  -1.11232 
 H                     0.52564   0.8019    0.42919 
 H                     2.11494  -0.92022   2.09573 
 H                     2.07392   0.87769   2.11238 
 H                     3.5279   -0.00307   2.14216 
 H                     5.07556  -0.95692  -1.02256 
 H                     4.61702  -2.55416  -0.60642 
 H                     5.81122  -2.16293   1.29331 
 H                     4.29879  -1.66007   1.85007 
 H                     6.67804  -0.01481   0.79745 
 H                     6.08371  -0.01516   2.44686 
 H                     5.83499   2.13717   1.40712 
 H                     4.28858   1.64872   1.81942 
 H                     5.24022   0.94693  -0.96608 
 H                     5.29448   3.68108  -0.01226 
 H                     2.98324   1.15847  -1.6394 
 H                     2.38311   2.53862   0.77896 
 

 GradGradGradGradGradGradGradGradGradGradGradGradGradGradGradGradGradGrad
 Berny optimization.
 Initialization pass.
                           ----------------------------
                           !    Initial Parameters    !
                           ! (Angstroms and Degrees)  !
 --------------------------                            --------------------------
 ! Name  Definition              Value          Derivative Info.                !
 --------------------------------------------------------------------------------
 ! R1    R(1,2)                  1.5523         estimate D2E/DX2                !
 ! R2    R(1,14)                 1.0988         estimate D2E/DX2                !
 ! R3    R(1,15)                 1.09           estimate D2E/DX2                !
 ! R4    R(1,16)                 1.0997         estimate D2E/DX2                !
 ! R5    R(2,3)                  1.5416         estimate D2E/DX2                !
 ! R6    R(2,4)                  1.4404         estimate D2E/DX2                !
 ! R7    R(2,12)                 1.574          estimate D2E/DX2                !
 ! R8    R(3,17)                 1.094          estimate D2E/DX2                !
 ! R9    R(3,18)                 1.0908         estimate D2E/DX2                !
 ! R10   R(3,19)                 1.0712         estimate D2E/DX2                !
 ! R11   R(4,5)                  1.4329         estimate D2E/DX2                !
 ! R12   R(5,6)                  1.5228         estimate D2E/DX2                !
 ! R13   R(5,20)                 1.0913         estimate D2E/DX2                !
 ! R14   R(5,21)                 1.0983         estimate D2E/DX2                !
 ! R15   R(6,7)                  1.5612         estimate D2E/DX2                !
 ! R16   R(6,22)                 1.0982         estimate D2E/DX2                !
 ! R17   R(6,23)                 1.0952         estimate D2E/DX2                !
 ! R18   R(7,8)                  1.5623         estimate D2E/DX2                !
 ! R19   R(7,24)                 1.0961         estimate D2E/DX2                !
 ! R20   R(7,25)                 1.0974         estimate D2E/DX2                !
 ! R21   R(8,9)                  1.5338         estimate D2E/DX2                !
 ! R22   R(8,26)                 1.0973         estimate D2E/DX2                !
 ! R23   R(8,27)                 1.0953         estimate D2E/DX2                !
 ! R24   R(9,10)                 1.5137         estimate D2E/DX2                !
 ! R25   R(9,12)                 1.548          estimate D2E/DX2                !
 ! R26   R(9,28)                 1.0911         estimate D2E/DX2                !
 ! R27   R(10,11)                1.2384         estimate D2E/DX2                !
 ! R28   R(10,29)                1.0995         estimate D2E/DX2                !
 ! R29   R(12,13)                1.4367         estimate D2E/DX2                !
 ! R30   R(12,30)                1.1022         estimate D2E/DX2                !
 ! R31   R(13,31)                0.9688         estimate D2E/DX2                !
 ! A1    A(2,1,14)             110.0255         estimate D2E/DX2                !
 ! A2    A(2,1,15)             114.147          estimate D2E/DX2                !
 ! A3    A(2,1,16)             110.0855         estimate D2E/DX2                !
 ! A4    A(14,1,15)            107.461          estimate D2E/DX2                !
 ! A5    A(14,1,16)            106.3431         estimate D2E/DX2                !
 ! A6    A(15,1,16)            108.4538         estimate D2E/DX2                !
 ! A7    A(1,2,3)               98.6375         estimate D2E/DX2                !
 ! A8    A(1,2,4)              107.6574         estimate D2E/DX2                !
 ! A9    A(1,2,12)             109.2014         estimate D2E/DX2                !
 ! A10   A(3,2,4)              112.0285         estimate D2E/DX2                !
 ! A11   A(3,2,12)             115.9188         estimate D2E/DX2                !
 ! A12   A(4,2,12)             112.2189         estimate D2E/DX2                !
 ! A13   A(2,3,17)             111.1996         estimate D2E/DX2                !
 ! A14   A(2,3,18)             112.6479         estimate D2E/DX2                !
 ! A15   A(2,3,19)             115.6065         estimate D2E/DX2                !
 ! A16   A(17,3,18)            110.8115         estimate D2E/DX2                !
 ! A17   A(17,3,19)            102.2061         estimate D2E/DX2                !
 ! A18   A(18,3,19)            103.6993         estimate D2E/DX2                !
 ! A19   A(2,4,5)              120.9605         estimate D2E/DX2                !
 ! A20   A(4,5,6)              114.7199         estimate D2E/DX2                !
 ! A21   A(4,5,20)             111.8721         estimate D2E/DX2                !
 ! A22   A(4,5,21)             106.1714         estimate D2E/DX2                !
 ! A23   A(6,5,20)             112.1426         estimate D2E/DX2                !
 ! A24   A(6,5,21)             108.0239         estimate D2E/DX2                !
 ! A25   A(20,5,21)            102.9544         estimate D2E/DX2                !
 ! A26   A(5,6,7)              114.1877         estimate D2E/DX2                !
 ! A27   A(5,6,22)             109.8599         estimate D2E/DX2                !
 ! A28   A(5,6,23)             109.3252         estimate D2E/DX2                !
 ! A29   A(7,6,22)             107.1154         estimate D2E/DX2                !
 ! A30   A(7,6,23)             114.7476         estimate D2E/DX2                !
 ! A31   A(22,6,23)            100.6562         estimate D2E/DX2                !
 ! A32   A(6,7,8)              123.8068         estimate D2E/DX2                !
 ! A33   A(6,7,24)             105.735          estimate D2E/DX2                !
 ! A34   A(6,7,25)             107.3025         estimate D2E/DX2                !
 ! A35   A(8,7,24)             105.5028         estimate D2E/DX2                !
 ! A36   A(8,7,25)             107.1884         estimate D2E/DX2                !
 ! A37   A(24,7,25)            106.1197         estimate D2E/DX2                !
 ! A38   A(7,8,9)              113.953          estimate D2E/DX2                !
 ! A39   A(7,8,26)             106.383          estimate D2E/DX2                !
 ! A40   A(7,8,27)             115.1317         estimate D2E/DX2                !
 ! A41   A(9,8,26)             111.1183         estimate D2E/DX2                !
 ! A42   A(9,8,27)             109.7517         estimate D2E/DX2                !
 ! A43   A(26,8,27)             99.4842         estimate D2E/DX2                !
 ! A44   A(8,9,10)             109.6237         estimate D2E/DX2                !
 ! A45   A(8,9,12)             114.5727         estimate D2E/DX2                !
 ! A46   A(8,9,28)             108.2771         estimate D2E/DX2                !
 ! A47   A(10,9,12)            110.7762         estimate D2E/DX2                !
 ! A48   A(10,9,28)            102.4493         estimate D2E/DX2                !
 ! A49   A(12,9,28)            110.4285         estimate D2E/DX2                !
 ! A50   A(9,10,11)            123.2443         estimate D2E/DX2                !
 ! A51   A(9,10,29)            116.7703         estimate D2E/DX2                !
 ! A52   A(11,10,29)           119.9758         estimate D2E/DX2                !
 ! A53   A(2,12,9)             116.7373         estimate D2E/DX2                !
 ! A54   A(2,12,13)            110.0919         estimate D2E/DX2                !
 ! A55   A(2,12,30)            108.0414         estimate D2E/DX2                !
 ! A56   A(9,12,13)            108.9248         estimate D2E/DX2                !
 ! A57   A(9,12,30)            106.8561         estimate D2E/DX2                !
 ! A58   A(13,12,30)           105.5673         estimate D2E/DX2                !
 ! A59   A(12,13,31)           109.2915         estimate D2E/DX2                !
 ! D1    D(14,1,2,3)           -59.4566         estimate D2E/DX2                !
 ! D2    D(14,1,2,4)            57.0616         estimate D2E/DX2                !
 ! D3    D(14,1,2,12)          179.1401         estimate D2E/DX2                !
 ! D4    D(15,1,2,3)           179.6538         estimate D2E/DX2                !
 ! D5    D(15,1,2,4)           -63.828          estimate D2E/DX2                !
 ! D6    D(15,1,2,12)           58.2505         estimate D2E/DX2                !
 ! D7    D(16,1,2,3)            57.4261         estimate D2E/DX2                !
 ! D8    D(16,1,2,4)           173.9443         estimate D2E/DX2                !
 ! D9    D(16,1,2,12)          -63.9773         estimate D2E/DX2                !
 ! D10   D(1,2,3,17)            62.4034         estimate D2E/DX2                !
 ! D11   D(1,2,3,18)           -62.6792         estimate D2E/DX2                !
 ! D12   D(1,2,3,19)           178.3392         estimate D2E/DX2                !
 ! D13   D(4,2,3,17)           -50.7022         estimate D2E/DX2                !
 ! D14   D(4,2,3,18)          -175.7848         estimate D2E/DX2                !
 ! D15   D(4,2,3,19)            65.2335         estimate D2E/DX2                !
 ! D16   D(12,2,3,17)          178.7429         estimate D2E/DX2                !
 ! D17   D(12,2,3,18)           53.6602         estimate D2E/DX2                !
 ! D18   D(12,2,3,19)          -65.3214         estimate D2E/DX2                !
 ! D19   D(1,2,4,5)           -176.9456         estimate D2E/DX2                !
 ! D20   D(3,2,4,5)            -69.5592         estimate D2E/DX2                !
 ! D21   D(12,2,4,5)            62.8649         estimate D2E/DX2                !
 ! D22   D(1,2,12,9)           173.6469         estimate D2E/DX2                !
 ! D23   D(1,2,12,13)           48.8298         estimate D2E/DX2                !
 ! D24   D(1,2,12,30)          -65.9846         estimate D2E/DX2                !
 ! D25   D(3,2,12,9)            63.4002         estimate D2E/DX2                !
 ! D26   D(3,2,12,13)          -61.4169         estimate D2E/DX2                !
 ! D27   D(3,2,12,30)         -176.2314         estimate D2E/DX2                !
 ! D28   D(4,2,12,9)           -67.0642         estimate D2E/DX2                !
 ! D29   D(4,2,12,13)          168.1187         estimate D2E/DX2                !
 ! D30   D(4,2,12,30)           53.3043         estimate D2E/DX2                !
 ! D31   D(2,4,5,6)             50.8704         estimate D2E/DX2                !
 ! D32   D(2,4,5,20)           -78.3221         estimate D2E/DX2                !
 ! D33   D(2,4,5,21)           170.0902         estimate D2E/DX2                !
 ! D34   D(4,5,6,7)            -97.2597         estimate D2E/DX2                !
 ! D35   D(4,5,6,22)           142.3917         estimate D2E/DX2                !
 ! D36   D(4,5,6,23)            32.818          estimate D2E/DX2                !
 ! D37   D(20,5,6,7)            31.7984         estimate D2E/DX2                !
 ! D38   D(20,5,6,22)          -88.5502         estimate D2E/DX2                !
 ! D39   D(20,5,6,23)          161.8761         estimate D2E/DX2                !
 ! D40   D(21,5,6,7)           144.5614         estimate D2E/DX2                !
 ! D41   D(21,5,6,22)           24.2128         estimate D2E/DX2                !
 ! D42   D(21,5,6,23)          -85.3609         estimate D2E/DX2                !
 ! D43   D(5,6,7,8)             51.6844         estimate D2E/DX2                !
 ! D44   D(5,6,7,24)           -69.8399         estimate D2E/DX2                !
 ! D45   D(5,6,7,25)           177.2122         estimate D2E/DX2                !
 ! D46   D(22,6,7,8)           173.5539         estimate D2E/DX2                !
 ! D47   D(22,6,7,24)           52.0296         estimate D2E/DX2                !
 ! D48   D(22,6,7,25)          -60.9183         estimate D2E/DX2                !
 ! D49   D(23,6,7,8)           -75.653          estimate D2E/DX2                !
 ! D50   D(23,6,7,24)          162.8227         estimate D2E/DX2                !
 ! D51   D(23,6,7,25)           49.8748         estimate D2E/DX2                !
 ! D52   D(6,7,8,9)            -56.2812         estimate D2E/DX2                !
 ! D53   D(6,7,8,26)          -179.0696         estimate D2E/DX2                !
 ! D54   D(6,7,8,27)            71.8059         estimate D2E/DX2                !
 ! D55   D(24,7,8,9)            65.3487         estimate D2E/DX2                !
 ! D56   D(24,7,8,26)          -57.4397         estimate D2E/DX2                !
 ! D57   D(24,7,8,27)         -166.5642         estimate D2E/DX2                !
 ! D58   D(25,7,8,9)           178.1414         estimate D2E/DX2                !
 ! D59   D(25,7,8,26)           55.353          estimate D2E/DX2                !
 ! D60   D(25,7,8,27)          -53.7715         estimate D2E/DX2                !
 ! D61   D(7,8,9,10)          -137.8835         estimate D2E/DX2                !
 ! D62   D(7,8,9,12)            96.8675         estimate D2E/DX2                !
 ! D63   D(7,8,9,28)           -26.8577         estimate D2E/DX2                !
 ! D64   D(26,8,9,10)          -17.7219         estimate D2E/DX2                !
 ! D65   D(26,8,9,12)         -142.971          estimate D2E/DX2                !
 ! D66   D(26,8,9,28)           93.3039         estimate D2E/DX2                !
 ! D67   D(27,8,9,10)           91.3264         estimate D2E/DX2                !
 ! D68   D(27,8,9,12)          -33.9226         estimate D2E/DX2                !
 ! D69   D(27,8,9,28)         -157.6478         estimate D2E/DX2                !
 ! D70   D(8,9,10,11)          166.8713         estimate D2E/DX2                !
 ! D71   D(8,9,10,29)          -11.9938         estimate D2E/DX2                !
 ! D72   D(12,9,10,11)         -65.7221         estimate D2E/DX2                !
 ! D73   D(12,9,10,29)         115.4128         estimate D2E/DX2                !
 ! D74   D(28,9,10,11)          52.0568         estimate D2E/DX2                !
 ! D75   D(28,9,10,29)        -126.8084         estimate D2E/DX2                !
 ! D76   D(8,9,12,2)           -42.8172         estimate D2E/DX2                !
 ! D77   D(8,9,12,13)           82.588          estimate D2E/DX2                !
 ! D78   D(8,9,12,30)         -163.8136         estimate D2E/DX2                !
 ! D79   D(10,9,12,2)         -167.4594         estimate D2E/DX2                !
 ! D80   D(10,9,12,13)         -42.0541         estimate D2E/DX2                !
 ! D81   D(10,9,12,30)          71.5442         estimate D2E/DX2                !
 ! D82   D(28,9,12,2)           79.7508         estimate D2E/DX2                !
 ! D83   D(28,9,12,13)        -154.844          estimate D2E/DX2                !
 ! D84   D(28,9,12,30)         -41.2456         estimate D2E/DX2                !
 ! D85   D(2,12,13,31)          59.4707         estimate D2E/DX2                !
 ! D86   D(9,12,13,31)         -69.7156         estimate D2E/DX2                !
 ! D87   D(30,12,13,31)        175.8451         estimate D2E/DX2                !
 --------------------------------------------------------------------------------
 Trust Radius=3.00D-01 FncErr=1.00D-07 GrdErr=1.00D-06 EigMax=2.50D+02 EigMin=1.00D-04
 Number of steps in this run=    186 maximum allowed number of steps=    186.
 GradGradGradGradGradGradGradGradGradGradGradGradGradGradGradGradGradGrad

                          Input orientation:                          
 ---------------------------------------------------------------------
 Center     Atomic      Atomic             Coordinates (Angstroms)
 Number     Number       Type             X           Y           Z
 ---------------------------------------------------------------------
      1          6           0        1.001500   -0.057190   -0.065550
      2          6           0        2.538240   -0.012030    0.149200
      3          6           0        2.556490   -0.004950    1.690670
      4          8           0        3.090940   -1.227110   -0.392070
      5          6           0        4.491360   -1.511200   -0.286020
      6          6           0        5.063620   -1.377660    1.118800
      7          6           0        5.761060   -0.009100    1.397970
      8          6           0        5.093840    1.377580    1.128180
      9          6           0        4.622150    1.570740   -0.318440
     10          6           0        4.969190    2.968630   -0.783930
     11          8           0        4.920940    3.320710   -1.970260
     12          6           0        3.121410    1.271050   -0.551660
     13          8           0        2.352570    2.427340   -0.182970
     14          1           0        0.581980   -0.956770    0.405770
     15          1           0        0.697560   -0.064380   -1.112320
     16          1           0        0.525640    0.801900    0.429190
     17          1           0        2.114940   -0.920220    2.095730
     18          1           0        2.073920    0.877690    2.112380
     19          1           0        3.527900   -0.003070    2.142160
     20          1           0        5.075560   -0.956920   -1.022560
     21          1           0        4.617020   -2.554160   -0.606420
     22          1           0        5.811220   -2.162930    1.293310
     23          1           0        4.298790   -1.660070    1.850070
     24          1           0        6.678040   -0.014810    0.797450
     25          1           0        6.083710   -0.015160    2.446860
     26          1           0        5.834990    2.137170    1.407120
     27          1           0        4.288580    1.648720    1.819420
     28          1           0        5.240220    0.946930   -0.966080
     29          1           0        5.294480    3.681080   -0.012260
     30          1           0        2.983240    1.158470   -1.639400
     31          1           0        2.383110    2.538620    0.778960
 ---------------------------------------------------------------------
                    Distance matrix (angstroms):
                    1          2          3          4          5
     1  C    0.000000
     2  C    1.552329   0.000000
     3  C    2.346280   1.541594   0.000000
     4  O    2.416834   1.440441   2.473281   0.000000
     5  C    3.787067   2.500321   3.149574   1.432875   0.000000
     6  C    4.432510   3.030283   2.914973   2.489349   1.522772
     7  C    4.979720   3.456299   3.217912   3.437635   2.589260
     8  C    4.497866   3.069285   2.943795   3.620384   3.272307
     9  C    3.977841   2.658294   3.284246   3.190296   3.084884
    10  C    5.041252   3.957851   4.559270   4.613633   4.532672
    11  O    5.513632   4.612648   5.482066   5.149976   5.135032
    12  C    2.548439   1.574035   2.641090   2.503438   3.112594
    13  O    2.830559   2.468873   3.077035   3.734156   4.482983
    14  H    1.098810   2.187536   2.540791   2.646604   4.008643
    15  H    1.090027   2.232101   3.363912   2.756623   4.143547
    16  H    1.099657   2.188935   2.523230   3.372256   4.646385
    17  H    2.579864   2.189286   1.093965   2.689964   3.416045
    18  H    2.601435   2.204829   1.090764   3.425899   4.159704
    19  H    3.355534   2.225173   1.071207   2.848075   3.016417
    20  H    4.280578   2.950226   3.822771   2.099818   1.091333
    21  H    4.427119   3.369675   4.002609   2.033698   1.098277
    22  H    5.423472   4.080166   3.925308   3.334095   2.158950
    23  H    4.136538   2.951022   2.408410   2.583321   2.149913
    24  H    5.741922   4.190248   4.217240   3.968868   2.862632
    25  H    5.669465   4.224880   3.607382   4.299421   3.498907
    26  H    5.508775   4.131584   3.926530   4.699497   4.240598
    27  H    4.155495   2.934521   2.398194   3.820396   3.802511
    28  H    4.448141   3.076386   3.894458   3.110521   2.658134
    29  H    5.692730   4.611073   4.897283   5.393531   5.261152
    30  H    2.807513   2.183388   3.553172   2.694146   3.351597
    31  H    3.059456   2.631820   2.707586   4.006627   4.688277
                    6          7          8          9         10
     6  C    0.000000
     7  C    1.561190   0.000000
     8  C    2.755422   1.562322   0.000000
     9  C    3.309625   2.595973   1.533790   0.000000
    10  C    4.745475   3.775529   2.490611   1.513676   0.000000
    11  O    5.624707   4.810240   3.661418   2.424908   1.238413
    12  C    3.684872   3.522441   2.593008   1.548039   2.519924
    13  O    4.849992   4.478104   3.214914   2.429631   2.738768
    14  H    4.557484   5.357743   5.131077   4.820349   6.005977
    15  H    5.075932   5.651871   5.140658   4.325075   5.249173
    16  H    5.081270   5.385711   4.657086   4.234555   5.090336
    17  H    3.139802   3.822460   3.884570   4.280094   5.618037
    18  H    3.874547   3.858987   3.215347   3.589245   4.598177
    19  H    2.301130   2.353903   2.320887   3.119105   4.412519
    20  H    2.182335   2.688352   3.174257   2.662786   3.934235
    21  H    2.135413   3.435657   4.323745   4.134944   5.536853
    22  H    1.098184   2.156955   3.616229   4.236970   5.599719
    23  H    1.095206   2.251295   3.221886   3.904501   5.367705
    24  H    2.137049   1.096134   2.134906   2.825927   3.784421
    25  H    2.158873   1.097411   2.158352   3.506868   4.536867
    26  H    3.610010   2.147562   1.097309   2.183891   2.498327
    27  H    3.201645   2.257030   1.095342   2.165132   2.997136
    28  H    3.127560   2.602691   2.143085   1.091140   2.047903
    29  H    5.188781   3.977923   2.578172   2.235913   1.099488
    30  H    4.285744   4.278448   3.487426   2.144977   2.820019
    31  H    4.757928   4.276049   2.969516   2.674767   3.052105
                   11         12         13         14         15
    11  O    0.000000
    12  C    3.074385   0.000000
    13  O    3.254081   1.436682   0.000000
    14  H    6.539796   3.511205   3.864428   0.000000
    15  H    5.480131   2.823608   3.132318   1.764742   0.000000
    16  H    5.605393   2.814283   2.520807   1.759728   1.776584
    17  H    6.510868   3.580966   4.056489   2.281944   3.610126
    18  H    5.544531   2.889477   2.783468   2.916101   3.630503
    19  H    5.468096   3.007538   3.562937   3.550076   4.313493
    20  H    4.384080   3.000716   4.424116   4.715123   4.468956
    21  H    6.038752   4.107564   5.488386   4.456201   4.670878
    22  H    6.443120   4.736160   5.933990   5.439439   6.028307
    23  H    6.307944   3.968122   4.962655   4.049112   4.928574
    24  H    4.676891   4.015364   5.063103   6.180829   6.278202
    25  H    5.656060   4.406890   5.177182   5.943207   6.456067
    26  H    3.693636   3.456949   3.839249   6.178129   6.130872
    27  H    4.190120   2.669633   2.892049   4.746142   4.942189
    28  H    2.597142   2.183152   3.338173   5.215865   4.656167
    29  H    2.025626   3.289594   3.202474   6.625108   6.030777
    30  H    2.922231   1.102245   2.031985   3.797764   2.645280
    31  H    3.822363   1.980497   0.968827   3.949822   3.632303
                   16         17         18         19         20
    16  H    0.000000
    17  H    2.875574   0.000000
    18  H    2.288240   1.798455   0.000000
    19  H    3.549057   1.685163   1.700201   0.000000
    20  H    5.089479   4.300041   4.712057   3.649731   0.000000
    21  H    5.392125   4.028868   5.063282   3.904988   1.713069
    22  H    6.121624   3.981293   4.887091   3.255625   2.712731
    23  H    4.724072   2.318820   3.385126   1.850740   3.057743
    24  H    6.217287   4.829822   4.870679   3.425166   2.601528
    25  H    5.969147   4.085775   4.121586   2.573937   3.733651
    26  H    5.561339   4.864215   4.028564   3.231652   4.006678
    27  H    4.099946   3.376464   2.363267   1.846945   3.935168
    28  H    4.918849   4.756922   4.416692   3.673649   1.911792
    29  H    5.588058   5.977044   4.769182   4.619014   4.751808
    30  H    3.232028   4.361891   3.870601   3.993248   3.038613
    31  H    2.566852   3.710711   2.152277   3.103070   4.765875
                   21         22         23         24         25
    21  H    0.000000
    22  H    2.277751   0.000000
    23  H    2.633441   1.688281   0.000000
    24  H    3.559066   2.368897   3.078266   0.000000
    25  H    4.233228   2.453130   2.499565   1.753220   0.000000
    26  H    5.248464   4.301672   4.120091   2.390282   2.403216
    27  H    4.863823   4.138103   3.308948   3.085656   2.526790
    28  H    3.574264   3.886144   3.951385   2.470285   3.644894
    29  H    6.300016   6.010323   5.743479   4.028582   4.509140
    30  H    4.185679   5.256421   4.674531   4.578905   5.261924
    31  H    5.731146   5.841324   4.737732   4.996676   4.795636
                   26         27         28         29         30
    26  H    0.000000
    27  H    1.673308   0.000000
    28  H    2.720754   3.026076   0.000000
    29  H    2.165744   2.915025   2.896255   0.000000
    30  H    4.286212   3.729302   2.364755   3.788532   0.000000
    31  H    3.531462   2.346336   3.706982   3.226038   2.848409
                   31
    31  H    0.000000
 Stoichiometry    C10H18O3
 Framework group  C1[X(C10H18O3)]
 Deg. of freedom    87
 Full point group                 C1      NOp   1
 Largest Abelian subgroup         C1      NOp   1
 Largest concise Abelian subgroup C1      NOp   1
                         Standard orientation:                         
 ---------------------------------------------------------------------
 Center     Atomic      Atomic             Coordinates (Angstroms)
 Number     Number       Type             X           Y           Z
 ---------------------------------------------------------------------
      1          6           0       -1.319219    2.557558   -0.112263
      2          6           0       -0.937115    1.053169   -0.089104
      3          6           0       -1.480163    0.697867    1.309242
      4          8           0       -1.676056    0.398492   -1.138025
      5          6           0       -1.585845   -1.018686   -1.329336
      6          6           0       -1.815836   -1.846863   -0.072331
      7          6           0       -0.504796   -2.296175    0.646422
      8          6           0        0.647720   -1.318882    1.043229
      9          6           0        1.211704   -0.511194   -0.132388
     10          6           0        2.721166   -0.456302   -0.033768
     11          8           0        3.448821   -0.077700   -0.961585
     12          6           0        0.618924    0.911282   -0.279355
     13          8           0        1.308529    1.798254    0.616067
     14          1           0       -2.405865    2.671617    0.004250
     15          1           0       -1.032074    3.076529   -1.026799
     16          1           0       -0.860268    3.076951    0.741458
     17          1           0       -2.562989    0.844349    1.362068
     18          1           0       -0.975763    1.244515    2.107066
     19          1           0       -1.375969   -0.328007    1.599433
     20          1           0       -0.667052   -1.301532   -1.845885
     21          1           0       -2.367063   -1.279610   -2.055854
     22          1           0       -2.375491   -2.757884   -0.322999
     23          1           0       -2.539380   -1.335362    0.571352
     24          1           0       -0.043894   -3.040075   -0.013648
     25          1           0       -0.799426   -2.836153    1.555228
     26          1           0        1.427336   -1.933375    1.510867
     27          1           0        0.421519   -0.647710    1.878773
     28          1           0        1.056472   -1.084894   -1.047461
     29          1           0        3.168125   -0.792030    0.913009
     30          1           0        0.871958    1.259726   -1.294000
     31          1           0        1.070231    1.579936    1.529400
 ---------------------------------------------------------------------
 Rotational constants (GHZ):           0.9915325           0.7263156           0.5409597
 Standard basis: 6-31G(2df,p) (6D, 7F)
 There are   493 symmetry adapted cartesian basis functions of A   symmetry.
 There are   454 symmetry adapted basis functions of A   symmetry.
   454 basis functions,   698 primitive gaussians,   493 cartesian basis functions
    51 alpha electrons       51 beta electrons
       nuclear repulsion energy       917.5043760840 Hartrees.
 NAtoms=   31 NActive=   31 NUniq=   31 SFac= 1.00D+00 NAtFMM=   60 NAOKFM=F Big=F
 Integral buffers will be    131072 words long.
 Raffenetti 2 integral format.
 Two-electron integral symmetry is turned on.
 One-electron integrals computed using PRISM.
 PrsmSu:  requested number of processors reduced to:  12 ShMem   1 Linda.
 NBasis=   454 RedAO= T EigKep=  4.98D-04  NBF=   454
 NBsUse=   454 1.00D-06 EigRej= -1.00D+00 NBFU=   454
 ExpMin= 1.61D-01 ExpMax= 5.48D+03 ExpMxC= 8.25D+02 IAcc=3 IRadAn=         5 AccDes= 0.00D+00
 Harris functional with IExCor=  402 and IRadAn=       5 diagonalized for initial guess.
 HarFok:  IExCor=  402 AccDes= 0.00D+00 IRadAn=         5 IDoV= 1 UseB2=F ITyADJ=14
 ICtDFT=  3500011 ScaDFX=  1.000000  1.000000  1.000000  1.000000
 FoFCou: FMM=F IPFlag=           0 FMFlag=      100000 FMFlg1=           0
         NFxFlg=           0 DoJE=T BraDBF=F KetDBF=T FulRan=T
         wScrn=  0.000000 ICntrl=       500 IOpCl=  0 I1Cent=   200000004 NGrid=           0
         NMat0=    1 NMatS0=      1 NMatT0=    0 NMatD0=    1 NMtDS0=    0 NMtDT0=    0
 Petite list used in FoFCou.
 Requested convergence on RMS density matrix=1.00D-08 within 128 cycles.
 Requested convergence on MAX density matrix=1.00D-06.
 Requested convergence on             energy=1.00D-06.
 No special actions if energy rises.
 Integral accuracy reduced to 1.0D-05 until final iterations.
 Initial convergence to 1.0D-05 achieved.  Increase integral accuracy.
 SCF Done:  E(RB3LYP) =  -617.544218749     A.U. after   13 cycles
            NFock= 13  Conv=0.95D-08     -V/T= 2.0077

 **********************************************************************

            Population analysis using the SCF density.

 **********************************************************************

 Orbital symmetries:
       Occupied  (A) (A) (A) (A) (A) (A) (A) (A) (A) (A) (A) (A)
                 (A) (A) (A) (A) (A) (A) (A) (A) (A) (A) (A) (A)
                 (A) (A) (A) (A) (A) (A) (A) (A) (A) (A) (A) (A)
                 (A) (A) (A) (A) (A) (A) (A) (A) (A) (A) (A) (A)
                 (A) (A) (A)
       Virtual   (A) (A) (A) (A) (A) (A) (A) (A) (A) (A) (A) (A)
                 (A) (A) (A) (A) (A) (A) (A) (A) (A) (A) (A) (A)
                 (A) (A) (A) (A) (A) (A) (A) (A) (A) (A) (A) (A)
                 (A) (A) (A) (A) (A) (A) (A) (A) (A) (A) (A) (A)
                 (A) (A) (A) (A) (A) (A) (A) (A) (A) (A) (A) (A)
                 (A) (A) (A) (A) (A) (A) (A) (A) (A) (A) (A) (A)
                 (A) (A) (A) (A) (A) (A) (A) (A) (A) (A) (A) (A)
                 (A) (A) (A) (A) (A) (A) (A) (A) (A) (A) (A) (A)
                 (A) (A) (A) (A) (A) (A) (A) (A) (A) (A) (A) (A)
                 (A) (A) (A) (A) (A) (A) (A) (A) (A) (A) (A) (A)
                 (A) (A) (A) (A) (A) (A) (A) (A) (A) (A) (A) (A)
                 (A) (A) (A) (A) (A) (A) (A) (A) (A) (A) (A) (A)
                 (A) (A) (A) (A) (A) (A) (A) (A) (A) (A) (A) (A)
                 (A) (A) (A) (A) (A) (A) (A) (A) (A) (A) (A) (A)
                 (A) (A) (A) (A) (A) (A) (A) (A) (A) (A) (A) (A)
                 (A) (A) (A) (A) (A) (A) (A) (A) (A) (A) (A) (A)
                 (A) (A) (A) (A) (A) (A) (A) (A) (A) (A) (A) (A)
                 (A) (A) (A) (A) (A) (A) (A) (A) (A) (A) (A) (A)
                 (A) (A) (A) (A) (A) (A) (A) (A) (A) (A) (A) (A)
                 (A) (A) (A) (A) (A) (A) (A) (A) (A) (A) (A) (A)
                 (A) (A) (A) (A) (A) (A) (A) (A) (A) (A) (A) (A)
                 (A) (A) (A) (A) (A) (A) (A) (A) (A) (A) (A) (A)
                 (A) (A) (A) (A) (A) (A) (A) (A) (A) (A) (A) (A)
                 (A) (A) (A) (A) (A) (A) (A) (A) (A) (A) (A) (A)
                 (A) (A) (A) (A) (A) (A) (A) (A) (A) (A) (A) (A)
                 (A) (A) (A) (A) (A) (A) (A) (A) (A) (A) (A) (A)
                 (A) (A) (A) (A) (A) (A) (A) (A) (A) (A) (A) (A)
                 (A) (A) (A) (A) (A) (A) (A) (A) (A) (A) (A) (A)
                 (A) (A) (A) (A) (A) (A) (A) (A) (A) (A) (A) (A)
                 (A) (A) (A) (A) (A) (A) (A) (A) (A) (A) (A) (A)
                 (A) (A) (A) (A) (A) (A) (A) (A) (A) (A) (A) (A)
                 (A) (A) (A) (A) (A) (A) (A) (A) (A) (A) (A) (A)
                 (A) (A) (A) (A) (A) (A) (A) (A) (A) (A) (A) (A)
                 (A) (A) (A) (A) (A) (A) (A)
 The electronic state is 1-A.
 Alpha  occ. eigenvalues --  -19.14780 -19.14161 -19.13498 -10.27035 -10.25066
 Alpha  occ. eigenvalues --  -10.24622 -10.23217 -10.19932 -10.19912 -10.19823
 Alpha  occ. eigenvalues --  -10.19113 -10.17577 -10.17090  -1.03228  -1.02341
 Alpha  occ. eigenvalues --   -1.01784  -0.82521  -0.80232  -0.76909  -0.71549
 Alpha  occ. eigenvalues --   -0.69148  -0.67139  -0.63678  -0.59226  -0.57489
 Alpha  occ. eigenvalues --   -0.56555  -0.51212  -0.48885  -0.48014  -0.47888
 Alpha  occ. eigenvalues --   -0.46426  -0.44871  -0.43602  -0.43071  -0.42409
 Alpha  occ. eigenvalues --   -0.41014  -0.39952  -0.39270  -0.38335  -0.37558
 Alpha  occ. eigenvalues --   -0.36840  -0.36339  -0.34586  -0.34258  -0.33996
 Alpha  occ. eigenvalues --   -0.32510  -0.31579  -0.30231  -0.27619  -0.25755
 Alpha  occ. eigenvalues --   -0.24444
 Alpha virt. eigenvalues --   -0.03026   0.04948   0.07860   0.08645   0.09303
 Alpha virt. eigenvalues --    0.11116   0.11274   0.12444   0.13082   0.13585
 Alpha virt. eigenvalues --    0.14786   0.15341   0.15691   0.16196   0.17818
 Alpha virt. eigenvalues --    0.19154   0.19307   0.20147   0.20506   0.21340
 Alpha virt. eigenvalues --    0.21967   0.22591   0.23230   0.23825   0.24468
 Alpha virt. eigenvalues --    0.25166   0.26607   0.28118   0.29098   0.30454
 Alpha virt. eigenvalues --    0.32729   0.33852   0.42704   0.43571   0.45954
 Alpha virt. eigenvalues --    0.46969   0.47550   0.48874   0.49274   0.50129
 Alpha virt. eigenvalues --    0.50795   0.51637   0.52197   0.53717   0.54315
 Alpha virt. eigenvalues --    0.54864   0.55555   0.56081   0.57710   0.58251
 Alpha virt. eigenvalues --    0.60066   0.60612   0.63368   0.64451   0.65245
 Alpha virt. eigenvalues --    0.65685   0.67732   0.68386   0.70252   0.70485
 Alpha virt. eigenvalues --    0.71621   0.72463   0.73370   0.74166   0.74429
 Alpha virt. eigenvalues --    0.74752   0.75371   0.75670   0.76337   0.76629
 Alpha virt. eigenvalues --    0.77013   0.77621   0.79875   0.80429   0.82270
 Alpha virt. eigenvalues --    0.83764   0.85520   0.86050   0.86856   0.87520
 Alpha virt. eigenvalues --    0.88034   0.88340   0.89636   0.90621   0.92674
 Alpha virt. eigenvalues --    0.93505   0.94387   0.95416   0.96389   0.98609
 Alpha virt. eigenvalues --    0.99143   1.00784   1.01285   1.02381   1.03672
 Alpha virt. eigenvalues --    1.04393   1.05782   1.09034   1.11066   1.12471
 Alpha virt. eigenvalues --    1.13281   1.14853   1.16475   1.17664   1.18365
 Alpha virt. eigenvalues --    1.21144   1.22970   1.24075   1.28029   1.30258
 Alpha virt. eigenvalues --    1.30434   1.31113   1.33537   1.35715   1.36472
 Alpha virt. eigenvalues --    1.38472   1.39452   1.41072   1.42189   1.43416
 Alpha virt. eigenvalues --    1.43893   1.45518   1.46435   1.48203   1.48406
 Alpha virt. eigenvalues --    1.50013   1.51060   1.52455   1.53018   1.53288
 Alpha virt. eigenvalues --    1.54969   1.56196   1.57825   1.59973   1.60908
 Alpha virt. eigenvalues --    1.61198   1.64198   1.65153   1.66594   1.67764
 Alpha virt. eigenvalues --    1.69683   1.71029   1.72008   1.72364   1.73735
 Alpha virt. eigenvalues --    1.75971   1.77415   1.80333   1.82161   1.82814
 Alpha virt. eigenvalues --    1.83804   1.86482   1.86860   1.89305   1.91469
 Alpha virt. eigenvalues --    1.92192   1.93480   1.95339   1.96571   1.96924
 Alpha virt. eigenvalues --    2.00112   2.01619   2.04050   2.05372   2.07143
 Alpha virt. eigenvalues --    2.09363   2.14244   2.16668   2.18828   2.21802
 Alpha virt. eigenvalues --    2.23911   2.26785   2.28466   2.30662   2.33534
 Alpha virt. eigenvalues --    2.34657   2.36046   2.37118   2.39413   2.40563
 Alpha virt. eigenvalues --    2.44130   2.45712   2.47077   2.47705   2.48083
 Alpha virt. eigenvalues --    2.49623   2.52175   2.52362   2.54051   2.58201
 Alpha virt. eigenvalues --    2.61414   2.61890   2.64414   2.65304   2.69415
 Alpha virt. eigenvalues --    2.71092   2.71999   2.73089   2.74886   2.76790
 Alpha virt. eigenvalues --    2.77570   2.78521   2.80197   2.82435   2.84310
 Alpha virt. eigenvalues --    2.85349   2.87326   2.88299   2.89645   2.91129
 Alpha virt. eigenvalues --    2.91342   2.92306   2.92602   2.94088   2.96863
 Alpha virt. eigenvalues --    2.97643   2.98808   2.99343   2.99366   3.01016
 Alpha virt. eigenvalues --    3.03172   3.03789   3.05720   3.06680   3.07080
 Alpha virt. eigenvalues --    3.11227   3.12916   3.15808   3.16526   3.16914
 Alpha virt. eigenvalues --    3.19300   3.21769   3.23100   3.25260   3.26482
 Alpha virt. eigenvalues --    3.29142   3.34023   3.35067   3.35490   3.36782
 Alpha virt. eigenvalues --    3.37753   3.40703   3.41511   3.42456   3.43289
 Alpha virt. eigenvalues --    3.44169   3.46822   3.47641   3.49420   3.50393
 Alpha virt. eigenvalues --    3.51340   3.53517   3.54337   3.57035   3.58599
 Alpha virt. eigenvalues --    3.59610   3.60396   3.62759   3.64230   3.66187
 Alpha virt. eigenvalues --    3.66827   3.68755   3.69777   3.71978   3.72429
 Alpha virt. eigenvalues --    3.75409   3.76223   3.79919   3.82910   3.86106
 Alpha virt. eigenvalues --    3.88881   3.92311   3.92777   3.97255   3.99170
 Alpha virt. eigenvalues --    3.99524   4.01509   4.04546   4.07045   4.09807
 Alpha virt. eigenvalues --    4.11695   4.15557   4.17017   4.19091   4.19698
 Alpha virt. eigenvalues --    4.22456   4.23961   4.27000   4.27620   4.29002
 Alpha virt. eigenvalues --    4.31209   4.32747   4.34069   4.37482   4.38401
 Alpha virt. eigenvalues --    4.41897   4.42905   4.44055   4.45939   4.47292
 Alpha virt. eigenvalues --    4.48394   4.49415   4.50436   4.51797   4.53720
 Alpha virt. eigenvalues --    4.54959   4.55598   4.56578   4.57026   4.59221
 Alpha virt. eigenvalues --    4.60414   4.61387   4.62382   4.63587   4.65776
 Alpha virt. eigenvalues --    4.66445   4.67636   4.68776   4.70402   4.71025
 Alpha virt. eigenvalues --    4.71377   4.73158   4.73598   4.75911   4.76991
 Alpha virt. eigenvalues --    4.77860   4.78703   4.80877   4.81195   4.82028
 Alpha virt. eigenvalues --    4.83648   4.84466   4.85373   4.87329   4.88887
 Alpha virt. eigenvalues --    4.89408   4.91906   4.94053   4.94483   4.95236
 Alpha virt. eigenvalues --    4.96478   4.99924   5.00989   5.02805   5.05852
 Alpha virt. eigenvalues --    5.06620   5.08218   5.09137   5.10058   5.10795
 Alpha virt. eigenvalues --    5.12112   5.14448   5.16662   5.23774   5.28506
 Alpha virt. eigenvalues --    5.31539   5.33538   5.36628   5.38262   5.40954
 Alpha virt. eigenvalues --    5.42194   5.44030   5.45282   5.47314   5.50955
 Alpha virt. eigenvalues --    5.52272   5.53642   5.57037   5.64029   5.65298
 Alpha virt. eigenvalues --    5.71448   5.75766   5.86601   5.89227   5.93280
 Alpha virt. eigenvalues --    5.96008   5.99220   5.99664   6.02005   6.08882
 Alpha virt. eigenvalues --    6.18110   6.22806   6.25438   6.31882   6.42110
 Alpha virt. eigenvalues --    6.68117   6.81534   7.11298   7.26645   7.42587
 Alpha virt. eigenvalues --   10.91066  11.36422  11.62293  11.83755  12.01099
 Alpha virt. eigenvalues --   12.21853  12.50742  12.64882  12.83716  13.02504
 Alpha virt. eigenvalues --   13.12984  13.46551  13.80835
          Condensed to atoms (all electrons):
               1          2          3          4          5          6
     1  C    5.055820   0.379497  -0.071337  -0.016671   0.005015  -0.000209
     2  C    0.379497   4.554175   0.324201   0.348550  -0.087865  -0.005451
     3  C   -0.071337   0.324201   5.201681  -0.039301  -0.004158   0.004522
     4  O   -0.016671   0.348550  -0.039301   7.758382   0.399344  -0.046964
     5  C    0.005015  -0.087865  -0.004158   0.399344   4.731098   0.371132
     6  C   -0.000209  -0.005451   0.004522  -0.046964   0.371132   4.989253
     7  C    0.000013   0.000285  -0.012518   0.000994  -0.024541   0.402912
     8  C   -0.000085  -0.007845  -0.002737   0.000648  -0.005976  -0.028905
     9  C    0.004889  -0.033458  -0.012036   0.005164   0.007095  -0.006186
    10  C   -0.000063   0.003471  -0.000149   0.000020   0.000118   0.000151
    11  O   -0.000000   0.000124  -0.000001  -0.000000  -0.000002   0.000001
    12  C   -0.037502   0.367854  -0.039577  -0.048303  -0.005259  -0.001196
    13  O   -0.006401  -0.029417  -0.000019   0.001279   0.000039   0.000023
    14  H    0.362554  -0.015882  -0.007270  -0.000310   0.000018  -0.000026
    15  H    0.357691  -0.017639   0.006306   0.000762   0.000052   0.000026
    16  H    0.368491  -0.020114  -0.002488   0.001869  -0.000171   0.000015
    17  H   -0.010017  -0.012469   0.364414  -0.000525   0.000026  -0.002731
    18  H   -0.006181  -0.017200   0.350740   0.002601   0.000185   0.000306
    19  H    0.006886  -0.019269   0.368789  -0.001079  -0.000946  -0.003988
    20  H   -0.000198  -0.001402  -0.000816  -0.033396   0.363293  -0.059409
    21  H   -0.000156   0.002953   0.000010  -0.020405   0.365954  -0.031039
    22  H   -0.000000   0.000140   0.000241   0.002618  -0.022735   0.348286
    23  H   -0.000182  -0.001478  -0.004581  -0.001577  -0.027122   0.366431
    24  H   -0.000000  -0.000100   0.000393  -0.000013  -0.005087  -0.034214
    25  H    0.000000  -0.000081   0.000111  -0.000070   0.003994  -0.032677
    26  H   -0.000001   0.000386   0.000216   0.000001  -0.000001   0.003906
    27  H   -0.000036  -0.004350  -0.000371   0.000204  -0.000162  -0.003543
    28  H   -0.000126  -0.000007  -0.000052  -0.000036  -0.002371  -0.002098
    29  H    0.000003   0.000065  -0.000038   0.000001  -0.000004  -0.000005
    30  H   -0.007340  -0.024278   0.006007   0.001181   0.000193   0.000214
    31  H   -0.000656  -0.003378   0.004321   0.000038   0.000000   0.000004
               7          8          9         10         11         12
     1  C    0.000013  -0.000085   0.004889  -0.000063  -0.000000  -0.037502
     2  C    0.000285  -0.007845  -0.033458   0.003471   0.000124   0.367854
     3  C   -0.012518  -0.002737  -0.012036  -0.000149  -0.000001  -0.039577
     4  O    0.000994   0.000648   0.005164   0.000020  -0.000000  -0.048303
     5  C   -0.024541  -0.005976   0.007095   0.000118  -0.000002  -0.005259
     6  C    0.402912  -0.028905  -0.006186   0.000151   0.000001  -0.001196
     7  C    4.852181   0.400155  -0.017000   0.000465  -0.000054   0.000352
     8  C    0.400155   5.005774   0.318274  -0.013265   0.002376  -0.010683
     9  C   -0.017000   0.318274   5.267256   0.232387  -0.059270   0.345558
    10  C    0.000465  -0.013265   0.232387   4.564913   0.721593  -0.018001
    11  O   -0.000054   0.002376  -0.059270   0.721593   7.679498   0.002144
    12  C    0.000352  -0.010683   0.345558  -0.018001   0.002144   4.822643
    13  O    0.000175  -0.002243  -0.041650   0.008196  -0.002037   0.319112
    14  H   -0.000002   0.000001  -0.000098   0.000001   0.000000   0.003309
    15  H    0.000000   0.000013   0.000014   0.000001  -0.000000  -0.002111
    16  H   -0.000003   0.000006   0.000278  -0.000002  -0.000000  -0.004077
    17  H    0.000499   0.000451   0.000165   0.000003  -0.000000   0.003522
    18  H    0.000512  -0.002348   0.000352  -0.000033   0.000000  -0.001577
    19  H   -0.003376  -0.006814   0.000813  -0.000027  -0.000000  -0.003173
    20  H   -0.007739  -0.002083  -0.002705   0.000296  -0.000042   0.002478
    21  H    0.004459   0.000223  -0.000121  -0.000011   0.000000  -0.000074
    22  H   -0.028378   0.004161   0.000099   0.000003  -0.000000   0.000016
    23  H   -0.035814  -0.003275  -0.000290   0.000002   0.000000   0.000674
    24  H    0.369555  -0.038065  -0.005724   0.000099  -0.000004   0.000109
    25  H    0.361416  -0.032243   0.002873  -0.000048   0.000000  -0.000052
    26  H   -0.030491   0.362927  -0.043029  -0.008646   0.000151   0.003115
    27  H   -0.028507   0.352990  -0.029708  -0.000466  -0.000082  -0.008389
    28  H   -0.005552  -0.054429   0.318330  -0.003297  -0.001844  -0.019761
    29  H   -0.000178   0.002657  -0.128049   0.358492  -0.051323   0.002725
    30  H   -0.000109   0.006217  -0.045995  -0.002345   0.005512   0.335837
    31  H    0.000058   0.002206  -0.000858  -0.000918   0.000095  -0.068822
              13         14         15         16         17         18
     1  C   -0.006401   0.362554   0.357691   0.368491  -0.010017  -0.006181
     2  C   -0.029417  -0.015882  -0.017639  -0.020114  -0.012469  -0.017200
     3  C   -0.000019  -0.007270   0.006306  -0.002488   0.364414   0.350740
     4  O    0.001279  -0.000310   0.000762   0.001869  -0.000525   0.002601
     5  C    0.000039   0.000018   0.000052  -0.000171   0.000026   0.000185
     6  C    0.000023  -0.000026   0.000026   0.000015  -0.002731   0.000306
     7  C    0.000175  -0.000002   0.000000  -0.000003   0.000499   0.000512
     8  C   -0.002243   0.000001   0.000013   0.000006   0.000451  -0.002348
     9  C   -0.041650  -0.000098   0.000014   0.000278   0.000165   0.000352
    10  C    0.008196   0.000001   0.000001  -0.000002   0.000003  -0.000033
    11  O   -0.002037   0.000000  -0.000000  -0.000000  -0.000000   0.000000
    12  C    0.319112   0.003309  -0.002111  -0.004077   0.003522  -0.001577
    13  O    7.873379   0.000328   0.000058   0.009891   0.000045   0.001086
    14  H    0.000328   0.599333  -0.031741  -0.031439   0.004207   0.000566
    15  H    0.000058  -0.031741   0.598999  -0.028775   0.000214   0.000093
    16  H    0.009891  -0.031439  -0.028775   0.582791   0.000397   0.000967
    17  H    0.000045   0.004207   0.000214   0.000397   0.590934  -0.025222
    18  H    0.001086   0.000566   0.000093   0.000967  -0.025222   0.629322
    19  H    0.000274   0.000101  -0.000317   0.000248  -0.041669  -0.038619
    20  H   -0.000071   0.000019  -0.000007   0.000004   0.000068   0.000025
    21  H    0.000001  -0.000015   0.000003   0.000002  -0.000080   0.000009
    22  H    0.000000   0.000000  -0.000000  -0.000000  -0.000004  -0.000026
    23  H   -0.000006   0.000016   0.000001   0.000011   0.005522   0.000515
    24  H   -0.000002   0.000000  -0.000000   0.000000   0.000001  -0.000002
    25  H    0.000001  -0.000000   0.000000   0.000000  -0.000028  -0.000056
    26  H    0.000027  -0.000000  -0.000000   0.000001  -0.000033   0.000007
    27  H    0.002720   0.000001  -0.000001  -0.000105   0.000410   0.003396
    28  H    0.003038  -0.000002  -0.000004  -0.000010   0.000015  -0.000009
    29  H   -0.000143  -0.000000  -0.000000   0.000000  -0.000000   0.000003
    30  H   -0.018618  -0.000127   0.004200  -0.000081  -0.000110  -0.000067
    31  H    0.310269  -0.000092   0.000116   0.000153  -0.000117   0.005520
              19         20         21         22         23         24
     1  C    0.006886  -0.000198  -0.000156  -0.000000  -0.000182  -0.000000
     2  C   -0.019269  -0.001402   0.002953   0.000140  -0.001478  -0.000100
     3  C    0.368789  -0.000816   0.000010   0.000241  -0.004581   0.000393
     4  O   -0.001079  -0.033396  -0.020405   0.002618  -0.001577  -0.000013
     5  C   -0.000946   0.363293   0.365954  -0.022735  -0.027122  -0.005087
     6  C   -0.003988  -0.059409  -0.031039   0.348286   0.366431  -0.034214
     7  C   -0.003376  -0.007739   0.004459  -0.028378  -0.035814   0.369555
     8  C   -0.006814  -0.002083   0.000223   0.004161  -0.003275  -0.038065
     9  C    0.000813  -0.002705  -0.000121   0.000099  -0.000290  -0.005724
    10  C   -0.000027   0.000296  -0.000011   0.000003   0.000002   0.000099
    11  O   -0.000000  -0.000042   0.000000  -0.000000   0.000000  -0.000004
    12  C   -0.003173   0.002478  -0.000074   0.000016   0.000674   0.000109
    13  O    0.000274  -0.000071   0.000001   0.000000  -0.000006  -0.000002
    14  H    0.000101   0.000019  -0.000015   0.000000   0.000016   0.000000
    15  H   -0.000317  -0.000007   0.000003  -0.000000   0.000001  -0.000000
    16  H    0.000248   0.000004   0.000002  -0.000000   0.000011   0.000000
    17  H   -0.041669   0.000068  -0.000080  -0.000004   0.005522   0.000001
    18  H   -0.038619   0.000025   0.000009  -0.000026   0.000515  -0.000002
    19  H    0.617847  -0.000176   0.000018   0.000837  -0.006904  -0.000662
    20  H   -0.000176   0.674540  -0.049587   0.002942   0.006273   0.003301
    21  H    0.000018  -0.049587   0.631984  -0.009357  -0.000477  -0.000070
    22  H    0.000837   0.002942  -0.009357   0.647850  -0.036820  -0.006172
    23  H   -0.006904   0.006273  -0.000477  -0.036820   0.613165   0.005416
    24  H   -0.000662   0.003301  -0.000070  -0.006172   0.005416   0.633198
    25  H    0.001404   0.000072  -0.000211  -0.001489  -0.003850  -0.033783
    26  H    0.001016  -0.000120   0.000005  -0.000109  -0.000097  -0.005277
    27  H   -0.007345   0.000053   0.000003  -0.000078   0.000680   0.005650
    28  H   -0.000111   0.004965   0.000101  -0.000098   0.000058   0.005191
    29  H    0.000005  -0.000017   0.000000  -0.000000  -0.000000   0.000036
    30  H   -0.000148  -0.000218  -0.000041  -0.000001  -0.000008   0.000003
    31  H   -0.000470   0.000003  -0.000000  -0.000000   0.000003   0.000003
              25         26         27         28         29         30
     1  C    0.000000  -0.000001  -0.000036  -0.000126   0.000003  -0.007340
     2  C   -0.000081   0.000386  -0.004350  -0.000007   0.000065  -0.024278
     3  C    0.000111   0.000216  -0.000371  -0.000052  -0.000038   0.006007
     4  O   -0.000070   0.000001   0.000204  -0.000036   0.000001   0.001181
     5  C    0.003994  -0.000001  -0.000162  -0.002371  -0.000004   0.000193
     6  C   -0.032677   0.003906  -0.003543  -0.002098  -0.000005   0.000214
     7  C    0.361416  -0.030491  -0.028507  -0.005552  -0.000178  -0.000109
     8  C   -0.032243   0.362927   0.352990  -0.054429   0.002657   0.006217
     9  C    0.002873  -0.043029  -0.029708   0.318330  -0.128049  -0.045995
    10  C   -0.000048  -0.008646  -0.000466  -0.003297   0.358492  -0.002345
    11  O    0.000000   0.000151  -0.000082  -0.001844  -0.051323   0.005512
    12  C   -0.000052   0.003115  -0.008389  -0.019761   0.002725   0.335837
    13  O    0.000001   0.000027   0.002720   0.003038  -0.000143  -0.018618
    14  H   -0.000000  -0.000000   0.000001  -0.000002  -0.000000  -0.000127
    15  H    0.000000  -0.000000  -0.000001  -0.000004  -0.000000   0.004200
    16  H    0.000000   0.000001  -0.000105  -0.000010   0.000000  -0.000081
    17  H   -0.000028  -0.000033   0.000410   0.000015  -0.000000  -0.000110
    18  H   -0.000056   0.000007   0.003396  -0.000009   0.000003  -0.000067
    19  H    0.001404   0.001016  -0.007345  -0.000111   0.000005  -0.000148
    20  H    0.000072  -0.000120   0.000053   0.004965  -0.000017  -0.000218
    21  H   -0.000211   0.000005   0.000003   0.000101   0.000000  -0.000041
    22  H   -0.001489  -0.000109  -0.000078  -0.000098  -0.000000  -0.000001
    23  H   -0.003850  -0.000097   0.000680   0.000058  -0.000000  -0.000008
    24  H   -0.033783  -0.005277   0.005650   0.005191   0.000036   0.000003
    25  H    0.638508  -0.002532  -0.002853   0.000125   0.000008   0.000006
    26  H   -0.002532   0.651049  -0.043371   0.001409   0.012456  -0.000161
    27  H   -0.002853  -0.043371   0.649757   0.006825   0.001681   0.000153
    28  H    0.000125   0.001409   0.006825   0.635447   0.007213  -0.003956
    29  H    0.000008   0.012456   0.001681   0.007213   0.710194   0.000259
    30  H    0.000006  -0.000161   0.000153  -0.003956   0.000259   0.616875
    31  H    0.000002  -0.000281   0.004341  -0.000072  -0.000106   0.006393
              31
     1  C   -0.000656
     2  C   -0.003378
     3  C    0.004321
     4  O    0.000038
     5  C    0.000000
     6  C    0.000004
     7  C    0.000058
     8  C    0.002206
     9  C   -0.000858
    10  C   -0.000918
    11  O    0.000095
    12  C   -0.068822
    13  O    0.310269
    14  H   -0.000092
    15  H    0.000116
    16  H    0.000153
    17  H   -0.000117
    18  H    0.005520
    19  H   -0.000470
    20  H    0.000003
    21  H   -0.000000
    22  H   -0.000000
    23  H    0.000003
    24  H    0.000003
    25  H    0.000002
    26  H   -0.000281
    27  H    0.004341
    28  H   -0.000072
    29  H   -0.000106
    30  H    0.006393
    31  H    0.457697
 Mulliken charges:
               1
     1  C   -0.383699
     2  C    0.319985
     3  C   -0.434502
     4  O   -0.315006
     5  C   -0.061154
     6  C   -0.228541
     7  C   -0.199770
     8  C   -0.248085
     9  C   -0.077370
    10  C    0.157064
    11  O   -0.296836
    12  C    0.059109
    13  O   -0.429334
    14  H    0.116551
    15  H    0.112045
    16  H    0.122139
    17  H    0.122112
    18  H    0.095134
    19  H    0.136858
    20  H    0.099655
    21  H    0.105921
    22  H    0.098072
    23  H    0.123715
    24  H    0.106221
    25  H    0.101454
    26  H    0.097476
    27  H    0.100502
    28  H    0.111118
    29  H    0.084064
    30  H    0.120554
    31  H    0.284547
 Sum of Mulliken charges =  -0.00000
 Mulliken charges with hydrogens summed into heavy atoms:
               1
     1  C   -0.032964
     2  C    0.319985
     3  C   -0.080398
     4  O   -0.315006
     5  C    0.144421
     6  C   -0.006753
     7  C    0.007905
     8  C   -0.050107
     9  C    0.033748
    10  C    0.241128
    11  O   -0.296836
    12  C    0.179663
    13  O   -0.144787
 Electronic spatial extent (au):  <R**2>=           2366.9018
 Charge=              0.0000 electrons
 Dipole moment (field-independent basis, Debye):
    X=             -2.6236    Y=             -2.4133    Z=              2.7623  Tot=              4.5097
 Quadrupole moment (field-independent basis, Debye-Ang):
   XX=            -92.3268   YY=            -78.9812   ZZ=            -77.8973
   XY=             -1.6478   XZ=              4.5455   YZ=              2.4463
 Traceless Quadrupole moment (field-independent basis, Debye-Ang):
   XX=             -9.2584   YY=              4.0873   ZZ=              5.1711
   XY=             -1.6478   XZ=              4.5455   YZ=              2.4463
 Octapole moment (field-independent basis, Debye-Ang**2):
  XXX=            -39.7750  YYY=             -0.3047  ZZZ=              1.2348  XYY=             -2.8541
  XXY=            -10.4271  XXZ=             22.4912  XZZ=              3.8072  YZZ=              4.2831
  YYZ=             -3.4568  XYZ=             -4.0507
 Hexadecapole moment (field-independent basis, Debye-Ang**3):
 XXXX=          -1626.9296 YYYY=          -1143.0058 ZZZZ=           -451.8439 XXXY=             -0.7561
 XXXZ=             68.9789 YYYX=             -2.5817 YYYZ=              5.0632 ZZZX=             13.5185
 ZZZY=             16.9832 XXYY=           -425.9928 XXZZ=           -334.5206 YYZZ=           -250.5282
 XXYZ=              6.2156 YYXZ=              0.4219 ZZXY=             14.7420
 N-N= 9.175043760840D+02 E-N=-3.274280457682D+03  KE= 6.128487702590D+02
 PrsmSu:  requested number of processors reduced to:  13 ShMem   1 Linda.
 Calling FoFJK, ICntrl=      2127 FMM=F ISym2X=0 I1Cent= 0 IOpClX= 0 NMat=1 NMatS=1 NMatT=0.
 ***** Axes restored to original set *****
 -------------------------------------------------------------------
 Center     Atomic                   Forces (Hartrees/Bohr)
 Number     Number              X              Y              Z
 -------------------------------------------------------------------
      1        6          -0.004341813   -0.004262859   -0.009506919
      2        6          -0.013794175   -0.001849127    0.005568020
      3        6           0.015806316   -0.000854719    0.015714731
      4        8          -0.001731832    0.006145075   -0.001801806
      5        6          -0.007735913   -0.011422335    0.000160765
      6        6           0.007999202    0.004137872    0.005532190
      7        6          -0.001364001    0.000458667    0.009857127
      8        6           0.003245592   -0.003282031    0.006358080
      9        6           0.008868921    0.000636575    0.007318336
     10        6          -0.011896828    0.017735648   -0.060712802
     11        8           0.003773146   -0.014710032    0.048429080
     12        6          -0.003127318    0.000416312    0.003723788
     13        8           0.001332720   -0.001781571    0.001923962
     14        1           0.004547780    0.000658032   -0.002984789
     15        1           0.001673661    0.001067419   -0.003764005
     16        1           0.004392236   -0.002880901   -0.005941063
     17        1          -0.009944104    0.003081848   -0.005007089
     18        1          -0.009006727   -0.000946341   -0.001431057
     19        1           0.003413715    0.001892172    0.001633587
     20        1           0.001197902    0.005457160   -0.000267807
     21        1          -0.009282098    0.000076866    0.000587821
     22        1           0.005397629    0.003616931   -0.006354565
     23        1           0.001423279    0.004183354   -0.003708019
     24        1           0.001138173    0.000541303    0.000279126
     25        1           0.002102281    0.000174078   -0.000481504
     26        1           0.006836440   -0.001777009   -0.007062579
     27        1           0.001303849   -0.005924819   -0.000752788
     28        1          -0.002303179   -0.003141222   -0.002523496
     29        1           0.001898104    0.003954661    0.004771260
     30        1          -0.002970794    0.000858449    0.006254287
     31        1           0.001147838   -0.002259455   -0.005811875
 -------------------------------------------------------------------
 Cartesian Forces:  Max     0.060712802 RMS     0.009900531

 GradGradGradGradGradGradGradGradGradGradGradGradGradGradGradGradGradGrad
 Berny optimization.
 FormGI is forming the generalized inverse of G from B-inverse, IUseBI=4.
 Internal  Forces:  Max     0.050721359 RMS     0.006994711
 Search for a local minimum.
 Step number   1 out of a maximum of  186
 All quantities printed in internal units (Hartrees-Bohrs-Radians)
 Mixed Optimization -- RFO/linear search
 Second derivative matrix not updated -- first step.
 ITU=  0
     Eigenvalues ---    0.00230   0.00230   0.00235   0.00394   0.00585
     Eigenvalues ---    0.00586   0.00632   0.01043   0.01207   0.01277
     Eigenvalues ---    0.02287   0.02694   0.03142   0.03397   0.03825
     Eigenvalues ---    0.04219   0.04393   0.04482   0.04591   0.04920
     Eigenvalues ---    0.04950   0.05047   0.05067   0.05135   0.05518
     Eigenvalues ---    0.05619   0.05820   0.06267   0.06887   0.07187
     Eigenvalues ---    0.07878   0.08176   0.08801   0.08903   0.09671
     Eigenvalues ---    0.10129   0.10918   0.12013   0.13088   0.13357
     Eigenvalues ---    0.14682   0.15991   0.16000   0.16000   0.16000
     Eigenvalues ---    0.16000   0.16000   0.16000   0.16000   0.16000
     Eigenvalues ---    0.16975   0.17721   0.18426   0.19268   0.20561
     Eigenvalues ---    0.22001   0.25209   0.26352   0.26432   0.27438
     Eigenvalues ---    0.27454   0.28297   0.28378   0.29760   0.30984
     Eigenvalues ---    0.33435   0.33720   0.33739   0.33814   0.33873
     Eigenvalues ---    0.33884   0.33970   0.33981   0.34113   0.34203
     Eigenvalues ---    0.34218   0.34358   0.34659   0.34681   0.34724
     Eigenvalues ---    0.34810   0.37078   0.38521   0.39789   0.40044
     Eigenvalues ---    0.53617   0.87669
 RFO step:  Lambda=-4.72098873D-02 EMin= 2.30000000D-03
 Linear search not attempted -- first point.
 Maximum step size (   0.300) exceeded in Quadratic search.
    -- Step size scaled by   0.936
 Iteration  1 RMS(Cart)=  0.19203523 RMS(Int)=  0.00919761
 Iteration  2 RMS(Cart)=  0.01774525 RMS(Int)=  0.00092387
 Iteration  3 RMS(Cart)=  0.00018708 RMS(Int)=  0.00092090
 Iteration  4 RMS(Cart)=  0.00000019 RMS(Int)=  0.00092090
 Variable       Old X    -DE/DX   Delta X   Delta X   Delta X     New X
                                 (Linear)    (Quad)   (Total)
    R1        2.93348  -0.00298   0.00000  -0.00868  -0.00868   2.92480
    R2        2.07645  -0.00355   0.00000  -0.00864  -0.00864   2.06781
    R3        2.05985   0.00314   0.00000   0.00745   0.00745   2.06730
    R4        2.07805  -0.00683   0.00000  -0.01663  -0.01663   2.06142
    R5        2.91319   0.01092   0.00000   0.03090   0.03090   2.94409
    R6        2.72204  -0.00929   0.00000  -0.01513  -0.01546   2.70658
    R7        2.97450  -0.00455   0.00000  -0.00517  -0.00439   2.97010
    R8        2.06729  -0.00042   0.00000  -0.00100  -0.00100   2.06629
    R9        2.06125   0.00267   0.00000   0.00633   0.00633   2.06757
   R10        2.02429   0.00379   0.00000   0.00848   0.00848   2.03277
   R11        2.70774   0.00104   0.00000   0.00316   0.00262   2.71036
   R12        2.87762   0.00977   0.00000   0.02747   0.02777   2.90539
   R13        2.06232   0.00359   0.00000   0.00855   0.00855   2.07087
   R14        2.07544  -0.00131   0.00000  -0.00317  -0.00317   2.07227
   R15        2.95022   0.00097   0.00000  -0.00471  -0.00513   2.94509
   R16        2.07527   0.00008   0.00000   0.00019   0.00019   2.07546
   R17        2.06964  -0.00455   0.00000  -0.01094  -0.01094   2.05870
   R18        2.95236  -0.00246   0.00000  -0.01549  -0.01550   2.93686
   R19        2.07139   0.00079   0.00000   0.00191   0.00191   2.07331
   R20        2.07381   0.00016   0.00000   0.00039   0.00039   2.07419
   R21        2.89844   0.00540   0.00000   0.01189   0.01146   2.90990
   R22        2.07361   0.00159   0.00000   0.00385   0.00385   2.07747
   R23        2.06990  -0.00290   0.00000  -0.00697  -0.00697   2.06293
   R24        2.86043   0.00733   0.00000   0.01922   0.01922   2.87965
   R25        2.92537   0.00962   0.00000   0.02947   0.03005   2.95542
   R26        2.06196   0.00199   0.00000   0.00473   0.00473   2.06668
   R27        2.34026  -0.05072   0.00000  -0.05140  -0.05140   2.28886
   R28        2.07773   0.00647   0.00000   0.01576   0.01576   2.09349
   R29        2.71493  -0.00558   0.00000  -0.01167  -0.01167   2.70326
   R30        2.08294  -0.00589   0.00000  -0.01444  -0.01444   2.06850
   R31        1.83082  -0.00600   0.00000  -0.00963  -0.00963   1.82119
    A1        1.92031  -0.00294   0.00000  -0.01073  -0.01083   1.90948
    A2        1.99224  -0.00372   0.00000  -0.02128  -0.02144   1.97080
    A3        1.92135  -0.00007   0.00000   0.00144   0.00139   1.92274
    A4        1.87555   0.00266   0.00000   0.00856   0.00835   1.88389
    A5        1.85604   0.00397   0.00000   0.02720   0.02722   1.88326
    A6        1.89288   0.00073   0.00000  -0.00147  -0.00158   1.89130
    A7        1.72155   0.00744   0.00000   0.05446   0.05516   1.77671
    A8        1.87898  -0.00482   0.00000  -0.05760  -0.05942   1.81956
    A9        1.90592  -0.00246   0.00000  -0.03402  -0.03632   1.86961
   A10        1.95527   0.00312   0.00000   0.03362   0.03488   1.99015
   A11        2.02317   0.00051   0.00000   0.02590   0.02676   2.04992
   A12        1.95859  -0.00330   0.00000  -0.02421  -0.02753   1.93106
   A13        1.94080  -0.00776   0.00000  -0.04216  -0.04334   1.89746
   A14        1.96608  -0.00416   0.00000  -0.02712  -0.02838   1.93769
   A15        2.01771   0.00479   0.00000   0.03713   0.03740   2.05511
   A16        1.93402  -0.00018   0.00000  -0.02820  -0.03092   1.90311
   A17        1.78383   0.00599   0.00000   0.04329   0.04367   1.82751
   A18        1.80989   0.00289   0.00000   0.02591   0.02604   1.83593
   A19        2.11116   0.00329   0.00000   0.06251   0.05970   2.17086
   A20        2.00224   0.02695   0.00000   0.11202   0.11255   2.11479
   A21        1.95254  -0.01029   0.00000  -0.04651  -0.04660   1.90593
   A22        1.85304  -0.01271   0.00000  -0.05596  -0.05711   1.79593
   A23        1.95726  -0.01344   0.00000  -0.04810  -0.04679   1.91047
   A24        1.88537   0.00247   0.00000   0.01035   0.00997   1.89534
   A25        1.79689   0.00513   0.00000   0.01960   0.01892   1.81581
   A26        1.99295   0.00881   0.00000   0.03718   0.03656   2.02951
   A27        1.91742  -0.00373   0.00000  -0.02618  -0.02633   1.89109
   A28        1.90809  -0.00294   0.00000  -0.00635  -0.00539   1.90269
   A29        1.86952  -0.00311   0.00000  -0.02030  -0.01917   1.85035
   A30        2.00272  -0.00449   0.00000  -0.01835  -0.01885   1.98388
   A31        1.75678   0.00470   0.00000   0.03077   0.03052   1.78730
   A32        2.16084  -0.00906   0.00000  -0.02729  -0.02911   2.13172
   A33        1.84542   0.00320   0.00000   0.00511   0.00502   1.85044
   A34        1.87278   0.00305   0.00000   0.01581   0.01697   1.88975
   A35        1.84137   0.00149   0.00000   0.00215   0.00317   1.84454
   A36        1.87079   0.00373   0.00000   0.01217   0.01232   1.88311
   A37        1.85214  -0.00192   0.00000  -0.00705  -0.00734   1.84479
   A38        1.98885  -0.00233   0.00000  -0.00663  -0.00702   1.98184
   A39        1.85673   0.00150   0.00000  -0.00620  -0.00646   1.85027
   A40        2.00943  -0.00348   0.00000  -0.01789  -0.01764   1.99178
   A41        1.93938  -0.00302   0.00000  -0.02091  -0.02048   1.91890
   A42        1.91553   0.00456   0.00000   0.01959   0.01921   1.93474
   A43        1.73633   0.00320   0.00000   0.03489   0.03499   1.77132
   A44        1.91329   0.00271   0.00000   0.02246   0.02326   1.93656
   A45        1.99967   0.01947   0.00000   0.09209   0.09224   2.09191
   A46        1.88979  -0.00853   0.00000  -0.03364  -0.03236   1.85744
   A47        1.93341  -0.01427   0.00000  -0.05423  -0.05671   1.87670
   A48        1.78808   0.00553   0.00000   0.00981   0.00822   1.79630
   A49        1.92734  -0.00651   0.00000  -0.04588  -0.04575   1.88159
   A50        2.15102   0.00058   0.00000   0.00197   0.00191   2.15293
   A51        2.03803  -0.00064   0.00000  -0.00272  -0.00278   2.03525
   A52        2.09397   0.00004   0.00000   0.00039   0.00032   2.09429
   A53        2.03745   0.01032   0.00000   0.08439   0.08405   2.12150
   A54        1.92147  -0.00571   0.00000  -0.00841  -0.01224   1.90923
   A55        1.88568  -0.00232   0.00000  -0.04015  -0.03865   1.84703
   A56        1.90110   0.00450   0.00000   0.02224   0.01997   1.92106
   A57        1.86499  -0.00880   0.00000  -0.06030  -0.05889   1.80610
   A58        1.84250   0.00102   0.00000  -0.00896  -0.00911   1.83339
   A59        1.90750  -0.00377   0.00000  -0.01703  -0.01703   1.89046
    D1       -1.03771  -0.00201   0.00000  -0.01219  -0.01186  -1.04957
    D2        0.99591   0.00306   0.00000   0.02936   0.02850   1.02442
    D3        3.12658  -0.00535   0.00000  -0.05540  -0.05470   3.07189
    D4        3.13555  -0.00071   0.00000  -0.00060  -0.00036   3.13519
    D5       -1.11401   0.00436   0.00000   0.04095   0.04001  -1.07400
    D6        1.01666  -0.00405   0.00000  -0.04381  -0.04319   0.97347
    D7        1.00227   0.00105   0.00000   0.01545   0.01569   1.01796
    D8        3.03590   0.00611   0.00000   0.05700   0.05605   3.09195
    D9       -1.11661  -0.00230   0.00000  -0.02776  -0.02715  -1.14376
   D10        1.08915  -0.00583   0.00000  -0.05821  -0.05733   1.03182
   D11       -1.09396   0.00367   0.00000   0.03301   0.03230  -1.06166
   D12        3.11261  -0.00051   0.00000  -0.00800  -0.00801   3.10460
   D13       -0.88492  -0.00520   0.00000  -0.03194  -0.03145  -0.91637
   D14       -3.06802   0.00430   0.00000   0.05928   0.05818  -3.00984
   D15        1.13854   0.00012   0.00000   0.01827   0.01787   1.15641
   D16        3.11965  -0.00395   0.00000  -0.05428  -0.05317   3.06648
   D17        0.93655   0.00555   0.00000   0.03695   0.03646   0.97301
   D18       -1.14007   0.00137   0.00000  -0.00407  -0.00385  -1.14393
   D19       -3.08828  -0.01871   0.00000  -0.20757  -0.20623   2.98867
   D20       -1.21404  -0.01106   0.00000  -0.15838  -0.15828  -1.37232
   D21        1.09720  -0.01049   0.00000  -0.11288  -0.11306   0.98414
   D22        3.03071   0.01867   0.00000   0.22148   0.22161  -3.03086
   D23        0.85224   0.00923   0.00000   0.13105   0.13083   0.98307
   D24       -1.15165   0.01232   0.00000   0.16837   0.16783  -0.98382
   D25        1.10654   0.01075   0.00000   0.16165   0.16225   1.26879
   D26       -1.07193   0.00131   0.00000   0.07123   0.07147  -1.00046
   D27       -3.07582   0.00439   0.00000   0.10855   0.10847  -2.96735
   D28       -1.17049   0.00894   0.00000   0.11171   0.11250  -1.05799
   D29        2.93423  -0.00050   0.00000   0.02128   0.02172   2.95594
   D30        0.93034   0.00259   0.00000   0.05860   0.05872   0.98906
   D31        0.88786  -0.00989   0.00000  -0.03592  -0.03422   0.85364
   D32       -1.36698  -0.00544   0.00000  -0.02495  -0.02274  -1.38971
   D33        2.96863   0.00032   0.00000   0.00448   0.00364   2.97228
   D34       -1.69750   0.00338   0.00000   0.02003   0.02176  -1.67574
   D35        2.48520   0.00412   0.00000   0.04005   0.04160   2.52680
   D36        0.57278   0.00195   0.00000   0.02022   0.02168   0.59446
   D37        0.55499   0.00055   0.00000   0.01012   0.01062   0.56561
   D38       -1.54549   0.00129   0.00000   0.03014   0.03045  -1.51504
   D39        2.82527  -0.00088   0.00000   0.01031   0.01054   2.83581
   D40        2.52307   0.00110   0.00000   0.01443   0.01432   2.53739
   D41        0.42259   0.00184   0.00000   0.03445   0.03415   0.45675
   D42       -1.48983  -0.00033   0.00000   0.01462   0.01424  -1.47559
   D43        0.90206  -0.00098   0.00000   0.00409   0.00504   0.90710
   D44       -1.21894   0.00056   0.00000   0.01638   0.01706  -1.20187
   D45        3.09294  -0.00007   0.00000   0.01512   0.01553   3.10847
   D46        3.02909  -0.00230   0.00000  -0.01993  -0.01938   3.00971
   D47        0.90809  -0.00076   0.00000  -0.00763  -0.00736   0.90073
   D48       -1.06322  -0.00139   0.00000  -0.00889  -0.00889  -1.07211
   D49       -1.32039  -0.00077   0.00000  -0.00429  -0.00345  -1.32385
   D50        2.84179   0.00077   0.00000   0.00800   0.00857   2.85037
   D51        0.87048   0.00014   0.00000   0.00674   0.00704   0.87752
   D52       -0.98229  -0.00158   0.00000   0.00008   0.00096  -0.98133
   D53       -3.12535   0.00265   0.00000   0.03521   0.03546  -3.08989
   D54        1.25325  -0.00044   0.00000   0.00547   0.00575   1.25900
   D55        1.14055  -0.00232   0.00000  -0.01079  -0.01011   1.13044
   D56       -1.00251   0.00192   0.00000   0.02434   0.02439  -0.97812
   D57       -2.90709  -0.00117   0.00000  -0.00540  -0.00532  -2.91241
   D58        3.10915  -0.00221   0.00000  -0.01256  -0.01163   3.09752
   D59        0.96609   0.00202   0.00000   0.02257   0.02287   0.98896
   D60       -0.93849  -0.00107   0.00000  -0.00717  -0.00684  -0.94533
   D61       -2.40652  -0.00357   0.00000  -0.00663  -0.00568  -2.41220
   D62        1.69066  -0.00150   0.00000  -0.02236  -0.02364   1.66702
   D63       -0.46876  -0.00011   0.00000  -0.00126  -0.00169  -0.47045
   D64       -0.30931  -0.00549   0.00000  -0.03481  -0.03340  -0.34271
   D65       -2.49531  -0.00342   0.00000  -0.05054  -0.05136  -2.54667
   D66        1.62846  -0.00204   0.00000  -0.02944  -0.02941   1.59905
   D67        1.59395  -0.00082   0.00000   0.00636   0.00774   1.60169
   D68       -0.59206   0.00125   0.00000  -0.00937  -0.01021  -0.60228
   D69       -2.75147   0.00264   0.00000   0.01173   0.01173  -2.73974
   D70        2.91245  -0.00874   0.00000  -0.06112  -0.06026   2.85219
   D71       -0.20933  -0.00755   0.00000  -0.04006  -0.03920  -0.24853
   D72       -1.14707   0.00807   0.00000   0.03537   0.03466  -1.11240
   D73        2.01433   0.00926   0.00000   0.05644   0.05573   2.07006
   D74        0.90856  -0.00288   0.00000  -0.03688  -0.03703   0.87153
   D75       -2.21322  -0.00169   0.00000  -0.01581  -0.01596  -2.22919
   D76       -0.74730   0.00254   0.00000   0.00407   0.00294  -0.74436
   D77        1.44143   0.00667   0.00000   0.07748   0.07838   1.51981
   D78       -2.85909   0.00555   0.00000   0.04722   0.04744  -2.81165
   D79       -2.92272  -0.00458   0.00000  -0.05339  -0.05327  -2.97598
   D80       -0.73398  -0.00045   0.00000   0.02003   0.02217  -0.71181
   D81        1.24868  -0.00156   0.00000  -0.01023  -0.00877   1.23991
   D82        1.39191   0.00047   0.00000  -0.00863  -0.01065   1.38126
   D83       -2.70254   0.00460   0.00000   0.06479   0.06479  -2.63775
   D84       -0.71987   0.00349   0.00000   0.03453   0.03385  -0.68603
   D85        1.03796   0.00594   0.00000   0.06030   0.05963   1.09759
   D86       -1.21677  -0.00660   0.00000  -0.05964  -0.05910  -1.27587
   D87        3.06908   0.00096   0.00000   0.00416   0.00429   3.07337
         Item               Value     Threshold  Converged?
 Maximum Force            0.050721     0.000450     NO 
 RMS     Force            0.006995     0.000300     NO 
 Maximum Displacement     0.763534     0.001800     NO 
 RMS     Displacement     0.199385     0.001200     NO 
 Predicted change in Energy=-3.278922D-02
[...]
 59,-0.00000186,0.00000112,-0.00001233,0.00000357,-0.00000836,0.0000174
 1,0.00000216,-0.00000910,0.00000896,-0.00003135,-0.00002746,0.00015696
 ,0.00057445,-0.00027012,-0.00003708,0.00001556,0.00013138,-0.00065872,
 0.00013006,-0.00028593,-0.00033621,0.00072578,-0.01168034,-0.00028414,
 -0.02111448,0.12179553,0.00177532,0.25694049,0.00007022,-0.00007267,-0
 .00006663,0.00023357,0.00059373,0.00033395,0.00028020,-0.00032476,0.00
 049795,0.00041010,-0.00038303,-0.00001218,-0.00049963,0.00027357,-0.00
 020529,-0.00116796,0.00228282,-0.00027948,0.01048812,0.01375742,0.0007
 5113,-0.17128841,-0.12541289,-0.01088478,-0.01122444,-0.00741506,-0.00
 326244,0.00035163,-0.00415992,-0.00055562,-0.00018830,0.00117553,0.000
 48234,0.00024407,0.00004644,-0.00341832,0.00009380,0.00017134,-0.00002
 851,-0.00003224,-0.00003064,0.00003903,-0.00001653,0.00002150,-0.00002
 059,0.00004248,-0.00000175,0.00000582,-0.00025611,-0.00006362,-0.00008
 529,-0.00007028,-0.00001825,-0.00003511,-0.00036225,0.00001152,-0.0003
 9318,0.00002652,-0.00003992,0.00007319,0.00007254,-0.00005529,0.000106
 46,0.00026219,0.00075615,-0.00007625,0.00000355,0.00018879,-0.00011201
 ,0.00097944,-0.00048805,-0.00001464,0.00081767,-0.00054466,0.00025499,
 0.18801800,-0.00001094,0.00008633,-0.00000939,0.00022045,-0.00043339,-
 0.00004054,0.00003261,0.00021672,-0.00001221,-0.00049081,0.00036043,-0
 .00008528,0.00064257,0.00010037,0.00047864,0.00551777,-0.00285503,0.00
 070862,-0.02114193,-0.02560627,-0.00093586,-0.12514752,-0.16792491,-0.
 01236599,0.00360504,0.00399283,-0.00185298,0.00152558,-0.00110023,0.00
 510130,-0.00004898,0.00054155,-0.00207141,0.00065484,-0.00035230,0.001
 11764,-0.00009134,0.00007954,0.00016511,0.00002472,0.00000777,-0.00000
 709,0.00000518,-0.00001315,-0.00000399,-0.00004049,0.00000889,-0.00000
 068,0.00007925,0.00003244,0.00000531,-0.00005511,0.00000507,0.00000281
 ,0.00005821,-0.00009963,-0.00001018,-0.00003550,0.00003192,-0.00015010
 ,-0.00013904,0.00003770,-0.00012852,-0.00094012,-0.00176782,-0.0000177
 0,0.00004614,0.00016300,0.00010837,-0.00017561,0.00123598,-0.00074221,
 -0.00017547,0.00101929,0.00059368,0.13333662,0.18870285,-0.00005663,-0
 .00016409,0.00016254,0.00013821,0.00051466,-0.00059980,-0.00018841,0.0
 0019338,-0.00052316,0.00011525,-0.00026175,0.00019891,-0.00014311,0.00
 039412,-0.00020463,-0.00048658,0.00043025,0.00078406,0.00203492,0.0018
 0503,-0.00030259,-0.01088366,-0.01305448,-0.04838380,-0.02328032,-0.01
 728711,-0.00413358,-0.00195837,-0.00196685,-0.00030940,-0.00000225,0.0
 0029061,0.00037241,0.00073231,-0.00037863,-0.00557765,-0.00013288,0.00
 044992,0.00080007,-0.00010158,-0.00005793,0.00000038,0.00004523,0.0000
 2452,0.00007963,0.00003913,0.00001398,-0.00000770,0.00024272,0.0000426
 8,0.00017125,0.00011105,0.00001976,0.00002907,0.00025038,-0.00004405,0
 .00049045,-0.00001281,0.00001626,0.00008104,0.00005000,-0.00003576,0.0
 0010069,0.00001405,0.00020304,0.00020242,-0.00010622,-0.00033749,0.000
 04744,-0.00043645,-0.00033625,0.00019337,0.00044940,0.00027532,0.00008
 950,0.01703233,0.01032347,0.05588059,0.00004485,0.00002755,-0.00001964
 ,-0.00004919,0.00004150,0.00015410,-0.00095659,-0.00121815,0.00070220,
 0.00021888,-0.00007700,0.00002982,-0.00014097,0.00004816,-0.00023364,0
 .00048132,-0.00064054,-0.00044680,-0.01083048,0.00219015,0.01149775,-0
 .14402268,0.02439125,0.12071532,0.01094810,-0.00274440,-0.01388001,-0.
 00026555,-0.00076564,0.00014933,0.00009967,0.00073326,-0.00069176,0.00
 005715,-0.00010049,0.00065495,-0.00006533,-0.00055897,-0.00046997,0.00
 002261,-0.00000293,0.00003127,0.00000312,-0.00000280,-0.00002714,0.000
 00586,-0.00002749,0.00000724,-0.00034261,-0.00014026,-0.00008198,-0.00
 006099,0.00001385,0.00006009,-0.00180520,-0.00152056,0.00003156,-0.000
 05513,0.00000826,-0.00003078,0.00002585,0.00000744,0.00005615,-0.00000
 230,-0.00003653,-0.00009136,0.00046022,0.00043240,-0.00007563,-0.00046
 269,0.00337811,-0.00094801,0.00004918,-0.00029867,-0.00025475,-0.01598
 727,0.00299434,0.01811503,0.16349506,-0.00008306,0.00011684,0.00017375
 ,0.00050255,-0.00039597,-0.00060303,-0.00123833,0.00001801,-0.00034768
 ,-0.00044362,0.00021406,0.00012690,0.00034655,-0.00023884,-0.00014907,
 -0.00012954,0.00191332,-0.00057062,0.02076907,-0.00435271,-0.02369420,
 0.02297431,-0.05187098,-0.02681561,-0.00210409,-0.00010757,0.00139236,
 0.00031464,0.00020991,-0.00012960,-0.00024406,-0.00011885,-0.00002645,
 0.00056837,0.00108506,-0.00041181,-0.00055261,-0.00009358,0.00034528,0
 .00000621,-0.00001969,0.00000515,0.00007224,-0.00000948,0.00007678,0.0
 0000335,0.00001827,-0.00001210,0.00029615,0.00002319,0.00014965,0.0001
 7505,0.00004671,0.00005219,-0.00136804,-0.00097833,0.00072011,-0.00007
 179,-0.00001738,0.00022160,-0.00007887,-0.00001407,-0.00001953,-0.0001
 2384,0.00030072,0.00030545,-0.00039980,-0.00040788,0.00031991,0.003322
 18,-0.00531366,0.00053069,-0.00069198,0.00111649,0.00033509,-0.0149713
 0,0.00317555,0.01774559,-0.02736726,0.05558241,-0.00014448,-0.00013118
 ,0.00020732,-0.00042003,-0.00025583,-0.00086422,0.00004772,0.00088485,
 -0.00088809,-0.00042337,0.00032209,0.00037103,0.00047978,-0.00006856,-
 0.00018231,0.00003734,-0.00021250,0.00005604,-0.00239229,0.00058709,0.
 00260862,0.12047625,-0.02953956,-0.19520042,0.01476597,-0.00492937,-0.
 02203406,-0.00097307,-0.00253550,-0.00146349,0.00030884,0.00166300,-0.
 00064533,0.00315525,-0.00182725,0.00034506,-0.00010488,0.00113512,0.00
 198130,-0.00007915,-0.00000912,-0.00004833,0.00006076,0.00001276,0.000
 10324,-0.00006189,0.00002328,-0.00001502,0.00050630,0.00017121,0.00028
 379,0.00005943,-0.00003740,0.00006970,0.00136033,0.00032428,0.00108554
 ,-0.00012764,0.00012527,0.00013543,-0.00009530,-0.00002332,0.00005300,
 -0.00013273,-0.00012520,0.00002966,-0.00005959,-0.00034720,-0.00002059
 ,-0.00057700,0.00091689,0.00120544,0.00016753,-0.00050421,0.00072378,-
 0.00026006,0.00055098,0.00095842,-0.13199987,0.03068436,0.21453904,0.0
 0003203,0.00027635,-0.00015834,0.00019459,0.00018518,0.00065871,-0.000
 02876,0.00001720,0.00003087,-0.00008948,-0.00066701,-0.00069389,0.0001
 8609,-0.00018022,0.00070520,0.00004489,0.00015291,0.00019971,0.0017189
 4,-0.00025316,-0.00088470,0.00511639,-0.00813027,-0.01035270,-0.079989
 34,0.06288725,0.06419877,0.00235814,-0.00816242,-0.00284478,-0.0002079
 4,0.00098101,-0.00151676,-0.01003654,0.02249709,0.02077731,-0.00990637
 ,0.00124478,0.00189542,0.00010227,-0.00002621,0.00003094,-0.00007041,-
 0.00002691,-0.00005069,0.00015413,0.00003181,0.00000674,0.00002203,-0.
 00005751,0.00001200,0.00012821,0.00000413,-0.00013176,-0.00006131,-0.0
 0000669,-0.00004460,0.00071702,0.00030294,-0.00026356,0.00019663,0.000
 15585,-0.00019978,-0.00002372,0.00003003,-0.00004858,-0.00007974,-0.00
 006572,-0.00004504,-0.00031380,-0.00017765,0.00027018,-0.00003460,-0.0
 0017118,0.00005521,-0.00062940,-0.00042579,-0.00028862,-0.00094979,0.0
 0010332,-0.00194048,0.09130187,0.00008594,0.00007953,-0.00011031,0.000
 13201,0.00047634,0.00042997,0.00005080,-0.00010081,-0.00002737,0.00112
 819,-0.00052135,-0.00028908,-0.00168479,-0.00314895,0.00122897,0.00018
 950,0.00020818,0.00004904,-0.00008877,0.00067665,0.00090312,-0.0016885
 2,0.00346711,0.00482930,0.06494778,-0.14853691,-0.11311375,0.01180259,
 -0.02718072,-0.02186060,-0.00162236,0.00591926,0.00044198,-0.00119345,
 0.00243505,0.00306469,-0.00112723,0.00144694,0.00010757,0.00003994,0.0
 0000807,0.00003014,-0.00001511,0.00000996,-0.00000492,0.00001378,-0.00
 000462,-0.00000080,-0.00003867,-0.00000857,0.00001119,0.00000777,-0.00
 000193,-0.00001384,0.00002428,0.00005406,-0.00000962,0.00011157,-0.002
 55230,0.00007634,-0.00012762,-0.00011473,0.00002316,0.00001416,0.00005
 890,-0.00005626,-0.00008278,-0.00004473,-0.00017436,-0.00020804,0.0004
 3002,-0.00005216,-0.00015515,-0.00005348,0.00006961,0.00001573,-0.0000
 6009,0.00001388,0.00049182,0.00000263,0.00187106,-0.06940344,0.1706276
 0,-0.00000689,0.00012572,0.00009870,0.00058850,-0.00074334,-0.00048006
 ,-0.00016308,0.00011544,-0.00005016,-0.00024937,0.00043509,0.00026618,
 0.00080472,-0.00058354,-0.00065366,-0.00033857,0.00047100,-0.00060259,
 0.00155276,-0.00127502,0.00078238,0.00978509,-0.01453735,-0.02054930,0
 .06574782,-0.11208257,-0.16569067,-0.00475205,0.00708604,0.00613123,0.
 00048737,0.00021120,0.00058033,0.00013238,-0.00139822,-0.00223388,-0.0
 0000520,0.00041881,0.00162882,0.00001688,0.00000219,-0.00001207,0.0000
 3307,-0.00001559,0.00002121,-0.00007524,-0.00000219,-0.00001100,0.0000
 9249,0.00003522,0.00001588,-0.00002266,0.00002649,0.00005118,0.0000309
 0,-0.00011403,0.00011906,-0.00044565,-0.00001788,0.00117419,-0.0003417
 9,-0.00023852,0.00045021,0.00007501,0.00011947,0.00007640,-0.00002981,
 -0.00011658,0.00010561,-0.00096831,0.00068528,0.00037822,-0.00004376,-
 0.00023257,0.00056862,-0.00046024,-0.00030924,-0.00092275,-0.00290269,
 -0.00027720,-0.00378294,-0.06865447,0.12055825,0.18170073,0.00005012,0
 .00029532,-0.00015561,0.00073616,-0.00089457,0.00032432,-0.00000627,0.
 00005238,0.00008238,-0.00025779,0.00021435,0.00005286,0.00034631,-0.00
 014101,-0.00024138,-0.00011611,0.00017624,-0.00008457,0.00023554,0.000
 06620,0.00030362,0.00060871,0.00049467,0.00106195,0.01671809,-0.004873
 27,-0.00844152,-0.06587718,-0.03147599,-0.01721974,0.02046713,-0.00047
 858,-0.00536463,0.00046640,0.00345701,-0.00084839,-0.00133312,0.000024
 03,0.00055965,0.00008937,0.00001846,0.00005501,0.00000379,-0.00000975,
 0.00001130,-0.00002948,0.00000173,-0.00000442,0.00000046,0.00001030,-0
 .00002584,-0.00000799,0.00000221,0.00001451,-0.00001185,-0.00001931,-0
 .00002150,-0.00014355,-0.00005537,0.00017802,-0.00008400,-0.00004115,0
 .00008573,0.00001420,0.00003533,-0.00000936,0.00000313,-0.00002212,0.0
 0003596,-0.00009288,0.00005995,0.00000627,0.00004398,-0.00008682,0.000
 05596,0.00002549,-0.00006233,0.00053666,0.00008527,-0.00014989,0.00029
 541,-0.00073340,-0.00219799,0.00095336,0.02920104,-0.00005456,-0.00043
 563,0.00023475,-0.00100021,0.00087667,-0.00042065,-0.00005707,-0.00013
 372,-0.00013700,0.00006839,0.00007625,0.00021189,0.00005852,0.00015473
 ,-0.00043942,-0.00027718,0.00020279,-0.00017795,0.00071518,0.00031970,
 0.00025139,-0.00218884,0.00058926,-0.00242498,-0.00745899,-0.01681388,
 -0.01648356,-0.02901405,-0.18315696,-0.08937450,0.00025408,0.02092775,
 -0.00357440,0.00274441,-0.00460879,-0.00019550,0.00045394,0.00273012,0
 .00096317,-0.00019797,-0.00004331,-0.00006577,0.00002096,0.00001502,0.
 00000694,-0.00003290,0.00002749,0.00000791,-0.00000742,-0.00001254,0.0
 0010674,-0.00004788,0.00002709,0.00003829,0.00006408,-0.00000408,0.000
 05842,-0.00011414,-0.00008009,0.00027328,-0.00006495,-0.00011840,0.000
 14637,0.00008438,0.00008213,0.00003344,0.00001432,0.00001576,0.0000332
 1,-0.00014511,0.00008126,-0.00000200,0.00010466,-0.00014856,0.00010953
 ,0.00168848,0.00037495,0.00082637,0.00004681,-0.00008703,0.00056227,-0
 .00144639,-0.00373524,0.00108305,0.03609128,0.18326566,-0.00001298,-0.
 00017747,0.00005690,-0.00025333,0.00054989,-0.00014709,-0.00001052,-0.
 00007593,-0.00002339,0.00007560,-0.00009714,0.00006684,-0.00012234,0.0
 0004464,-0.00009852,-0.00007329,0.00016032,-0.00001060,0.00027374,0.00
 014379,0.00045208,0.00083801,0.00063717,0.00148993,-0.00152455,0.00866
 186,0.00422236,-0.02151101,-0.09647014,-0.12305037,-0.00752028,-0.0224
 3387,-0.05299588,0.00028422,-0.00130140,0.00013375,0.00068049,0.000760
 21,0.00027680,-0.00005883,-0.00002683,-0.00001731,0.00000839,0.0000228
 4,0.00001572,0.00000604,0.00000021,0.00000049,-0.00000690,-0.00001205,
 0.00003793,-0.00001461,0.00000620,0.00000016,0.00001652,0.00000131,0.0
 0001606,0.00000745,0.00001406,-0.00001972,-0.00000313,0.00001021,-0.00
 001276,0.00002891,0.00004852,-0.00001599,-0.00000864,-0.00001309,0.000
 00164,-0.00001727,0.00002316,-0.00002030,0.00008173,-0.00011477,0.0000
 3698,0.00035508,-0.00047952,0.00031474,-0.00004497,-0.00002697,0.00007
 085,0.00043994,0.00196936,-0.00033054,0.02775175,0.10819100,0.16948143
 ,-0.00017697,-0.00169096,0.00215964,0.00171200,-0.00432067,0.01144512,
 -0.00079705,-0.00204522,0.00057483,0.00020700,-0.00013684,-0.00029965,
 -0.00036511,0.00017200,-0.00023596,-0.00010164,-0.00007411,0.00014540,
 -0.00006017,-0.00043394,-0.00040048,-0.00551490,-0.00241337,0.00226422
 ,-0.01719328,0.00179039,-0.03064274,-0.00025083,0.00105149,-0.00459574
 ,0.00125591,0.00049516,0.00214582,-0.06712289,0.00846287,-0.07561014,0
 .00412616,0.00296695,0.01959995,-0.00020326,0.00014535,-0.00010916,0.0
 0007897,-0.00061051,-0.00005682,0.00009812,0.00015755,0.00024003,-0.00
 003843,-0.00005347,0.00072632,0.00008715,0.00007398,0.00001073,0.00000
 063,0.00001422,0.00004737,-0.00001424,0.00000578,-0.00003287,0.0000655
 4,0.00001195,0.00005207,0.00005017,0.00008488,-0.00000366,0.00002078,0
 .00003498,-0.00001491,-0.00004451,0.00005533,0.00000786,-0.00008804,0.
 00032017,-0.00003622,-0.00102840,0.00036091,-0.00162586,0.00049089,-0.
 00009533,0.00021267,0.00101470,0.00055075,-0.00016879,-0.00021507,0.00
 016139,0.00038363,0.08483736,0.00090588,0.00055289,0.00158380,0.003227
 74,-0.00504644,0.02864435,-0.00194579,-0.00464362,0.00011417,-0.000214
 92,0.00137972,-0.00162858,0.00009254,-0.00004867,0.00008766,-0.0000930
 2,0.00001289,0.00005691,-0.00020254,-0.00003185,-0.00018430,-0.0003399
 1,0.00089990,0.00021146,-0.00232729,0.00100377,-0.00178183,-0.00114846
 ,-0.00002990,-0.00245259,0.00060765,-0.00006046,0.00048221,0.01081793,
 -0.05116111,0.03802077,-0.00339451,-0.00423307,-0.03593322,0.00023560,
 0.00022670,-0.00025380,-0.00051317,-0.00052368,-0.00064078,-0.00022254
 ,0.00008825,-0.00017078,-0.00038787,-0.00001526,0.00173044,-0.00022672
 ,0.00005297,0.00013159,0.00019514,0.00008826,-0.00025740,0.00005913,-0
 .00002299,0.00001790,0.00000189,0.00000857,0.00000359,0.00002149,-0.00
 001496,-0.00003420,-0.00002538,0.00003715,-0.00007165,0.00002173,0.000
 02053,-0.00000946,-0.00002058,0.00005543,-0.00001852,0.00010390,-0.000
 01409,-0.00001284,0.00004920,-0.00015737,-0.00000475,0.00045016,0.0002
 5985,0.00043898,-0.00027278,0.00004487,0.00021878,-0.00761299,0.065697
 86,-0.00142820,-0.00124513,0.00074303,-0.00170217,0.00320575,-0.012826
 25,0.00041643,0.00142473,0.00100005,-0.00030807,0.00102599,0.00117482,
 0.00016817,0.00003393,-0.00017584,0.00001555,-0.00002152,-0.00002824,-
 0.00006824,-0.00006183,-0.00007421,0.00056845,0.00046415,0.00100688,-0
 .00208282,0.00017771,-0.00108686,0.00035322,0.00085878,-0.00109926,0.0
 0050072,-0.00022131,0.00128459,-0.06942023,0.02808593,-0.28017951,0.00
 024279,-0.00714775,-0.02083299,-0.00026724,-0.00023956,0.00059446,0.00
 048993,0.00021374,0.00094268,0.00024015,-0.00003663,-0.00019538,0.0001
 4467,0.00015518,-0.00047669,-0.00003718,-0.00004891,-0.00005849,0.0000
 0639,-0.00008181,0.00006364,-0.00009624,-0.00002179,0.00005705,-0.0000
 3715,-0.00000892,0.00001321,-0.00001306,0.00001063,0.00002320,0.000022
 22,-0.00002434,0.00005739,-0.00003193,0.00002698,0.00000463,-0.0000087
 2,0.00003261,-0.00000030,0.00002154,0.00016443,0.00013713,0.00012559,0
 .00002110,0.00023342,-0.00041586,0.00002727,0.00097700,0.00004575,-0.0
 0003868,-0.00003435,0.07106100,-0.02434762,0.30846184,-0.00046153,-0.0
 0045910,0.00004313,0.00067540,-0.00034782,-0.00192268,0.00229805,-0.00
 043297,-0.00005665,-0.00091355,0.00076236,0.00052067,0.00087102,-0.000
 19486,0.00011979,0.00016991,0.00020199,-0.00011612,0.00038504,0.000655
 49,-0.00069478,-0.00105277,-0.00031570,0.00166059,0.00021509,0.0003281
 8,0.00263036,0.00022657,-0.00018223,0.00134255,-0.00022082,0.00010345,
 -0.00087123,0.00213985,0.00154922,0.02175800,-0.04277184,0.02194906,-0
 .12819466,-0.00001084,-0.00008436,-0.00005117,-0.00003006,0.00005395,0
 .00015497,0.00009621,0.00007385,-0.00032708,-0.00076868,0.00050018,0.0
 0008739,-0.00146714,-0.00068108,0.00083568,-0.00010744,0.00019759,-0.0
 0046648,-0.00017058,0.00003166,0.00010387,-0.00014065,-0.00000973,-0.0
 0002655,-0.00011776,-0.00013571,-0.00000434,-0.00004918,-0.00006706,0.
 00010570,0.00018320,-0.00042612,0.00002945,0.00002812,-0.00010887,0.00
 005128,0.00033165,-0.00012325,-0.00020293,-0.00049125,0.00065943,-0.00
 214175,-0.00013331,0.00002732,-0.00067177,-0.00018651,-0.00046320,-0.0
 0004886,-0.00083060,0.00215847,0.00149452,0.04230443,-0.00040652,-0.00
 016741,0.00003774,-0.00004889,-0.00039858,-0.00356274,0.00029627,-0.00
 043035,-0.00002161,-0.00056784,0.00087581,0.00118143,0.00073060,-0.000
 25417,-0.00014146,0.00007316,0.00006758,-0.00017210,-0.00002881,0.0000
 5761,0.00011874,0.00046871,-0.00020426,-0.00061678,0.00045938,0.000616
 34,0.00026738,0.00080222,0.00093921,0.00098956,-0.00026808,-0.00032687
 ,-0.00033088,-0.00781322,-0.00187789,-0.03763313,0.03056224,-0.0327852
 3,0.04825512,-0.00005150,-0.00004476,0.00001483,0.00010879,0.00002457,
 0.00033175,-0.00005936,-0.00003664,-0.00008911,-0.00002730,0.00065536,
 0.00023940,-0.00156221,-0.00081119,0.00091775,0.00052907,-0.00066357,0
 .00067959,-0.00017161,0.00001108,0.00009294,-0.00009332,0.00004093,-0.
 00000559,-0.00011487,-0.00000088,0.00004063,0.00004164,-0.00013104,0.0
 0016113,-0.00006787,0.00003478,0.00001316,-0.00000974,-0.00004117,-0.0
 0001577,-0.00044171,0.00005371,0.00035438,0.00064758,0.00036021,0.0007
 1642,-0.00011942,-0.00009573,0.00013162,-0.00021854,-0.00043328,-0.000
 23435,0.00257130,-0.00442616,-0.00238311,-0.02522015,0.03939199,0.0000
 9459,0.00017668,-0.00022257,-0.00096030,0.00005679,0.00159280,0.000326
 66,0.00021182,0.00042263,0.00009477,0.00115208,-0.00006596,0.00023119,
 -0.00010787,0.00008710,-0.00008776,-0.00005094,0.00007831,-0.00001943,
 -0.00013330,0.00005906,0.00017875,0.00069076,0.00111565,-0.00058102,0.
 00114110,0.00062847,0.00037922,0.00009581,-0.00114034,0.00011361,-0.00
 007521,0.00059061,-0.00525192,0.00136720,-0.02383051,-0.10128498,0.006
 95820,-0.47916904,0.00007525,0.00007961,0.00009335,0.00001840,0.000077
 11,0.00004542,-0.00019234,-0.00010800,-0.00002994,-0.00011988,0.000109
 18,0.00000427,0.00047773,0.00102113,-0.00004263,-0.00034598,0.00042916
 ,-0.00023906,-0.00002834,-0.00001874,-0.00004744,-0.00004317,0.0000564
 3,-0.00002160,0.00000656,0.00002864,-0.00002549,0.00002282,0.00002617,
 -0.00003688,-0.00001233,0.00004755,-0.00002177,-0.00005300,0.00006088,
 -0.00005376,0.00021682,-0.00009745,-0.00012904,-0.00013142,-0.00012212
 ,0.00008411,-0.00074641,0.00000818,0.00019369,0.00000648,0.00019639,0.
 00010213,0.00275632,-0.00394027,0.00029335,0.10485910,-0.00933694,0.49
 968508\\0.00000175,-0.00000012,0.00000046,0.00000444,0.00000206,0.0000
 0130,-0.00000112,0.00000095,0.00000030,-0.00000675,0.00000093,0.000000
 19,-0.00000035,0.00000184,-0.00000298,-0.00000299,-0.00000175,0.000001
 44,0.00000048,-0.00000197,-0.00000202,-0.00000003,-0.00000152,0.000000
 96,0.00000109,-0.00000050,-0.00000327,0.00000143,-0.00000345,0.0000066
 8,0.00000262,-0.00000039,-0.00000607,-0.00000178,0.00000089,0.00000133
 ,0.00000405,0.00000544,0.00000116,0.00000069,0.00000205,0.00000145,-0.
 00000213,0.00000129,-0.00000044,0.00000230,0.00000324,-0.00000124,-0.0
 0000158,0.00000212,0.00000129,0.00000001,0.00000106,0.00000147,-0.0000
 0034,0.00000024,-0.00000077,-0.00000095,-0.00000099,-0.00000011,-0.000
 00330,0.00000030,0.00000074,-0.00000301,-0.00000210,0.00000012,-0.0000
 0018,0.00000064,0.00000109,-0.00000049,-0.00000265,0.00000006,-0.00000
 058,-0.00000253,-0.00000026,0.00000051,-0.00000130,-0.00000117,0.00000
 110,-0.00000090,-0.00000020,0.00000082,-0.00000212,-0.00000088,0.00000
 295,-0.00000160,-0.00000035,0.00000182,-0.00000023,-0.00000079,-0.0000
 0046,0.00000107,0.00000049\\\@


 ALL OUR THINKING ABOUT NATURE MUST NECESSARILY MOVE IN CIRCLES OR SPIRALS;
 FOR WE CAN ONLY UNDERSTAND NATURE IF WE THINK ABOUT HER, AND WE CAN ONLY
 THINK BECAUSE OUR BRAIN IS BUILT IN ACCORDANCE WITH NATURE'S LAWS.

                                             -- TIMOTHY FERRIS, "GALAXIES"
 Job cpu time:       0 days  8 hours  1 minutes 21.3 seconds.
 Elapsed time:       0 days  2 hours  0 minutes 24.3 seconds.
 File lengths (MBytes):  RWF=    463 Int=      0 D2E=      0 Chk=     18 Scr=      1
 Normal termination of Gaussian 16 at Tue May 23 12:44:11 2023.
### All Done ###
