### Starting Gaussian ###
 Entering Gaussian System, Link 0=g16
 Initial command:
 /cluster/software/gaussian/gaussian-16-A.03/avx2/g16/l1.exe "/local/scratch/yxie/Gau-16835.inp" -scrdir="/local/scratch/yxie/"
 Entering Link 1 = /cluster/software/gaussian/gaussian-16-A.03/avx2/g16/l1.exe PID=     16923.
  
 Copyright (c) 1988,1990,1992,1993,1995,1998,2003,2009,2016,
            Gaussian, Inc.  All Rights Reserved.
  
 This is part of the Gaussian(R) 16 program.  It is based on
 the Gaussian(R) 09 system (copyright 2009, Gaussian, Inc.),
 the Gaussian(R) 03 system (copyright 2003, Gaussian, Inc.),
 the Gaussian(R) 98 system (copyright 1998, Gaussian, Inc.),
 the Gaussian(R) 94 system (copyright 1995, Gaussian, Inc.),
 the Gaussian 92(TM) system (copyright 1992, Gaussian, Inc.),
 the Gaussian 90(TM) system (copyright 1990, Gaussian, Inc.),
 the Gaussian 88(TM) system (copyright 1988, Gaussian, Inc.),
 the Gaussian 86(TM) system (copyright 1986, Carnegie Mellon
 University), and the Gaussian 82(TM) system (copyright 1983,
 Carnegie Mellon University). Gaussian is a federally registered
 trademark of Gaussian, Inc.
  
 This software contains proprietary and confidential information,
 including trade secrets, belonging to Gaussian, Inc.
  
 This software is provided under written license and may be
 used, copied, transmitted, or stored only in accord with that
 written license.
  
 The following legend is applicable only to US Government
 contracts under FAR:
  
                    RESTRICTED RIGHTS LEGEND
  
 Use, reproduction and disclosure by the US Government is
 subject to restrictions as set forth in subparagraphs (a)
 and (c) of the Commercial Computer Software - Restricted
 Rights clause in FAR 52.227-19.
  
 Gaussian, Inc.
 340 Quinnipiac St., Bldg. 40, Wallingford CT 06492
  
  
 ---------------------------------------------------------------
 Warning -- This program may not be used in any manner that
 competes with the business of Gaussian, Inc. or will provide
 assistance to any competitor of Gaussian, Inc.  The licensee
 of this program is prohibited from giving any competitor of
 Gaussian, Inc. access to this program.  By using this program,
 the user acknowledges that Gaussian, Inc. is engaged in the
 business of creating and licensing software in the field of
 computational chemistry and represents and warrants to the
 licensee that it is not a competitor of Gaussian, Inc. and that
 it will not use this program in any manner prohibited above.
 ---------------------------------------------------------------
  

 Cite this work as:
 Gaussian 16, Revision A.03,
 M. J. Frisch, G. W. Trucks, H. B. Schlegel, G. E. Scuseria, 
 M. A. Robb, J. R. Cheeseman, G. Scalmani, V. Barone, 
 G. A. Petersson, H. Nakatsuji, X. Li, M. Caricato, A. V. Marenich, 
 J. Bloino, B. G. Janesko, R. Gomperts, B. Mennucci, H. P. Hratchian, 
 J. V. Ortiz, A. F. Izmaylov, J. L. Sonnenberg, D. Williams-Young, 
 F. Ding, F. Lipparini, F. Egidi, J. Goings, B. Peng, A. Petrone, 
 T. Henderson, D. Ranasinghe, V. G. Zakrzewski, J. Gao, N. Rega, 
 G. Zheng, W. Liang, M. Hada, M. Ehara, K. Toyota, R. Fukuda, 
 J. Hasegawa, M. Ishida, T. Nakajima, Y. Honda, O. Kitao, H. Nakai, 
 T. Vreven, K. Throssell, J. A. Montgomery, Jr., J. E. Peralta, 
 F. Ogliaro, M. J. Bearpark, J. J. Heyd, E. N. Brothers, K. N. Kudin, 
 V. N. Staroverov, T. A. Keith, R. Kobayashi, J. Normand, 
 K. Raghavachari, A. P. Rendell, J. C. Burant, S. S. Iyengar, 
 J. Tomasi, M. Cossi, J. M. Millam, M. Klene, C. Adamo, R. Cammi, 
 J. W. Ochterski, R. L. Martin, K. Morokuma, O. Farkas, 
 J. B. Foresman, and D. J. Fox, Gaussian, Inc., Wallingford CT, 2016.
 
 ******************************************
 Gaussian 16:  ES64L-G16RevA.03 25-Dec-2016
                27-May-2023 
 ******************************************
 %chk=CC1qCrCdCqCdSrCqSrdCS1.chk
 %NProcShared=20
 Will use up to   20 processors via shared memory.
 -----------------------------
 # opt freq b3lyp/6-31g(2df,p)
 -----------------------------
 1/18=20,19=15,26=3,38=1/1,3;
 2/9=110,12=2,17=6,18=5,40=1/2;
 3/5=1,6=6,7=104,11=2,25=1,30=1,71=1,74=-5/1,2,3;
 4//1;
 5/5=2,38=5/2;
 6/7=2,8=2,9=2,10=2,28=1/1;
 7//1,2,3,16;
 1/18=20,19=15,26=3/3(2);
 2/9=110/2;
 99//99;
 2/9=110/2;
 3/5=1,6=6,7=104,11=2,25=1,30=1,71=1,74=-5/1,2,3;
 4/5=5,16=3,69=1/1;
 5/5=2,38=5/2;
 7//1,2,3,16;
 1/18=20,19=15,26=3/3(-5);
 2/9=110/2;
 6/7=2,8=2,9=2,10=2,19=2,28=1/1;
 99/9=1/99;
 -------------------
 Title Card Required
 -------------------
 Symbolic Z-matrix:
 Charge =  0 Multiplicity = 1
 C                     0.96255   0.02218   0.18449 
 C                     2.49571   0.07294   0.15275 
 C                     3.17545   0.03458   1.52737 
 C                     3.00877  -1.10212  -0.64499 
 C                     3.79019  -1.08124  -1.74908 
 C                     4.12596  -2.48435  -2.21138 
 S                     5.04172  -3.04936  -3.49757 
 C                     4.2274    0.19024  -2.33619 
 S                     5.25488   0.31149  -3.74237 
 C                     3.86755   1.39566  -1.84468 
 S                     2.86475   1.71329  -0.50594 
 H                     0.58325  -0.91715   0.59928 
 H                     0.55497   0.10108  -0.83564 
 H                     0.52932   0.84147   0.77114 
 H                     2.9629   -0.89314   2.06918 
 H                     2.87647   0.87074   2.16982 
 H                     4.26961   0.08668   1.41308 
 H                     2.69864  -2.05619  -0.21173 
 H                     3.68941  -3.28154  -1.58013 
 H                     5.42154  -0.993    -3.99541 
 H                     4.22253   2.29911  -2.32699 
 

 GradGradGradGradGradGradGradGradGradGradGradGradGradGradGradGradGradGrad
 Berny optimization.
 Initialization pass.
                           ----------------------------
                           !    Initial Parameters    !
                           ! (Angstroms and Degrees)  !
 --------------------------                            --------------------------
 ! Name  Definition              Value          Derivative Info.                !
 --------------------------------------------------------------------------------
 ! R1    R(1,2)                  1.5343         estimate D2E/DX2                !
 ! R2    R(1,12)                 1.0947         estimate D2E/DX2                !
 ! R3    R(1,13)                 1.1014         estimate D2E/DX2                !
 ! R4    R(1,14)                 1.0969         estimate D2E/DX2                !
 ! R5    R(2,3)                  1.534          estimate D2E/DX2                !
 ! R6    R(2,4)                  1.5101         estimate D2E/DX2                !
 ! R7    R(2,11)                 1.8058         estimate D2E/DX2                !
 ! R8    R(3,15)                 1.0952         estimate D2E/DX2                !
 ! R9    R(3,16)                 1.096          estimate D2E/DX2                !
 ! R10   R(3,17)                 1.1013         estimate D2E/DX2                !
 ! R11   R(4,5)                  1.3528         estimate D2E/DX2                !
 ! R12   R(4,18)                 1.0928         estimate D2E/DX2                !
 ! R13   R(5,6)                  1.515          estimate D2E/DX2                !
 ! R14   R(5,8)                  1.4671         estimate D2E/DX2                !
 ! R15   R(6,7)                  1.6769         estimate D2E/DX2                !
 ! R16   R(6,19)                 1.1066         estimate D2E/DX2                !
 ! R17   R(8,9)                  1.7458         estimate D2E/DX2                !
 ! R18   R(8,10)                 1.3506         estimate D2E/DX2                !
 ! R19   R(9,20)                 1.3392         estimate D2E/DX2                !
 ! R20   R(10,11)                1.7026         estimate D2E/DX2                !
 ! R21   R(10,21)                1.0839         estimate D2E/DX2                !
 ! A1    A(2,1,12)             112.4866         estimate D2E/DX2                !
 ! A2    A(2,1,13)             110.3806         estimate D2E/DX2                !
 ! A3    A(2,1,14)             112.3974         estimate D2E/DX2                !
 ! A4    A(12,1,13)            106.5121         estimate D2E/DX2                !
 ! A5    A(12,1,14)            107.5438         estimate D2E/DX2                !
 ! A6    A(13,1,14)            107.2008         estimate D2E/DX2                !
 ! A7    A(1,2,3)              115.0506         estimate D2E/DX2                !
 ! A8    A(1,2,4)              108.9462         estimate D2E/DX2                !
 ! A9    A(1,2,11)             103.9934         estimate D2E/DX2                !
 ! A10   A(3,2,4)              107.6607         estimate D2E/DX2                !
 ! A11   A(3,2,11)             105.0126         estimate D2E/DX2                !
 ! A12   A(4,2,11)             116.4056         estimate D2E/DX2                !
 ! A13   A(2,3,15)             112.2416         estimate D2E/DX2                !
 ! A14   A(2,3,16)             112.663          estimate D2E/DX2                !
 ! A15   A(2,3,17)             110.2462         estimate D2E/DX2                !
 ! A16   A(15,3,16)            107.6571         estimate D2E/DX2                !
 ! A17   A(15,3,17)            106.5125         estimate D2E/DX2                !
 ! A18   A(16,3,17)            107.202          estimate D2E/DX2                !
 ! A19   A(2,4,5)              127.9804         estimate D2E/DX2                !
 ! A20   A(2,4,18)             111.9317         estimate D2E/DX2                !
 ! A21   A(5,4,18)             120.0659         estimate D2E/DX2                !
 ! A22   A(4,5,6)              111.2708         estimate D2E/DX2                !
 ! A23   A(4,5,8)              120.8046         estimate D2E/DX2                !
 ! A24   A(6,5,8)              127.9141         estimate D2E/DX2                !
 ! A25   A(5,6,7)              131.8456         estimate D2E/DX2                !
 ! A26   A(5,6,19)             113.9346         estimate D2E/DX2                !
 ! A27   A(7,6,19)             114.2191         estimate D2E/DX2                !
 ! A28   A(5,8,9)              123.9111         estimate D2E/DX2                !
 ! A29   A(5,8,10)             123.2608         estimate D2E/DX2                !
 ! A30   A(9,8,10)             112.8271         estimate D2E/DX2                !
 ! A31   A(8,9,20)              99.0782         estimate D2E/DX2                !
 ! A32   A(8,10,11)            127.5599         estimate D2E/DX2                !
 ! A33   A(8,10,21)            119.6515         estimate D2E/DX2                !
 ! A34   A(11,10,21)           112.7855         estimate D2E/DX2                !
 ! A35   A(2,11,10)            103.7522         estimate D2E/DX2                !
 ! D1    D(12,1,2,3)           -63.8112         estimate D2E/DX2                !
 ! D2    D(12,1,2,4)            57.1532         estimate D2E/DX2                !
 ! D3    D(12,1,2,11)         -178.088          estimate D2E/DX2                !
 ! D4    D(13,1,2,3)           177.3772         estimate D2E/DX2                !
 ! D5    D(13,1,2,4)           -61.6584         estimate D2E/DX2                !
 ! D6    D(13,1,2,11)           63.1004         estimate D2E/DX2                !
 ! D7    D(14,1,2,3)            57.7527         estimate D2E/DX2                !
 ! D8    D(14,1,2,4)           178.7171         estimate D2E/DX2                !
 ! D9    D(14,1,2,11)          -56.5242         estimate D2E/DX2                !
 ! D10   D(1,2,3,15)            62.0932         estimate D2E/DX2                !
 ! D11   D(1,2,3,16)           -59.6339         estimate D2E/DX2                !
 ! D12   D(1,2,3,17)          -179.3434         estimate D2E/DX2                !
 ! D13   D(4,2,3,15)           -59.5701         estimate D2E/DX2                !
 ! D14   D(4,2,3,16)           178.7027         estimate D2E/DX2                !
 ! D15   D(4,2,3,17)            58.9932         estimate D2E/DX2                !
 ! D16   D(11,2,3,15)          175.7774         estimate D2E/DX2                !
 ! D17   D(11,2,3,16)           54.0503         estimate D2E/DX2                !
 ! D18   D(11,2,3,17)          -65.6593         estimate D2E/DX2                !
 ! D19   D(1,2,4,5)            121.9742         estimate D2E/DX2                !
 ! D20   D(1,2,4,18)           -59.7544         estimate D2E/DX2                !
 ! D21   D(3,2,4,5)           -112.6378         estimate D2E/DX2                !
 ! D22   D(3,2,4,18)            65.6335         estimate D2E/DX2                !
 ! D23   D(11,2,4,5)             4.8523         estimate D2E/DX2                !
 ! D24   D(11,2,4,18)         -176.8764         estimate D2E/DX2                !
 ! D25   D(1,2,11,10)         -125.0413         estimate D2E/DX2                !
 ! D26   D(3,2,11,10)          113.7189         estimate D2E/DX2                !
 ! D27   D(4,2,11,10)           -5.2182         estimate D2E/DX2                !
 ! D28   D(2,4,5,6)            177.6904         estimate D2E/DX2                !
 ! D29   D(2,4,5,8)             -1.2208         estimate D2E/DX2                !
 ! D30   D(18,4,5,6)            -0.4567         estimate D2E/DX2                !
 ! D31   D(18,4,5,8)          -179.3679         estimate D2E/DX2                !
 ! D32   D(4,5,6,7)           -179.9297         estimate D2E/DX2                !
 ! D33   D(4,5,6,19)            -0.2518         estimate D2E/DX2                !
 ! D34   D(8,5,6,7)             -1.1151         estimate D2E/DX2                !
 ! D35   D(8,5,6,19)           178.5627         estimate D2E/DX2                !
 ! D36   D(4,5,8,9)            179.0113         estimate D2E/DX2                !
 ! D37   D(4,5,8,10)            -1.3618         estimate D2E/DX2                !
 ! D38   D(6,5,8,9)              0.2974         estimate D2E/DX2                !
 ! D39   D(6,5,8,10)           179.9243         estimate D2E/DX2                !
 ! D40   D(5,8,9,20)             0.3257         estimate D2E/DX2                !
 ! D41   D(10,8,9,20)         -179.3358         estimate D2E/DX2                !
 ! D42   D(5,8,10,11)           -0.4988         estimate D2E/DX2                !
 ! D43   D(5,8,10,21)         -179.8139         estimate D2E/DX2                !
 ! D44   D(9,8,10,11)          179.1653         estimate D2E/DX2                !
 ! D45   D(9,8,10,21)           -0.1499         estimate D2E/DX2                !
 ! D46   D(8,10,11,2)            3.6095         estimate D2E/DX2                !
 ! D47   D(21,10,11,2)        -177.0361         estimate D2E/DX2                !
 --------------------------------------------------------------------------------
 Trust Radius=3.00D-01 FncErr=1.00D-07 GrdErr=1.00D-06 EigMax=2.50D+02 EigMin=1.00D-04
 Number of steps in this run=    113 maximum allowed number of steps=    126.
 GradGradGradGradGradGradGradGradGradGradGradGradGradGradGradGradGradGrad

                          Input orientation:                          
 ---------------------------------------------------------------------
 Center     Atomic      Atomic             Coordinates (Angstroms)
 Number     Number       Type             X           Y           Z
 ---------------------------------------------------------------------
      1          6           0        0.962550    0.022180    0.184490
      2          6           0        2.495710    0.072940    0.152750
      3          6           0        3.175450    0.034580    1.527370
      4          6           0        3.008770   -1.102120   -0.644990
      5          6           0        3.790190   -1.081240   -1.749080
      6          6           0        4.125960   -2.484350   -2.211380
      7         16           0        5.041720   -3.049360   -3.497570
      8          6           0        4.227400    0.190240   -2.336190
      9         16           0        5.254880    0.311490   -3.742370
     10          6           0        3.867550    1.395660   -1.844680
     11         16           0        2.864750    1.713290   -0.505940
     12          1           0        0.583250   -0.917150    0.599280
     13          1           0        0.554970    0.101080   -0.835640
     14          1           0        0.529320    0.841470    0.771140
     15          1           0        2.962900   -0.893140    2.069180
     16          1           0        2.876470    0.870740    2.169820
     17          1           0        4.269610    0.086680    1.413080
     18          1           0        2.698640   -2.056190   -0.211730
     19          1           0        3.689410   -3.281540   -1.580130
     20          1           0        5.421540   -0.993000   -3.995410
     21          1           0        4.222530    2.299110   -2.326990
 ---------------------------------------------------------------------
                    Distance matrix (angstroms):
                    1          2          3          4          5
     1  C    0.000000
     2  C    1.534328   0.000000
     3  C    2.588514   1.533981   0.000000
     4  C    2.477722   1.510095   2.457441   0.000000
     5  C    3.598858   2.573862   3.515407   1.352800   0.000000
     6  C    4.693618   3.845329   4.607247   2.369019   1.514985
     7  S    6.295360   5.436521   6.184147   4.007723   2.914968
     8  C    4.128113   3.034359   4.007234   2.452633   1.467144
     9  S    5.824777   4.779318   5.671937   4.078856   2.838700
    10  C    3.800395   2.760663   3.701657   2.900976   2.479951
    11  S    2.637217   1.805772   2.654986   2.822518   3.195502
    12  H    1.094651   2.199357   2.913184   2.732319   3.978214
    13  H    1.101368   2.178113   3.529186   2.739557   3.563552
    14  H    1.096851   2.199940   2.867919   3.454076   4.547702
    15  H    2.896768   2.196425   1.095171   2.722590   3.911381
    16  H    2.885252   2.202279   1.096036   3.439889   4.472459
    17  H    3.528490   2.176084   1.101346   2.690467   3.404870
    18  H    2.736900   2.169613   2.761003   1.092769   2.122605
    19  H    4.632949   3.959839   4.573550   2.467312   2.209077
    20  H    6.195542   5.186901   6.049954   4.130216   2.777605
    21  H    4.703128   3.753245   4.591357   3.983805   3.456539
                    6          7          8          9         10
     6  C    0.000000
     7  S    1.676943   0.000000
     8  C    2.679421   3.536514   0.000000
     9  S    3.381584   3.376489   1.745783   0.000000
    10  C    3.905857   4.885583   1.350597   2.588694   0.000000
    11  S    4.703122   6.030911   2.743412   4.260545   1.702563
    12  H    4.786096   6.419381   4.808651   6.494891   4.701984
    13  H    4.618342   6.094429   3.968166   5.530145   3.696929
    14  H    5.735183   7.329543   4.873951   6.556186   4.277081
    15  H    4.712521   6.321351   4.709560   6.362265   4.623343
    16  H    5.657983   7.223213   4.753127   6.397154   4.168212
    17  H    4.446070   5.877532   3.750937   5.253567   3.533848
    18  H    2.493825   4.156099   3.449186   4.960412   3.993513
    19  H    1.106600   2.357801   3.593649   4.476141   4.688061
    20  H    2.661844   2.149587   2.361999   1.339216   3.570185
    21  H    4.785831   5.536015   2.108896   2.649468   1.083908
                   11         12         13         14         15
    11  S    0.000000
    12  H    3.653213   0.000000
    13  H    2.836020   1.759712   0.000000
    14  H    2.800935   1.767820   1.769344   0.000000
    15  H    3.665290   2.797126   3.901869   3.258234   0.000000
    16  H    2.805302   3.304846   3.874859   2.732449   1.768862
    17  H    2.881342   3.906302   4.342292   3.869311   1.760115
    18  H    3.784591   2.535749   3.104577   3.750789   2.573921
    19  H    5.175159   4.470839   4.671306   5.702092   4.421508
    20  H    5.102703   6.672779   5.904630   7.072418   6.544779
    21  H    2.345842   5.670251   4.528406   5.036162   5.577046
                   16         17         18         19         20
    16  H    0.000000
    17  H    1.768684   0.000000
    18  H    3.777608   3.114458   0.000000
    19  H    5.653709   4.543220   2.087014   0.000000
    20  H    6.925386   5.634218   4.781296   3.751169   0.000000
    21  H    4.906467   4.345709   5.075944   5.655588   3.880623
                   21
    21  H    0.000000
 Stoichiometry    C8H10S3
 Framework group  C1[X(C8H10S3)]
 Deg. of freedom    57
 Full point group                 C1      NOp   1
 Largest Abelian subgroup         C1      NOp   1
 Largest concise Abelian subgroup C1      NOp   1
                         Standard orientation:                         
 ---------------------------------------------------------------------
 Center     Atomic      Atomic             Coordinates (Angstroms)
 Number     Number       Type             X           Y           Z
 ---------------------------------------------------------------------
      1          6           0       -2.836821   -1.103899   -1.220247
      2          6           0       -2.060418   -0.627207    0.014309
      3          6           0       -2.683682   -1.012040    1.362101
      4          6           0       -0.667012   -1.207701   -0.028501
      5          6           0        0.511776   -0.543981   -0.026442
      6          6           0        1.683329   -1.504510   -0.021161
      7         16           0        3.340490   -1.247756   -0.015383
      8          6           0        0.548256    0.922557   -0.005318
      9         16           0        2.020774    1.859894    0.023834
     10          6           0       -0.562153    1.691343   -0.013799
     11         16           0       -2.183153    1.172820   -0.060858
     12          1           0       -2.878738   -2.195339   -1.292781
     13          1           0       -2.349202   -0.747470   -2.141223
     14          1           0       -3.868501   -0.731725   -1.234549
     15          1           0       -2.737689   -2.097269    1.499065
     16          1           0       -3.695343   -0.610097    1.489694
     17          1           0       -2.071406   -0.622080    2.190359
     18          1           0       -0.680057   -2.300379   -0.033895
     19          1           0        1.389215   -2.571295   -0.015429
     20          1           0        2.909310    0.857968    0.011749
     21          1           0       -0.467003    2.770979   -0.000126
 ---------------------------------------------------------------------
 Rotational constants (GHZ):           1.2121857           0.4829537           0.3748033
 Standard basis: 6-31G(2df,p) (6D, 7F)
 There are   403 symmetry adapted cartesian basis functions of A   symmetry.
 There are   370 symmetry adapted basis functions of A   symmetry.
   370 basis functions,   626 primitive gaussians,   403 cartesian basis functions
    53 alpha electrons       53 beta electrons
       nuclear repulsion energy       873.0381978384 Hartrees.
 NAtoms=   21 NActive=   21 NUniq=   21 SFac= 1.00D+00 NAtFMM=   60 NAOKFM=F Big=F
 Integral buffers will be    131072 words long.
 Raffenetti 2 integral format.
 Two-electron integral symmetry is turned on.
 One-electron integrals computed using PRISM.
 PrsmSu:  requested number of processors reduced to:  13 ShMem   1 Linda.
 NBasis=   370 RedAO= T EigKep=  3.44D-04  NBF=   370
 NBsUse=   370 1.00D-06 EigRej= -1.00D+00 NBFU=   370
 ExpMin= 1.17D-01 ExpMax= 2.19D+04 ExpMxC= 3.30D+03 IAcc=3 IRadAn=         5 AccDes= 0.00D+00
 Harris functional with IExCor=  402 and IRadAn=       5 diagonalized for initial guess.
 HarFok:  IExCor=  402 AccDes= 0.00D+00 IRadAn=         5 IDoV= 1 UseB2=F ITyADJ=14
 ICtDFT=  3500011 ScaDFX=  1.000000  1.000000  1.000000  1.000000
 FoFCou: FMM=F IPFlag=           0 FMFlag=      100000 FMFlg1=           0
         NFxFlg=           0 DoJE=T BraDBF=F KetDBF=T FulRan=T
         wScrn=  0.000000 ICntrl=       500 IOpCl=  0 I1Cent=   200000004 NGrid=           0
         NMat0=    1 NMatS0=      1 NMatT0=    0 NMatD0=    1 NMtDS0=    0 NMtDT0=    0
 Petite list used in FoFCou.
 Requested convergence on RMS density matrix=1.00D-08 within 128 cycles.
 Requested convergence on MAX density matrix=1.00D-06.
 Requested convergence on             energy=1.00D-06.
 No special actions if energy rises.
 Integral accuracy reduced to 1.0D-05 until final iterations.
 Initial convergence to 1.0D-05 achieved.  Increase integral accuracy.
 SCF Done:  E(RB3LYP) =  -1505.40950305     A.U. after   16 cycles
            NFock= 16  Conv=0.71D-08     -V/T= 2.0040

 **********************************************************************

            Population analysis using the SCF density.

 **********************************************************************

 Orbital symmetries:
       Occupied  (A) (A) (A) (A) (A) (A) (A) (A) (A) (A) (A) (A)
                 (A) (A) (A) (A) (A) (A) (A) (A) (A) (A) (A) (A)
                 (A) (A) (A) (A) (A) (A) (A) (A) (A) (A) (A) (A)
                 (A) (A) (A) (A) (A) (A) (A) (A) (A) (A) (A) (A)
                 (A) (A) (A) (A) (A)
       Virtual   (A) (A) (A) (A) (A) (A) (A) (A) (A) (A) (A) (A)
                 (A) (A) (A) (A) (A) (A) (A) (A) (A) (A) (A) (A)
                 (A) (A) (A) (A) (A) (A) (A) (A) (A) (A) (A) (A)
                 (A) (A) (A) (A) (A) (A) (A) (A) (A) (A) (A) (A)
                 (A) (A) (A) (A) (A) (A) (A) (A) (A) (A) (A) (A)
                 (A) (A) (A) (A) (A) (A) (A) (A) (A) (A) (A) (A)
                 (A) (A) (A) (A) (A) (A) (A) (A) (A) (A) (A) (A)
                 (A) (A) (A) (A) (A) (A) (A) (A) (A) (A) (A) (A)
                 (A) (A) (A) (A) (A) (A) (A) (A) (A) (A) (A) (A)
                 (A) (A) (A) (A) (A) (A) (A) (A) (A) (A) (A) (A)
                 (A) (A) (A) (A) (A) (A) (A) (A) (A) (A) (A) (A)
                 (A) (A) (A) (A) (A) (A) (A) (A) (A) (A) (A) (A)
                 (A) (A) (A) (A) (A) (A) (A) (A) (A) (A) (A) (A)
                 (A) (A) (A) (A) (A) (A) (A) (A) (A) (A) (A) (A)
                 (A) (A) (A) (A) (A) (A) (A) (A) (A) (A) (A) (A)
                 (A) (A) (A) (A) (A) (A) (A) (A) (A) (A) (A) (A)
                 (A) (A) (A) (A) (A) (A) (A) (A) (A) (A) (A) (A)
                 (A) (A) (A) (A) (A) (A) (A) (A) (A) (A) (A) (A)
                 (A) (A) (A) (A) (A) (A) (A) (A) (A) (A) (A) (A)
                 (A) (A) (A) (A) (A) (A) (A) (A) (A) (A) (A) (A)
                 (A) (A) (A) (A) (A) (A) (A) (A) (A) (A) (A) (A)
                 (A) (A) (A) (A) (A) (A) (A) (A) (A) (A) (A) (A)
                 (A) (A) (A) (A) (A) (A) (A) (A) (A) (A) (A) (A)
                 (A) (A) (A) (A) (A) (A) (A) (A) (A) (A) (A) (A)
                 (A) (A) (A) (A) (A) (A) (A) (A) (A) (A) (A) (A)
                 (A) (A) (A) (A) (A) (A) (A) (A) (A) (A) (A) (A)
                 (A) (A) (A) (A) (A)
 The electronic state is 1-A.
 Alpha  occ. eigenvalues --  -88.89145 -88.87228 -88.85797 -10.27827 -10.25397
 Alpha  occ. eigenvalues --  -10.24261 -10.23669 -10.22584 -10.21695 -10.20191
 Alpha  occ. eigenvalues --  -10.20106  -7.95572  -7.93707  -7.92535  -5.92034
 Alpha  occ. eigenvalues --   -5.91637  -5.91177  -5.89996  -5.89993  -5.89236
 Alpha  occ. eigenvalues --   -5.88967  -5.88582  -5.88120  -0.89383  -0.83817
 Alpha  occ. eigenvalues --   -0.81463  -0.76472  -0.75017  -0.71678  -0.66793
 Alpha  occ. eigenvalues --   -0.64728  -0.61930  -0.57050  -0.51034  -0.49415
 Alpha  occ. eigenvalues --   -0.48101  -0.45558  -0.45372  -0.43514  -0.41709
 Alpha  occ. eigenvalues --   -0.41469  -0.39870  -0.38574  -0.37225  -0.36967
 Alpha  occ. eigenvalues --   -0.35589  -0.33417  -0.33193  -0.32893  -0.28211
 Alpha  occ. eigenvalues --   -0.26402  -0.23029  -0.18324
 Alpha virt. eigenvalues --   -0.10786  -0.03763   0.02163   0.04351   0.06005
 Alpha virt. eigenvalues --    0.07403   0.07574   0.08075   0.10345   0.11195
 Alpha virt. eigenvalues --    0.12671   0.13365   0.14315   0.15301   0.15895
 Alpha virt. eigenvalues --    0.16933   0.17503   0.17971   0.19577   0.20056
 Alpha virt. eigenvalues --    0.22045   0.22937   0.24883   0.25945   0.27246
 Alpha virt. eigenvalues --    0.29184   0.32518   0.33158   0.33512   0.34914
 Alpha virt. eigenvalues --    0.35898   0.36057   0.36994   0.37274   0.37423
 Alpha virt. eigenvalues --    0.38295   0.39237   0.39937   0.41123   0.41598
 Alpha virt. eigenvalues --    0.42864   0.43843   0.45022   0.45397   0.46670
 Alpha virt. eigenvalues --    0.48583   0.49104   0.51915   0.52877   0.54413
 Alpha virt. eigenvalues --    0.55331   0.57850   0.58900   0.60048   0.61540
 Alpha virt. eigenvalues --    0.62402   0.62717   0.65135   0.65529   0.67849
 Alpha virt. eigenvalues --    0.67982   0.69102   0.69336   0.70145   0.71250
 Alpha virt. eigenvalues --    0.71873   0.72237   0.73519   0.74169   0.75131
 Alpha virt. eigenvalues --    0.75525   0.76345   0.77005   0.78164   0.79559
 Alpha virt. eigenvalues --    0.80339   0.82804   0.84650   0.85023   0.86129
 Alpha virt. eigenvalues --    0.87356   0.88439   0.89691   0.90223   0.91443
 Alpha virt. eigenvalues --    0.96203   0.96641   1.00651   1.01830   1.03695
 Alpha virt. eigenvalues --    1.05831   1.11231   1.12783   1.13396   1.13953
 Alpha virt. eigenvalues --    1.17219   1.18472   1.20052   1.21463   1.21866
 Alpha virt. eigenvalues --    1.23204   1.24972   1.26744   1.29459   1.30293
 Alpha virt. eigenvalues --    1.31395   1.34740   1.35463   1.36934   1.38705
 Alpha virt. eigenvalues --    1.39597   1.41479   1.44084   1.46739   1.48026
 Alpha virt. eigenvalues --    1.51680   1.51820   1.53043   1.54028   1.54247
 Alpha virt. eigenvalues --    1.54964   1.57110   1.57115   1.60932   1.62753
 Alpha virt. eigenvalues --    1.64653   1.64742   1.66812   1.68175   1.69519
 Alpha virt. eigenvalues --    1.70906   1.70968   1.71633   1.75377   1.78268
 Alpha virt. eigenvalues --    1.80120   1.80643   1.83109   1.84233   1.85506
 Alpha virt. eigenvalues --    1.86824   1.87315   1.88814   1.89794   1.91838
 Alpha virt. eigenvalues --    1.92166   1.93604   1.94796   1.95968   1.96874
 Alpha virt. eigenvalues --    2.00217   2.01190   2.03014   2.03770   2.05871
 Alpha virt. eigenvalues --    2.08959   2.09492   2.10743   2.14876   2.20256
 Alpha virt. eigenvalues --    2.21660   2.23615   2.24454   2.25773   2.27922
 Alpha virt. eigenvalues --    2.29444   2.30336   2.30857   2.32516   2.33312
 Alpha virt. eigenvalues --    2.33594   2.34168   2.35697   2.37599   2.37951
 Alpha virt. eigenvalues --    2.39332   2.43403   2.44032   2.47466   2.48900
 Alpha virt. eigenvalues --    2.50034   2.52685   2.57253   2.60015   2.62331
 Alpha virt. eigenvalues --    2.63481   2.68892   2.69621   2.75949   2.76160
 Alpha virt. eigenvalues --    2.80085   2.80409   2.81632   2.82821   2.84205
 Alpha virt. eigenvalues --    2.85117   2.86809   2.89801   2.90926   2.91154
 Alpha virt. eigenvalues --    2.92799   2.94261   2.95518   2.96120   2.97520
 Alpha virt. eigenvalues --    3.00734   3.01887   3.05506   3.06498   3.06676
 Alpha virt. eigenvalues --    3.07689   3.14311   3.15453   3.17492   3.19095
 Alpha virt. eigenvalues --    3.19797   3.24675   3.25835   3.27977   3.28709
 Alpha virt. eigenvalues --    3.30505   3.34860   3.35653   3.36440   3.38104
 Alpha virt. eigenvalues --    3.39815   3.40520   3.44549   3.45384   3.48324
 Alpha virt. eigenvalues --    3.49383   3.49884   3.52757   3.56138   3.59176
 Alpha virt. eigenvalues --    3.62193   3.62711   3.62915   3.66348   3.70307
 Alpha virt. eigenvalues --    3.71644   3.74335   3.75221   3.78600   3.81250
 Alpha virt. eigenvalues --    3.82160   3.86867   3.90977   3.97574   4.00353
 Alpha virt. eigenvalues --    4.01580   4.04422   4.06227   4.09748   4.12948
 Alpha virt. eigenvalues --    4.16583   4.19568   4.23001   4.27334   4.29260
 Alpha virt. eigenvalues --    4.31052   4.32367   4.36802   4.40169   4.41214
 Alpha virt. eigenvalues --    4.43899   4.44537   4.45100   4.46819   4.50056
 Alpha virt. eigenvalues --    4.54250   4.57877   4.59146   4.59414   4.60562
 Alpha virt. eigenvalues --    4.61955   4.64100   4.64902   4.66750   4.67255
 Alpha virt. eigenvalues --    4.71413   4.74511   4.75549   4.78481   4.80469
 Alpha virt. eigenvalues --    4.81926   4.84215   4.84796   4.88640   4.91614
 Alpha virt. eigenvalues --    4.92429   4.94575   5.02218   5.04023   5.07696
 Alpha virt. eigenvalues --    5.16464   5.25330   5.30360   5.36751   5.38627
 Alpha virt. eigenvalues --    5.44129   5.47570   5.51446   5.61199   5.68058
 Alpha virt. eigenvalues --    5.69672   5.81439   5.91466   6.61246  10.05146
 Alpha virt. eigenvalues --   10.81741  11.17364  11.53162  11.69951  11.89206
 Alpha virt. eigenvalues --   12.42658  12.52109
          Condensed to atoms (all electrons):
               1          2          3          4          5          6
     1  C    5.063325   0.397356  -0.044842  -0.040472   0.000969  -0.000173
     2  C    0.397356   4.586119   0.401449   0.384572   0.005522   0.005272
     3  C   -0.044842   0.401449   5.068147  -0.048860   0.000481  -0.000158
     4  C   -0.040472   0.384572  -0.048860   5.056181   0.516874  -0.054565
     5  C    0.000969   0.005522   0.000481   0.516874   4.625715   0.424415
     6  C   -0.000173   0.005272  -0.000158  -0.054565   0.424415   4.928185
     7  S    0.000006  -0.000226   0.000007   0.003322  -0.023810   0.478385
     8  C    0.001580  -0.021420   0.001599  -0.016401   0.409003  -0.048468
     9  S    0.000007   0.000039   0.000007   0.008878  -0.045295  -0.011782
    10  C    0.000159   0.006881  -0.000096  -0.053547   0.036284   0.006356
    11  S   -0.063532   0.264173  -0.066770   0.012590  -0.048293  -0.000327
    12  H    0.355727  -0.025662  -0.001193  -0.002187   0.000264  -0.000006
    13  H    0.374166  -0.020784   0.004584  -0.001502   0.000529  -0.000003
    14  H    0.369305  -0.019598  -0.002963   0.003200  -0.000004   0.000004
    15  H   -0.002360  -0.026094   0.354847  -0.000162   0.000217   0.000003
    16  H   -0.002819  -0.019275   0.367818   0.003673   0.000054   0.000005
    17  H    0.004614  -0.020388   0.373869  -0.001732   0.000513  -0.000033
    18  H   -0.004520  -0.052354  -0.003470   0.357357  -0.038129  -0.015463
    19  H    0.000001   0.000259   0.000006  -0.006723  -0.050777   0.370702
    20  H   -0.000000   0.000011  -0.000000   0.000159  -0.003379  -0.000359
    21  H   -0.000084   0.001398  -0.000070   0.000638   0.004557  -0.000071
               7          8          9         10         11         12
     1  C    0.000006   0.001580   0.000007   0.000159  -0.063532   0.355727
     2  C   -0.000226  -0.021420   0.000039   0.006881   0.264173  -0.025662
     3  C    0.000007   0.001599   0.000007  -0.000096  -0.066770  -0.001193
     4  C    0.003322  -0.016401   0.008878  -0.053547   0.012590  -0.002187
     5  C   -0.023810   0.409003  -0.045295   0.036284  -0.048293   0.000264
     6  C    0.478385  -0.048468  -0.011782   0.006356  -0.000327  -0.000006
     7  S   15.898377  -0.003915  -0.071926  -0.000385   0.000030   0.000000
     8  C   -0.003915   4.685846   0.314976   0.595612  -0.012421  -0.000073
     9  S   -0.071926   0.314976  15.904349  -0.096804   0.009750   0.000000
    10  C   -0.000385   0.595612  -0.096804   5.015250   0.306028  -0.000051
    11  S    0.000030  -0.012421   0.009750   0.306028  15.754462   0.006366
    12  H    0.000000  -0.000073   0.000000  -0.000051   0.006366   0.608213
    13  H   -0.000001   0.000169  -0.000004  -0.000120  -0.001745  -0.031787
    14  H   -0.000000  -0.000045  -0.000000   0.000109  -0.000111  -0.029437
    15  H   -0.000000  -0.000107   0.000000  -0.000037   0.006672   0.001606
    16  H   -0.000000  -0.000068  -0.000000   0.000036   0.000454  -0.000293
    17  H   -0.000000   0.000698  -0.000018  -0.000025  -0.002491  -0.000087
    18  H    0.000231   0.005302  -0.000191   0.000011   0.005310   0.004399
    19  H   -0.070862   0.003296  -0.000610  -0.000124  -0.000004  -0.000003
    20  H    0.036252  -0.009638   0.288985   0.001563  -0.000177   0.000000
    21  H    0.000013  -0.028515  -0.009667   0.365982  -0.052991   0.000002
              13         14         15         16         17         18
     1  C    0.374166   0.369305  -0.002360  -0.002819   0.004614  -0.004520
     2  C   -0.020784  -0.019598  -0.026094  -0.019275  -0.020388  -0.052354
     3  C    0.004584  -0.002963   0.354847   0.367818   0.373869  -0.003470
     4  C   -0.001502   0.003200  -0.000162   0.003673  -0.001732   0.357357
     5  C    0.000529  -0.000004   0.000217   0.000054   0.000513  -0.038129
     6  C   -0.000003   0.000004   0.000003   0.000005  -0.000033  -0.015463
     7  S   -0.000001  -0.000000  -0.000000  -0.000000  -0.000000   0.000231
     8  C    0.000169  -0.000045  -0.000107  -0.000068   0.000698   0.005302
     9  S   -0.000004  -0.000000   0.000000  -0.000000  -0.000018  -0.000191
    10  C   -0.000120   0.000109  -0.000037   0.000036  -0.000025   0.000011
    11  S   -0.001745  -0.000111   0.006672   0.000454  -0.002491   0.005310
    12  H   -0.031787  -0.029437   0.001606  -0.000293  -0.000087   0.004399
    13  H    0.558455  -0.028038  -0.000100  -0.000059  -0.000163  -0.000148
    14  H   -0.028038   0.568160  -0.000258   0.002601  -0.000047  -0.000176
    15  H   -0.000100  -0.000258   0.610299  -0.029218  -0.032526   0.003673
    16  H   -0.000059   0.002601  -0.029218   0.568536  -0.028076  -0.000193
    17  H   -0.000163  -0.000047  -0.032526  -0.028076   0.560574  -0.000104
    18  H   -0.000148  -0.000176   0.003673  -0.000193  -0.000104   0.605775
    19  H   -0.000000   0.000000  -0.000001   0.000000  -0.000001   0.010059
    20  H   -0.000000  -0.000000   0.000000  -0.000000  -0.000000  -0.000010
    21  H   -0.000017   0.000000   0.000003  -0.000000  -0.000033   0.000016
              19         20         21
     1  C    0.000001  -0.000000  -0.000084
     2  C    0.000259   0.000011   0.001398
     3  C    0.000006  -0.000000  -0.000070
     4  C   -0.006723   0.000159   0.000638
     5  C   -0.050777  -0.003379   0.004557
     6  C    0.370702  -0.000359  -0.000071
     7  S   -0.070862   0.036252   0.000013
     8  C    0.003296  -0.009638  -0.028515
     9  S   -0.000610   0.288985  -0.009667
    10  C   -0.000124   0.001563   0.365982
    11  S   -0.000004  -0.000177  -0.052991
    12  H   -0.000003   0.000000   0.000002
    13  H   -0.000000  -0.000000  -0.000017
    14  H    0.000000  -0.000000   0.000000
    15  H   -0.000001   0.000000   0.000003
    16  H    0.000000  -0.000000  -0.000000
    17  H   -0.000001  -0.000000  -0.000033
    18  H    0.010059  -0.000010   0.000016
    19  H    0.598876   0.000379   0.000002
    20  H    0.000379   0.497580   0.000164
    21  H    0.000002   0.000164   0.576951
 Mulliken charges:
               1
     1  C   -0.408410
     2  C    0.152748
     3  C   -0.404393
     4  C   -0.121294
     5  C    0.184290
     6  C   -0.081920
     7  S   -0.245497
     8  C    0.122991
     9  S   -0.290695
    10  C   -0.183084
    11  S   -0.116972
    12  H    0.114200
    13  H    0.146568
    14  H    0.137299
    15  H    0.113543
    16  H    0.136825
    17  H    0.145457
    18  H    0.122625
    19  H    0.145526
    20  H    0.188470
    21  H    0.141723
 Sum of Mulliken charges =  -0.00000
 Mulliken charges with hydrogens summed into heavy atoms:
               1
     1  C   -0.010343
     2  C    0.152748
     3  C   -0.008567
     4  C    0.001330
     5  C    0.184290
     6  C    0.063606
     7  S   -0.245497
     8  C    0.122991
     9  S   -0.102225
    10  C   -0.041360
    11  S   -0.116972
 Electronic spatial extent (au):  <R**2>=           2913.7898
 Charge=              0.0000 electrons
 Dipole moment (field-independent basis, Debye):
    X=             -3.6169    Y=             -2.7384    Z=              0.0696  Tot=              4.5372
 Quadrupole moment (field-independent basis, Debye-Ang):
   XX=            -91.6508   YY=            -86.1580   ZZ=            -89.0543
   XY=              3.8495   XZ=             -0.1370   YZ=              0.0808
 Traceless Quadrupole moment (field-independent basis, Debye-Ang):
   XX=             -2.6964   YY=              2.7963   ZZ=             -0.0999
   XY=              3.8495   XZ=             -0.1370   YZ=              0.0808
 Octapole moment (field-independent basis, Debye-Ang**2):
  XXX=            -29.4524  YYY=             -4.5023  ZZZ=              0.2516  XYY=            -17.1543
  XXY=             -0.1493  XXZ=              0.3641  XZZ=             -4.9269  YZZ=             -4.5814
  YYZ=             -0.1760  XYZ=             -0.3031
 Hexadecapole moment (field-independent basis, Debye-Ang**3):
 XXXX=          -2642.0359 YYYY=          -1014.0243 ZZZZ=           -279.7666 XXXY=             82.6615
 XXXZ=              0.0451 YYYX=             -3.9487 YYYZ=             -0.1667 ZZZX=             -0.5575
 ZZZY=              0.2673 XXYY=           -675.0439 XXZZ=           -497.0082 YYZZ=           -235.9002
 XXYZ=              0.7399 YYXZ=              0.3446 ZZXY=             -0.2523
 N-N= 8.730381978384D+02 E-N=-5.304315434832D+03  KE= 1.499356519703D+03
 PrsmSu:  requested number of processors reduced to:  13 ShMem   1 Linda.
 Calling FoFJK, ICntrl=      2127 FMM=F ISym2X=0 I1Cent= 0 IOpClX= 0 NMat=1 NMatS=1 NMatT=0.
 ***** Axes restored to original set *****
 -------------------------------------------------------------------
 Center     Atomic                   Forces (Hartrees/Bohr)
 Number     Number              X              Y              Z
 -------------------------------------------------------------------
      1        6          -0.012149197   -0.006342906    0.000226679
      2        6          -0.003188013   -0.008195688    0.005176890
      3        6           0.005666935   -0.006956691    0.011262376
      4        6          -0.004237377    0.007801922    0.004929744
      5        6           0.004604853   -0.031087723   -0.004358899
      6        6           0.009409160    0.008954258   -0.013762414
      7       16          -0.016174615    0.004531395    0.022558456
      8        6          -0.001575269    0.003221299    0.001338592
      9       16           0.013013378    0.011803400   -0.016972627
     10        6           0.005556715   -0.010051250   -0.006858467
     11       16          -0.002462278    0.022404301   -0.000584015
     12        1           0.001617842   -0.002010735    0.003110952
     13        1           0.003582150    0.000526775    0.004601960
     14        1           0.003193127   -0.000315779    0.000221843
     15        1          -0.002833080   -0.001971187    0.000105580
     16        1          -0.002216091    0.000074404   -0.002796161
     17        1          -0.005444481    0.000923626   -0.000979803
     18        1           0.001633419    0.002020326   -0.003057185
     19        1           0.001827119    0.011591722   -0.003339945
     20        1           0.000113825   -0.007534014   -0.000346711
     21        1           0.000061878    0.000612547   -0.000476845
 -------------------------------------------------------------------
 Cartesian Forces:  Max     0.031087723 RMS     0.008353814

 GradGradGradGradGradGradGradGradGradGradGradGradGradGradGradGradGradGrad
 Berny optimization.
 FormGI is forming the generalized inverse of G from B-inverse, IUseBI=4.
 Internal  Forces:  Max     0.027660916 RMS     0.007051149
 Search for a local minimum.
 Step number   1 out of a maximum of  113
 All quantities printed in internal units (Hartrees-Bohrs-Radians)
 Mixed Optimization -- RFO/linear search
 Second derivative matrix not updated -- first step.
 ITU=  0
     Eigenvalues ---    0.00312   0.00316   0.00568   0.00568   0.00646
     Eigenvalues ---    0.01087   0.01330   0.01488   0.01626   0.01983
     Eigenvalues ---    0.02178   0.02429   0.04922   0.05201   0.05207
     Eigenvalues ---    0.05485   0.05509   0.06170   0.08713   0.15438
     Eigenvalues ---    0.15997   0.16000   0.16000   0.16000   0.16000
     Eigenvalues ---    0.16000   0.16000   0.16000   0.16000   0.16000
     Eigenvalues ---    0.17224   0.22000   0.23026   0.24405   0.24995
     Eigenvalues ---    0.25000   0.25598   0.26485   0.29027   0.29059
     Eigenvalues ---    0.30637   0.30855   0.30899   0.32963   0.33531
     Eigenvalues ---    0.33534   0.34033   0.34124   0.34222   0.34281
     Eigenvalues ---    0.34495   0.34950   0.35453   0.35526   0.38815
     Eigenvalues ---    0.52232   0.53802
 RFO step:  Lambda=-1.92625896D-02 EMin= 3.11848814D-03
 Linear search not attempted -- first point.
 Iteration  1 RMS(Cart)=  0.08906565 RMS(Int)=  0.00318548
 Iteration  2 RMS(Cart)=  0.00415104 RMS(Int)=  0.00046161
 Iteration  3 RMS(Cart)=  0.00000503 RMS(Int)=  0.00046160
 Iteration  4 RMS(Cart)=  0.00000000 RMS(Int)=  0.00046160
 Variable       Old X    -DE/DX   Delta X   Delta X   Delta X     New X
                                 (Linear)    (Quad)   (Total)
    R1        2.89946   0.00419   0.00000   0.01355   0.01355   2.91301
    R2        2.06859   0.00234   0.00000   0.00647   0.00647   2.07506
    R3        2.08128  -0.00555   0.00000  -0.01565  -0.01565   2.06563
    R4        2.07275  -0.00138   0.00000  -0.00384  -0.00384   2.06891
    R5        2.89880   0.00486   0.00000   0.01569   0.01569   2.91450
    R6        2.85367  -0.00347   0.00000  -0.00890  -0.00876   2.84490
    R7        3.41241   0.02144   0.00000   0.07974   0.07976   3.49218
    R8        2.06957   0.00227   0.00000   0.00629   0.00629   2.07586
    R9        2.07121  -0.00098   0.00000  -0.00271  -0.00271   2.06849
   R10        2.08124  -0.00526   0.00000  -0.01485  -0.01485   2.06640
   R11        2.55642   0.00871   0.00000   0.01549   0.01560   2.57202
   R12        2.06503  -0.00344   0.00000  -0.00944  -0.00944   2.05559
   R13        2.86291  -0.02599   0.00000  -0.07927  -0.07927   2.78364
   R14        2.77250   0.00945   0.00000   0.02346   0.02345   2.79595
   R15        3.16896  -0.02766   0.00000  -0.06789  -0.06789   3.10107
   R16        2.09117  -0.01098   0.00000  -0.03147  -0.03147   2.05971
   R17        3.29905   0.02197   0.00000   0.06694   0.06694   3.36599
   R18        2.55226   0.00248   0.00000   0.00335   0.00323   2.55549
   R19        2.53075   0.00742   0.00000   0.02610   0.02610   2.55686
   R20        3.21738   0.02016   0.00000   0.05337   0.05324   3.27062
   R21        2.04829   0.00074   0.00000   0.00198   0.00198   2.05027
    A1        1.96326  -0.00254   0.00000  -0.01429  -0.01446   1.94880
    A2        1.92650  -0.00075   0.00000  -0.00020  -0.00019   1.92632
    A3        1.96170  -0.00349   0.00000  -0.02344  -0.02365   1.93805
    A4        1.85899   0.00289   0.00000   0.02357   0.02361   1.88260
    A5        1.87699   0.00230   0.00000   0.00586   0.00549   1.88249
    A6        1.87101   0.00220   0.00000   0.01223   0.01221   1.88322
    A7        2.00801  -0.01299   0.00000  -0.07149  -0.07215   1.93586
    A8        1.90147   0.00329   0.00000  -0.00166  -0.00231   1.89916
    A9        1.81503   0.00735   0.00000   0.05986   0.06117   1.87619
   A10        1.87903   0.00434   0.00000   0.00519   0.00419   1.88322
   A11        1.83282   0.00651   0.00000   0.05612   0.05759   1.89041
   A12        2.03166  -0.00970   0.00000  -0.05196  -0.05201   1.97965
   A13        1.95899  -0.00174   0.00000  -0.00917  -0.00933   1.94965
   A14        1.96634  -0.00435   0.00000  -0.02846  -0.02867   1.93767
   A15        1.92416  -0.00067   0.00000  -0.00015  -0.00017   1.92399
   A16        1.87897   0.00245   0.00000   0.00737   0.00704   1.88601
   A17        1.85899   0.00251   0.00000   0.02202   0.02205   1.88104
   A18        1.87103   0.00241   0.00000   0.01219   0.01213   1.88315
   A19        2.23368   0.01057   0.00000   0.04858   0.04885   2.28253
   A20        1.95358  -0.00319   0.00000  -0.01255  -0.01269   1.94089
   A21        2.09555  -0.00739   0.00000  -0.03597  -0.03611   2.05944
   A22        1.94204  -0.01177   0.00000  -0.04356  -0.04364   1.89840
   A23        2.10844   0.00399   0.00000   0.01470   0.01483   2.12326
   A24        2.23252   0.00778   0.00000   0.02904   0.02895   2.26148
   A25        2.30114   0.01445   0.00000   0.06039   0.06035   2.36149
   A26        1.98853  -0.01278   0.00000  -0.06116  -0.06120   1.92733
   A27        1.99350  -0.00166   0.00000   0.00084   0.00080   1.99430
   A28        2.16266   0.00856   0.00000   0.03307   0.03313   2.19578
   A29        2.15131  -0.01149   0.00000  -0.04521  -0.04533   2.10598
   A30        1.96921   0.00293   0.00000   0.01213   0.01219   1.98140
   A31        1.72924  -0.00345   0.00000  -0.01925  -0.01925   1.70999
   A32        2.22634   0.00714   0.00000   0.02887   0.02864   2.25498
   A33        2.08831  -0.00359   0.00000  -0.01453  -0.01442   2.07389
   A34        1.96848  -0.00356   0.00000  -0.01439  -0.01428   1.95420
   A35        1.81082  -0.00057   0.00000   0.00375   0.00365   1.81446
    D1       -1.11371   0.00343   0.00000   0.05830   0.05745  -1.05626
    D2        0.99751   0.00268   0.00000   0.01511   0.01521   1.01273
    D3       -3.10822  -0.00272   0.00000  -0.01215  -0.01173  -3.11995
    D4        3.09582   0.00194   0.00000   0.03796   0.03724   3.13306
    D5       -1.07614   0.00120   0.00000  -0.00522  -0.00499  -1.08113
    D6        1.10131  -0.00420   0.00000  -0.03248  -0.03193   1.06937
    D7        1.00797   0.00198   0.00000   0.03810   0.03745   1.04543
    D8        3.11920   0.00124   0.00000  -0.00508  -0.00478   3.11442
    D9       -0.98653  -0.00416   0.00000  -0.03235  -0.03173  -1.01826
   D10        1.08373  -0.00346   0.00000  -0.05001  -0.04924   1.03449
   D11       -1.04081  -0.00216   0.00000  -0.03182  -0.03121  -1.07201
   D12       -3.13013  -0.00187   0.00000  -0.02833  -0.02767   3.12538
   D13       -1.03969  -0.00232   0.00000  -0.00440  -0.00442  -1.04411
   D14        3.11895  -0.00102   0.00000   0.01379   0.01362   3.13257
   D15        1.02963  -0.00073   0.00000   0.01728   0.01715   1.04678
   D16        3.06789   0.00306   0.00000   0.02212   0.02164   3.08953
   D17        0.94336   0.00436   0.00000   0.04031   0.03967   0.98303
   D18       -1.14597   0.00465   0.00000   0.04380   0.04321  -1.10276
   D19        2.12885   0.00605   0.00000   0.05419   0.05472   2.18358
   D20       -1.04291   0.00596   0.00000   0.05584   0.05629  -0.98662
   D21       -1.96590  -0.00508   0.00000  -0.03164  -0.03191  -1.99781
   D22        1.14552  -0.00516   0.00000  -0.03000  -0.03035   1.11517
   D23        0.08469   0.00038   0.00000   0.01164   0.01165   0.09634
   D24       -3.08708   0.00030   0.00000   0.01329   0.01322  -3.07386
   D25       -2.18238  -0.00391   0.00000  -0.02245  -0.02014  -2.20252
   D26        1.98477   0.00441   0.00000   0.00506   0.00308   1.98785
   D27       -0.09108  -0.00008   0.00000  -0.01144  -0.01114  -0.10222
   D28        3.10128   0.00026   0.00000   0.00819   0.00793   3.10922
   D29       -0.02131  -0.00007   0.00000  -0.00160  -0.00160  -0.02291
   D30       -0.00797   0.00025   0.00000   0.00592   0.00580  -0.00217
   D31       -3.13056  -0.00008   0.00000  -0.00388  -0.00374  -3.13430
   D32       -3.14037  -0.00028   0.00000  -0.01065  -0.01058   3.13224
   D33       -0.00440   0.00019   0.00000   0.00809   0.00816   0.00376
   D34       -0.01946   0.00000   0.00000  -0.00028  -0.00035  -0.01981
   D35        3.11651   0.00048   0.00000   0.01846   0.01839   3.13490
   D36        3.12434  -0.00040   0.00000  -0.00668  -0.00672   3.11761
   D37       -0.02377  -0.00050   0.00000  -0.00794  -0.00805  -0.03182
   D38        0.00519  -0.00056   0.00000  -0.01736  -0.01754  -0.01235
   D39        3.14027  -0.00066   0.00000  -0.01862  -0.01886   3.12141
   D40        0.00568  -0.00004   0.00000   0.00045   0.00040   0.00609
   D41       -3.13000   0.00010   0.00000   0.00180   0.00185  -3.12815
   D42       -0.00870  -0.00012   0.00000   0.00121   0.00105  -0.00766
   D43       -3.13834   0.00031   0.00000   0.00635   0.00636  -3.13198
   D44        3.12702  -0.00018   0.00000   0.00017  -0.00002   3.12700
   D45       -0.00262   0.00025   0.00000   0.00532   0.00529   0.00268
   D46        0.06300   0.00061   0.00000   0.00950   0.00966   0.07265
   D47       -3.08986   0.00020   0.00000   0.00462   0.00461  -3.08525
         Item               Value     Threshold  Converged?
 Maximum Force            0.027661     0.000450     NO 
 RMS     Force            0.007051     0.000300     NO 
 Maximum Displacement     0.291484     0.001800     NO 
 RMS     Displacement     0.089297     0.001200     NO 
 Predicted change in Energy=-1.046612D-02
 GradGradGradGradGradGradGradGradGradGradGradGradGradGradGradGradGradGrad

                          Input orientation:                          
 ---------------------------------------------------------------------
 Center     Atomic      Atomic             Coordinates (Angstroms)
 Number     Number       Type             X           Y           Z
 ---------------------------------------------------------------------
      1          6           0        0.963679   -0.029841    0.232005
      2          6           0        2.497726    0.094924    0.146296
      3          6           0        3.136649    0.004223    1.547079
      4          6           0        3.032013   -1.043998   -0.680625
      5          6           0        3.821965   -1.043757   -1.788978
      6          6           0        4.089281   -2.438334   -2.180812
      7         16           0        4.928494   -3.171061   -3.385702
      8          6           0        4.289357    0.215655   -2.409066
      9         16           0        5.350161    0.344659   -3.834109
     10          6           0        3.910808    1.413200   -1.907754
     11         16           0        2.881253    1.758905   -0.560179
     12          1           0        0.658897   -0.991364    0.666002
     13          1           0        0.519671    0.044250   -0.764090
     14          1           0        0.538364    0.767417    0.850164
     15          1           0        2.897917   -0.947122    2.041699
     16          1           0        2.788502    0.818149    2.190871
     17          1           0        4.225085    0.077420    1.471802
     18          1           0        2.728586   -2.004519   -0.270042
     19          1           0        3.592067   -3.127293   -1.498094
     20          1           0        5.509193   -0.978105   -4.070106
     21          1           0        4.263902    2.317961   -2.391350
 ---------------------------------------------------------------------
                    Distance matrix (angstroms):
                    1          2          3          4          5
     1  C    0.000000
     2  C    1.541497   0.000000
     3  C    2.540153   1.542284   0.000000
     4  C    2.477784   1.505458   2.464220   0.000000
     5  C    3.644475   2.606816   3.563313   1.361055   0.000000
     6  C    4.625139   3.790234   4.557495   2.304897   1.473036
     7  S    6.218909   5.389834   6.133960   3.929184   2.880861
     8  C    4.253899   3.123203   4.126079   2.480957   1.479554
     9  S    5.992892   4.903303   5.828612   4.152907   2.906138
    10  C    3.917461   2.820243   3.810565   2.883738   2.461430
    11  S    2.739390   1.847980   2.754028   2.809537   3.201530
    12  H    1.098076   2.198047   2.811894   2.729076   4.004332
    13  H    1.093086   2.178089   3.491658   2.739181   3.624818
    14  H    1.094822   2.187870   2.796290   3.441340   4.585571
    15  H    2.803155   2.199674   1.098499   2.727346   3.941738
    16  H    2.808242   2.188125   1.094600   3.431089   4.513750
    17  H    3.490756   2.177393   1.093489   2.704430   3.471632
    18  H    2.695607   2.152741   2.739249   1.087771   2.103737
    19  H    4.415413   3.779456   4.391683   2.306954   2.116268
    20  H    6.330013   5.291349   6.176302   4.198732   2.838062
    21  H    4.825519   3.808007   4.704817   3.968236   3.443734
                    6          7          8          9         10
     6  C    0.000000
     7  S    1.641015   0.000000
     8  C    2.671289   3.582200   0.000000
     9  S    3.473940   3.569196   1.781206   0.000000
    10  C    3.865323   4.922953   1.352305   2.631418   0.000000
    11  S    4.658604   6.039813   2.789760   4.337535   1.730737
    12  H    4.686748   6.276691   4.908481   6.636559   4.793858
    13  H    4.573012   6.053826   4.116535   5.731396   3.831684
    14  H    5.663273   7.261365   4.999697   6.728635   4.404148
    15  H    4.633860   6.206919   4.805983   6.496716   4.711183
    16  H    5.604312   7.182724   4.875960   6.564044   4.290965
    17  H    4.437234   5.885810   3.883861   5.430460   3.647530
    18  H    2.385525   3.988453   3.455518   5.009378   3.969956
    19  H    1.089950   2.313227   3.534315   4.538977   4.570065
    20  H    2.778102   2.369531   2.381620   1.353030   3.598464
    21  H    4.764153   5.617810   2.102535   2.674964   1.084957
                   11         12         13         14         15
    11  S    0.000000
    12  H    3.742508   0.000000
    13  H    2.925525   1.771170   0.000000
    14  H    2.908822   1.772500   1.768936   0.000000
    15  H    3.754015   2.628253   3.809374   3.150697   0.000000
    16  H    2.908934   3.183517   3.805037   2.619769   1.774938
    17  H    2.960105   3.809110   4.327864   3.801899   1.770832
    18  H    3.777677   2.487222   3.053005   3.706151   2.547726
    19  H    5.025920   4.224807   4.476278   5.477973   4.214870
    20  H    5.168837   6.779106   6.072091   7.208679   6.646344
    21  H    2.361662   5.770190   4.673008   5.176024   5.672619
                   16         17         18         19         20
    16  H    0.000000
    17  H    1.769042   0.000000
    18  H    3.745281   3.099677   0.000000
    19  H    5.460832   4.414882   1.874656   0.000000
    20  H    7.058932   5.785829   4.819315   3.861299   0.000000
    21  H    5.042121   4.466035   5.053808   5.558782   3.902951
                   21
    21  H    0.000000
 Stoichiometry    C8H10S3
 Framework group  C1[X(C8H10S3)]
 Deg. of freedom    57
 Full point group                 C1      NOp   1
 Largest Abelian subgroup         C1      NOp   1
 Largest concise Abelian subgroup C1      NOp   1
                         Standard orientation:                         
 ---------------------------------------------------------------------
 Center     Atomic      Atomic             Coordinates (Angstroms)
 Number     Number       Type             X           Y           Z
 ---------------------------------------------------------------------
      1          6           0       -2.861028   -1.165298   -1.182514
      2          6           0       -2.078445   -0.597478    0.018052
      3          6           0       -2.719953   -1.035606    1.350401
      4          6           0       -0.673685   -1.137565   -0.018823
      5          6           0        0.526129   -0.494982   -0.016303
      6          6           0        1.602430   -1.500671   -0.017621
      7         16           0        3.242748   -1.453746   -0.026855
      8          6           0        0.616001    0.981760   -0.000959
      9         16           0        2.120843    1.933913    0.038392
     10          6           0       -0.502713    1.741092   -0.025900
     11         16           0       -2.159906    1.245705   -0.087180
     12          1           0       -2.874786   -2.263259   -1.174602
     13          1           0       -2.404131   -0.842425   -2.121575
     14          1           0       -3.898768   -0.816465   -1.175783
     15          1           0       -2.748612   -2.129455    1.447209
     16          1           0       -3.744801   -0.660490    1.434802
     17          1           0       -2.147042   -0.640711    2.193935
     18          1           0       -0.670361   -2.225321   -0.023366
     19          1           0        1.183059   -2.506691   -0.024111
     20          1           0        2.995956    0.901989    0.038603
     21          1           0       -0.401882    2.821350   -0.022824
 ---------------------------------------------------------------------
 Rotational constants (GHZ):           1.1230936           0.4872328           0.3671429
 Standard basis: 6-31G(2df,p) (6D, 7F)
 There are   403 symmetry adapted cartesian basis functions of A   symmetry.
 There are   370 symmetry adapted basis functions of A   symmetry.
   370 basis functions,   626 primitive gaussians,   403 cartesian basis functions
    53 alpha electrons       53 beta electrons
       nuclear repulsion energy       864.8373371219 Hartrees.
 NAtoms=   21 NActive=   21 NUniq=   21 SFac= 1.00D+00 NAtFMM=   60 NAOKFM=F Big=F
 Integral buffers will be    131072 words long.
 Raffenetti 2 integral format.
 Two-electron integral symmetry is turned on.
 One-electron integrals computed using PRISM.
 PrsmSu:  requested number of processors reduced to:  13 ShMem   1 Linda.
 NBasis=   370 RedAO= T EigKep=  3.64D-04  NBF=   370
 NBsUse=   370 1.00D-06 EigRej= -1.00D+00 NBFU=   370
 Initial guess from the checkpoint file:  "CC1qCrCdCqCdSrCqSrdCS1.chk"
 B after Tr=    -0.000000   -0.000000   -0.000000
         Rot=    0.999927    0.001965    0.000296    0.011923 Ang=   1.39 deg.
 ExpMin= 1.17D-01 ExpMax= 2.19D+04 ExpMxC= 3.30D+03 IAcc=2 IRadAn=         4 AccDes= 0.00D+00
 Harris functional with IExCor=  402 and IRadAn=       4 diagonalized for initial guess.
 HarFok:  IExCor=  402 AccDes= 0.00D+00 IRadAn=         4 IDoV= 1 UseB2=F ITyADJ=14
 ICtDFT=  3500011 ScaDFX=  1.000000  1.000000  1.000000  1.000000
 FoFCou: FMM=F IPFlag=           0 FMFlag=      100000 FMFlg1=           0
         NFxFlg=           0 DoJE=T BraDBF=F KetDBF=T FulRan=T
         wScrn=  0.000000 ICntrl=       500 IOpCl=  0 I1Cent=   200000004 NGrid=           0
         NMat0=    1 NMatS0=      1 NMatT0=    0 NMatD0=    1 NMtDS0=    0 NMtDT0=    0
 Petite list used in FoFCou.
 Requested convergence on RMS density matrix=1.00D-08 within 128 cycles.
 Requested convergence on MAX density matrix=1.00D-06.
 Requested convergence on             energy=1.00D-06.
 No special actions if energy rises.
 Integral accuracy reduced to 1.0D-05 until final iterations.
 Initial convergence to 1.0D-05 achieved.  Increase integral accuracy.
 SCF Done:  E(RB3LYP) =  -1505.41848439     A.U. after   13 cycles
            NFock= 13  Conv=0.88D-08     -V/T= 2.0041
 PrsmSu:  requested number of processors reduced to:  13 ShMem   1 Linda.
 Calling FoFJK, ICntrl=      2127 FMM=F ISym2X=0 I1Cent= 0 IOpClX= 0 NMat=1 NMatS=1 NMatT=0.
 ***** Axes restored to original set *****
 -------------------------------------------------------------------
 Center     Atomic                   Forces (Hartrees/Bohr)
 Number     Number              X              Y              Z
 -------------------------------------------------------------------
      1        6          -0.003652324   -0.000462345   -0.001222727
      2        6          -0.000624483   -0.006341577    0.002128433
      3        6           0.003254554   -0.000732496    0.002965881
      4        6          -0.002394197    0.012765908    0.003015383
      5        6           0.000866137   -0.009582500    0.000739912
      6        6           0.003397768   -0.000769628   -0.007295942
      7       16          -0.000174969    0.007651124    0.001157269
      8        6          -0.003795761    0.002185086    0.004301943
      9       16           0.002782653   -0.004318512   -0.002954324
     10        6           0.003326269   -0.007705380   -0.004361981
     11       16          -0.001769059    0.003886839    0.000881957
     12        1           0.002364870    0.000804959    0.000656740
     13        1          -0.000101005    0.000166657    0.000487424
     14        1           0.001033748    0.000197739    0.000323939
     15        1          -0.001423114    0.000749238   -0.001831495
     16        1          -0.001032060    0.000212572   -0.000763655
     17        1          -0.000510455    0.000395861    0.000385036
     18        1           0.000009323    0.000367389   -0.000658209
     19        1           0.000290017   -0.000024181   -0.000026287
     20        1          -0.000976880   -0.001023188    0.001023749
     21        1          -0.000871034    0.001576435    0.001046954
 -------------------------------------------------------------------
 Cartesian Forces:  Max     0.012765908 RMS     0.003290181

 GradGradGradGradGradGradGradGradGradGradGradGradGradGradGradGradGradGrad
 Berny optimization.
 Using GEDIIS/GDIIS optimizer.
 FormGI is forming the generalized inverse of G from B-inverse, IUseBI=4.
 Internal  Forces:  Max     0.023023687 RMS     0.004180492
 Search for a local minimum.
 Step number   2 out of a maximum of  113
 All quantities printed in internal units (Hartrees-Bohrs-Radians)
 Mixed Optimization -- RFO/linear search
 Update second derivatives using D2CorX and points    1    2
 DE= -8.98D-03 DEPred=-1.05D-02 R= 8.58D-01
 TightC=F SS=  1.41D+00  RLast= 3.05D-01 DXNew= 5.0454D-01 9.1524D-01
 Trust test= 8.58D-01 RLast= 3.05D-01 DXMaxT set to 5.05D-01
 ITU=  1  0
 Use linear search instead of GDIIS.
     Eigenvalues ---    0.00312   0.00316   0.00568   0.00569   0.00658
     Eigenvalues ---    0.01087   0.01322   0.01481   0.01609   0.01992
     Eigenvalues ---    0.02178   0.02428   0.05302   0.05417   0.05474
     Eigenvalues ---    0.05549   0.05572   0.06099   0.08313   0.13271
     Eigenvalues ---    0.14685   0.15996   0.15999   0.16000   0.16000
     Eigenvalues ---    0.16000   0.16000   0.16000   0.16000   0.16082
     Eigenvalues ---    0.16542   0.22093   0.22583   0.23967   0.24779
     Eigenvalues ---    0.25024   0.26379   0.27894   0.29038   0.29145
     Eigenvalues ---    0.30669   0.30876   0.32702   0.33423   0.33533
     Eigenvalues ---    0.33988   0.34051   0.34128   0.34249   0.34357
     Eigenvalues ---    0.34518   0.34703   0.35525   0.37766   0.46990
     Eigenvalues ---    0.52562   0.54186
 RFO step:  Lambda=-6.34856421D-03 EMin= 3.11887044D-03
 Quartic linear search produced a step of -0.05597.
 Iteration  1 RMS(Cart)=  0.06994243 RMS(Int)=  0.00180715
 Iteration  2 RMS(Cart)=  0.00226959 RMS(Int)=  0.00012554
 Iteration  3 RMS(Cart)=  0.00000313 RMS(Int)=  0.00012552
 Iteration  4 RMS(Cart)=  0.00000000 RMS(Int)=  0.00012552
 Variable       Old X    -DE/DX   Delta X   Delta X   Delta X     New X
                                 (Linear)    (Quad)   (Total)
    R1        2.91301   0.00031  -0.00076   0.00613   0.00537   2.91838
    R2        2.07506  -0.00110  -0.00036  -0.00048  -0.00084   2.07422
    R3        2.06563  -0.00039   0.00088  -0.00703  -0.00615   2.05948
    R4        2.06891  -0.00008   0.00021  -0.00166  -0.00145   2.06746
    R5        2.91450   0.00077  -0.00088   0.00838   0.00750   2.92200
    R6        2.84490  -0.00139   0.00049  -0.00664  -0.00611   2.83879
    R7        3.49218   0.00295  -0.00446   0.04162   0.03718   3.52936
    R8        2.07586  -0.00116  -0.00035  -0.00072  -0.00107   2.07479
    R9        2.06849   0.00004   0.00015  -0.00093  -0.00078   2.06771
   R10        2.06640  -0.00051   0.00083  -0.00704  -0.00621   2.06018
   R11        2.57202   0.00429  -0.00087   0.01331   0.01247   2.58449
   R12        2.05559  -0.00058   0.00053  -0.00513  -0.00460   2.05099
   R13        2.78364  -0.00422   0.00444  -0.04265  -0.03821   2.74542
   R14        2.79595  -0.00796  -0.00131  -0.01187  -0.01319   2.78276
   R15        3.10107  -0.00436   0.00380  -0.03620  -0.03240   3.06867
   R16        2.05971  -0.00013   0.00176  -0.01235  -0.01059   2.04912
   R17        3.36599   0.00223  -0.00375   0.03207   0.02833   3.39432
   R18        2.55549  -0.00421  -0.00018  -0.00632  -0.00655   2.54894
   R19        2.55686   0.00071  -0.00146   0.01234   0.01088   2.56774
   R20        3.27062   0.00396  -0.00298   0.03021   0.02719   3.29781
   R21        2.05027   0.00056  -0.00011   0.00221   0.00210   2.05237
    A1        1.94880  -0.00299   0.00081  -0.02397  -0.02332   1.92548
    A2        1.92632   0.00140   0.00001   0.01118   0.01127   1.93759
    A3        1.93805  -0.00127   0.00132  -0.01782  -0.01667   1.92138
    A4        1.88260   0.00126  -0.00132   0.01916   0.01793   1.90052
    A5        1.88249   0.00142  -0.00031   0.00364   0.00292   1.88540
    A6        1.88322   0.00035  -0.00068   0.00972   0.00910   1.89232
    A7        1.93586  -0.00242   0.00404  -0.03951  -0.03542   1.90044
    A8        1.89916   0.00099   0.00013   0.00469   0.00495   1.90411
    A9        1.87619   0.00086  -0.00342   0.02472   0.02138   1.89757
   A10        1.88322   0.00139  -0.00023   0.01089   0.01061   1.89384
   A11        1.89041   0.00082  -0.00322   0.02485   0.02184   1.91225
   A12        1.97965  -0.00177   0.00291  -0.02751  -0.02468   1.95497
   A13        1.94965  -0.00278   0.00052  -0.02064  -0.02029   1.92936
   A14        1.93767  -0.00155   0.00160  -0.02150  -0.02007   1.91760
   A15        1.92399   0.00147   0.00001   0.01159   0.01168   1.93567
   A16        1.88601   0.00146  -0.00039   0.00444   0.00362   1.88963
   A17        1.88104   0.00117  -0.00123   0.01852   0.01737   1.89841
   A18        1.88315   0.00040  -0.00068   0.00958   0.00898   1.89213
   A19        2.28253   0.00146  -0.00273   0.02606   0.02337   2.30590
   A20        1.94089  -0.00041   0.00071  -0.00678  -0.00608   1.93481
   A21        2.05944  -0.00106   0.00202  -0.01924  -0.01724   2.04220
   A22        1.89840   0.02302   0.00244   0.06755   0.06999   1.96839
   A23        2.12326  -0.00123  -0.00083   0.00063  -0.00022   2.12305
   A24        2.26148  -0.02179  -0.00162  -0.06810  -0.06973   2.19175
   A25        2.36149  -0.01328  -0.00338  -0.03182  -0.03551   2.32598
   A26        1.92733   0.00679   0.00343   0.00528   0.00839   1.93572
   A27        1.99430   0.00650  -0.00004   0.02701   0.02665   2.02095
   A28        2.19578  -0.01275  -0.00185  -0.03293  -0.03474   2.16104
   A29        2.10598   0.00289   0.00254  -0.00859  -0.00614   2.09984
   A30        1.98140   0.00987  -0.00068   0.04150   0.04086   2.02226
   A31        1.70999  -0.00406   0.00108  -0.03003  -0.02895   1.68104
   A32        2.25498  -0.00030  -0.00160   0.00809   0.00637   2.26136
   A33        2.07389   0.00221   0.00081   0.00743   0.00829   2.08219
   A34        1.95420  -0.00190   0.00080  -0.01556  -0.01471   1.93949
   A35        1.81446  -0.00109  -0.00020  -0.00125  -0.00150   1.81296
    D1       -1.05626   0.00042  -0.00322   0.03540   0.03203  -1.02424
    D2        1.01273   0.00130  -0.00085   0.02812   0.02711   1.03983
    D3       -3.11995   0.00027   0.00066   0.01268   0.01324  -3.10671
    D4        3.13306  -0.00015  -0.00208   0.01949   0.01739  -3.13273
    D5       -1.08113   0.00073   0.00028   0.01220   0.01247  -1.06866
    D6        1.06937  -0.00030   0.00179  -0.00323  -0.00140   1.06798
    D7        1.04543  -0.00068  -0.00210   0.01153   0.00954   1.05497
    D8        3.11442   0.00020   0.00027   0.00425   0.00462   3.11904
    D9       -1.01826  -0.00083   0.00178  -0.01119  -0.00924  -1.02750
   D10        1.03449  -0.00038   0.00276  -0.02090  -0.01796   1.01652
   D11       -1.07201   0.00072   0.00175   0.00240   0.00406  -1.06796
   D12        3.12538   0.00026   0.00155  -0.00331  -0.00171   3.12367
   D13       -1.04411  -0.00104   0.00025  -0.01034  -0.00989  -1.05401
   D14        3.13257   0.00006  -0.00076   0.01297   0.01213  -3.13849
   D15        1.04678  -0.00040  -0.00096   0.00726   0.00636   1.05314
   D16        3.08953  -0.00023  -0.00121   0.00148   0.00029   3.08983
   D17        0.98303   0.00088  -0.00222   0.02478   0.02232   1.00535
   D18       -1.10276   0.00042  -0.00242   0.01907   0.01655  -1.08621
   D19        2.18358   0.00096  -0.00306   0.03788   0.03490   2.21848
   D20       -0.98662   0.00094  -0.00315   0.03947   0.03638  -0.95024
   D21       -1.99781  -0.00056   0.00179  -0.00058   0.00132  -1.99650
   D22        1.11517  -0.00059   0.00170   0.00102   0.00279   1.11797
   D23        0.09634   0.00031  -0.00065   0.02096   0.02038   0.11672
   D24       -3.07386   0.00029  -0.00074   0.02255   0.02186  -3.05200
   D25       -2.20252  -0.00100   0.00113  -0.02781  -0.02640  -2.22892
   D26        1.98785   0.00093  -0.00017  -0.00848  -0.00866   1.97918
   D27       -0.10222  -0.00026   0.00062  -0.02198  -0.02115  -0.12337
   D28        3.10922  -0.00010  -0.00044   0.00550   0.00528   3.11450
   D29       -0.02291  -0.00001   0.00009  -0.00152  -0.00154  -0.02445
   D30       -0.00217  -0.00009  -0.00032   0.00359   0.00353   0.00136
   D31       -3.13430  -0.00000   0.00021  -0.00343  -0.00330  -3.13759
   D32        3.13224   0.00046   0.00059   0.03410   0.03473  -3.11622
   D33        0.00376  -0.00022  -0.00046  -0.01539  -0.01580  -0.01204
   D34       -0.01981   0.00055   0.00002   0.04244   0.04242   0.02260
   D35        3.13490  -0.00014  -0.00103  -0.00704  -0.00811   3.12679
   D36        3.11761  -0.00027   0.00038  -0.01240  -0.01218   3.10543
   D37       -0.03182  -0.00030   0.00045  -0.01443  -0.01409  -0.04591
   D38       -0.01235  -0.00046   0.00098  -0.02194  -0.02082  -0.03316
   D39        3.12141  -0.00050   0.00106  -0.02398  -0.02273   3.09868
   D40        0.00609   0.00018  -0.00002   0.01039   0.01037   0.01646
   D41       -3.12815   0.00023  -0.00010   0.01247   0.01237  -3.11578
   D42       -0.00766   0.00006  -0.00006   0.00413   0.00407  -0.00359
   D43       -3.13198   0.00020  -0.00036   0.00760   0.00729  -3.12469
   D44        3.12700  -0.00007   0.00000   0.00203   0.00200   3.12900
   D45        0.00268   0.00008  -0.00030   0.00550   0.00523   0.00791
   D46        0.07265   0.00030  -0.00054   0.01450   0.01406   0.08671
   D47       -3.08525   0.00019  -0.00026   0.01139   0.01121  -3.07404
         Item               Value     Threshold  Converged?
 Maximum Force            0.023024     0.000450     NO 
 RMS     Force            0.004180     0.000300     NO 
 Maximum Displacement     0.341861     0.001800     NO 
 RMS     Displacement     0.069518     0.001200     NO 
 Predicted change in Energy=-3.356467D-03
 GradGradGradGradGradGradGradGradGradGradGradGradGradGradGradGradGradGrad

                          Input orientation:                          
 ---------------------------------------------------------------------
 Center     Atomic      Atomic             Coordinates (Angstroms)
 Number     Number       Type             X           Y           Z
 ---------------------------------------------------------------------
      1          6           0        0.953944   -0.032077    0.276992
      2          6           0        2.486925    0.108203    0.153413
      3          6           0        3.113531    0.013459    1.563834
      4          6           0        3.018203   -1.022101   -0.681352
      5          6           0        3.815842   -1.045932   -1.792065
      6          6           0        4.105681   -2.394677   -2.247642
      7         16           0        5.000758   -2.990156   -3.464689
      8          6           0        4.304864    0.193685   -2.418703
      9         16           0        5.397098    0.229776   -3.844200
     10          6           0        3.928736    1.395309   -1.934967
     11         16           0        2.878135    1.774438   -0.594086
     12          1           0        0.695443   -0.989633    0.747160
     13          1           0        0.476494    0.020981   -0.701250
     14          1           0        0.552270    0.771205    0.901773
     15          1           0        2.849010   -0.939968    2.039711
     16          1           0        2.738433    0.826435    2.192814
     17          1           0        4.199804    0.090635    1.512904
     18          1           0        2.704206   -1.980111   -0.279379
     19          1           0        3.636947   -3.129965   -1.603091
     20          1           0        5.480680   -1.117153   -4.002626
     21          1           0        4.286565    2.299019   -2.419542
 ---------------------------------------------------------------------
                    Distance matrix (angstroms):
                    1          2          3          4          5
     1  C    0.000000
     2  C    1.544339   0.000000
     3  C    2.514330   1.546254   0.000000
     4  C    2.481881   1.502224   2.474335   0.000000
     5  C    3.674147   2.623534   3.588539   1.367655   0.000000
     6  C    4.678579   3.827512   4.616366   2.349434   1.452815
     7  S    6.255166   5.386079   6.153809   3.943441   2.825190
     8  C    4.306553   3.150871   4.160812   2.480327   1.472572
     9  S    6.065839   4.946190   5.874377   4.150897   2.887743
    10  C    3.972352   2.845486   3.849114   2.871322   2.448024
    11  S    2.779349   1.867655   2.795188   2.801404   3.204519
    12  H    1.097631   2.183390   2.742317   2.727071   4.023397
    13  H    1.089830   2.186296   3.476295   2.747490   3.671434
    14  H    1.094055   2.177729   2.751829   3.435558   4.605394
    15  H    2.742758   2.188125   1.097931   2.727555   3.953290
    16  H    2.755326   2.176757   1.094186   3.428730   4.532751
    17  H    3.475363   2.186888   1.090202   2.729308   3.515968
    18  H    2.677274   2.143729   2.745779   1.085338   2.096818
    19  H    4.508894   3.859222   4.492716   2.382339   2.100216
    20  H    6.323278   5.266566   6.153629   4.135660   2.768273
    21  H    4.879720   3.828639   4.739945   3.957257   3.435696
                    6          7          8          9         10
     6  C    0.000000
     7  S    1.623872   0.000000
     8  C    2.601645   3.422747   0.000000
     9  S    3.332343   3.266355   1.796196   0.000000
    10  C    3.806976   4.766716   1.348841   2.675766   0.000000
    11  S    4.650016   5.953759   2.804205   4.392540   1.745126
    12  H    4.751075   6.346455   4.944780   6.683795   4.830729
    13  H    4.625768   6.096925   4.199510   5.842438   3.915203
    14  H    5.706869   7.280307   5.043912   6.803658   4.453889
    15  H    4.698595   6.255534   4.825157   6.517781   4.734701
    16  H    5.653546   7.189702   4.911229   6.623447   4.333476
    17  H    4.508586   5.908403   3.934360   5.491033   3.696413
    18  H    2.451542   4.054693   3.444445   4.984297   3.953973
    19  H    1.084345   2.311941   3.486830   4.405515   4.546799
    20  H    2.569564   2.006948   2.368470   1.358787   3.605025
    21  H    4.700325   5.438546   2.105414   2.746763   1.086070
                   11         12         13         14         15
    11  S    0.000000
    12  H    3.768710   0.000000
    13  H    2.975563   1.779655   0.000000
    14  H    2.941720   1.773402   1.771514   0.000000
    15  H    3.782292   2.512171   3.750350   3.081888   0.000000
    16  H    2.947039   3.092221   3.760417   2.539517   1.776470
    17  H    3.003566   3.746184   4.332479   3.760474   1.778852
    18  H    3.771728   2.463728   3.024077   3.687233   2.545790
    19  H    5.064293   4.330952   4.553047   5.568546   4.322839
    20  H    5.172300   6.743531   6.102156   7.204738   6.592944
    21  H    2.364562   5.808562   4.760108   5.225927   5.695836
                   16         17         18         19         20
    16  H    0.000000
    17  H    1.771803   0.000000
    18  H    3.740269   3.120430   0.000000
    19  H    5.556017   4.516470   1.986048   0.000000
    20  H    7.048470   5.789686   4.723989   3.634354   0.000000
    21  H    5.083212   4.510945   5.039356   5.528333   3.949975
                   21
    21  H    0.000000
 Stoichiometry    C8H10S3
 Framework group  C1[X(C8H10S3)]
 Deg. of freedom    57
[...]
 1,0.00075310,0.00017266,-0.00126526,0.14905491,-0.38732424,-0.03825591
 ,0.00952820,-0.00050992,-0.00479060,-0.05912041,0.74683339,-0.00103123
 ,0.00180387,-0.00235766,0.01458359,0.00304268,-0.00844577,0.00025074,-
 0.00189036,-0.00001024,0.00443960,0.00129141,-0.00029340,-0.00984961,-
 0.00000307,0.00931015,0.00221398,0.00077393,-0.00078621,-0.00024364,0.
 00026398,0.00019055,0.03273328,-0.02743208,-0.06337056,0.00899746,-0.0
 0837435,0.00223179,-0.15062219,-0.05317044,0.18182171,-0.00105771,-0.0
 2136891,0.01630818,-0.04153202,0.01072606,0.00073796,0.00028412,0.0110
 6162,-0.00945792,0.00446987,0.00804365,-0.00179054,-0.00585856,-0.0093
 3286,-0.00125029,-0.00032016,0.00122098,0.00103741,0.00075747,0.000075
 45,-0.00063907,-0.02980383,0.02030265,0.01507338,0.00318325,0.00308532
 ,0.00263043,-0.13712735,0.03131420,0.04656585,0.21976797,-0.00473886,-
 0.00386450,0.00570780,0.03262457,-0.07217437,0.03180775,0.00074836,-0.
 00807646,0.01050195,-0.00396361,-0.02878853,0.01092782,0.00537354,0.00
 083268,-0.00320116,0.00042546,0.00119559,0.00030082,0.00082031,-0.0003
 3367,0.00002255,0.02043081,-0.00668486,-0.00739754,0.00078337,-0.00053
 324,-0.00132504,0.01419531,-0.05028990,0.00531000,-0.05508578,0.160730
 79,0.00413787,0.01399859,-0.01041339,-0.01135308,0.03126602,-0.0482585
 4,-0.00331217,0.02565527,-0.01957073,-0.00232092,0.00442268,0.00271422
 ,0.00548962,0.00025319,-0.00508858,-0.00009339,0.00146136,-0.00000330,
 0.00018778,-0.00066300,-0.00028381,0.01246112,-0.00760576,0.00033346,0
 .00427024,-0.00035347,0.00336961,0.06427204,-0.00574880,-0.05758673,-0
 .08075795,-0.05606845,0.14091716,-0.04620391,-0.00154915,0.00075521,-0
 .00293028,-0.02396672,0.01902463,0.00168987,-0.00061113,0.00062338,0.0
 0127680,-0.00105870,-0.00069434,-0.00007167,-0.00025966,-0.00017371,-0
 .00004523,0.00013940,0.00002214,0.00008026,-0.00000517,-0.00006176,0.0
 0019408,-0.00006492,-0.00017458,-0.00018252,0.00018719,0.00005089,0.00
 016906,-0.00215378,0.00097851,-0.00444471,0.00081903,0.00150474,0.0508
 2620,-0.00255069,-0.20881502,0.12703039,-0.00039512,-0.00388667,0.0023
 9046,0.00058579,-0.00002247,-0.00000650,0.00027416,0.00058625,-0.00094
 574,-0.00028160,0.00023733,0.00023483,0.00008046,-0.00013298,-0.000013
 30,-0.00004087,0.00005923,0.00005606,-0.00010566,0.00010119,-0.0000624
 3,-0.00009569,0.00010831,-0.00001209,0.00068238,-0.00026302,-0.0000012
 8,-0.00088202,0.00117520,-0.00067830,0.00331415,0.22515651,0.00154126,
 0.12698353,-0.14486636,0.00095610,0.00919017,-0.00911048,-0.00095727,-
 0.00038651,0.00033655,-0.00050240,0.00129827,0.00073728,-0.00001019,-0
 .00009481,0.00003919,0.00007999,-0.00002784,-0.00008794,-0.00008522,-0
 .00003044,0.00007384,-0.00007923,-0.00023150,0.00013006,0.00002563,-0.
 00017122,-0.00007865,-0.00033703,0.00157911,0.00049094,0.00235014,-0.0
 0108831,-0.00070715,-0.00405430,-0.14052894,0.15573870,-0.16143774,-0.
 02572145,-0.12755152,-0.01998977,-0.00371748,-0.02270448,-0.00538480,-
 0.00065600,0.00417803,0.00121723,-0.00157651,-0.00106309,-0.00005328,0
 .00014731,0.00031941,-0.00009943,0.00004664,0.00005337,0.00003861,-0.0
 0000447,-0.00001575,-0.00002698,0.00003680,-0.00011351,0.00003141,0.00
 000666,-0.00001557,0.00015573,0.00057291,0.00033767,0.00076195,-0.0001
 6625,-0.00070901,0.00063209,0.00045921,0.00120259,0.17822262,-0.025551
 29,-0.05373172,-0.02960405,-0.00215902,-0.00246036,-0.00234997,-0.0007
 0782,0.00018830,0.00034736,0.00026692,0.00020685,0.00022620,0.00001154
 ,0.00027103,0.00012745,0.00000763,-0.00010634,-0.00014729,-0.00006849,
 0.00000372,0.00010201,0.00013563,-0.00020267,0.00001455,0.00001417,-0.
 00010754,-0.00006747,-0.00017945,0.00015891,0.00049261,-0.00044057,0.0
 0006537,-0.00086006,0.01765564,0.00451430,0.01874006,0.02929956,0.0533
 2993,-0.13108932,-0.03027338,-0.19381923,0.00964165,0.00243592,0.00942
 452,0.00177322,0.00009293,-0.00075310,0.00018571,0.00024421,0.00076556
 ,-0.00003859,0.00023416,0.00018858,0.00001022,-0.00010838,-0.00006882,
 -0.00002065,0.00003247,0.00005590,0.00011821,-0.00005591,0.00000875,-0
 .00003543,0.00000598,-0.00004173,0.00003332,0.00001843,0.00027464,0.00
 021597,-0.00035150,0.00045837,-0.01176745,-0.00420129,-0.01357842,0.14
 032226,0.03226116,0.20772155,-0.06589697,0.05571541,0.03510255,-0.0087
 8962,0.02551782,0.01552389,0.00159947,0.00116019,0.00078062,-0.0057484
 7,-0.00232884,0.00191765,0.00015533,0.00197426,0.00083386,-0.00006786,
 -0.00051755,0.00020408,-0.00020879,0.00019894,0.00024156,0.00022148,0.
 00010818,-0.00014584,0.00009224,-0.00014250,0.00000994,-0.00051972,0.0
 0000760,-0.00022951,0.00098232,0.00021199,0.00012044,-0.00045024,-0.00
 039046,-0.00068194,0.00646612,-0.01816460,-0.01017242,0.07236302,0.058
 48897,-0.22289324,-0.11289805,-0.00232532,0.00367449,0.00333700,-0.000
 03498,0.00004373,0.00034908,-0.00108081,0.00001868,0.00000668,0.000106
 51,0.00048472,0.00022872,-0.00003228,0.00002895,0.00023231,0.00003225,
 0.00001625,-0.00007150,-0.00007291,-0.00006064,0.00005423,0.00002228,0
 .00003780,-0.00002995,0.00017672,0.00033547,-0.00001648,-0.00009530,0.
 00056870,-0.00030986,0.00623845,-0.01964587,-0.01384631,0.00085108,-0.
 00314564,-0.00077546,-0.06254291,0.23956882,0.03635221,-0.11227914,-0.
 11789014,0.00329998,-0.00942673,-0.00786377,-0.00096832,0.00046961,0.0
 0020979,0.00280508,0.00103919,0.00003095,-0.00026929,-0.00120788,0.000
 00173,-0.00007671,0.00036578,-0.00007229,0.00015343,-0.00010416,-0.000
 16532,-0.00031658,0.00024375,0.00005995,-0.00007878,0.00014793,0.00007
 133,0.00057199,0.00011812,-0.00023962,0.00011446,-0.00052936,-0.000144
 83,-0.00597562,0.01676421,0.01117571,0.00720014,-0.01912095,-0.0114955
 8,-0.04257119,0.12328046,0.12573837,0.00109298,0.00098730,-0.00014464,
 -0.00193270,0.01647782,-0.01160757,-0.04644106,0.00372679,-0.00320767,
 0.00035980,0.00002353,0.00058168,0.00015373,0.00025635,-0.00003261,0.0
 0001246,-0.00009971,-0.00009980,-0.00003211,0.00001403,0.00006169,0.00
 037966,-0.00077014,0.00010727,0.00013519,-0.00011034,-0.00010116,-0.00
 059362,0.00011115,0.00113055,-0.00175610,0.00129826,-0.00365310,-0.000
 52872,-0.00046526,0.00007272,0.00024145,-0.00027422,0.00025067,-0.0001
 0522,0.00004456,-0.00005491,0.04788335,-0.00008453,0.00011702,-0.00018
 232,0.00012600,0.00308804,-0.00219897,0.00340789,-0.21883523,0.1215401
 4,0.00047677,0.00015261,-0.00040009,-0.00013329,0.00035801,0.00019969,
 0.00010919,-0.00021817,-0.00013043,-0.00005902,0.00005360,0.00011529,-
 0.00010537,-0.00017002,-0.00008184,-0.00006378,0.00004226,-0.00007164,
 0.00009408,0.00015769,-0.00009939,-0.00012167,0.00145223,-0.00049784,0
 .00031600,0.00036729,-0.00009099,0.00014098,0.00018165,-0.00015555,-0.
 00004115,-0.00003203,0.00008218,-0.00406608,0.23597448,0.00132657,0.00
 025217,0.00056341,-0.00055365,0.01762784,-0.01486987,-0.00312523,0.122
 11466,-0.13341091,-0.00004314,0.00047044,0.00083147,0.00046758,0.00045
 614,0.00002628,0.00001707,-0.00026065,-0.00023342,-0.00011443,0.000000
 61,0.00013082,0.00026611,-0.00025250,0.00034142,0.00011165,-0.00028035
 ,-0.00006193,-0.00148046,0.00019498,0.00098739,-0.00198593,0.00125851,
 -0.00401758,-0.00044256,-0.00034191,0.00052971,0.00015367,-0.00033048,
 0.00006218,-0.00008468,-0.00008798,0.00006211,0.00605050,-0.13526638,0
 .14522097,0.00146319,-0.00080738,-0.00031432,0.00350024,-0.01841264,-0
 .01469180,-0.06806781,0.06074758,0.04312033,-0.00290126,0.00091481,-0.
 00186956,0.00047475,-0.00147196,-0.00047486,0.00013699,0.00050474,0.00
 069232,0.00016056,-0.00005339,-0.00040266,-0.00027423,0.00024848,0.000
 12747,0.00006977,0.00013400,0.00001979,0.00009416,0.00033379,-0.000159
 12,0.00039805,-0.00012267,0.00107495,-0.00012932,-0.00004175,0.0000701
 3,0.00028106,0.00023706,0.00015867,-0.00038834,0.00029756,-0.00000762,
 -0.00091104,-0.00049869,0.00030199,0.07240417,0.00046049,-0.00014007,0
 .00031928,0.00165881,-0.00417031,-0.00126453,0.05960908,-0.21068723,-0
 .11501148,-0.00019763,0.00065031,-0.00142068,-0.00099053,-0.00053531,0
 .00047313,-0.00008094,0.00007695,0.00010857,0.00005337,-0.00001317,-0.
 00009392,0.00005940,0.00076960,0.00021479,0.00002123,0.00002547,0.0000
 4129,0.00034542,-0.00023839,-0.00021480,-0.00037878,0.00121498,0.00010
 425,-0.00004191,-0.00012255,-0.00008790,-0.00007698,0.00029624,0.00027
 726,-0.00058938,0.00029461,0.00000385,0.00717841,-0.01874465,-0.014388
 58,-0.06525583,0.22658185,0.00139740,0.00027737,0.00075488,0.00526819,
 -0.02001194,-0.01696882,0.04239870,-0.11327233,-0.12372410,-0.00345197
 ,0.00056356,-0.00214447,-0.00017375,-0.00144791,-0.00036546,0.00004573
 ,0.00065258,0.00071237,0.00023224,-0.00011928,-0.00047179,-0.00056602,
 0.00043712,0.00006725,-0.00014773,0.00018866,0.00008255,0.00127577,-0.
 00012623,-0.00049864,0.00005499,-0.00015485,0.00149481,-0.00014526,0.0
 0008445,0.00008006,0.00013297,0.00040026,0.00005283,-0.00059371,0.0001
 6042,0.00050426,-0.00561059,0.01528091,0.01136639,-0.04280253,0.126681
 37,0.13560362,-0.00182551,-0.00065956,-0.00443382,-0.01909760,-0.00305
 208,0.00659143,-0.27407162,-0.03997088,0.09041974,0.00016559,0.0009466
 2,0.00078598,0.00006214,-0.00050202,-0.00006415,0.00010382,-0.00011005
 ,-0.00017488,-0.00000951,0.00003385,0.00003276,0.00055369,-0.00012603,
 0.00020818,0.00007316,0.00000432,0.00002196,0.00040368,0.00031203,0.00
 038202,-0.00004413,-0.00019353,0.00109303,0.00028352,-0.00000114,0.000
 03916,-0.00118729,-0.00025681,0.00061276,0.00034372,0.00001251,-0.0000
 3396,0.00216161,0.00060016,-0.00065211,-0.00669354,-0.00182020,0.00248
 104,0.29866856,-0.00044025,0.00013628,-0.00071044,-0.00289647,-0.00311
 732,0.00187564,-0.04046657,-0.05405880,0.01499663,-0.00108946,-0.00011
 378,0.00087465,0.00010346,0.00010909,-0.00003253,0.00001292,-0.0001972
 6,-0.00008362,-0.00005534,0.00003118,0.00006350,-0.00008601,0.00028449
 ,0.00011599,0.00018292,-0.00007087,0.00000733,-0.00028039,0.00007883,0
 .00020531,0.00088619,0.00021427,-0.00050494,0.00034401,0.00025809,-0.0
 0024942,-0.00026496,0.00067178,0.00009599,-0.00036125,0.00019838,0.000
 17595,-0.02430583,-0.00415132,0.00897911,0.02388468,0.00484446,-0.0087
 2291,0.04478827,0.05473140,-0.00289321,-0.00056984,-0.00425321,-0.0238
 5777,-0.00435553,0.00894747,0.09393484,0.01590876,-0.08319155,-0.00002
 217,0.00108748,0.00124761,-0.00029972,-0.00038175,0.00000217,0.0001886
 2,-0.00015778,-0.00024570,-0.00003292,0.00006165,0.00010307,0.00046342
 ,-0.00052758,-0.00088715,0.00013143,0.00007582,-0.00016792,-0.00093498
 ,0.00095554,-0.00065357,0.00055619,-0.00063745,0.00095279,0.00006228,-
 0.00020683,-0.00006140,-0.00168193,-0.00018908,0.00068403,-0.00004109,
 0.00019761,-0.00004894,0.01676295,0.00180516,-0.00682589,0.01485590,0.
 00402668,-0.00630220,-0.09734968,-0.01708902,0.09045072,0.00092839,0.0
 0159110,-0.00008980,0.00574370,0.00644827,0.00381697,-0.00076389,0.001
 50589,-0.00002681,-0.11891975,-0.12071180,0.02969183,-0.00790935,-0.02
 110298,0.00529263,-0.00323830,-0.00082769,-0.00307374,0.00130912,0.000
 16835,-0.00012032,0.00249080,-0.00114593,0.00614699,0.00019035,0.00017
 479,0.00005263,-0.00188758,0.00023057,0.00045433,0.00114395,0.00094336
 ,-0.00003261,0.00036495,-0.00003685,-0.00001083,-0.00001172,0.00005292
 ,-0.00020920,-0.00015143,-0.00011813,-0.00003951,-0.00010806,-0.000105
 08,-0.00031616,0.00039305,0.00000770,0.00025655,0.00008432,-0.00005459
 ,0.00009935,0.12077083,-0.00185789,0.00089460,0.00104994,-0.01122648,-
 0.01546215,0.00111354,0.00143887,-0.00208469,0.00013052,-0.12288995,-0
 .24631286,0.03388780,-0.00175277,-0.00027246,-0.00130027,0.00428802,-0
 .00069125,-0.00198203,-0.00033944,0.00046231,0.00012944,-0.00168487,0.
 00260791,-0.00214264,-0.00027328,-0.00019494,0.00041801,0.00121956,0.0
 0033065,-0.00054956,-0.00006073,-0.00227653,-0.00076891,0.00047716,0.0
 0026006,-0.00079288,0.00064378,-0.00017059,0.00020725,0.00011306,0.000
 51264,0.00004740,-0.00008833,0.00021514,-0.00023256,-0.00048539,-0.000
 05290,-0.00070579,0.00000008,0.00013622,0.00004961,0.13178683,0.261948
 06,-0.00040107,-0.00077776,0.00127041,-0.00582596,-0.01441582,0.005747
 75,0.00001809,0.00050076,-0.00066171,0.02686761,0.02846651,-0.04967099
 ,0.01395197,0.01652467,-0.00135685,-0.00168950,0.00451273,-0.00416736,
 0.00053428,-0.00059717,0.00081620,0.00682107,-0.00438279,0.00265489,0.
 00105886,0.00137663,-0.00077073,-0.00086671,0.00017746,0.00018251,0.00
 106843,-0.00251576,0.00018785,0.00006800,0.00028055,-0.00054059,0.0000
 3932,0.00005826,0.00003823,-0.00009776,0.00022076,-0.00005978,-0.00022
 135,0.00008750,-0.00045265,0.00008965,0.00012383,-0.00037376,0.0001520
 1,-0.00003335,0.00014038,-0.04125718,-0.02851476,0.04771167,-0.0000259
 7,-0.00003028,-0.00000783,0.00056431,-0.00014992,0.00026214,-0.0000591
 8,-0.00002369,0.00006783,-0.00169591,0.00393784,0.00027031,0.00658293,
 -0.00128577,0.00501531,-0.12342598,-0.11273987,0.05671225,-0.00271818,
 -0.00721861,0.01507066,0.00210496,0.00025424,0.00204485,0.00012592,0.0
 0046291,-0.00037418,0.00002180,-0.00026409,0.00000923,-0.00011681,-0.0
 0035631,-0.00022197,0.00000311,0.00001131,-0.00000244,-0.00000681,0.00
 000423,-0.00000373,0.00001273,0.00000127,0.00000115,0.00001785,0.00000
 505,0.00000811,-0.00000256,0.00001039,0.00001303,-0.00000366,0.0000037
 7,-0.00000433,0.00015791,0.00061776,0.00017588,0.11826124,-0.00000725,
 0.00000285,-0.00005423,0.00025028,0.00033198,-0.00022564,0.00000566,0.
 00002329,-0.00001774,-0.00133660,-0.00013392,0.00170822,-0.01856346,-0
 .02188834,0.00906851,-0.10545091,-0.19616924,0.07444143,0.00490890,0.0
 1043100,-0.00648580,0.00239581,-0.00236568,-0.00411908,0.00007857,0.00
 029848,0.00037691,-0.00134112,-0.00057904,0.00054958,0.00011573,0.0003
 3672,-0.00012098,0.00003513,0.00001137,-0.00006073,0.00001569,-0.00003
 123,0.00000838,0.00000008,0.00003019,0.00001047,-0.00000319,0.00000543
 ,-0.00004794,0.00000498,0.00000654,0.00001442,0.00003042,-0.00000721,0
 .00004060,0.00159581,0.00029576,-0.00111079,0.11708308,0.20983636,0.00
 005665,0.00001990,0.00000266,0.00018632,0.00030451,0.00065870,-0.00015
 461,0.00013344,0.00003006,-0.00194523,-0.00309482,-0.00164539,-0.00220
 883,-0.01288097,0.00721903,0.06000191,0.08608967,-0.08527742,0.0212583
 5,0.00764408,-0.01420699,0.00240043,-0.00183522,0.00046844,0.00037454,
 0.00079622,0.00028948,-0.00027619,-0.00078638,0.00017591,-0.00021706,-
 0.00061383,0.00014813,0.00000688,-0.00000528,-0.00000488,-0.00000621,-
 0.00000184,-0.00000993,-0.00000962,-0.00000090,0.00000885,-0.00000419,
 -0.00002281,-0.00000713,0.00004340,0.00001244,0.00005302,0.00000019,0.
 00000226,-0.00001081,0.00030835,-0.00041868,-0.00042835,-0.07955562,-0
 .07371905,0.09309184,0.00009249,-0.00025766,0.00006771,0.00019439,0.00
 057722,-0.00024903,0.00015449,-0.00039196,0.00005293,-0.00066651,-0.00
 012076,0.00056634,0.00249187,-0.00042542,-0.00166934,-0.00231486,0.000
 74684,0.00256792,0.00085189,0.00113235,-0.00091811,-0.00070257,0.02191
 359,0.01607220,-0.02284695,-0.02481381,-0.01499746,-0.00444639,-0.0007
 6994,0.00271737,-0.00248396,0.00030772,-0.00104726,-0.00006700,-0.0000
 3893,0.00008426,0.00001373,0.00006265,0.00000629,0.00004754,-0.0000019
 3,-0.00007089,0.00006236,-0.00000204,0.00012969,-0.00007488,-0.0000163
 8,-0.00009032,-0.00005115,0.00003951,-0.00007850,-0.00017200,-0.000079
 89,-0.00006932,0.00025781,-0.00017606,-0.00034403,0.02939180,0.0000326
 3,-0.00041250,0.00003406,-0.00033993,0.00092105,-0.00015335,0.00055510
 ,-0.00059636,0.00004645,-0.00085632,-0.00037751,0.00102486,0.00282385,
 -0.00015982,-0.00199405,-0.00276501,0.00351344,0.00442958,0.00254480,-
 0.00272056,-0.00211287,0.00494004,0.00006150,-0.00065216,-0.00696712,-
 0.13910525,-0.11538754,-0.00107503,0.00033891,-0.00115864,-0.00087494,
 -0.00057680,0.00016689,-0.00010057,-0.00003974,0.00009663,-0.00003027,
 0.00007237,0.00000565,0.00010948,-0.00002192,-0.00009707,0.00006851,-0
 .00001952,0.00018995,-0.00018002,-0.00006858,-0.00020525,-0.00002009,0
 .00005329,-0.00007705,-0.00019674,-0.00018688,0.00004002,-0.00020610,-
 0.00015741,-0.00136205,0.00251079,0.13937523,-0.00003429,-0.00000510,0
 .00004267,-0.00029343,-0.00059561,-0.00027014,0.00006050,0.00013723,-0
 .00003640,-0.00028098,-0.00090897,-0.00012031,-0.00082071,0.00051516,-
 0.00075888,0.00042641,0.00254583,0.00097702,0.00009667,-0.00073320,-0.
 00182462,0.00233193,-0.00652050,-0.00517874,0.00043207,-0.11200278,-0.
 10145413,0.00070660,0.00085666,0.00008422,0.00055314,0.00046310,0.0009
 6092,0.00000048,0.00001294,-0.00001145,-0.00001371,-0.00001384,-0.0000
 0278,0.00000351,-0.00000410,-0.00000293,-0.00002995,0.00002416,-0.0000
 6132,-0.00000554,-0.00000856,-0.00000704,-0.00000157,-0.00002765,0.000
 04041,-0.00005349,-0.00008351,0.00033164,0.00074033,-0.00050865,-0.000
 39201,-0.00373158,0.11729152,0.10829593,0.00041826,-0.00164409,0.00116
 448,-0.00393854,0.00052167,-0.00011143,0.00021319,0.00048582,-0.000343
 25,-0.00136501,0.00045285,0.00022748,0.00061196,0.00307870,0.00443707,
 0.00093392,0.00073503,-0.00025839,0.00000573,-0.00012699,-0.00012598,0
 .00878082,0.01098139,-0.00327744,-0.00048408,0.00174079,-0.00251443,-0
 .09900100,-0.11099420,0.04634111,-0.00720362,-0.01435506,0.00888963,-0
 .00046635,-0.00008141,0.00029888,0.00013581,0.00005432,0.00000785,0.00
 004268,0.00003243,-0.00003505,-0.00009180,0.00000458,-0.00003461,0.000
 06699,0.00004426,0.00002528,0.00008019,0.00005541,0.00014133,-0.000415
 28,0.00015387,-0.00041632,-0.00005550,0.00035845,0.00008457,0.00026790
 ,0.00002692,-0.00008640,0.10146371,-0.00011283,0.00078541,-0.00046499,
 0.00256437,-0.00015491,-0.00045361,-0.00008878,0.00008576,0.00016632,0
 .00016167,-0.00022192,-0.00042346,0.00357457,-0.00217387,-0.00039145,-
 0.00078158,-0.00033645,0.00103623,0.00030447,0.00014141,-0.00015021,-0
 .01337775,-0.02002555,0.00811110,-0.00101094,0.00051424,0.00021604,-0.
 10124277,-0.25942334,0.07917707,0.00180971,0.00581235,-0.00314788,0.00
 028557,0.00009319,-0.00019998,-0.00000625,-0.00000438,0.00000167,-0.00
 003838,-0.00001410,0.00001637,-0.00000360,0.00000547,-0.00005509,0.000
 02205,0.00001214,0.00002537,-0.00001587,-0.00003120,-0.00001700,-0.000
 20579,0.00004189,-0.00002149,-0.00011721,-0.00027791,-0.00026071,-0.00
 019591,0.00010707,-0.00043412,0.10847526,0.27506468,-0.00031155,0.0011
 9184,-0.00047031,0.00390750,-0.00225924,-0.00003459,0.00041556,0.00062
 714,0.00029430,-0.00162587,-0.00173042,0.00016333,0.00396875,0.0020070
 7,0.00786212,0.00043427,0.00004842,0.00003015,-0.00002723,-0.00006049,
 0.00000243,0.00123809,-0.01037162,0.00478180,-0.00320410,0.00020275,-0
 .00329181,0.04086632,0.08464037,-0.06150742,0.00883222,0.00758296,-0.0
 0546267,0.00039244,0.00014997,-0.00028473,-0.00006465,-0.00008492,0.00
 003444,-0.00011033,-0.00002669,0.00012014,-0.00025048,0.00006321,-0.00
 018145,0.00017339,0.00010372,0.00008423,-0.00011009,0.00006151,0.00007
 968,-0.00089000,0.00045807,-0.00059874,-0.00022096,0.00025210,-0.00016
 321,0.00100113,-0.00012557,-0.00061205,-0.05441439,-0.08273018,0.05915
 436\\0.00000493,0.00000521,0.00000794,-0.00002544,0.00002004,-0.000035
 73,0.00001004,-0.00000424,0.00002286,0.00000348,-0.00000159,0.00000922
 ,0.00002181,0.00000146,-0.00001587,-0.00001756,-0.00001260,-0.00000944
 ,-0.00000617,-0.00000742,0.00001071,-0.00001000,-0.00000993,0.00001214
 ,0.00001097,0.00001548,-0.00000449,-0.00000385,0.00002761,0.00000352,0
 .00000081,-0.00002852,0.00000932,-0.00000748,-0.00000036,0.00000009,0.
 00000231,-0.00000083,-0.00000075,0.00000036,0.00000114,-0.00000214,0.0
 0000397,-0.00000122,-0.00000438,0.00000090,0.00000035,-0.00000135,-0.0
 0000139,-0.00000277,-0.00000693,-0.00000056,-0.00000671,-0.00000243,0.
 00000427,0.00000747,0.00000798,-0.00000067,0.00000470,0.00000434,0.000
 00927,-0.00000728,-0.00000463\\\@


 Sometimes the fool who rushes in gets the job done.
                                    -- Al Bernstein
 Job cpu time:       0 days  3 hours 24 minutes 54.5 seconds.
 Elapsed time:       0 days  0 hours 51 minutes 14.8 seconds.
 File lengths (MBytes):  RWF=    258 Int=      0 D2E=      0 Chk=     12 Scr=      1
 Normal termination of Gaussian 16 at Sat May 27 18:57:37 2023.
### All Done ###
