### Starting Gaussian ###
 Entering Gaussian System, Link 0=g16
 Initial command:
 /cluster/software/gaussian/gaussian-16-A.03/avx2/g16/l1.exe "/local/scratch/cz9n3/Gau-13515.inp" -scrdir="/local/scratch/cz9n3/"
 Entering Link 1 = /cluster/software/gaussian/gaussian-16-A.03/avx2/g16/l1.exe PID=     13516.
  
 Copyright (c) 1988,1990,1992,1993,1995,1998,2003,2009,2016,
            Gaussian, Inc.  All Rights Reserved.
  
 This is part of the Gaussian(R) 16 program.  It is based on
 the Gaussian(R) 09 system (copyright 2009, Gaussian, Inc.),
 the Gaussian(R) 03 system (copyright 2003, Gaussian, Inc.),
 the Gaussian(R) 98 system (copyright 1998, Gaussian, Inc.),
 the Gaussian(R) 94 system (copyright 1995, Gaussian, Inc.),
 the Gaussian 92(TM) system (copyright 1992, Gaussian, Inc.),
 the Gaussian 90(TM) system (copyright 1990, Gaussian, Inc.),
 the Gaussian 88(TM) system (copyright 1988, Gaussian, Inc.),
 the Gaussian 86(TM) system (copyright 1986, Carnegie Mellon
 University), and the Gaussian 82(TM) system (copyright 1983,
 Carnegie Mellon University). Gaussian is a federally registered
 trademark of Gaussian, Inc.
  
 This software contains proprietary and confidential information,
 including trade secrets, belonging to Gaussian, Inc.
  
 This software is provided under written license and may be
 used, copied, transmitted, or stored only in accord with that
 written license.
  
 The following legend is applicable only to US Government
 contracts under FAR:
  
                    RESTRICTED RIGHTS LEGEND
  
 Use, reproduction and disclosure by the US Government is
 subject to restrictions as set forth in subparagraphs (a)
 and (c) of the Commercial Computer Software - Restricted
 Rights clause in FAR 52.227-19.
  
 Gaussian, Inc.
 340 Quinnipiac St., Bldg. 40, Wallingford CT 06492
  
  
 ---------------------------------------------------------------
 Warning -- This program may not be used in any manner that
 competes with the business of Gaussian, Inc. or will provide
 assistance to any competitor of Gaussian, Inc.  The licensee
 of this program is prohibited from giving any competitor of
 Gaussian, Inc. access to this program.  By using this program,
 the user acknowledges that Gaussian, Inc. is engaged in the
 business of creating and licensing software in the field of
 computational chemistry and represents and warrants to the
 licensee that it is not a competitor of Gaussian, Inc. and that
 it will not use this program in any manner prohibited above.
 ---------------------------------------------------------------
  

 Cite this work as:
 Gaussian 16, Revision A.03,
 M. J. Frisch, G. W. Trucks, H. B. Schlegel, G. E. Scuseria, 
 M. A. Robb, J. R. Cheeseman, G. Scalmani, V. Barone, 
 G. A. Petersson, H. Nakatsuji, X. Li, M. Caricato, A. V. Marenich, 
 J. Bloino, B. G. Janesko, R. Gomperts, B. Mennucci, H. P. Hratchian, 
 J. V. Ortiz, A. F. Izmaylov, J. L. Sonnenberg, D. Williams-Young, 
 F. Ding, F. Lipparini, F. Egidi, J. Goings, B. Peng, A. Petrone, 
 T. Henderson, D. Ranasinghe, V. G. Zakrzewski, J. Gao, N. Rega, 
 G. Zheng, W. Liang, M. Hada, M. Ehara, K. Toyota, R. Fukuda, 
 J. Hasegawa, M. Ishida, T. Nakajima, Y. Honda, O. Kitao, H. Nakai, 
 T. Vreven, K. Throssell, J. A. Montgomery, Jr., J. E. Peralta, 
 F. Ogliaro, M. J. Bearpark, J. J. Heyd, E. N. Brothers, K. N. Kudin, 
 V. N. Staroverov, T. A. Keith, R. Kobayashi, J. Normand, 
 K. Raghavachari, A. P. Rendell, J. C. Burant, S. S. Iyengar, 
 J. Tomasi, M. Cossi, J. M. Millam, M. Klene, C. Adamo, R. Cammi, 
 J. W. Ochterski, R. L. Martin, K. Morokuma, O. Farkas, 
 J. B. Foresman, and D. J. Fox, Gaussian, Inc., Wallingford CT, 2016.
 
 ******************************************
 Gaussian 16:  ES64L-G16RevA.03 25-Dec-2016
                23-May-2023 
 ******************************************
 %chk=CCC1qCrCCqCOCrCCCCCqCrqCrCqCrC1.chk
 %NProcShared=20
 Will use up to   20 processors via shared memory.
 -----------------------------
 # opt freq b3lyp/6-31g(2df,p)
 -----------------------------
 1/18=20,19=15,26=3,38=1/1,3;
 2/9=110,12=2,17=6,18=5,40=1/2;
 3/5=1,6=6,7=104,11=2,25=1,30=1,71=1,74=-5/1,2,3;
 4//1;
 5/5=2,38=5/2;
 6/7=2,8=2,9=2,10=2,28=1/1;
 7//1,2,3,16;
 1/18=20,19=15,26=3/3(2);
 2/9=110/2;
 99//99;
 2/9=110/2;
 3/5=1,6=6,7=104,11=2,25=1,30=1,71=1,74=-5/1,2,3;
 4/5=5,16=3,69=1/1;
 5/5=2,38=5/2;
 7//1,2,3,16;
 1/18=20,19=15,26=3/3(-5);
 2/9=110/2;
 6/7=2,8=2,9=2,10=2,19=2,28=1/1;
 99/9=1/99;
 -------------------
 Title Card Required
 -------------------
 Symbolic Z-matrix:
 Charge =  0 Multiplicity = 1
 C                     0.92566   0.14285   0.73009 
 C                     2.36998   0.01951   0.24716 
 C                     2.9484   -0.95718  -0.86606 
 C                     3.19111  -2.32505  -0.16098 
 C                     2.09864  -1.34364  -2.16121 
 C                     0.66824  -0.82182  -2.16074 
 C                    -0.38226  -1.89742  -2.46091 
 O                    -1.63632  -1.32569  -2.06818 
 C                    -2.69564  -2.25861  -2.12375 
 C                     0.42489   0.52577  -2.9 
 C                     1.29839   1.75015  -2.52894 
 C                     2.66198   1.71561  -3.21377 
 C                     3.72108   2.67823  -2.672 
 C                     5.07562   1.98664  -2.23207 
 C                     6.01691   3.13258  -1.79496 
 C                     5.72115   1.27652  -3.4359 
 C                     4.83005   1.01456  -1.01132 
 C                     5.9386    0.93221   0.05334 
 C                     4.38575  -0.45534  -1.34457 
 H                     0.88405   0.8125    1.59288 
 H                     0.47413  -0.81525   0.98622 
 H                     0.29548   0.68195   0.0086 
 H                     2.98304  -0.12104   1.14626 
 H                     2.5267    1.04045  -0.06241 
 H                     2.2465   -2.7496    0.19368 
 H                     3.8677   -2.22298   0.69363 
 H                     3.65095  -3.05173  -0.84489 
 H                     2.07241  -2.43934  -2.25356 
 H                     2.58688  -1.08634  -3.10245 
 H                     0.42329  -0.68329  -1.15497 
 H                    -0.18958  -2.77154  -1.81814 
 H                    -0.40316  -2.20548  -3.50271 
 H                    -3.61558  -1.7417   -1.8365 
 H                    -2.52098  -3.07924  -1.42276 
 H                    -2.79792  -2.63289  -3.14324 
 H                    -0.61254   0.82473  -2.69345 
 H                     0.49082   0.3616   -3.97646 
 H                     1.39154   1.86232  -1.45253 
 H                     0.77649   2.66137  -2.84963 
 H                     2.52405   1.87614  -4.28743 
 H                     3.05829   0.7246   -3.13125 
 H                     3.31722   3.26615  -1.83698 
 H                     3.94105   3.40626  -3.46526 
 H                     6.18995   3.84403  -2.60829 
 H                     6.99645   2.74967  -1.4895 
 H                     5.5892    3.68921  -0.95253 
 H                     6.02048   1.9955   -4.20502 
 H                     5.0421    0.57839  -3.93457 
 H                     6.60588   0.71206  -3.12609 
 H                     4.086     1.56621  -0.45681 
 H                     6.88322   0.57884  -0.36307 
 H                     5.63261   0.25247   0.85948 
 H                     6.09392   1.90346   0.53561 
 H                     5.14927  -1.13282  -0.93389 
 H                     4.4906   -0.65974  -2.41106 
 

 GradGradGradGradGradGradGradGradGradGradGradGradGradGradGradGradGradGrad
 Berny optimization.
 Initialization pass.
                           ----------------------------
                           !    Initial Parameters    !
                           ! (Angstroms and Degrees)  !
 --------------------------                            --------------------------
 ! Name  Definition              Value          Derivative Info.                !
 --------------------------------------------------------------------------------
 ! R1    R(1,2)                  1.5279         estimate D2E/DX2                !
 ! R2    R(1,20)                 1.093          estimate D2E/DX2                !
 ! R3    R(1,21)                 1.0897         estimate D2E/DX2                !
 ! R4    R(1,22)                 1.0992         estimate D2E/DX2                !
 ! R5    R(2,3)                  1.5899         estimate D2E/DX2                !
 ! R6    R(2,23)                 1.0973         estimate D2E/DX2                !
 ! R7    R(2,24)                 1.0783         estimate D2E/DX2                !
 ! R8    R(3,4)                  1.5579         estimate D2E/DX2                !
 ! R9    R(3,5)                  1.5965         estimate D2E/DX2                !
 ! R10   R(3,19)                 1.5959         estimate D2E/DX2                !
 ! R11   R(4,25)                 1.0947         estimate D2E/DX2                !
 ! R12   R(4,26)                 1.0948         estimate D2E/DX2                !
 ! R13   R(4,27)                 1.0987         estimate D2E/DX2                !
 ! R14   R(5,6)                  1.5226         estimate D2E/DX2                !
 ! R15   R(5,28)                 1.0999         estimate D2E/DX2                !
 ! R16   R(5,29)                 1.0911         estimate D2E/DX2                !
 ! R17   R(6,7)                  1.5332         estimate D2E/DX2                !
 ! R18   R(6,10)                 1.5562         estimate D2E/DX2                !
 ! R19   R(6,30)                 1.0444         estimate D2E/DX2                !
 ! R20   R(7,8)                  1.4331         estimate D2E/DX2                !
 ! R21   R(7,31)                 1.102          estimate D2E/DX2                !
 ! R22   R(7,32)                 1.0866         estimate D2E/DX2                !
 ! R23   R(8,9)                  1.4127         estimate D2E/DX2                !
 ! R24   R(9,33)                 1.0936         estimate D2E/DX2                !
 ! R25   R(9,34)                 1.0933         estimate D2E/DX2                !
 ! R26   R(9,35)                 1.0908         estimate D2E/DX2                !
 ! R27   R(10,11)                1.5491         estimate D2E/DX2                !
 ! R28   R(10,36)                1.0992         estimate D2E/DX2                !
 ! R29   R(10,37)                1.0909         estimate D2E/DX2                !
 ! R30   R(11,12)                1.5263         estimate D2E/DX2                !
 ! R31   R(11,38)                1.0862         estimate D2E/DX2                !
 ! R32   R(11,39)                1.098          estimate D2E/DX2                !
 ! R33   R(12,13)                1.5303         estimate D2E/DX2                !
 ! R34   R(12,40)                1.0943         estimate D2E/DX2                !
 ! R35   R(12,41)                1.0705         estimate D2E/DX2                !
 ! R36   R(13,14)                1.5832         estimate D2E/DX2                !
 ! R37   R(13,42)                1.0982         estimate D2E/DX2                !
 ! R38   R(13,43)                1.0989         estimate D2E/DX2                !
 ! R39   R(14,15)                1.546          estimate D2E/DX2                !
 ! R40   R(14,16)                1.5395         estimate D2E/DX2                !
 ! R41   R(14,17)                1.5797         estimate D2E/DX2                !
 ! R42   R(15,44)                1.0944         estimate D2E/DX2                !
 ! R43   R(15,45)                1.0952         estimate D2E/DX2                !
 ! R44   R(15,46)                1.0966         estimate D2E/DX2                !
 ! R45   R(16,47)                1.0946         estimate D2E/DX2                !
 ! R46   R(16,48)                1.0942         estimate D2E/DX2                !
 ! R47   R(16,49)                1.0942         estimate D2E/DX2                !
 ! R48   R(17,18)                1.5392         estimate D2E/DX2                !
 ! R49   R(17,19)                1.5713         estimate D2E/DX2                !
 ! R50   R(17,50)                1.0795         estimate D2E/DX2                !
 ! R51   R(18,51)                1.0911         estimate D2E/DX2                !
 ! R52   R(18,52)                1.098          estimate D2E/DX2                !
 ! R53   R(18,53)                1.0955         estimate D2E/DX2                !
 ! R54   R(19,54)                1.1003         estimate D2E/DX2                !
 ! R55   R(19,55)                1.091          estimate D2E/DX2                !
 ! A1    A(2,1,20)             109.5699         estimate D2E/DX2                !
 ! A2    A(2,1,21)             113.2667         estimate D2E/DX2                !
 ! A3    A(2,1,22)             111.9664         estimate D2E/DX2                !
 ! A4    A(20,1,21)            109.7172         estimate D2E/DX2                !
 ! A5    A(20,1,22)            101.2928         estimate D2E/DX2                !
 ! A6    A(21,1,22)            110.3609         estimate D2E/DX2                !
 ! A7    A(1,2,3)              127.9381         estimate D2E/DX2                !
 ! A8    A(1,2,23)             106.2305         estimate D2E/DX2                !
 ! A9    A(1,2,24)              98.7255         estimate D2E/DX2                !
 ! A10   A(3,2,23)             106.9645         estimate D2E/DX2                !
 ! A11   A(3,2,24)             109.1319         estimate D2E/DX2                !
 ! A12   A(23,2,24)            105.9811         estimate D2E/DX2                !
 ! A13   A(2,3,4)              106.2102         estimate D2E/DX2                !
 ! A14   A(2,3,5)              121.539          estimate D2E/DX2                !
 ! A15   A(2,3,19)             110.1477         estimate D2E/DX2                !
 ! A16   A(4,3,5)              103.741          estimate D2E/DX2                !
 ! A17   A(4,3,19)             105.7528         estimate D2E/DX2                !
 ! A18   A(5,3,19)             108.1959         estimate D2E/DX2                !
 ! A19   A(3,4,25)             110.6535         estimate D2E/DX2                !
 ! A20   A(3,4,26)             111.5746         estimate D2E/DX2                !
 ! A21   A(3,4,27)             111.3575         estimate D2E/DX2                !
 ! A22   A(25,4,26)            108.4538         estimate D2E/DX2                !
 ! A23   A(25,4,27)            107.8366         estimate D2E/DX2                !
 ! A24   A(26,4,27)            106.7926         estimate D2E/DX2                !
 ! A25   A(3,5,6)              114.6338         estimate D2E/DX2                !
 ! A26   A(3,5,28)             108.7807         estimate D2E/DX2                !
 ! A27   A(3,5,29)             113.8633         estimate D2E/DX2                !
 ! A28   A(6,5,28)             108.6042         estimate D2E/DX2                !
 ! A29   A(6,5,29)             109.866          estimate D2E/DX2                !
 ! A30   A(28,5,29)             99.9714         estimate D2E/DX2                !
 ! A31   A(5,6,7)              113.7782         estimate D2E/DX2                !
 ! A32   A(5,6,10)             116.3296         estimate D2E/DX2                !
 ! A33   A(5,6,30)             105.4317         estimate D2E/DX2                !
 ! A34   A(7,6,10)             114.0394         estimate D2E/DX2                !
 ! A35   A(7,6,30)              96.9439         estimate D2E/DX2                !
 ! A36   A(10,6,30)            107.8146         estimate D2E/DX2                !
 ! A37   A(6,7,8)              105.4292         estimate D2E/DX2                !
 ! A38   A(6,7,31)             108.8137         estimate D2E/DX2                !
 ! A39   A(6,7,32)             113.5652         estimate D2E/DX2                !
 ! A40   A(8,7,31)             108.0359         estimate D2E/DX2                !
 ! A41   A(8,7,32)             111.04           estimate D2E/DX2                !
 ! A42   A(31,7,32)            109.7378         estimate D2E/DX2                !
 ! A43   A(7,8,9)              112.4545         estimate D2E/DX2                !
 ! A44   A(8,9,33)             107.9576         estimate D2E/DX2                !
 ! A45   A(8,9,34)             110.5287         estimate D2E/DX2                !
 ! A46   A(8,9,35)             109.4917         estimate D2E/DX2                !
 ! A47   A(33,9,34)            108.7083         estimate D2E/DX2                !
 ! A48   A(33,9,35)            109.1952         estimate D2E/DX2                !
 ! A49   A(34,9,35)            110.8959         estimate D2E/DX2                !
 ! A50   A(6,10,11)            118.8463         estimate D2E/DX2                !
 ! A51   A(6,10,36)            107.0878         estimate D2E/DX2                !
 ! A52   A(6,10,37)            109.2074         estimate D2E/DX2                !
 ! A53   A(11,10,36)           105.7952         estimate D2E/DX2                !
 ! A54   A(11,10,37)           108.7369         estimate D2E/DX2                !
 ! A55   A(36,10,37)           106.4623         estimate D2E/DX2                !
 ! A56   A(10,11,12)           112.2345         estimate D2E/DX2                !
 ! A57   A(10,11,38)           111.5512         estimate D2E/DX2                !
 ! A58   A(10,11,39)           108.5391         estimate D2E/DX2                !
 ! A59   A(12,11,38)           111.7373         estimate D2E/DX2                !
 ! A60   A(12,11,39)           108.2034         estimate D2E/DX2                !
 ! A61   A(38,11,39)           104.1519         estimate D2E/DX2                !
 ! A62   A(11,12,13)           116.4377         estimate D2E/DX2                !
 ! A63   A(11,12,40)           108.9227         estimate D2E/DX2                !
 ! A64   A(11,12,41)           108.4881         estimate D2E/DX2                !
 ! A65   A(13,12,40)           110.0169         estimate D2E/DX2                !
 ! A66   A(13,12,41)           107.3868         estimate D2E/DX2                !
 ! A67   A(40,12,41)           104.9569         estimate D2E/DX2                !
 ! A68   A(12,13,14)           114.5641         estimate D2E/DX2                !
 ! A69   A(12,13,42)           110.575          estimate D2E/DX2                !
 ! A70   A(12,13,43)           107.4399         estimate D2E/DX2                !
 ! A71   A(14,13,42)           109.7068         estimate D2E/DX2                !
 ! A72   A(14,13,43)           108.585          estimate D2E/DX2                !
 ! A73   A(42,13,43)           105.5338         estimate D2E/DX2                !
 ! A74   A(13,14,15)           106.0024         estimate D2E/DX2                !
 ! A75   A(13,14,16)           110.0563         estimate D2E/DX2                !
 ! A76   A(13,14,17)           110.5198         estimate D2E/DX2                !
 ! A77   A(15,14,16)           107.9192         estimate D2E/DX2                !
 ! A78   A(15,14,17)           109.4064         estimate D2E/DX2                !
 ! A79   A(16,14,17)           112.6814         estimate D2E/DX2                !
 ! A80   A(14,15,44)           111.5929         estimate D2E/DX2                !
 ! A81   A(14,15,45)           111.3617         estimate D2E/DX2                !
 ! A82   A(14,15,46)           110.8531         estimate D2E/DX2                !
 ! A83   A(44,15,45)           107.0475         estimate D2E/DX2                !
 ! A84   A(44,15,46)           107.6158         estimate D2E/DX2                !
 ! A85   A(45,15,46)           108.1836         estimate D2E/DX2                !
 ! A86   A(14,16,47)           111.1697         estimate D2E/DX2                !
 ! A87   A(14,16,48)           112.983          estimate D2E/DX2                !
 ! A88   A(14,16,49)           110.8283         estimate D2E/DX2                !
 ! A89   A(47,16,48)           105.5802         estimate D2E/DX2                !
 ! A90   A(47,16,49)           108.4622         estimate D2E/DX2                !
 ! A91   A(48,16,49)           107.5593         estimate D2E/DX2                !
 ! A92   A(14,17,18)           117.096          estimate D2E/DX2                !
 ! A93   A(14,17,19)           117.1099         estimate D2E/DX2                !
 ! A94   A(14,17,50)           100.9312         estimate D2E/DX2                !
 ! A95   A(18,17,19)           107.475          estimate D2E/DX2                !
 ! A96   A(18,17,50)            99.6969         estimate D2E/DX2                !
 ! A97   A(19,17,50)           113.0836         estimate D2E/DX2                !
 ! A98   A(17,18,51)           112.1391         estimate D2E/DX2                !
 ! A99   A(17,18,52)           109.8925         estimate D2E/DX2                !
 ! A100  A(17,18,53)           111.0506         estimate D2E/DX2                !
 ! A101  A(51,18,52)           108.7214         estimate D2E/DX2                !
 ! A102  A(51,18,53)           109.4144         estimate D2E/DX2                !
 ! A103  A(52,18,53)           105.3773         estimate D2E/DX2                !
 ! A104  A(3,19,17)            119.0283         estimate D2E/DX2                !
 ! A105  A(3,19,54)            108.6306         estimate D2E/DX2                !
 ! A106  A(3,19,55)            108.7092         estimate D2E/DX2                !
 ! A107  A(17,19,54)           107.4948         estimate D2E/DX2                !
 ! A108  A(17,19,55)           110.819          estimate D2E/DX2                !
 ! A109  A(54,19,55)           100.5344         estimate D2E/DX2                !
 ! D1    D(20,1,2,3)           172.662          estimate D2E/DX2                !
 ! D2    D(20,1,2,23)           44.9098         estimate D2E/DX2                !
 ! D3    D(20,1,2,24)          -64.6495         estimate D2E/DX2                !
 ! D4    D(21,1,2,3)            49.8003         estimate D2E/DX2                !
 ! D5    D(21,1,2,23)          -77.9519         estimate D2E/DX2                !
 ! D6    D(21,1,2,24)          172.4887         estimate D2E/DX2                !
 ! D7    D(22,1,2,3)           -75.7775         estimate D2E/DX2                !
 ! D8    D(22,1,2,23)          156.4703         estimate D2E/DX2                !
 ! D9    D(22,1,2,24)           46.9109         estimate D2E/DX2                !
 ! D10   D(1,2,3,4)            -82.6767         estimate D2E/DX2                !
 ! D11   D(1,2,3,5)             35.271          estimate D2E/DX2                !
 ! D12   D(1,2,3,19)           163.2554         estimate D2E/DX2                !
 ! D13   D(23,2,3,4)            44.7915         estimate D2E/DX2                !
 ! D14   D(23,2,3,5)           162.7392         estimate D2E/DX2                !
 ! D15   D(23,2,3,19)          -69.2765         estimate D2E/DX2                !
 ! D16   D(24,2,3,4)           159.0276         estimate D2E/DX2                !
 ! D17   D(24,2,3,5)           -83.0247         estimate D2E/DX2                !
 ! D18   D(24,2,3,19)           44.9597         estimate D2E/DX2                !
 ! D19   D(2,3,4,25)            63.4942         estimate D2E/DX2                !
 ! D20   D(2,3,4,26)           -57.3573         estimate D2E/DX2                !
 ! D21   D(2,3,4,27)          -176.5801         estimate D2E/DX2                !
 ! D22   D(5,3,4,25)           -65.6944         estimate D2E/DX2                !
 ! D23   D(5,3,4,26)           173.4541         estimate D2E/DX2                !
 ! D24   D(5,3,4,27)            54.2313         estimate D2E/DX2                !
 ! D25   D(19,3,4,25)         -179.4597         estimate D2E/DX2                !
 ! D26   D(19,3,4,26)           59.6888         estimate D2E/DX2                !
 ! D27   D(19,3,4,27)          -59.5339         estimate D2E/DX2                !
 ! D28   D(2,3,5,6)             -5.9423         estimate D2E/DX2                !
 ! D29   D(2,3,5,28)          -127.7209         estimate D2E/DX2                !
 ! D30   D(2,3,5,29)           121.766          estimate D2E/DX2                !
 ! D31   D(4,3,5,6)            113.2194         estimate D2E/DX2                !
 ! D32   D(4,3,5,28)            -8.5592         estimate D2E/DX2                !
 ! D33   D(4,3,5,29)          -119.0723         estimate D2E/DX2                !
 ! D34   D(19,3,5,6)          -134.7825         estimate D2E/DX2                !
 ! D35   D(19,3,5,28)          103.4389         estimate D2E/DX2                !
 ! D36   D(19,3,5,29)           -7.0742         estimate D2E/DX2                !
 ! D37   D(2,3,19,17)          -16.4125         estimate D2E/DX2                !
 ! D38   D(2,3,19,54)          106.9486         estimate D2E/DX2                !
 ! D39   D(2,3,19,55)         -144.5171         estimate D2E/DX2                !
 ! D40   D(4,3,19,17)         -130.7718         estimate D2E/DX2                !
 ! D41   D(4,3,19,54)           -7.4107         estimate D2E/DX2                !
 ! D42   D(4,3,19,55)          101.1237         estimate D2E/DX2                !
 ! D43   D(5,3,19,17)          118.587          estimate D2E/DX2                !
 ! D44   D(5,3,19,54)         -118.0519         estimate D2E/DX2                !
 ! D45   D(5,3,19,55)           -9.5175         estimate D2E/DX2                !
 ! D46   D(3,5,6,7)           -129.16           estimate D2E/DX2                !
 ! D47   D(3,5,6,10)            95.2197         estimate D2E/DX2                !
 ! D48   D(3,5,6,30)           -24.1684         estimate D2E/DX2                !
 ! D49   D(28,5,6,7)            -7.2851         estimate D2E/DX2                !
 ! D50   D(28,5,6,10)         -142.9054         estimate D2E/DX2                !
 ! D51   D(28,5,6,30)           97.7065         estimate D2E/DX2                !
 ! D52   D(29,5,6,7)           101.1296         estimate D2E/DX2                !
 ! D53   D(29,5,6,10)          -34.4907         estimate D2E/DX2                !
 ! D54   D(29,5,6,30)         -153.8788         estimate D2E/DX2                !
 ! D55   D(5,6,7,8)            164.8845         estimate D2E/DX2                !
 ! D56   D(5,6,7,31)            49.2043         estimate D2E/DX2                !
 ! D57   D(5,6,7,32)           -73.3323         estimate D2E/DX2                !
 ! D58   D(10,6,7,8)           -58.4601         estimate D2E/DX2                !
 ! D59   D(10,6,7,31)         -174.1403         estimate D2E/DX2                !
 ! D60   D(10,6,7,32)           63.3231         estimate D2E/DX2                !
 ! D61   D(30,6,7,8)            54.6062         estimate D2E/DX2                !
 ! D62   D(30,6,7,31)          -61.0741         estimate D2E/DX2                !
 ! D63   D(30,6,7,32)          176.3894         estimate D2E/DX2                !
 ! D64   D(5,6,10,11)          -52.9718         estimate D2E/DX2                !
 ! D65   D(5,6,10,36)         -172.6042         estimate D2E/DX2                !
 ! D66   D(5,6,10,37)           72.4953         estimate D2E/DX2                !
 ! D67   D(7,6,10,11)          171.5214         estimate D2E/DX2                !
 ! D68   D(7,6,10,36)           51.8891         estimate D2E/DX2                !
 ! D69   D(7,6,10,37)          -63.0115         estimate D2E/DX2                !
 ! D70   D(30,6,10,11)          65.1188         estimate D2E/DX2                !
 ! D71   D(30,6,10,36)         -54.5136         estimate D2E/DX2                !
 ! D72   D(30,6,10,37)        -169.4141         estimate D2E/DX2                !
 ! D73   D(6,7,8,9)           -172.4763         estimate D2E/DX2                !
 ! D74   D(31,7,8,9)           -56.2636         estimate D2E/DX2                !
 ! D75   D(32,7,8,9)            64.1202         estimate D2E/DX2                !
 ! D76   D(7,8,9,33)          -178.5616         estimate D2E/DX2                !
 ! D77   D(7,8,9,34)            62.6615         estimate D2E/DX2                !
 ! D78   D(7,8,9,35)           -59.7877         estimate D2E/DX2                !
 ! D79   D(6,10,11,12)          80.8652         estimate D2E/DX2                !
 ! D80   D(6,10,11,38)         -45.4073         estimate D2E/DX2                !
 ! D81   D(6,10,11,39)        -159.5936         estimate D2E/DX2                !
 ! D82   D(36,10,11,12)       -158.8406         estimate D2E/DX2                !
 ! D83   D(36,10,11,38)         74.8868         estimate D2E/DX2                !
 ! D84   D(36,10,11,39)        -39.2994         estimate D2E/DX2                !
 ! D85   D(37,10,11,12)        -44.8279         estimate D2E/DX2                !
 ! D86   D(37,10,11,38)       -171.1005         estimate D2E/DX2                !
 ! D87   D(37,10,11,39)         74.7133         estimate D2E/DX2                !
 ! D88   D(10,11,12,13)       -165.8638         estimate D2E/DX2                !
 ! D89   D(10,11,12,40)         69.0664         estimate D2E/DX2                !
 ! D90   D(10,11,12,41)        -44.6564         estimate D2E/DX2                !
 ! D91   D(38,11,12,13)        -39.6921         estimate D2E/DX2                !
 ! D92   D(38,11,12,40)       -164.7619         estimate D2E/DX2                !
 ! D93   D(38,11,12,41)         81.5153         estimate D2E/DX2                !
 ! D94   D(39,11,12,13)         74.399          estimate D2E/DX2                !
 ! D95   D(39,11,12,40)        -50.6708         estimate D2E/DX2                !
 ! D96   D(39,11,12,41)       -164.3936         estimate D2E/DX2                !
 ! D97   D(11,12,13,14)        124.7743         estimate D2E/DX2                !
 ! D98   D(11,12,13,42)          0.1914         estimate D2E/DX2                !
 ! D99   D(11,12,13,43)       -114.5019         estimate D2E/DX2                !
 ! D100  D(40,12,13,14)       -110.7126         estimate D2E/DX2                !
 ! D101  D(40,12,13,42)        124.7044         estimate D2E/DX2                !
 ! D102  D(40,12,13,43)         10.0112         estimate D2E/DX2                !
 ! D103  D(41,12,13,14)          2.9851         estimate D2E/DX2                !
 ! D104  D(41,12,13,42)       -121.5979         estimate D2E/DX2                !
 ! D105  D(41,12,13,43)        123.7089         estimate D2E/DX2                !
 ! D106  D(12,13,14,15)        177.0557         estimate D2E/DX2                !
 ! D107  D(12,13,14,16)         60.6039         estimate D2E/DX2                !
 ! D108  D(12,13,14,17)        -64.4926         estimate D2E/DX2                !
 ! D109  D(42,13,14,15)        -57.9034         estimate D2E/DX2                !
 ! D110  D(42,13,14,16)       -174.3552         estimate D2E/DX2                !
 ! D111  D(42,13,14,17)         60.5483         estimate D2E/DX2                !
 ! D112  D(43,13,14,15)         56.9664         estimate D2E/DX2                !
 ! D113  D(43,13,14,16)        -59.4854         estimate D2E/DX2                !
 ! D114  D(43,13,14,17)        175.4181         estimate D2E/DX2                !
 ! D115  D(13,14,15,44)        -59.274          estimate D2E/DX2                !
 ! D116  D(13,14,15,45)       -178.835          estimate D2E/DX2                !
 ! D117  D(13,14,15,46)         60.6635         estimate D2E/DX2                !
 ! D118  D(16,14,15,44)         58.6108         estimate D2E/DX2                !
 ! D119  D(16,14,15,45)        -60.9503         estimate D2E/DX2                !
 ! D120  D(16,14,15,46)        178.5482         estimate D2E/DX2                !
 ! D121  D(17,14,15,44)       -178.4608         estimate D2E/DX2                !
 ! D122  D(17,14,15,45)         61.9782         estimate D2E/DX2                !
 ! D123  D(17,14,15,46)        -58.5234         estimate D2E/DX2                !
 ! D124  D(13,14,16,47)         64.8653         estimate D2E/DX2                !
 ! D125  D(13,14,16,48)        -53.6313         estimate D2E/DX2                !
 ! D126  D(13,14,16,49)       -174.4263         estimate D2E/DX2                !
 ! D127  D(15,14,16,47)        -50.3798         estimate D2E/DX2                !
 ! D128  D(15,14,16,48)       -168.8764         estimate D2E/DX2                !
 ! D129  D(15,14,16,49)         70.3286         estimate D2E/DX2                !
 ! D130  D(17,14,16,47)       -171.2849         estimate D2E/DX2                !
 ! D131  D(17,14,16,48)         70.2185         estimate D2E/DX2                !
 ! D132  D(17,14,16,49)        -50.5765         estimate D2E/DX2                !
 ! D133  D(13,14,17,18)       -143.7159         estimate D2E/DX2                !
 ! D134  D(13,14,17,19)         86.427          estimate D2E/DX2                !
 ! D135  D(13,14,17,50)        -36.7673         estimate D2E/DX2                !
 ! D136  D(15,14,17,18)        -27.3605         estimate D2E/DX2                !
 ! D137  D(15,14,17,19)       -157.2177         estimate D2E/DX2                !
 ! D138  D(15,14,17,50)         79.5881         estimate D2E/DX2                !
 ! D139  D(16,14,17,18)         92.691          estimate D2E/DX2                !
 ! D140  D(16,14,17,19)        -37.1661         estimate D2E/DX2                !
 ! D141  D(16,14,17,50)       -160.3604         estimate D2E/DX2                !
 ! D142  D(14,17,18,51)        -60.8347         estimate D2E/DX2                !
 ! D143  D(14,17,18,52)        178.1196         estimate D2E/DX2                !
 ! D144  D(14,17,18,53)         61.9243         estimate D2E/DX2                !
 ! D145  D(19,17,18,51)         73.4098         estimate D2E/DX2                !
 ! D146  D(19,17,18,52)        -47.6359         estimate D2E/DX2                !
 ! D147  D(19,17,18,53)       -163.8312         estimate D2E/DX2                !
 ! D148  D(50,17,18,51)       -168.5041         estimate D2E/DX2                !
 ! D149  D(50,17,18,52)         70.4503         estimate D2E/DX2                !
 ! D150  D(50,17,18,53)        -45.7451         estimate D2E/DX2                !
 ! D151  D(14,17,19,3)        -116.2388         estimate D2E/DX2                !
 ! D152  D(14,17,19,54)        119.8434         estimate D2E/DX2                !
 ! D153  D(14,17,19,55)         10.8817         estimate D2E/DX2                !
 ! D154  D(18,17,19,3)         109.524          estimate D2E/DX2                !
 ! D155  D(18,17,19,54)        -14.3938         estimate D2E/DX2                !
 ! D156  D(18,17,19,55)       -123.3555         estimate D2E/DX2                !
 ! D157  D(50,17,19,3)           0.4899         estimate D2E/DX2                !
 ! D158  D(50,17,19,54)       -123.4279         estimate D2E/DX2                !
 ! D159  D(50,17,19,55)        127.6104         estimate D2E/DX2                !
 --------------------------------------------------------------------------------
 Trust Radius=3.00D-01 FncErr=1.00D-07 GrdErr=1.00D-06 EigMax=2.50D+02 EigMin=1.00D-04
 Number of steps in this run=    330 maximum allowed number of steps=    330.
 GradGradGradGradGradGradGradGradGradGradGradGradGradGradGradGradGradGrad

 Stoichiometry    C18H36O
 Framework group  C1[X(C18H36O)]
 Deg. of freedom   159
 Full point group                 C1      NOp   1
 Largest Abelian subgroup         C1      NOp   1
 Largest concise Abelian subgroup C1      NOp   1
                         Standard orientation:                         
 ---------------------------------------------------------------------
 Center     Atomic      Atomic             Coordinates (Angstroms)
 Number     Number       Type             X           Y           Z
 ---------------------------------------------------------------------
      1          6           0        1.354801    1.342303    2.138798
      2          6           0        0.139827    1.485312    1.223440
      3          6           0        0.099579    1.421732   -0.364669
      4          6           0        0.498038    2.841590   -0.867012
      5          6           0        1.059582    0.445652   -1.185960
      6          6           0        2.089334   -0.291140   -0.340330
      7          6           0        3.523028   -0.173529   -0.870668
      8          8           0        4.364828   -0.598045    0.208654
      9          6           0        5.735454   -0.388132   -0.061362
     10          6           0        1.701508   -1.724242    0.126075
     11          6           0        0.354980   -1.931451    0.863450
     12          6           0       -0.824818   -2.015370   -0.101225
     13          6           0       -2.219394   -1.883331    0.514866
     14          6           0       -3.113222   -0.740318   -0.118542
     15          6           0       -4.485274   -0.831249    0.588192
     16          6           0       -3.333691   -1.012206   -1.617761
     17          6           0       -2.474474    0.678207    0.155801
     18          6           0       -3.443615    1.843165    0.425619
     19          6           0       -1.396839    1.188319   -0.867700
     20          1           0        1.065142    1.564291    3.169035
     21          1           0        2.190753    1.977476    1.846946
     22          1           0        1.681824    0.296618    2.227701
     23          1           0       -0.359132    2.416696    1.519315
     24          1           0       -0.462172    0.685654    1.624511
     25          1           0        1.524176    3.081971   -0.571089
     26          1           0       -0.167944    3.612221   -0.465582
     27          1           0        0.438808    2.909851   -1.962038
     28          1           0        1.588798    1.031400   -1.951861
     29          1           0        0.528134   -0.262594   -1.823506
     30          1           0        2.221370    0.297545    0.512184
     31          1           0        3.740154    0.887191   -1.075836
     32          1           0        3.705733   -0.764905   -1.763741
     33          1           0        6.308146   -0.759068    0.793290
     34          1           0        5.942719    0.678065   -0.186229
     35          1           0        6.020375   -0.946996   -0.953773
     36          1           0        2.480476   -2.057928    0.826192
     37          1           0        1.741704   -2.402581   -0.727332
     38          1           0        0.197486   -1.174813    1.626740
     39          1           0        0.406091   -2.873242    1.425552
     40          1           0       -0.753054   -2.947906   -0.669353
     41          1           0       -0.722610   -1.238756   -0.830880
     42          1           0       -2.149297   -1.739389    1.601318
     43          1           0       -2.732391   -2.845498    0.377957
     44          1           0       -4.948554   -1.812103    0.443598
     45          1           0       -5.185286   -0.084864    0.197912
     46          1           0       -4.379775   -0.669955    1.667689
     47          1           0       -3.913494   -1.927625   -1.772397
     48          1           0       -2.399059   -1.159995   -2.167113
     49          1           0       -3.866134   -0.180902   -2.089760
     50          1           0       -2.079660    0.536035    1.150446
     51          1           0       -4.110646    2.026971   -0.418099
     52          1           0       -2.876746    2.760324    0.633022
     53          1           0       -4.038596    1.659346    1.326865
     54          1           0       -1.771880    2.126816   -1.302633
     55          1           0       -1.372905    0.553142   -1.754352
 ---------------------------------------------------------------------
 Rotational constants (GHZ):           0.6258792           0.2140910           0.1888812
 Standard basis: 6-31G(2df,p) (6D, 7F)
 There are   769 symmetry adapted cartesian basis functions of A   symmetry.
 There are   712 symmetry adapted basis functions of A   symmetry.
   712 basis functions,  1088 primitive gaussians,   769 cartesian basis functions
    76 alpha electrons       76 beta electrons
       nuclear repulsion energy      1682.3823321803 Hartrees.
 NAtoms=   55 NActive=   55 NUniq=   55 SFac= 1.00D+00 NAtFMM=   60 NAOKFM=F Big=F
 Integral buffers will be    131072 words long.
 Raffenetti 2 integral format.
 Two-electron integral symmetry is turned on.
 One-electron integrals computed using PRISM.
 PrsmSu:  requested number of processors reduced to:  11 ShMem   1 Linda.
 NBasis=   712 RedAO= T EigKep=  4.39D-04  NBF=   712
 NBsUse=   712 1.00D-06 EigRej= -1.00D+00 NBFU=   712
 ExpMin= 1.61D-01 ExpMax= 5.48D+03 ExpMxC= 8.25D+02 IAcc=3 IRadAn=         5 AccDes= 0.00D+00
 Harris functional with IExCor=  402 and IRadAn=       5 diagonalized for initial guess.
 HarFok:  IExCor=  402 AccDes= 0.00D+00 IRadAn=         5 IDoV= 1 UseB2=F ITyADJ=14
 ICtDFT=  3500011 ScaDFX=  1.000000  1.000000  1.000000  1.000000
 FoFCou: FMM=F IPFlag=           0 FMFlag=      100000 FMFlg1=           0
         NFxFlg=           0 DoJE=T BraDBF=F KetDBF=T FulRan=T
         wScrn=  0.000000 ICntrl=       500 IOpCl=  0 I1Cent=   200000004 NGrid=           0
         NMat0=    1 NMatS0=      1 NMatT0=    0 NMatD0=    1 NMtDS0=    0 NMtDT0=    0
 Petite list used in FoFCou.
 Requested convergence on RMS density matrix=1.00D-08 within 128 cycles.
 Requested convergence on MAX density matrix=1.00D-06.
 Requested convergence on             energy=1.00D-06.
 No special actions if energy rises.
 Integral accuracy reduced to 1.0D-05 until final iterations.
 Initial convergence to 1.0D-05 achieved.  Increase integral accuracy.
 SCF Done:  E(RB3LYP) =  -782.801651982     A.U. after   12 cycles
            NFock= 12  Conv=0.55D-08     -V/T= 2.0085

 **********************************************************************

            Population analysis using the SCF density.

 **********************************************************************

 Orbital symmetries:
       Occupied  (A) (A) (A) (A) (A) (A) (A) (A) (A) (A) (A) (A)
                 (A) (A) (A) (A) (A) (A) (A) (A) (A) (A) (A) (A)
                 (A) (A) (A) (A) (A) (A) (A) (A) (A) (A) (A) (A)
                 (A) (A) (A) (A) (A) (A) (A) (A) (A) (A) (A) (A)
                 (A) (A) (A) (A) (A) (A) (A) (A) (A) (A) (A) (A)
                 (A) (A) (A) (A) (A) (A) (A) (A) (A) (A) (A) (A)
                 (A) (A) (A) (A)
       Virtual   (A) (A) (A) (A) (A) (A) (A) (A) (A) (A) (A) (A)
                 (A) (A) (A) (A) (A) (A) (A) (A) (A) (A) (A) (A)
                 (A) (A) (A) (A) (A) (A) (A) (A) (A) (A) (A) (A)
                 (A) (A) (A) (A) (A) (A) (A) (A) (A) (A) (A) (A)
                 (A) (A) (A) (A) (A) (A) (A) (A) (A) (A) (A) (A)
                 (A) (A) (A) (A) (A) (A) (A) (A) (A) (A) (A) (A)
                 (A) (A) (A) (A) (A) (A) (A) (A) (A) (A) (A) (A)
                 (A) (A) (A) (A) (A) (A) (A) (A) (A) (A) (A) (A)
                 (A) (A) (A) (A) (A) (A) (A) (A) (A) (A) (A) (A)
                 (A) (A) (A) (A) (A) (A) (A) (A) (A) (A) (A) (A)
                 (A) (A) (A) (A) (A) (A) (A) (A) (A) (A) (A) (A)
                 (A) (A) (A) (A) (A) (A) (A) (A) (A) (A) (A) (A)
                 (A) (A) (A) (A) (A) (A) (A) (A) (A) (A) (A) (A)
                 (A) (A) (A) (A) (A) (A) (A) (A) (A) (A) (A) (A)
                 (A) (A) (A) (A) (A) (A) (A) (A) (A) (A) (A) (A)
                 (A) (A) (A) (A) (A) (A) (A) (A) (A) (A) (A) (A)
                 (A) (A) (A) (A) (A) (A) (A) (A) (A) (A) (A) (A)
                 (A) (A) (A) (A) (A) (A) (A) (A) (A) (A) (A) (A)
                 (A) (A) (A) (A) (A) (A) (A) (A) (A) (A) (A) (A)
                 (A) (A) (A) (A) (A) (A) (A) (A) (A) (A) (A) (A)
                 (A) (A) (A) (A) (A) (A) (A) (A) (A) (A) (A) (A)
                 (A) (A) (A) (A) (A) (A) (A) (A) (A) (A) (A) (A)
                 (A) (A) (A) (A) (A) (A) (A) (A) (A) (A) (A) (A)
                 (A) (A) (A) (A) (A) (A) (A) (A) (A) (A) (A) (A)
                 (A) (A) (A) (A) (A) (A) (A) (A) (A) (A) (A) (A)
                 (A) (A) (A) (A) (A) (A) (A) (A) (A) (A) (A) (A)
                 (A) (A) (A) (A) (A) (A) (A) (A) (A) (A) (A) (A)
                 (A) (A) (A) (A) (A) (A) (A) (A) (A) (A) (A) (A)
                 (A) (A) (A) (A) (A) (A) (A) (A) (A) (A) (A) (A)
                 (A) (A) (A) (A) (A) (A) (A) (A) (A) (A) (A) (A)
                 (A) (A) (A) (A) (A) (A) (A) (A) (A) (A) (A) (A)
                 (A) (A) (A) (A) (A) (A) (A) (A) (A) (A) (A) (A)
                 (A) (A) (A) (A) (A) (A) (A) (A) (A) (A) (A) (A)
                 (A) (A) (A) (A) (A) (A) (A) (A) (A) (A) (A) (A)
                 (A) (A) (A) (A) (A) (A) (A) (A) (A) (A) (A) (A)
                 (A) (A) (A) (A) (A) (A) (A) (A) (A) (A) (A) (A)
                 (A) (A) (A) (A) (A) (A) (A) (A) (A) (A) (A) (A)
                 (A) (A) (A) (A) (A) (A) (A) (A) (A) (A) (A) (A)
                 (A) (A) (A) (A) (A) (A) (A) (A) (A) (A) (A) (A)
                 (A) (A) (A) (A) (A) (A) (A) (A) (A) (A) (A) (A)
                 (A) (A) (A) (A) (A) (A) (A) (A) (A) (A) (A) (A)
                 (A) (A) (A) (A) (A) (A) (A) (A) (A) (A) (A) (A)
                 (A) (A) (A) (A) (A) (A) (A) (A) (A) (A) (A) (A)
                 (A) (A) (A) (A) (A) (A) (A) (A) (A) (A) (A) (A)
                 (A) (A) (A) (A) (A) (A) (A) (A) (A) (A) (A) (A)
                 (A) (A) (A) (A) (A) (A) (A) (A) (A) (A) (A) (A)
                 (A) (A) (A) (A) (A) (A) (A) (A) (A) (A) (A) (A)
                 (A) (A) (A) (A) (A) (A) (A) (A) (A) (A) (A) (A)
                 (A) (A) (A) (A) (A) (A) (A) (A) (A) (A) (A) (A)
                 (A) (A) (A) (A) (A) (A) (A) (A) (A) (A) (A) (A)
                 (A) (A) (A) (A) (A) (A) (A) (A) (A) (A) (A) (A)
                 (A) (A) (A) (A) (A) (A) (A) (A) (A) (A) (A) (A)
                 (A) (A) (A) (A) (A) (A) (A) (A) (A) (A) (A) (A)
 The electronic state is 1-A.
 Alpha  occ. eigenvalues --  -19.13060 -10.21744 -10.21663 -10.20024 -10.18887
 Alpha  occ. eigenvalues --  -10.17430 -10.17401 -10.17024 -10.16948 -10.16930
 Alpha  occ. eigenvalues --  -10.16816 -10.16726 -10.16714 -10.16530 -10.16498
 Alpha  occ. eigenvalues --  -10.16421 -10.16284 -10.16277 -10.15988  -1.01931
 Alpha  occ. eigenvalues --   -0.83150  -0.81067  -0.79170  -0.76038  -0.74301
 Alpha  occ. eigenvalues --   -0.73598  -0.70119  -0.68603  -0.68236  -0.66045
 Alpha  occ. eigenvalues --   -0.64137  -0.62535  -0.62118  -0.60065  -0.57752
 Alpha  occ. eigenvalues --   -0.55821  -0.53137  -0.50993  -0.47945  -0.47302
 Alpha  occ. eigenvalues --   -0.46694  -0.45795  -0.45555  -0.45028  -0.44210
 Alpha  occ. eigenvalues --   -0.43141  -0.42109  -0.41934  -0.40775  -0.40698
 Alpha  occ. eigenvalues --   -0.40405  -0.39924  -0.38860  -0.38708  -0.38376
 Alpha  occ. eigenvalues --   -0.37352  -0.36965  -0.36552  -0.35906  -0.35148
 Alpha  occ. eigenvalues --   -0.34824  -0.34510  -0.34316  -0.33591  -0.33177
 Alpha  occ. eigenvalues --   -0.31782  -0.31381  -0.31087  -0.30310  -0.29849
 Alpha  occ. eigenvalues --   -0.29479  -0.28815  -0.28337  -0.27606  -0.26927
 Alpha  occ. eigenvalues --   -0.24812
 Alpha virt. eigenvalues --    0.07210   0.08013   0.08449   0.09113   0.10106
 Alpha virt. eigenvalues --    0.10819   0.11856   0.12125   0.12648   0.12990
 Alpha virt. eigenvalues --    0.13595   0.13962   0.14252   0.14577   0.15100
 Alpha virt. eigenvalues --    0.15210   0.15919   0.16020   0.16340   0.16774
 Alpha virt. eigenvalues --    0.17100   0.17614   0.18371   0.18753   0.18988
 Alpha virt. eigenvalues --    0.19156   0.19323   0.19943   0.20473   0.20689
 Alpha virt. eigenvalues --    0.21185   0.21249   0.21528   0.21779   0.22465
 Alpha virt. eigenvalues --    0.22891   0.23360   0.23779   0.24523   0.24965
 Alpha virt. eigenvalues --    0.25377   0.25921   0.26756   0.27612   0.27979
 Alpha virt. eigenvalues --    0.28325   0.28899   0.30072   0.30457   0.30926
 Alpha virt. eigenvalues --    0.31684   0.33048   0.33685   0.35249   0.35694
 Alpha virt. eigenvalues --    0.43092   0.43886   0.45259   0.45883   0.46373
 Alpha virt. eigenvalues --    0.46555   0.47552   0.47936   0.48202   0.49198
 Alpha virt. eigenvalues --    0.49983   0.50668   0.52550   0.52937   0.53347
 Alpha virt. eigenvalues --    0.53546   0.54077   0.54529   0.54936   0.55775
 Alpha virt. eigenvalues --    0.56329   0.57094   0.57888   0.58747   0.59149
 Alpha virt. eigenvalues --    0.59921   0.60609   0.60760   0.61814   0.62128
 Alpha virt. eigenvalues --    0.63068   0.63398   0.65544   0.66138   0.67062
 Alpha virt. eigenvalues --    0.67338   0.68321   0.68746   0.69278   0.70155
 Alpha virt. eigenvalues --    0.70603   0.71104   0.71143   0.71707   0.72033
 Alpha virt. eigenvalues --    0.72686   0.72881   0.72942   0.73506   0.73919
 Alpha virt. eigenvalues --    0.74282   0.74622   0.74990   0.75061   0.75469
 Alpha virt. eigenvalues --    0.75948   0.76380   0.77224   0.77527   0.78005
 Alpha virt. eigenvalues --    0.78244   0.78828   0.79189   0.79444   0.80176
 Alpha virt. eigenvalues --    0.80690   0.80806   0.81546   0.81826   0.82329
 Alpha virt. eigenvalues --    0.82902   0.83631   0.84024   0.84179   0.85224
 Alpha virt. eigenvalues --    0.85711   0.86599   0.87036   0.87886   0.88053
 Alpha virt. eigenvalues --    0.89182   0.89745   0.91155   0.91647   0.92342
 Alpha virt. eigenvalues --    0.94207   0.94369   0.94840   0.95702   0.96065
 Alpha virt. eigenvalues --    0.97050   0.98418   1.00059   1.01016   1.02115
 Alpha virt. eigenvalues --    1.03200   1.03513   1.05034   1.05843   1.06500
 Alpha virt. eigenvalues --    1.08304   1.09033   1.09733   1.10839   1.12554
 Alpha virt. eigenvalues --    1.13073   1.13691   1.16074   1.16383   1.17403
 Alpha virt. eigenvalues --    1.19129   1.20033   1.21231   1.21476   1.23318
 Alpha virt. eigenvalues --    1.24921   1.25625   1.27336   1.29105   1.29303
 Alpha virt. eigenvalues --    1.30588   1.32343   1.32995   1.33279   1.33987
 Alpha virt. eigenvalues --    1.36695   1.37526   1.38170   1.39138   1.39817
 Alpha virt. eigenvalues --    1.39958   1.40797   1.41614   1.43007   1.43487
 Alpha virt. eigenvalues --    1.44554   1.45261   1.45673   1.46655   1.47468
 Alpha virt. eigenvalues --    1.48153   1.48537   1.49268   1.50735   1.51220
 Alpha virt. eigenvalues --    1.52250   1.52546   1.53157   1.54148   1.55377
 Alpha virt. eigenvalues --    1.56079   1.57112   1.57972   1.58772   1.59270
 Alpha virt. eigenvalues --    1.60551   1.61537   1.61797   1.62932   1.63567
 Alpha virt. eigenvalues --    1.64885   1.65292   1.66274   1.66958   1.67762
 Alpha virt. eigenvalues --    1.68247   1.69075   1.69353   1.70897   1.71867
 Alpha virt. eigenvalues --    1.72129   1.73193   1.75166   1.75998   1.76640
 Alpha virt. eigenvalues --    1.77564   1.77861   1.78507   1.79310   1.80289
 Alpha virt. eigenvalues --    1.82099   1.82348   1.82758   1.84091   1.84676
 Alpha virt. eigenvalues --    1.86288   1.87220   1.88951   1.89668   1.89998
 Alpha virt. eigenvalues --    1.90563   1.92668   1.93362   1.94370   1.95469
 Alpha virt. eigenvalues --    1.96107   1.96222   1.97205   1.98114   1.98765
 Alpha virt. eigenvalues --    2.00190   2.00469   2.01394   2.02806   2.04312
 Alpha virt. eigenvalues --    2.05896   2.06641   2.08818   2.09840   2.11235
 Alpha virt. eigenvalues --    2.12571   2.16275   2.17104   2.20605   2.22194
 Alpha virt. eigenvalues --    2.23182   2.24822   2.26666   2.28078   2.28627
 Alpha virt. eigenvalues --    2.29462   2.30139   2.31059   2.31354   2.31806
 Alpha virt. eigenvalues --    2.33007   2.33181   2.33975   2.34939   2.35945
 Alpha virt. eigenvalues --    2.36551   2.37155   2.38910   2.39767   2.40403
 Alpha virt. eigenvalues --    2.41376   2.42248   2.42539   2.43750   2.44943
 Alpha virt. eigenvalues --    2.45871   2.46460   2.47890   2.48380   2.49981
 Alpha virt. eigenvalues --    2.50581   2.51010   2.52204   2.53133   2.54328
 Alpha virt. eigenvalues --    2.55613   2.55901   2.58897   2.60009   2.60624
 Alpha virt. eigenvalues --    2.61094   2.61981   2.64306   2.65578   2.66727
 Alpha virt. eigenvalues --    2.67418   2.69380   2.70440   2.71196   2.72987
 Alpha virt. eigenvalues --    2.74285   2.74817   2.76023   2.77105   2.77288
 Alpha virt. eigenvalues --    2.78536   2.79591   2.80180   2.81133   2.81618
 Alpha virt. eigenvalues --    2.83314   2.83608   2.83824   2.84642   2.84931
 Alpha virt. eigenvalues --    2.85902   2.86177   2.87171   2.87538   2.87820
 Alpha virt. eigenvalues --    2.88294   2.89842   2.90328   2.90966   2.91181
 Alpha virt. eigenvalues --    2.92002   2.92623   2.92972   2.93510   2.94255
 Alpha virt. eigenvalues --    2.94789   2.95195   2.95844   2.96132   2.96371
 Alpha virt. eigenvalues --    2.96684   2.97545   2.98576   2.99710   2.99956
 Alpha virt. eigenvalues --    3.01164   3.01711   3.02055   3.02845   3.03532
 Alpha virt. eigenvalues --    3.04902   3.05395   3.06409   3.07982   3.08497
 Alpha virt. eigenvalues --    3.09498   3.09831   3.11601   3.12231   3.12788
 Alpha virt. eigenvalues --    3.14170   3.15556   3.16152   3.17290   3.18846
 Alpha virt. eigenvalues --    3.19161   3.20229   3.22379   3.23826   3.25012
 Alpha virt. eigenvalues --    3.25546   3.26936   3.28934   3.29792   3.30770
 Alpha virt. eigenvalues --    3.32068   3.33132   3.34698   3.35706   3.36406
 Alpha virt. eigenvalues --    3.37216   3.38565   3.39484   3.39778   3.40390
 Alpha virt. eigenvalues --    3.40868   3.41016   3.43206   3.43867   3.45731
 Alpha virt. eigenvalues --    3.46220   3.47496   3.48428   3.48570   3.48653
 Alpha virt. eigenvalues --    3.50154   3.50954   3.51868   3.52094   3.52811
 Alpha virt. eigenvalues --    3.53495   3.55159   3.55752   3.56724   3.57353
 Alpha virt. eigenvalues --    3.57894   3.59349   3.60414   3.62026   3.63126
 Alpha virt. eigenvalues --    3.63626   3.64183   3.65977   3.66807   3.66821
 Alpha virt. eigenvalues --    3.67219   3.67541   3.68377   3.68613   3.69692
 Alpha virt. eigenvalues --    3.70579   3.71681   3.72320   3.74585   3.75705
 Alpha virt. eigenvalues --    3.76023   3.78047   3.80116   3.80771   3.81106
 Alpha virt. eigenvalues --    3.82695   3.84529   3.84724   3.85301   3.86919
 Alpha virt. eigenvalues --    3.87935   3.88082   3.89138   3.89955   3.91617
 Alpha virt. eigenvalues --    3.93049   3.94370   3.96606   3.97958   3.98566
 Alpha virt. eigenvalues --    3.99429   4.01359   4.02034   4.04048   4.04395
 Alpha virt. eigenvalues --    4.05568   4.06825   4.07429   4.08906   4.10574
 Alpha virt. eigenvalues --    4.15160   4.20237   4.22353   4.22879   4.25683
 Alpha virt. eigenvalues --    4.27138   4.28073   4.29531   4.34401   4.35786
 Alpha virt. eigenvalues --    4.36882   4.38130   4.38737   4.39693   4.40170
 Alpha virt. eigenvalues --    4.40698   4.42078   4.42588   4.44041   4.44576
 Alpha virt. eigenvalues --    4.45242   4.45765   4.46067   4.46392   4.47746
 Alpha virt. eigenvalues --    4.49825   4.50013   4.50604   4.51163   4.52552
 Alpha virt. eigenvalues --    4.53266   4.54043   4.54371   4.55430   4.57021
 Alpha virt. eigenvalues --    4.57480   4.58354   4.59119   4.60002   4.60641
 Alpha virt. eigenvalues --    4.61506   4.62651   4.63400   4.63920   4.64315
 Alpha virt. eigenvalues --    4.65047   4.66420   4.66774   4.68045   4.68393
 Alpha virt. eigenvalues --    4.68608   4.69281   4.69541   4.70478   4.71403
 Alpha virt. eigenvalues --    4.71568   4.72800   4.73062   4.73661   4.74313
 Alpha virt. eigenvalues --    4.74662   4.75689   4.75757   4.77061   4.77296
 Alpha virt. eigenvalues --    4.77591   4.79045   4.79321   4.80396   4.80837
 Alpha virt. eigenvalues --    4.81830   4.82177   4.82879   4.83412   4.84297
 Alpha virt. eigenvalues --    4.84656   4.85024   4.85987   4.86217   4.87701
 Alpha virt. eigenvalues --    4.87740   4.88671   4.90194   4.90834   4.91576
 Alpha virt. eigenvalues --    4.92052   4.93113   4.93583   4.94892   4.95477
 Alpha virt. eigenvalues --    4.96275   4.96930   4.98266   4.99596   4.99751
 Alpha virt. eigenvalues --    5.01821   5.02630   5.03257   5.05114   5.06702
 Alpha virt. eigenvalues --    5.09110   5.09642   5.13152   5.15156   5.15923
 Alpha virt. eigenvalues --    5.18014   5.18626   5.22094   5.23989   5.25821
 Alpha virt. eigenvalues --    5.27581   5.33513   5.36398   5.37658   5.38954
 Alpha virt. eigenvalues --    5.41264   5.41894   5.42850   5.44650   5.45795
 Alpha virt. eigenvalues --    5.48711   5.50124   5.51208   5.52611   5.53639
 Alpha virt. eigenvalues --    5.54834   5.57499   5.59347   5.59754   5.60628
 Alpha virt. eigenvalues --    5.62881   5.73483   5.79342   5.86081   5.90167
 Alpha virt. eigenvalues --    5.95119   5.98615   6.01970   6.06004   6.12043
 Alpha virt. eigenvalues --    6.18715   6.26217   6.49085   6.82338   6.99956
 Alpha virt. eigenvalues --    7.13836   7.52854  11.17397  11.19430  11.51522
 Alpha virt. eigenvalues --   11.55747  11.82767  11.84349  11.87584  12.04769
 Alpha virt. eigenvalues --   12.07725  12.19716  12.38102  12.47548  12.61222
 Alpha virt. eigenvalues --   12.79320  12.92198  13.14463  13.20538  13.41113
 Alpha virt. eigenvalues --   13.48338
          Condensed to atoms (all electrons):
 Mulliken charges:
               1
     1  C   -0.416265
     2  C   -0.202822
     3  C    0.297366
     4  C   -0.414055
     5  C   -0.326885
     6  C    0.068354
     7  C   -0.106388
     8  O   -0.246106
     9  C   -0.217529
    10  C   -0.224565
    11  C   -0.216482
    12  C   -0.161687
    13  C   -0.230754
    14  C    0.223401
    15  C   -0.411811
    16  C   -0.413621
    17  C    0.059329
    18  C   -0.420992
    19  C   -0.285087
    20  H    0.099930
    21  H    0.113490
    22  H    0.145410
    23  H    0.094857
    24  H    0.117997
    25  H    0.105881
    26  H    0.104761
    27  H    0.109294
    28  H    0.081932
    29  H    0.099885
    30  H    0.111900
    31  H    0.082075
    32  H    0.082714
    33  H    0.123397
    34  H    0.101182
    35  H    0.103591
    36  H    0.107845
    37  H    0.081084
    38  H    0.097821
    39  H    0.089047
    40  H    0.085111
    41  H    0.102114
    42  H    0.085090
    43  H    0.085333
    44  H    0.103256
    45  H    0.109981
    46  H    0.104622
    47  H    0.103463
    48  H    0.116643
    49  H    0.107739
    50  H    0.080628
    51  H    0.108665
    52  H    0.109649
    53  H    0.108375
    54  H    0.084959
    55  H    0.096880
 Sum of Mulliken charges =  -0.00000
 Mulliken charges with hydrogens summed into heavy atoms:
               1
     1  C   -0.057435
     2  C    0.010032
     3  C    0.297366
     4  C   -0.094120
     5  C   -0.145068
     6  C    0.180254
     7  C    0.058400
     8  O   -0.246106
     9  C    0.110642
    10  C   -0.035635
    11  C   -0.029614
    12  C    0.025538
    13  C   -0.060331
    14  C    0.223401
    15  C   -0.093953
    16  C   -0.085777
    17  C    0.139957
    18  C   -0.094304
    19  C   -0.103249
 Electronic spatial extent (au):  <R**2>=           6433.0088
 Charge=             -0.0000 electrons
 Dipole moment (field-independent basis, Debye):
    X=              0.4695    Y=              0.4358    Z=             -0.5099  Tot=              0.8188
 Quadrupole moment (field-independent basis, Debye-Ang):
   XX=           -121.9011   YY=           -125.2735   ZZ=           -123.4467
   XY=              1.7331   XZ=             -2.6218   YZ=              0.7869
 Traceless Quadrupole moment (field-independent basis, Debye-Ang):
   XX=              1.6393   YY=             -1.7331   ZZ=              0.0938
   XY=              1.7331   XZ=             -2.6218   YZ=              0.7869
 Octapole moment (field-independent basis, Debye-Ang**2):
  XXX=             81.8494  YYY=             -8.4893  ZZZ=              4.5813  XYY=              6.4637
  XXY=              2.3740  XXZ=            -11.1745  XZZ=              8.7600  YZZ=             -1.4776
  YYZ=              0.2106  XYZ=              1.2421
 Hexadecapole moment (field-independent basis, Debye-Ang**3):
 XXXX=          -5733.1412 YYYY=          -1814.5385 ZZZZ=           -910.4988 XXXY=             -9.9307
 XXXZ=              1.7721 YYYX=             -0.5883 YYYZ=              9.0780 ZZZX=             -4.8524
 ZZZY=             -1.4734 XXYY=          -1309.9928 XXZZ=          -1157.7574 YYZZ=           -455.1922
 XXYZ=              1.9247 YYXZ=              5.8231 ZZXY=            -17.3203
 N-N= 1.682382332180D+03 E-N=-5.178050058424D+03  KE= 7.762403925536D+02
 PrsmSu:  requested number of processors reduced to:  12 ShMem   1 Linda.
 Calling FoFJK, ICntrl=      2127 FMM=F ISym2X=0 I1Cent= 0 IOpClX= 0 NMat=1 NMatS=1 NMatT=0.
 ***** Axes restored to original set *****
 -------------------------------------------------------------------
 Center     Atomic                   Forces (Hartrees/Bohr)
 Number     Number              X              Y              Z
 -------------------------------------------------------------------
      1        6          -0.011184050   -0.001974575   -0.001885293
      2        6           0.001219056    0.007376653   -0.007583863
      3        6           0.009199681   -0.015793187   -0.000900592
      4        6           0.000973910    0.001974617    0.000531712
      5        6          -0.003705500   -0.001496225    0.000807492
      6        6          -0.002823015    0.000117694   -0.016109792
      7        6          -0.007081342    0.014721029    0.005962791
      8        8           0.002160793   -0.005305316   -0.003736119
      9        6           0.005338540    0.011122912    0.000642068
     10        6          -0.010789880    0.000799921    0.008317402
     11        6          -0.003316745   -0.002376366   -0.010710488
     12        6          -0.000076777    0.003259297    0.000891993
     13        6           0.010284214   -0.001171874   -0.002829856
     14        6           0.000214242    0.008174116   -0.003439918
     15        6           0.000676656   -0.002308849    0.001727159
     16        6          -0.001707533   -0.000088029   -0.001848878
     17        6           0.001820126   -0.000463114    0.000939523
     18        6           0.004246719    0.005407153   -0.000061263
     19        6          -0.000728728    0.005782674    0.003361629
     20        1           0.005447129   -0.004928910    0.007514469
     21        1          -0.006045136   -0.000223055    0.002584677
     22        1           0.000310389   -0.008415947    0.002365635
     23        1           0.003515688   -0.001862816   -0.003863727
     24        1           0.010688376    0.004686090   -0.003015402
     25        1          -0.000506192   -0.001512381    0.000757747
     26        1          -0.001213190    0.000914011    0.001746899
     27        1          -0.001586293    0.002138263    0.000522123
     28        1          -0.000819144    0.000611757    0.007614416
     29        1           0.004313774    0.006480944    0.002674100
     30        1          -0.005146724    0.010603770    0.024922792
     31        1           0.002741632   -0.001896788   -0.003832513
     32        1          -0.002147580   -0.004762975   -0.009623710
     33        1           0.000446570    0.000565370   -0.000263187
     34        1          -0.000945577   -0.006335831    0.000349343
     35        1          -0.003873493   -0.006786408   -0.003553436
     36        1           0.000802635   -0.005457595   -0.002741443
     37        1           0.000674615   -0.000350779   -0.005536144
     38        1           0.001976717   -0.002010732    0.004087842
     39        1          -0.001886600   -0.000856384   -0.000638084
     40        1          -0.001838467    0.000396606   -0.001132681
     41        1           0.002110242   -0.009947851   -0.000870748
     42        1           0.002095147   -0.001522746    0.001295829
     43        1           0.004315713    0.001078576    0.003726267
     44        1          -0.002063229   -0.000336265   -0.001238993
     45        1          -0.000603331    0.001342806    0.000082922
     46        1           0.001299529    0.000190657   -0.000158575
     47        1           0.001964794    0.001697249    0.001153724
     48        1           0.000682214   -0.000320499    0.001376257
     49        1           0.001467774    0.000182165   -0.000901419
     50        1          -0.011757243   -0.003936681   -0.000121998
     51        1           0.004189324   -0.001692161    0.001860656
     52        1           0.000614072   -0.001157687   -0.003962461
     53        1           0.004146054   -0.000966690   -0.002095496
     54        1          -0.003460798    0.003563657    0.005191242
     55        1          -0.004629760    0.003070727   -0.000352629
 -------------------------------------------------------------------
 Cartesian Forces:  Max     0.024922792 RMS     0.005015178

 GradGradGradGradGradGradGradGradGradGradGradGradGradGradGradGradGradGrad
 Berny optimization.
 FormGI is forming the generalized inverse of G from B-inverse, IUseBI=4.
 Internal  Forces:  Max     0.026615639 RMS     0.004622636
 Search for a local minimum.
 Step number   1 out of a maximum of  330
 All quantities printed in internal units (Hartrees-Bohrs-Radians)
 Mixed Optimization -- RFO/linear search
 Second derivative matrix not updated -- first step.
 ITU=  0
     Eigenvalues ---    0.00230   0.00230   0.00230   0.00230   0.00243
     Eigenvalues ---    0.00247   0.00256   0.00277   0.00327   0.00353
     Eigenvalues ---    0.00397   0.00639   0.00807   0.00853   0.01254
     Eigenvalues ---    0.01524   0.01531   0.01925   0.02245   0.02660
     Eigenvalues ---    0.02814   0.02960   0.03166   0.03293   0.03587
     Eigenvalues ---    0.03982   0.04269   0.04370   0.04487   0.04539
     Eigenvalues ---    0.04574   0.04654   0.04712   0.04752   0.04981
     Eigenvalues ---    0.05019   0.05091   0.05161   0.05229   0.05246
     Eigenvalues ---    0.05310   0.05343   0.05368   0.05368   0.05390
     Eigenvalues ---    0.05396   0.05423   0.05614   0.05632   0.05787
     Eigenvalues ---    0.05896   0.06075   0.06770   0.06968   0.07737
     Eigenvalues ---    0.08364   0.08659   0.08776   0.08960   0.09031
     Eigenvalues ---    0.09118   0.09325   0.09589   0.10291   0.10610
     Eigenvalues ---    0.10819   0.11002   0.12374   0.12623   0.12797
     Eigenvalues ---    0.13114   0.13427   0.13534   0.13802   0.14244
     Eigenvalues ---    0.14728   0.15587   0.16000   0.16000   0.16000
     Eigenvalues ---    0.16000   0.16000   0.16000   0.16000   0.16000
     Eigenvalues ---    0.16000   0.16000   0.16000   0.16000   0.16000
     Eigenvalues ---    0.16000   0.16000   0.16000   0.16000   0.16000
     Eigenvalues ---    0.17800   0.18157   0.19172   0.20517   0.20989
     Eigenvalues ---    0.21681   0.21984   0.22146   0.23700   0.23821
     Eigenvalues ---    0.24520   0.24862   0.25000   0.25028   0.25639
     Eigenvalues ---    0.26955   0.26989   0.27408   0.27990   0.28560
     Eigenvalues ---    0.28589   0.28954   0.29134   0.29239   0.29618
     Eigenvalues ---    0.29965   0.33464   0.33652   0.33693   0.33768
     Eigenvalues ---    0.33768   0.33799   0.33821   0.33884   0.33907
     Eigenvalues ---    0.33908   0.33987   0.34065   0.34189   0.34221
     Eigenvalues ---    0.34266   0.34278   0.34290   0.34314   0.34318
     Eigenvalues ---    0.34328   0.34337   0.34398   0.34433   0.34472
     Eigenvalues ---    0.34682   0.34685   0.34703   0.34709   0.34717
     Eigenvalues ---    0.34848   0.35209   0.35251   0.36050   0.36202
     Eigenvalues ---    0.37167   0.40547   0.40663   0.43586
 RFO step:  Lambda=-4.16319788D-02 EMin= 2.30000000D-03
 Linear search not attempted -- first point.
 Maximum step size (   0.300) exceeded in Quadratic search.
    -- Step size scaled by   0.874
 Iteration  1 RMS(Cart)=  0.18966801 RMS(Int)=  0.00554285
 Iteration  2 RMS(Cart)=  0.01301202 RMS(Int)=  0.00050278
 Iteration  3 RMS(Cart)=  0.00008397 RMS(Int)=  0.00050196
 Iteration  4 RMS(Cart)=  0.00000007 RMS(Int)=  0.00050196
 Variable       Old X    -DE/DX   Delta X   Delta X   Delta X     New X
                                 (Linear)    (Quad)   (Total)
    R1        2.88732   0.01293   0.00000   0.03345   0.03345   2.92077
    R2        2.06540   0.00271   0.00000   0.00612   0.00612   2.07152
    R3        2.05923   0.00331   0.00000   0.00741   0.00741   2.06663
    R4        2.07724  -0.00586   0.00000  -0.01349  -0.01349   2.06375
    R5        3.00446  -0.00743   0.00000  -0.02265  -0.02265   2.98181
    R6        2.07352  -0.00096   0.00000  -0.00220  -0.00220   2.07131
    R7        2.03768   0.00686   0.00000   0.01484   0.01484   2.05252
    R8        2.94404  -0.00184   0.00000  -0.00516  -0.00516   2.93888
    R9        3.01697   0.00416   0.00000   0.01613   0.01683   3.03380
   R10        3.01575   0.00166   0.00000   0.01252   0.01329   3.02904
   R11        2.06864   0.00127   0.00000   0.00288   0.00288   2.07152
   R12        2.06884   0.00070   0.00000   0.00159   0.00159   2.07043
   R13        2.07633  -0.00240   0.00000  -0.00553  -0.00553   2.07081
   R14        2.87732   0.01109   0.00000   0.03342   0.03433   2.91165
   R15        2.07851  -0.00123   0.00000  -0.00284  -0.00284   2.07567
   R16        2.06189   0.00115   0.00000   0.00259   0.00259   2.06448
   R17        2.89725   0.00412   0.00000   0.01082   0.01082   2.90807
   R18        2.94077  -0.00391   0.00000  -0.01166  -0.01143   2.92934
   R19        1.97362   0.02662   0.00000   0.05188   0.05188   2.02550
   R20        2.70817  -0.00722   0.00000  -0.01410  -0.01410   2.69407
   R21        2.08244  -0.00025   0.00000  -0.00058  -0.00058   2.08186
   R22        2.05336   0.01062   0.00000   0.02356   0.02356   2.07692
   R23        2.66953   0.00033   0.00000   0.00061   0.00061   2.67014
   R24        2.06664  -0.00018   0.00000  -0.00040  -0.00040   2.06624
   R25        2.06606   0.00483   0.00000   0.01093   0.01093   2.07699
   R26        2.06137   0.00601   0.00000   0.01351   0.01351   2.07487
   R27        2.92743   0.00167   0.00000   0.00010  -0.00048   2.92695
   R28        2.07724  -0.00276   0.00000  -0.00635  -0.00635   2.07089
   R29        2.06150   0.00556   0.00000   0.01249   0.01249   2.07399
   R30        2.88427   0.01186   0.00000   0.02474   0.02396   2.90823
   R31        2.05270   0.00401   0.00000   0.00889   0.00889   2.06159
   R32        2.07487   0.00037   0.00000   0.00085   0.00085   2.07572
   R33        2.89186   0.01501   0.00000   0.03440   0.03367   2.92553
   R34        2.06797   0.00140   0.00000   0.00318   0.00318   2.07115
   R35        2.02295   0.00992   0.00000   0.02098   0.02098   2.04393
   R36        2.99187  -0.00750   0.00000  -0.02744  -0.02832   2.96355
   R37        2.07527  -0.00060   0.00000  -0.00138  -0.00138   2.07389
   R38        2.07670  -0.00111   0.00000  -0.00256  -0.00256   2.07414
   R39        2.92161  -0.00113   0.00000  -0.00307  -0.00307   2.91854
   R40        2.90931   0.00051   0.00000   0.00136   0.00136   2.91067
   R41        2.98521   0.00184   0.00000   0.00838   0.00836   2.99357
   R42        2.06803   0.00038   0.00000   0.00086   0.00086   2.06888
   R43        2.06959  -0.00099   0.00000  -0.00224  -0.00224   2.06735
   R44        2.07221  -0.00053   0.00000  -0.00122  -0.00122   2.07099
   R45        2.06843   0.00084   0.00000   0.00191   0.00191   2.07034
   R46        2.06765  -0.00084   0.00000  -0.00192  -0.00192   2.06573
   R47        2.06780   0.00084   0.00000   0.00190   0.00190   2.06970
   R48        2.90868   0.00647   0.00000   0.01726   0.01726   2.92595
   R49        2.96937  -0.00288   0.00000  -0.00529  -0.00495   2.96442
   R50        2.04004   0.00603   0.00000   0.01310   0.01310   2.05314
   R51        2.06195   0.00347   0.00000   0.00780   0.00780   2.06974
   R52        2.07486  -0.00236   0.00000  -0.00543  -0.00543   2.06944
   R53        2.07012  -0.00119   0.00000  -0.00272  -0.00272   2.06741
   R54        2.07921  -0.00266   0.00000  -0.00614  -0.00614   2.07307
   R55        2.06160  -0.00068   0.00000  -0.00152  -0.00152   2.06008
    A1        1.91236  -0.00774   0.00000  -0.03442  -0.03430   1.87806
    A2        1.97688   0.00666   0.00000   0.02253   0.02238   1.99925
    A3        1.95418   0.00346   0.00000   0.02182   0.02177   1.97595
    A4        1.91493  -0.00277   0.00000  -0.02491  -0.02491   1.89002
    A5        1.76789   0.00586   0.00000   0.03907   0.03932   1.80721
    A6        1.92616  -0.00592   0.00000  -0.02451  -0.02476   1.90140
    A7        2.23294  -0.00102   0.00000  -0.00067  -0.00189   2.23106
    A8        1.85407   0.00089   0.00000  -0.01250  -0.01343   1.84064
    A9        1.72309   0.01065   0.00000   0.08176   0.08114   1.80423
   A10        1.86688  -0.00457   0.00000  -0.04881  -0.04969   1.81720
   A11        1.90471  -0.00414   0.00000  -0.00228  -0.00386   1.90086
   A12        1.84972  -0.00106   0.00000  -0.01177  -0.01192   1.83780
   A13        1.85372  -0.00825   0.00000  -0.04635  -0.04612   1.80760
   A14        2.12126   0.00557   0.00000   0.03929   0.03927   2.16052
   A15        1.92244  -0.00012   0.00000  -0.00043  -0.00076   1.92168
   A16        1.81062   0.00430   0.00000   0.01941   0.01937   1.82999
   A17        1.84573   0.00361   0.00000   0.00458   0.00374   1.84948
   A18        1.88837  -0.00486   0.00000  -0.01966  -0.01887   1.86950
   A19        1.93127   0.00184   0.00000   0.00706   0.00707   1.93834
   A20        1.94734  -0.00068   0.00000  -0.00269  -0.00269   1.94466
   A21        1.94356  -0.00154   0.00000  -0.00598  -0.00597   1.93759
   A22        1.89288  -0.00098   0.00000  -0.00556  -0.00555   1.88733
   A23        1.88210  -0.00029   0.00000  -0.00170  -0.00169   1.88041
   A24        1.86388   0.00164   0.00000   0.00886   0.00886   1.87274
   A25        2.00074   0.02574   0.00000   0.12062   0.12249   2.12323
   A26        1.89858  -0.01059   0.00000  -0.04490  -0.04758   1.85100
   A27        1.98729  -0.01177   0.00000  -0.06794  -0.06771   1.91958
   A28        1.89550  -0.00301   0.00000  -0.00425  -0.00498   1.89053
   A29        1.91752  -0.01061   0.00000  -0.04564  -0.04352   1.87400
   A30        1.74483   0.00766   0.00000   0.03061   0.02908   1.77391
   A31        1.98581   0.00351   0.00000  -0.00975  -0.01236   1.97344
   A32        2.03033   0.00005   0.00000  -0.00709  -0.00656   2.02378
   A33        1.84013  -0.00099   0.00000   0.01855   0.01813   1.85826
   A34        1.99036  -0.00740   0.00000  -0.04419  -0.04585   1.94451
   A35        1.69199   0.00620   0.00000   0.05902   0.05982   1.75181
   A36        1.88172   0.00018   0.00000   0.00462   0.00519   1.88692
   A37        1.84009   0.01019   0.00000   0.03824   0.03806   1.87815
   A38        1.89916  -0.00195   0.00000  -0.00366  -0.00406   1.89510
   A39        1.98209  -0.00080   0.00000  -0.00305  -0.00297   1.97912
   A40        1.88558  -0.00012   0.00000   0.01358   0.01328   1.89886
   A41        1.93801  -0.00571   0.00000  -0.02371  -0.02370   1.91431
   A42        1.91529  -0.00122   0.00000  -0.01836  -0.01842   1.89687
   A43        1.96270   0.00133   0.00000   0.00400   0.00400   1.96670
   A44        1.88422  -0.00260   0.00000  -0.01106  -0.01105   1.87316
   A45        1.92909   0.00347   0.00000   0.01473   0.01464   1.94373
   A46        1.91099   0.00782   0.00000   0.03401   0.03392   1.94491
   A47        1.89732  -0.00055   0.00000  -0.00262  -0.00261   1.89470
   A48        1.90582  -0.00191   0.00000  -0.00763  -0.00761   1.89820
   A49        1.93550  -0.00628   0.00000  -0.02761  -0.02779   1.90771
   A50        2.07426  -0.00436   0.00000  -0.01046  -0.00951   2.06475
   A51        1.86904  -0.00457   0.00000  -0.01356  -0.01400   1.85504
   A52        1.90603   0.00487   0.00000   0.00474   0.00415   1.91018
   A53        1.84647   0.00987   0.00000   0.04806   0.04776   1.89423
   A54        1.89782  -0.00413   0.00000  -0.02069  -0.02093   1.87688
   A55        1.85812  -0.00137   0.00000  -0.00645  -0.00611   1.85201
   A56        1.95886   0.00069   0.00000   0.01228   0.01215   1.97101
   A57        1.94693  -0.00175   0.00000  -0.01116  -0.01115   1.93579
   A58        1.89437  -0.00014   0.00000  -0.00615  -0.00609   1.88828
   A59        1.95018   0.00161   0.00000  -0.00251  -0.00237   1.94782
   A60        1.88851  -0.00156   0.00000  -0.00141  -0.00141   1.88709
   A61        1.81779   0.00111   0.00000   0.00867   0.00862   1.82642
   A62        2.03222   0.01331   0.00000   0.02364   0.02294   2.05516
   A63        1.90106  -0.00816   0.00000  -0.02622  -0.02589   1.87517
   A64        1.89348  -0.00175   0.00000   0.00208   0.00189   1.89537
   A65        1.92016  -0.00242   0.00000  -0.00306  -0.00266   1.91750
   A66        1.87425  -0.00360   0.00000   0.00467   0.00462   1.87887
   A67        1.83184   0.00169   0.00000  -0.00294  -0.00307   1.82878
   A68        1.99952   0.00290   0.00000   0.01422   0.01305   2.01257
   A69        1.92990  -0.00018   0.00000   0.00453   0.00490   1.93479
   A70        1.87518   0.00312   0.00000   0.02057   0.02109   1.89627
   A71        1.91474  -0.00010   0.00000  -0.00894  -0.00878   1.90597
   A72        1.89517  -0.00650   0.00000  -0.03141  -0.03112   1.86405
   A73        1.84191   0.00048   0.00000  -0.00032  -0.00087   1.84104
   A74        1.85009   0.00163   0.00000   0.00434   0.00435   1.85444
   A75        1.92085  -0.00288   0.00000  -0.01000  -0.00999   1.91086
   A76        1.92893   0.00160   0.00000   0.00612   0.00595   1.93489
   A77        1.88354  -0.00094   0.00000  -0.01038  -0.01045   1.87310
   A78        1.90950  -0.00085   0.00000   0.00010   0.00019   1.90969
   A79        1.96666   0.00140   0.00000   0.00919   0.00924   1.97590
   A80        1.94766  -0.00374   0.00000  -0.01739  -0.01736   1.93030
   A81        1.94363   0.00199   0.00000   0.00983   0.00982   1.95345
   A82        1.93475   0.00183   0.00000   0.00788   0.00785   1.94260
   A83        1.86833   0.00094   0.00000   0.00413   0.00418   1.87251
   A84        1.87825   0.00038   0.00000  -0.00067  -0.00066   1.87759
   A85        1.88816  -0.00143   0.00000  -0.00395  -0.00402   1.88414
   A86        1.94028  -0.00200   0.00000  -0.00933  -0.00934   1.93094
   A87        1.97193   0.00004   0.00000   0.00247   0.00247   1.97440
   A88        1.93432   0.00138   0.00000   0.00435   0.00433   1.93865
   A89        1.84272   0.00188   0.00000   0.01121   0.01123   1.85395
   A90        1.89302  -0.00083   0.00000  -0.00797  -0.00799   1.88503
   A91        1.87726  -0.00046   0.00000  -0.00072  -0.00073   1.87653
   A92        2.04371  -0.01096   0.00000  -0.04582  -0.04597   1.99774
   A93        2.04395   0.00118   0.00000   0.00357   0.00374   2.04769
   A94        1.76158   0.00426   0.00000   0.02570   0.02650   1.78808
   A95        1.87579   0.00788   0.00000   0.01711   0.01668   1.89247
   A96        1.74004   0.00471   0.00000   0.04796   0.04887   1.78891
   A97        1.97368  -0.00766   0.00000  -0.04531  -0.04579   1.92789
   A98        1.95720   0.00375   0.00000   0.01308   0.01303   1.97023
   A99        1.91799  -0.00326   0.00000  -0.01420  -0.01416   1.90382
   A100       1.93820   0.00316   0.00000   0.01685   0.01681   1.95501
   A101       1.89755  -0.00184   0.00000  -0.01401  -0.01398   1.88357
   A102       1.90964  -0.00389   0.00000  -0.01685  -0.01695   1.89269
   A103       1.83918   0.00183   0.00000   0.01440   0.01444   1.85362
   A104       2.07744   0.00900   0.00000   0.05334   0.05524   2.13268
   A105       1.89596  -0.00487   0.00000  -0.02630  -0.02705   1.86891
   A106       1.89733  -0.00289   0.00000  -0.02112  -0.02121   1.87612
   A107       1.87614  -0.00087   0.00000  -0.01097  -0.01139   1.86475
   A108       1.93416  -0.00546   0.00000  -0.02720  -0.02734   1.90681
   A109       1.75466   0.00441   0.00000   0.02860   0.02854   1.78320
    D1        3.01352  -0.00745   0.00000  -0.09603  -0.09641   2.91711
    D2        0.78382  -0.00023   0.00000  -0.00225  -0.00225   0.78158
    D3       -1.12835  -0.00320   0.00000  -0.01599  -0.01540  -1.14375
    D4        0.86918  -0.00279   0.00000  -0.05406  -0.05445   0.81473
[...]
 ! D104  D(41,12,13,42)        162.7782         calculate D2E/DX2 analytically  !
 ! D105  D(41,12,13,43)         50.7465         calculate D2E/DX2 analytically  !
 ! D106  D(12,13,14,15)        -95.9848         calculate D2E/DX2 analytically  !
 ! D107  D(12,13,14,16)        148.9943         calculate D2E/DX2 analytically  !
 ! D108  D(12,13,14,17)         26.1041         calculate D2E/DX2 analytically  !
 ! D109  D(42,13,14,15)         29.754          calculate D2E/DX2 analytically  !
 ! D110  D(42,13,14,16)        -85.2669         calculate D2E/DX2 analytically  !
 ! D111  D(42,13,14,17)        151.8429         calculate D2E/DX2 analytically  !
 ! D112  D(43,13,14,15)        141.8819         calculate D2E/DX2 analytically  !
 ! D113  D(43,13,14,16)         26.861          calculate D2E/DX2 analytically  !
 ! D114  D(43,13,14,17)        -96.0292         calculate D2E/DX2 analytically  !
 ! D115  D(13,14,15,44)        -51.6286         calculate D2E/DX2 analytically  !
 ! D116  D(13,14,15,45)       -170.5735         calculate D2E/DX2 analytically  !
 ! D117  D(13,14,15,46)         67.942          calculate D2E/DX2 analytically  !
 ! D118  D(16,14,15,44)         62.7135         calculate D2E/DX2 analytically  !
 ! D119  D(16,14,15,45)        -56.2314         calculate D2E/DX2 analytically  !
 ! D120  D(16,14,15,46)       -177.7159         calculate D2E/DX2 analytically  !
 ! D121  D(17,14,15,44)       -176.5044         calculate D2E/DX2 analytically  !
 ! D122  D(17,14,15,45)         64.5507         calculate D2E/DX2 analytically  !
 ! D123  D(17,14,15,46)        -56.9338         calculate D2E/DX2 analytically  !
 ! D124  D(13,14,16,47)         51.0326         calculate D2E/DX2 analytically  !
 ! D125  D(13,14,16,48)        -68.1613         calculate D2E/DX2 analytically  !
 ! D126  D(13,14,16,49)        170.4028         calculate D2E/DX2 analytically  !
 ! D127  D(15,14,16,47)        -64.4481         calculate D2E/DX2 analytically  !
 ! D128  D(15,14,16,48)        176.358          calculate D2E/DX2 analytically  !
 ! D129  D(15,14,16,49)         54.9222         calculate D2E/DX2 analytically  !
 ! D130  D(17,14,16,47)        175.7877         calculate D2E/DX2 analytically  !
 ! D131  D(17,14,16,48)         56.5938         calculate D2E/DX2 analytically  !
 ! D132  D(17,14,16,49)        -64.842          calculate D2E/DX2 analytically  !
 ! D133  D(13,14,17,18)       -179.9851         calculate D2E/DX2 analytically  !
 ! D134  D(13,14,17,19)         54.2592         calculate D2E/DX2 analytically  !
 ! D135  D(13,14,17,50)        -64.6734         calculate D2E/DX2 analytically  !
 ! D136  D(15,14,17,18)        -58.7081         calculate D2E/DX2 analytically  !
 ! D137  D(15,14,17,19)        175.5362         calculate D2E/DX2 analytically  !
 ! D138  D(15,14,17,50)         56.6036         calculate D2E/DX2 analytically  !
 ! D139  D(16,14,17,18)         59.7673         calculate D2E/DX2 analytically  !
 ! D140  D(16,14,17,19)        -65.9885         calculate D2E/DX2 analytically  !
 ! D141  D(16,14,17,50)        175.079          calculate D2E/DX2 analytically  !
 ! D142  D(14,17,18,51)        -66.1146         calculate D2E/DX2 analytically  !
 ! D143  D(14,17,18,52)        174.6516         calculate D2E/DX2 analytically  !
 ! D144  D(14,17,18,53)         55.1056         calculate D2E/DX2 analytically  !
 ! D145  D(19,17,18,51)         61.5304         calculate D2E/DX2 analytically  !
 ! D146  D(19,17,18,52)        -57.7034         calculate D2E/DX2 analytically  !
 ! D147  D(19,17,18,53)       -177.2494         calculate D2E/DX2 analytically  !
 ! D148  D(50,17,18,51)        179.0588         calculate D2E/DX2 analytically  !
 ! D149  D(50,17,18,52)         59.825          calculate D2E/DX2 analytically  !
 ! D150  D(50,17,18,53)        -59.721          calculate D2E/DX2 analytically  !
 ! D151  D(14,17,19,3)        -146.1332         calculate D2E/DX2 analytically  !
 ! D152  D(14,17,19,54)         91.6144         calculate D2E/DX2 analytically  !
 ! D153  D(14,17,19,55)        -21.5917         calculate D2E/DX2 analytically  !
 ! D154  D(18,17,19,3)          87.2452         calculate D2E/DX2 analytically  !
 ! D155  D(18,17,19,54)        -35.0072         calculate D2E/DX2 analytically  !
 ! D156  D(18,17,19,55)       -148.2132         calculate D2E/DX2 analytically  !
 ! D157  D(50,17,19,3)         -28.9198         calculate D2E/DX2 analytically  !
 ! D158  D(50,17,19,54)       -151.1722         calculate D2E/DX2 analytically  !
 ! D159  D(50,17,19,55)         95.6217         calculate D2E/DX2 analytically  !
 --------------------------------------------------------------------------------
 Trust Radius=3.00D-01 FncErr=1.00D-07 GrdErr=1.00D-07 EigMax=2.50D+02 EigMin=1.00D-04
 Number of steps in this run=      2 maximum allowed number of steps=      2.
 GradGradGradGradGradGradGradGradGradGradGradGradGradGradGradGradGradGrad

 Stoichiometry    C18H36O
 Framework group  C1[X(C18H36O)]
 Deg. of freedom   159
 Full point group                 C1      NOp   1
 Largest Abelian subgroup         C1      NOp   1
 Largest concise Abelian subgroup C1      NOp   1
                         Standard orientation:                         
 ---------------------------------------------------------------------
 Center     Atomic      Atomic             Coordinates (Angstroms)
 Number     Number       Type             X           Y           Z
 ---------------------------------------------------------------------
      1          6           0        2.187809    3.160064    0.499590
      2          6           0        0.875058    2.379908    0.667805
      3          6           0        0.256649    1.755248   -0.612270
      4          6           0        0.194368    2.833603   -1.721174
      5          6           0        1.161411    0.612078   -1.180117
      6          6           0        1.556283   -0.621276   -0.306109
      7          6           0        3.074751   -0.598904   -0.081630
      8          8           0        3.429726   -1.587520    0.861870
      9          6           0        4.815869   -1.664192    1.085213
     10          6           0        1.154633   -2.003982   -0.883984
     11          6           0       -0.303296   -2.447432   -0.661999
     12          6           0       -1.321475   -1.703761   -1.554571
     13          6           0       -2.709684   -1.342571   -0.992438
     14          6           0       -2.872774   -0.565347    0.365320
     15          6           0       -3.113030   -1.604540    1.487101
     16          6           0       -4.161358    0.276324    0.232443
     17          6           0       -1.639562    0.339734    0.741335
     18          6           0       -1.853660    1.076990    2.080332
     19          6           0       -1.241678    1.350925   -0.372846
     20          1           0        2.565379    3.470449    1.479206
     21          1           0        2.050311    4.066005   -0.097374
     22          1           0        2.973711    2.567496    0.022162
     23          1           0        0.135878    3.064016    1.101748
     24          1           0        1.030554    1.593621    1.414918
     25          1           0        1.190673    3.152351   -2.039740
     26          1           0       -0.347735    3.721631   -1.377421
     27          1           0       -0.325547    2.451005   -2.606187
     28          1           0        2.092915    1.097238   -1.500453
     29          1           0        0.714559    0.265705   -2.116310
     30          1           0        1.117889   -0.535554    0.693140
     31          1           0        3.391078    0.391928    0.282427
     32          1           0        3.600399   -0.774444   -1.038438
     33          1           0        4.987008   -2.449513    1.825793
     34          1           0        5.221555   -0.716148    1.473658
     35          1           0        5.366025   -1.917587    0.164764
     36          1           0        1.808847   -2.743593   -0.412793
     37          1           0        1.387783   -2.023463   -1.958799
     38          1           0       -0.540457   -2.326863    0.398485
     39          1           0       -0.373091   -3.525584   -0.849633
     40          1           0       -1.492861   -2.302674   -2.458143
     41          1           0       -0.860366   -0.789196   -1.919980
     42          1           0       -3.309612   -2.257073   -0.905457
     43          1           0       -3.203234   -0.759064   -1.779932
     44          1           0       -3.929385   -2.278353    1.206138
     45          1           0       -3.398974   -1.135303    2.431791
     46          1           0       -2.229401   -2.221973    1.676591
     47          1           0       -4.992150   -0.355120   -0.101830
     48          1           0       -4.045005    1.079571   -0.502636
     49          1           0       -4.459041    0.727396    1.183439
     50          1           0       -0.808855   -0.347944    0.898623
     51          1           0       -2.666377    1.807475    2.010524
     52          1           0       -0.956436    1.623659    2.372472
     53          1           0       -2.087798    0.392539    2.898660
     54          1           0       -1.782155    2.287842   -0.180718
     55          1           0       -1.625779    1.002475   -1.335654
 ---------------------------------------------------------------------
 Rotational constants (GHZ):           0.4451610           0.2614515           0.2082454
 Standard basis: 6-31G(2df,p) (6D, 7F)
 There are   769 symmetry adapted cartesian basis functions of A   symmetry.
 There are   712 symmetry adapted basis functions of A   symmetry.
   712 basis functions,  1088 primitive gaussians,   769 cartesian basis functions
    76 alpha electrons       76 beta electrons
       nuclear repulsion energy      1685.8293214554 Hartrees.
 NAtoms=   55 NActive=   55 NUniq=   55 SFac= 1.00D+00 NAtFMM=   60 NAOKFM=F Big=F
 Integral buffers will be    131072 words long.
 Raffenetti 2 integral format.
 Two-electron integral symmetry is turned on.
 One-electron integrals computed using PRISM.
 PrsmSu:  requested number of processors reduced to:  11 ShMem   1 Linda.
 NBasis=   712 RedAO= T EigKep=  4.61D-04  NBF=   712
 NBsUse=   712 1.00D-06 EigRej= -1.00D+00 NBFU=   712
 Initial guess from the checkpoint file:  "CCC1qCrCCqCOCrCCCCCqCrqCrCqCrC1.chk"
 B after Tr=    -0.000000    0.000000   -0.000000
         Rot=    1.000000    0.000000   -0.000000   -0.000000 Ang=   0.00 deg.
 Requested convergence on RMS density matrix=1.00D-08 within 128 cycles.
 Requested convergence on MAX density matrix=1.00D-06.
 Requested convergence on             energy=1.00D-06.
 No special actions if energy rises.
 SCF Done:  E(RB3LYP) =  -782.855901033     A.U. after    1 cycles
            NFock=  1  Conv=0.24D-08     -V/T= 2.0088
 DoSCS=F DFT=T ScalE2(SS,OS)=  1.000000  1.000000
 Range of M.O.s used for correlation:     1   712
 NBasis=   712 NAE=    76 NBE=    76 NFC=     0 NFV=     0
 NROrb=    712 NOA=    76 NOB=    76 NVA=   636 NVB=   636

 **** Warning!!: The largest alpha MO coefficient is  0.18549433D+02

 PrsmSu:  requested number of processors reduced to:  10 ShMem   1 Linda.
 PrsmSu:  requested number of processors reduced to:   1 ShMem   1 Linda.
 Symmetrizing basis deriv contribution to polar:
 IMax=3 JMax=2 DiffMx= 0.00D+00
 G2DrvN: will do     1 centers at a time, making   56 passes.
 Estimated number of processors is:   18
 Calling FoFCou, ICntrl=  3107 FMM=F I1Cent=   0 AccDes= 0.00D+00.
 Calling FoFCou, ICntrl=  3107 FMM=F I1Cent=   0 AccDes= 0.00D+00.
 CoulSu:  requested number of processors reduced to:  18 ShMem   1 Linda.
 Calling FoFCou, ICntrl=  3107 FMM=F I1Cent=   0 AccDes= 0.00D+00.
 CoulSu:  requested number of processors reduced to:  18 ShMem   1 Linda.
 Calling FoFCou, ICntrl=  3107 FMM=F I1Cent=   0 AccDes= 0.00D+00.
 CoulSu:  requested number of processors reduced to:  18 ShMem   1 Linda.
 Calling FoFCou, ICntrl=  3107 FMM=F I1Cent=   0 AccDes= 0.00D+00.
 CoulSu:  requested number of processors reduced to:  18 ShMem   1 Linda.
 Calling FoFCou, ICntrl=  3107 FMM=F I1Cent=   0 AccDes= 0.00D+00.
 CoulSu:  requested number of processors reduced to:  18 ShMem   1 Linda.
 Calling FoFCou, ICntrl=  3107 FMM=F I1Cent=   0 AccDes= 0.00D+00.
 CoulSu:  requested number of processors reduced to:  18 ShMem   1 Linda.
 Calling FoFCou, ICntrl=  3107 FMM=F I1Cent=   0 AccDes= 0.00D+00.
 CoulSu:  requested number of processors reduced to:  18 ShMem   1 Linda.
 Calling FoFCou, ICntrl=  3107 FMM=F I1Cent=   0 AccDes= 0.00D+00.
 CoulSu:  requested number of processors reduced to:  18 ShMem   1 Linda.
 Calling FoFCou, ICntrl=  3107 FMM=F I1Cent=   0 AccDes= 0.00D+00.
 CoulSu:  requested number of processors reduced to:  18 ShMem   1 Linda.
 Calling FoFCou, ICntrl=  3107 FMM=F I1Cent=   0 AccDes= 0.00D+00.
 CoulSu:  requested number of processors reduced to:  18 ShMem   1 Linda.
 Calling FoFCou, ICntrl=  3107 FMM=F I1Cent=   0 AccDes= 0.00D+00.
 CoulSu:  requested number of processors reduced to:  18 ShMem   1 Linda.
 Calling FoFCou, ICntrl=  3107 FMM=F I1Cent=   0 AccDes= 0.00D+00.
 CoulSu:  requested number of processors reduced to:  18 ShMem   1 Linda.
 Calling FoFCou, ICntrl=  3107 FMM=F I1Cent=   0 AccDes= 0.00D+00.
 CoulSu:  requested number of processors reduced to:  18 ShMem   1 Linda.
 Calling FoFCou, ICntrl=  3107 FMM=F I1Cent=   0 AccDes= 0.00D+00.
 CoulSu:  requested number of processors reduced to:  18 ShMem   1 Linda.
 Calling FoFCou, ICntrl=  3107 FMM=F I1Cent=   0 AccDes= 0.00D+00.
 CoulSu:  requested number of processors reduced to:  18 ShMem   1 Linda.
 Calling FoFCou, ICntrl=  3107 FMM=F I1Cent=   0 AccDes= 0.00D+00.
 CoulSu:  requested number of processors reduced to:  18 ShMem   1 Linda.
 Calling FoFCou, ICntrl=  3107 FMM=F I1Cent=   0 AccDes= 0.00D+00.
 CoulSu:  requested number of processors reduced to:  18 ShMem   1 Linda.
 Calling FoFCou, ICntrl=  3107 FMM=F I1Cent=   0 AccDes= 0.00D+00.
 CoulSu:  requested number of processors reduced to:  18 ShMem   1 Linda.
 Calling FoFCou, ICntrl=  3107 FMM=F I1Cent=   0 AccDes= 0.00D+00.
 CoulSu:  requested number of processors reduced to:  18 ShMem   1 Linda.
 Calling FoFCou, ICntrl=  3107 FMM=F I1Cent=   0 AccDes= 0.00D+00.
 CoulSu:  requested number of processors reduced to:  18 ShMem   1 Linda.
 Calling FoFCou, ICntrl=  3107 FMM=F I1Cent=   0 AccDes= 0.00D+00.
 CoulSu:  requested number of processors reduced to:  18 ShMem   1 Linda.
 Calling FoFCou, ICntrl=  3107 FMM=F I1Cent=   0 AccDes= 0.00D+00.
 CoulSu:  requested number of processors reduced to:  18 ShMem   1 Linda.
 Calling FoFCou, ICntrl=  3107 FMM=F I1Cent=   0 AccDes= 0.00D+00.
 CoulSu:  requested number of processors reduced to:  18 ShMem   1 Linda.
 Calling FoFCou, ICntrl=  3107 FMM=F I1Cent=   0 AccDes= 0.00D+00.
 CoulSu:  requested number of processors reduced to:  18 ShMem   1 Linda.
 Calling FoFCou, ICntrl=  3107 FMM=F I1Cent=   0 AccDes= 0.00D+00.
 CoulSu:  requested number of processors reduced to:  18 ShMem   1 Linda.
 Calling FoFCou, ICntrl=  3107 FMM=F I1Cent=   0 AccDes= 0.00D+00.
 CoulSu:  requested number of processors reduced to:  18 ShMem   1 Linda.
 Calling FoFCou, ICntrl=  3107 FMM=F I1Cent=   0 AccDes= 0.00D+00.
 CoulSu:  requested number of processors reduced to:  18 ShMem   1 Linda.
 Calling FoFCou, ICntrl=  3107 FMM=F I1Cent=   0 AccDes= 0.00D+00.
 CoulSu:  requested number of processors reduced to:  18 ShMem   1 Linda.
 Calling FoFCou, ICntrl=  3107 FMM=F I1Cent=   0 AccDes= 0.00D+00.
 CoulSu:  requested number of processors reduced to:  18 ShMem   1 Linda.
 Calling FoFCou, ICntrl=  3107 FMM=F I1Cent=   0 AccDes= 0.00D+00.
 CoulSu:  requested number of processors reduced to:  18 ShMem   1 Linda.
 Calling FoFCou, ICntrl=  3107 FMM=F I1Cent=   0 AccDes= 0.00D+00.
 CoulSu:  requested number of processors reduced to:  18 ShMem   1 Linda.
 Calling FoFCou, ICntrl=  3107 FMM=F I1Cent=   0 AccDes= 0.00D+00.
 CoulSu:  requested number of processors reduced to:  18 ShMem   1 Linda.
 Calling FoFCou, ICntrl=  3107 FMM=F I1Cent=   0 AccDes= 0.00D+00.
 CoulSu:  requested number of processors reduced to:  18 ShMem   1 Linda.
 Calling FoFCou, ICntrl=  3107 FMM=F I1Cent=   0 AccDes= 0.00D+00.
 CoulSu:  requested number of processors reduced to:  18 ShMem   1 Linda.
 Calling FoFCou, ICntrl=  3107 FMM=F I1Cent=   0 AccDes= 0.00D+00.
 CoulSu:  requested number of processors reduced to:  18 ShMem   1 Linda.
 Calling FoFCou, ICntrl=  3107 FMM=F I1Cent=   0 AccDes= 0.00D+00.
 CoulSu:  requested number of processors reduced to:  18 ShMem   1 Linda.
 Calling FoFCou, ICntrl=  3107 FMM=F I1Cent=   0 AccDes= 0.00D+00.
 CoulSu:  requested number of processors reduced to:  18 ShMem   1 Linda.
 Calling FoFCou, ICntrl=  3107 FMM=F I1Cent=   0 AccDes= 0.00D+00.
 CoulSu:  requested number of processors reduced to:  18 ShMem   1 Linda.
 Calling FoFCou, ICntrl=  3107 FMM=F I1Cent=   0 AccDes= 0.00D+00.
 CoulSu:  requested number of processors reduced to:  18 ShMem   1 Linda.
 Calling FoFCou, ICntrl=  3107 FMM=F I1Cent=   0 AccDes= 0.00D+00.
 CoulSu:  requested number of processors reduced to:  18 ShMem   1 Linda.
 Calling FoFCou, ICntrl=  3107 FMM=F I1Cent=   0 AccDes= 0.00D+00.
 CoulSu:  requested number of processors reduced to:  18 ShMem   1 Linda.
 Calling FoFCou, ICntrl=  3107 FMM=F I1Cent=   0 AccDes= 0.00D+00.
 CoulSu:  requested number of processors reduced to:  18 ShMem   1 Linda.
 Calling FoFCou, ICntrl=  3107 FMM=F I1Cent=   0 AccDes= 0.00D+00.
 CoulSu:  requested number of processors reduced to:  18 ShMem   1 Linda.
 Calling FoFCou, ICntrl=  3107 FMM=F I1Cent=   0 AccDes= 0.00D+00.
 CoulSu:  requested number of processors reduced to:  18 ShMem   1 Linda.
 Calling FoFCou, ICntrl=  3107 FMM=F I1Cent=   0 AccDes= 0.00D+00.
 CoulSu:  requested number of processors reduced to:  18 ShMem   1 Linda.
 Calling FoFCou, ICntrl=  3107 FMM=F I1Cent=   0 AccDes= 0.00D+00.
 CoulSu:  requested number of processors reduced to:  18 ShMem   1 Linda.
 Calling FoFCou, ICntrl=  3107 FMM=F I1Cent=   0 AccDes= 0.00D+00.
 CoulSu:  requested number of processors reduced to:  18 ShMem   1 Linda.
 Calling FoFCou, ICntrl=  3107 FMM=F I1Cent=   0 AccDes= 0.00D+00.
 CoulSu:  requested number of processors reduced to:  18 ShMem   1 Linda.
 Calling FoFCou, ICntrl=  3107 FMM=F I1Cent=   0 AccDes= 0.00D+00.
 CoulSu:  requested number of processors reduced to:  18 ShMem   1 Linda.
 Calling FoFCou, ICntrl=  3107 FMM=F I1Cent=   0 AccDes= 0.00D+00.
 CoulSu:  requested number of processors reduced to:  18 ShMem   1 Linda.
 Calling FoFCou, ICntrl=  3107 FMM=F I1Cent=   0 AccDes= 0.00D+00.
 CoulSu:  requested number of processors reduced to:  18 ShMem   1 Linda.
 Calling FoFCou, ICntrl=  3107 FMM=F I1Cent=   0 AccDes= 0.00D+00.
 CoulSu:  requested number of processors reduced to:  18 ShMem   1 Linda.
 Calling FoFCou, ICntrl=  3107 FMM=F I1Cent=   0 AccDes= 0.00D+00.
 CoulSu:  requested number of processors reduced to:  18 ShMem   1 Linda.
 Calling FoFCou, ICntrl=  3107 FMM=F I1Cent=   0 AccDes= 0.00D+00.
 CoulSu:  requested number of processors reduced to:  18 ShMem   1 Linda.
 Calling FoFCou, ICntrl=  3107 FMM=F I1Cent=   0 AccDes= 0.00D+00.
 CoulSu:  requested number of processors reduced to:  18 ShMem   1 Linda.
 End of G2Drv F.D. properties file   721 does not exist.
 End of G2Drv F.D. properties file   722 does not exist.
 End of G2Drv F.D. properties file   788 does not exist.
          IDoAtm=11111111111111111111111111111111111111111111111111
          IDoAtm=11111
          Differentiating once with respect to electric field.
                with respect to dipole field.
          Differentiating once with respect to nuclear coordinates.
 CalDSu exits because no D1Ps are significant.
slurmstepd: error: *** JOB 27482815 ON lewis4-r630-hpc4-node229 CANCELLED AT 2023-05-24T22:29:51 DUE TO TIME LIMIT ***
