### Starting Gaussian ###
 Entering Gaussian System, Link 0=g16
 Initial command:
 /cluster/software/gaussian/gaussian-16-A.03/avx2/g16/l1.exe "/local/scratch/linjian/Gau-16171.inp" -scrdir="/local/scratch/linjian/"
 Entering Link 1 = /cluster/software/gaussian/gaussian-16-A.03/avx2/g16/l1.exe PID=     16172.
  
 Copyright (c) 1988,1990,1992,1993,1995,1998,2003,2009,2016,
            Gaussian, Inc.  All Rights Reserved.
  
 This is part of the Gaussian(R) 16 program.  It is based on
 the Gaussian(R) 09 system (copyright 2009, Gaussian, Inc.),
 the Gaussian(R) 03 system (copyright 2003, Gaussian, Inc.),
 the Gaussian(R) 98 system (copyright 1998, Gaussian, Inc.),
 the Gaussian(R) 94 system (copyright 1995, Gaussian, Inc.),
 the Gaussian 92(TM) system (copyright 1992, Gaussian, Inc.),
 the Gaussian 90(TM) system (copyright 1990, Gaussian, Inc.),
 the Gaussian 88(TM) system (copyright 1988, Gaussian, Inc.),
 the Gaussian 86(TM) system (copyright 1986, Carnegie Mellon
 University), and the Gaussian 82(TM) system (copyright 1983,
 Carnegie Mellon University). Gaussian is a federally registered
 trademark of Gaussian, Inc.
  
 This software contains proprietary and confidential information,
 including trade secrets, belonging to Gaussian, Inc.
  
 This software is provided under written license and may be
 used, copied, transmitted, or stored only in accord with that
 written license.
  
 The following legend is applicable only to US Government
 contracts under FAR:
  
                    RESTRICTED RIGHTS LEGEND
  
 Use, reproduction and disclosure by the US Government is
 subject to restrictions as set forth in subparagraphs (a)
 and (c) of the Commercial Computer Software - Restricted
 Rights clause in FAR 52.227-19.
  
 Gaussian, Inc.
 340 Quinnipiac St., Bldg. 40, Wallingford CT 06492
  
  
 ---------------------------------------------------------------
 Warning -- This program may not be used in any manner that
 competes with the business of Gaussian, Inc. or will provide
 assistance to any competitor of Gaussian, Inc.  The licensee
 of this program is prohibited from giving any competitor of
 Gaussian, Inc. access to this program.  By using this program,
 the user acknowledges that Gaussian, Inc. is engaged in the
 business of creating and licensing software in the field of
 computational chemistry and represents and warrants to the
 licensee that it is not a competitor of Gaussian, Inc. and that
 it will not use this program in any manner prohibited above.
 ---------------------------------------------------------------
  

 Cite this work as:
 Gaussian 16, Revision A.03,
 M. J. Frisch, G. W. Trucks, H. B. Schlegel, G. E. Scuseria, 
 M. A. Robb, J. R. Cheeseman, G. Scalmani, V. Barone, 
 G. A. Petersson, H. Nakatsuji, X. Li, M. Caricato, A. V. Marenich, 
 J. Bloino, B. G. Janesko, R. Gomperts, B. Mennucci, H. P. Hratchian, 
 J. V. Ortiz, A. F. Izmaylov, J. L. Sonnenberg, D. Williams-Young, 
 F. Ding, F. Lipparini, F. Egidi, J. Goings, B. Peng, A. Petrone, 
 T. Henderson, D. Ranasinghe, V. G. Zakrzewski, J. Gao, N. Rega, 
 G. Zheng, W. Liang, M. Hada, M. Ehara, K. Toyota, R. Fukuda, 
 J. Hasegawa, M. Ishida, T. Nakajima, Y. Honda, O. Kitao, H. Nakai, 
 T. Vreven, K. Throssell, J. A. Montgomery, Jr., J. E. Peralta, 
 F. Ogliaro, M. J. Bearpark, J. J. Heyd, E. N. Brothers, K. N. Kudin, 
 V. N. Staroverov, T. A. Keith, R. Kobayashi, J. Normand, 
 K. Raghavachari, A. P. Rendell, J. C. Burant, S. S. Iyengar, 
 J. Tomasi, M. Cossi, J. M. Millam, M. Klene, C. Adamo, R. Cammi, 
 J. W. Ochterski, R. L. Martin, K. Morokuma, O. Farkas, 
 J. B. Foresman, and D. J. Fox, Gaussian, Inc., Wallingford CT, 2016.
 
 ******************************************
 Gaussian 16:  ES64L-G16RevA.03 25-Dec-2016
                28-May-2023 
 ******************************************
 %chk=CCC1C2CC1qCrC2C.chk
 %NProcShared=20
 Will use up to   20 processors via shared memory.
 -----------------------------
 # opt freq b3lyp/6-31g(2df,p)
 -----------------------------
 1/18=20,19=15,26=3,38=1/1,3;
 2/9=110,12=2,17=6,18=5,40=1/2;
 3/5=1,6=6,7=104,11=2,25=1,30=1,71=1,74=-5/1,2,3;
 4//1;
 5/5=2,38=5/2;
 6/7=2,8=2,9=2,10=2,28=1/1;
 7//1,2,3,16;
 1/18=20,19=15,26=3/3(2);
 2/9=110/2;
 99//99;
 2/9=110/2;
 3/5=1,6=6,7=104,11=2,25=1,30=1,71=1,74=-5/1,2,3;
 4/5=5,16=3,69=1/1;
 5/5=2,38=5/2;
 7//1,2,3,16;
 1/18=20,19=15,26=3/3(-5);
 2/9=110/2;
 6/7=2,8=2,9=2,10=2,19=2,28=1/1;
 99/9=1/99;
 -------------------
 Title Card Required
 -------------------
 Symbolic Z-matrix:
 Charge =  0 Multiplicity = 1
 C                     1.04619  -0.1762    0.0011 
 C                     2.59025  -0.03673   0.09025 
 C                     3.15258   1.14369   0.99879 
 C                     3.29388   2.74629   0.73863 
 C                     2.81716   2.98317   2.21588 
 C                     1.95815   1.75073   1.78819 
 C                     1.92711   0.81527   2.99735 
 C                     1.89126   2.55356   0.07428 
 C                     2.39136   2.47848  -1.40079 
 H                     0.76217  -0.9111   -0.75917 
 H                     0.51133   0.73903  -0.27157 
 H                     0.62179  -0.50875   0.95341 
 H                     2.99585   0.03399  -0.92266 
 H                     2.96554  -0.99041   0.47729 
 H                     4.02778   0.76943   1.54944 
 H                     4.16231   3.20783   0.32747 
 H                     2.16745   3.85371   2.37321 
 H                     3.53752   2.89152   3.02677 
 H                     0.95918   0.3632    3.21197 
 H                     2.2162    1.36035   3.91294 
 H                     2.66876  -0.0021    2.96776 
 H                     1.21119   3.40892   0.10826 
 H                     3.33512   1.93332  -1.54494 
 H                     2.61103   3.48998  -1.77003 
 H                     1.64807   2.03638  -2.07044 
 

 GradGradGradGradGradGradGradGradGradGradGradGradGradGradGradGradGradGrad
 Berny optimization.
 Initialization pass.
                           ----------------------------
                           !    Initial Parameters    !
                           ! (Angstroms and Degrees)  !
 --------------------------                            --------------------------
 ! Name  Definition              Value          Derivative Info.                !
 --------------------------------------------------------------------------------
 ! R1    R(1,2)                  1.5529         estimate D2E/DX2                !
 ! R2    R(1,10)                 1.0949         estimate D2E/DX2                !
 ! R3    R(1,11)                 1.0946         estimate D2E/DX2                !
 ! R4    R(1,12)                 1.0943         estimate D2E/DX2                !
 ! R5    R(2,3)                  1.5922         estimate D2E/DX2                !
 ! R6    R(2,13)                 1.0934         estimate D2E/DX2                !
 ! R7    R(2,14)                 1.0955         estimate D2E/DX2                !
 ! R8    R(3,4)                  1.6297         estimate D2E/DX2                !
 ! R9    R(3,6)                  1.5551         estimate D2E/DX2                !
 ! R10   R(3,15)                 1.0997         estimate D2E/DX2                !
 ! R11   R(4,5)                  1.5702         estimate D2E/DX2                !
 ! R12   R(4,8)                  1.5639         estimate D2E/DX2                !
 ! R13   R(4,16)                 1.0659         estimate D2E/DX2                !
 ! R14   R(5,6)                  1.562          estimate D2E/DX2                !
 ! R15   R(5,17)                 1.0976         estimate D2E/DX2                !
 ! R16   R(5,18)                 1.0885         estimate D2E/DX2                !
 ! R17   R(6,7)                  1.5291         estimate D2E/DX2                !
 ! R18   R(7,19)                 1.0896         estimate D2E/DX2                !
 ! R19   R(7,20)                 1.1041         estimate D2E/DX2                !
 ! R20   R(7,21)                 1.1041         estimate D2E/DX2                !
 ! R21   R(8,9)                  1.5593         estimate D2E/DX2                !
 ! R22   R(8,22)                 1.0933         estimate D2E/DX2                !
 ! R23   R(9,23)                 1.0994         estimate D2E/DX2                !
 ! R24   R(9,24)                 1.099          estimate D2E/DX2                !
 ! R25   R(9,25)                 1.0938         estimate D2E/DX2                !
 ! A1    A(2,1,10)             110.9822         estimate D2E/DX2                !
 ! A2    A(2,1,11)             115.1552         estimate D2E/DX2                !
 ! A3    A(2,1,12)             111.2806         estimate D2E/DX2                !
 ! A4    A(10,1,11)            105.1593         estimate D2E/DX2                !
 ! A5    A(10,1,12)            107.4391         estimate D2E/DX2                !
 ! A6    A(11,1,12)            106.3418         estimate D2E/DX2                !
 ! A7    A(1,2,3)              116.7766         estimate D2E/DX2                !
 ! A8    A(1,2,13)             108.7518         estimate D2E/DX2                !
 ! A9    A(1,2,14)             106.4224         estimate D2E/DX2                !
 ! A10   A(3,2,13)             110.4663         estimate D2E/DX2                !
 ! A11   A(3,2,14)             108.833          estimate D2E/DX2                !
 ! A12   A(13,2,14)            104.8636         estimate D2E/DX2                !
 ! A13   A(2,3,4)              131.9574         estimate D2E/DX2                !
 ! A14   A(2,3,6)              107.9264         estimate D2E/DX2                !
 ! A15   A(2,3,15)             108.3309         estimate D2E/DX2                !
 ! A16   A(4,3,6)               76.3357         estimate D2E/DX2                !
 ! A17   A(4,3,15)             110.219          estimate D2E/DX2                !
 ! A18   A(6,3,15)             119.338          estimate D2E/DX2                !
 ! A19   A(3,4,5)               88.3864         estimate D2E/DX2                !
 ! A20   A(3,4,8)               82.465          estimate D2E/DX2                !
 ! A21   A(3,4,16)             123.9171         estimate D2E/DX2                !
 ! A22   A(5,4,8)               98.3922         estimate D2E/DX2                !
 ! A23   A(5,4,16)             123.0181         estimate D2E/DX2                !
 ! A24   A(8,4,16)             128.3293         estimate D2E/DX2                !
 ! A25   A(4,5,6)               77.8972         estimate D2E/DX2                !
 ! A26   A(4,5,17)             115.7352         estimate D2E/DX2                !
 ! A27   A(4,5,18)             119.158          estimate D2E/DX2                !
 ! A28   A(6,5,17)             109.8475         estimate D2E/DX2                !
 ! A29   A(6,5,18)             120.0991         estimate D2E/DX2                !
 ! A30   A(17,5,18)            110.5934         estimate D2E/DX2                !
 ! A31   A(3,6,5)               91.4091         estimate D2E/DX2                !
 ! A32   A(3,6,7)              100.2646         estimate D2E/DX2                !
 ! A33   A(5,6,7)              106.1021         estimate D2E/DX2                !
 ! A34   A(6,7,19)             115.3153         estimate D2E/DX2                !
 ! A35   A(6,7,20)             110.3909         estimate D2E/DX2                !
 ! A36   A(6,7,21)             114.7131         estimate D2E/DX2                !
 ! A37   A(19,7,20)            105.9071         estimate D2E/DX2                !
 ! A38   A(19,7,21)            107.1478         estimate D2E/DX2                !
 ! A39   A(20,7,21)            102.2296         estimate D2E/DX2                !
 ! A40   A(4,8,9)               96.9001         estimate D2E/DX2                !
 ! A41   A(4,8,22)             116.6323         estimate D2E/DX2                !
 ! A42   A(9,8,22)             105.4599         estimate D2E/DX2                !
 ! A43   A(8,9,23)             115.0379         estimate D2E/DX2                !
 ! A44   A(8,9,24)             109.7319         estimate D2E/DX2                !
 ! A45   A(8,9,25)             112.3747         estimate D2E/DX2                !
 ! A46   A(23,9,24)            103.9315         estimate D2E/DX2                !
 ! A47   A(23,9,25)            107.6172         estimate D2E/DX2                !
 ! A48   A(24,9,25)            107.5872         estimate D2E/DX2                !
 ! D1    D(10,1,2,3)           171.3838         estimate D2E/DX2                !
 ! D2    D(10,1,2,13)           45.5863         estimate D2E/DX2                !
 ! D3    D(10,1,2,14)          -66.9012         estimate D2E/DX2                !
 ! D4    D(11,1,2,3)            52.0749         estimate D2E/DX2                !
 ! D5    D(11,1,2,13)          -73.7226         estimate D2E/DX2                !
 ! D6    D(11,1,2,14)          173.7899         estimate D2E/DX2                !
 ! D7    D(12,1,2,3)           -69.0232         estimate D2E/DX2                !
 ! D8    D(12,1,2,13)          165.1793         estimate D2E/DX2                !
 ! D9    D(12,1,2,14)           52.6919         estimate D2E/DX2                !
 ! D10   D(1,2,3,4)            -78.1933         estimate D2E/DX2                !
 ! D11   D(1,2,3,6)              9.3404         estimate D2E/DX2                !
 ! D12   D(1,2,3,15)           139.8571         estimate D2E/DX2                !
 ! D13   D(13,2,3,4)            46.7437         estimate D2E/DX2                !
 ! D14   D(13,2,3,6)           134.2773         estimate D2E/DX2                !
 ! D15   D(13,2,3,15)          -95.2059         estimate D2E/DX2                !
 ! D16   D(14,2,3,4)           161.3626         estimate D2E/DX2                !
 ! D17   D(14,2,3,6)          -111.1037         estimate D2E/DX2                !
 ! D18   D(14,2,3,15)           19.413          estimate D2E/DX2                !
 ! D19   D(2,3,4,5)            138.9138         estimate D2E/DX2                !
 ! D20   D(2,3,4,8)             40.2287         estimate D2E/DX2                !
 ! D21   D(2,3,4,16)           -91.4469         estimate D2E/DX2                !
 ! D22   D(6,3,4,5)             36.9447         estimate D2E/DX2                !
 ! D23   D(6,3,4,8)            -61.7404         estimate D2E/DX2                !
 ! D24   D(6,3,4,16)           166.584          estimate D2E/DX2                !
 ! D25   D(15,3,4,5)           -79.6583         estimate D2E/DX2                !
 ! D26   D(15,3,4,8)          -178.3434         estimate D2E/DX2                !
 ! D27   D(15,3,4,16)           49.981          estimate D2E/DX2                !
 ! D28   D(2,3,6,5)           -167.2983         estimate D2E/DX2                !
 ! D29   D(2,3,6,7)             86.0591         estimate D2E/DX2                !
 ! D30   D(4,3,6,5)            -37.1692         estimate D2E/DX2                !
 ! D31   D(4,3,6,7)           -143.8117         estimate D2E/DX2                !
 ! D32   D(15,3,6,5)            68.5763         estimate D2E/DX2                !
 ! D33   D(15,3,6,7)           -38.0663         estimate D2E/DX2                !
 ! D34   D(3,4,5,6)            -36.4899         estimate D2E/DX2                !
 ! D35   D(3,4,5,17)          -142.876          estimate D2E/DX2                !
 ! D36   D(3,4,5,18)            81.3943         estimate D2E/DX2                !
 ! D37   D(8,4,5,6)             45.6497         estimate D2E/DX2                !
 ! D38   D(8,4,5,17)           -60.7363         estimate D2E/DX2                !
 ! D39   D(8,4,5,18)           163.534          estimate D2E/DX2                !
 ! D40   D(16,4,5,6)          -166.8377         estimate D2E/DX2                !
 ! D41   D(16,4,5,17)           86.7763         estimate D2E/DX2                !
 ! D42   D(16,4,5,18)          -48.9534         estimate D2E/DX2                !
 ! D43   D(3,4,8,9)            -98.6029         estimate D2E/DX2                !
 ! D44   D(3,4,8,22)           150.2315         estimate D2E/DX2                !
 ! D45   D(5,4,8,9)            174.1612         estimate D2E/DX2                !
 ! D46   D(5,4,8,22)            62.9956         estimate D2E/DX2                !
 ! D47   D(16,4,8,9)            29.1988         estimate D2E/DX2                !
 ! D48   D(16,4,8,22)          -81.9668         estimate D2E/DX2                !
 ! D49   D(4,5,6,3)             38.5472         estimate D2E/DX2                !
 ! D50   D(4,5,6,7)            139.6534         estimate D2E/DX2                !
 ! D51   D(17,5,6,3)           151.7961         estimate D2E/DX2                !
 ! D52   D(17,5,6,7)          -107.0977         estimate D2E/DX2                !
 ! D53   D(18,5,6,3)           -78.303          estimate D2E/DX2                !
 ! D54   D(18,5,6,7)            22.8031         estimate D2E/DX2                !
 ! D55   D(3,6,7,19)          -127.7136         estimate D2E/DX2                !
 ! D56   D(3,6,7,20)           112.3332         estimate D2E/DX2                !
 ! D57   D(3,6,7,21)            -2.4919         estimate D2E/DX2                !
 ! D58   D(5,6,7,19)           137.7963         estimate D2E/DX2                !
 ! D59   D(5,6,7,20)            17.843          estimate D2E/DX2                !
 ! D60   D(5,6,7,21)           -96.9821         estimate D2E/DX2                !
 ! D61   D(4,8,9,23)            38.4992         estimate D2E/DX2                !
 ! D62   D(4,8,9,24)           -78.2352         estimate D2E/DX2                !
 ! D63   D(4,8,9,25)           162.1088         estimate D2E/DX2                !
 ! D64   D(22,8,9,23)          158.6286         estimate D2E/DX2                !
 ! D65   D(22,8,9,24)           41.8942         estimate D2E/DX2                !
 ! D66   D(22,8,9,25)          -77.7618         estimate D2E/DX2                !
 --------------------------------------------------------------------------------
 Trust Radius=3.00D-01 FncErr=1.00D-07 GrdErr=1.00D-06 EigMax=2.50D+02 EigMin=1.00D-04
 Number of steps in this run=    149 maximum allowed number of steps=    150.
 GradGradGradGradGradGradGradGradGradGradGradGradGradGradGradGradGradGrad

                          Input orientation:                          
 ---------------------------------------------------------------------
 Center     Atomic      Atomic             Coordinates (Angstroms)
 Number     Number       Type             X           Y           Z
 ---------------------------------------------------------------------
      1          6           0        1.046190   -0.176200    0.001100
      2          6           0        2.590250   -0.036730    0.090250
      3          6           0        3.152580    1.143690    0.998790
      4          6           0        3.293880    2.746290    0.738630
      5          6           0        2.817160    2.983170    2.215880
      6          6           0        1.958150    1.750730    1.788190
      7          6           0        1.927110    0.815270    2.997350
      8          6           0        1.891260    2.553560    0.074280
      9          6           0        2.391360    2.478480   -1.400790
     10          1           0        0.762170   -0.911100   -0.759170
     11          1           0        0.511330    0.739030   -0.271570
     12          1           0        0.621790   -0.508750    0.953410
     13          1           0        2.995850    0.033990   -0.922660
     14          1           0        2.965540   -0.990410    0.477290
     15          1           0        4.027780    0.769430    1.549440
     16          1           0        4.162310    3.207830    0.327470
     17          1           0        2.167450    3.853710    2.373210
     18          1           0        3.537520    2.891520    3.026770
     19          1           0        0.959180    0.363200    3.211970
     20          1           0        2.216200    1.360350    3.912940
     21          1           0        2.668760   -0.002100    2.967760
     22          1           0        1.211190    3.408920    0.108260
     23          1           0        3.335120    1.933320   -1.544940
     24          1           0        2.611030    3.489980   -1.770030
     25          1           0        1.648070    2.036380   -2.070440
 ---------------------------------------------------------------------
                    Distance matrix (angstroms):
                    1          2          3          4          5
     1  C    0.000000
     2  C    1.552907   0.000000
     3  C    2.678502   1.592184   0.000000
     4  C    3.759921   2.942905   1.629716   0.000000
     5  C    4.245374   3.699944   2.231031   1.570236   0.000000
     6  C    2.781802   2.545106   1.555093   1.968982   1.561962
     7  C    3.276667   3.101111   2.367251   3.270889   2.470359
     8  C    2.858512   2.682992   2.105559   1.563921   2.372405
     9  C    3.289697   2.930706   2.849404   2.337388   3.676455
    10  H    1.094877   2.197251   3.609244   4.693555   5.314061
    11  H    1.094564   2.248249   2.958676   3.576616   4.066992
    12  H    1.094349   2.200610   3.022832   4.216809   4.313581
    13  H    2.167645   1.093389   2.224403   3.194570   4.310455
    14  H    2.138597   1.095513   2.204842   3.760191   4.339821
    15  H    3.490194   2.201277   1.099664   2.259203   2.609672
    16  H    4.611765   3.613145   2.393930   1.065947   2.329376
    17  H    4.808774   4.530584   3.194326   2.273120   1.097595
    18  H    4.977179   4.253836   2.704772   2.305653   1.088513
    19  H    3.257025   3.544781   3.212216   4.152993   3.362815
    20  H    4.362614   4.087139   3.068553   3.627460   2.423780
    21  H    3.385870   2.878789   2.328897   3.593528   3.082074
    22  H    3.590514   3.711420   3.113407   2.274652   2.683741
    23  H    3.475560   2.666416   2.669719   2.424317   3.938811
    24  H    4.361938   3.987325   3.669430   2.704207   4.023285
    25  H    3.090153   3.139119   3.532792   3.332197   4.542656
                    6          7          8          9         10
     6  C    0.000000
     7  C    1.529090   0.000000
     8  C    1.893805   3.401070   0.000000
     9  C    3.299528   4.724979   1.559349   0.000000
    10  H    3.873597   4.295216   3.738095   3.815126   0.000000
    11  H    2.712828   3.563156   2.305719   2.799167   1.738851
    12  H    2.754626   2.763074   3.429601   4.194899   1.764801
    13  H    3.372347   4.137521   2.926131   2.563113   2.430895
    14  H    3.201116   3.269483   3.725080   3.986234   2.527838
    15  H    2.302894   2.551736   3.150228   3.781875   4.337980
    16  H    3.019133   4.224775   2.376940   2.579748   5.450442
    17  H    2.192847   3.111179   2.655513   4.022993   5.872821
    18  H    2.308656   2.627756   3.397291   4.592121   6.041178
    19  H    2.224934   1.089641   3.938470   5.272865   4.175237
    20  H    2.175672   1.104079   4.032945   5.432920   5.394655
    21  H    2.229073   1.104090   3.938036   5.031347   4.283850
    22  H    2.475825   3.947962   1.093293   2.129730   4.429066
    23  H    3.610975   4.885174   2.256392   1.099391   3.915129
    24  H    4.013997   5.509059   2.190075   1.098966   4.879511
    25  H    3.881594   5.220294   2.219559   1.093784   3.345428
                   11         12         13         14         15
    11  H    0.000000
    12  H    1.752065   0.000000
    13  H    2.663426   3.074145   0.000000
    14  H    3.094334   2.439642   1.734985   0.000000
    15  H    3.960104   3.686430   2.777954   2.318382   0.000000
    16  H    4.447862   5.171078   3.605096   4.368057   2.730770
    17  H    4.408948   4.841070   5.112657   5.262790   3.694889
    18  H    4.966899   4.935802   4.904781   4.679358   2.631753
    19  H    3.532261   2.444427   4.620776   3.651878   3.513593
    20  H    4.561003   3.846361   5.074457   4.229808   3.035974
    21  H    3.961949   2.916228   3.904313   2.695789   2.110409
    22  H    2.786106   4.050902   3.954486   4.750582   4.120326
    23  H    3.319878   4.423530   2.027262   3.574101   3.377811
    24  H    3.771187   5.231065   3.579105   5.024940   4.519674
    25  H    2.492234   4.083455   2.672728   4.169906   4.513503
                   16         17         18         19         20
    16  H    0.000000
    17  H    2.929450   0.000000
    18  H    2.788662   1.797232   0.000000
    19  H    5.164523   3.787756   3.615873   0.000000
    20  H    4.478406   2.930868   2.208091   1.750933   0.000000
    21  H    4.416500   3.933456   3.021798   1.765148   1.718850
    22  H    2.966075   2.498453   3.767919   4.355793   4.436471
    23  H    2.411335   4.516996   4.675430   5.544237   5.600779
    24  H    2.624040   4.182762   4.921974   6.109475   6.081724
    25  H    3.666561   4.828920   5.502984   5.583722   6.048192
                   21         22         23         24         25
    21  H    0.000000
    22  H    4.683621   0.000000
    23  H    4.955234   3.069453   0.000000
    24  H    5.885967   2.343949   1.731520   0.000000
    25  H    5.529979   2.611793   1.770003   1.769319   0.000000
 Stoichiometry    C9H16
 Framework group  C1[X(C9H16)]
 Deg. of freedom    69
 Full point group                 C1      NOp   1
 Largest Abelian subgroup         C1      NOp   1
 Largest concise Abelian subgroup C1      NOp   1
                         Standard orientation:                         
 ---------------------------------------------------------------------
 Center     Atomic      Atomic             Coordinates (Angstroms)
 Number     Number       Type             X           Y           Z
 ---------------------------------------------------------------------
      1          6           0       -0.926828    2.007377   -0.563885
      2          6           0       -0.733109    1.349354    0.829313
      3          6           0        0.235932    0.087906    0.898303
      4          6           0        0.020512   -1.475160    0.490389
      5          6           0        1.467929   -1.469671   -0.118376
      6          6           0        0.957898   -0.036649   -0.473398
      7          6           0        2.141784    0.903653   -0.244572
      8          6           0       -0.738856   -0.840637   -0.720640
      9          6           0       -2.179044   -1.005841   -0.146067
     10          1           0       -1.719941    2.761602   -0.534370
     11          1           0       -1.214214    1.321078   -1.366676
     12          1           0       -0.012002    2.506354   -0.898124
     13          1           0       -1.715313    1.099826    1.239814
     14          1           0       -0.342979    2.131533    1.489723
     15          1           0        0.834804    0.161712    1.817632
     16          1           0       -0.322405   -2.224501    1.166509
     17          1           0        1.600968   -2.056002   -1.036654
     18          1           0        2.322347   -1.596475    0.544007
     19          1           0        2.282283    1.669853   -1.006487
     20          1           0        3.086055    0.332436   -0.212112
     21          1           0        2.143392    1.413999    0.734488
     22          1           0       -0.731201   -1.407607   -1.655400
     23          1           0       -2.272490   -0.825283    0.934362
     24          1           0       -2.510953   -2.046112   -0.270160
     25          1           0       -2.905664   -0.364399   -0.652958
 ---------------------------------------------------------------------
 Rotational constants (GHZ):           2.0111449           1.7875228           1.1824087
 Standard basis: 6-31G(2df,p) (6D, 7F)
 There are   359 symmetry adapted cartesian basis functions of A   symmetry.
 There are   332 symmetry adapted basis functions of A   symmetry.
   332 basis functions,   508 primitive gaussians,   359 cartesian basis functions
    35 alpha electrons       35 beta electrons
       nuclear repulsion energy       487.4316447628 Hartrees.
 NAtoms=   25 NActive=   25 NUniq=   25 SFac= 1.00D+00 NAtFMM=   60 NAOKFM=F Big=F
 Integral buffers will be    131072 words long.
 Raffenetti 2 integral format.
 Two-electron integral symmetry is turned on.
 One-electron integrals computed using PRISM.
 PrsmSu:  requested number of processors reduced to:  13 ShMem   1 Linda.
 NBasis=   332 RedAO= T EigKep=  4.10D-04  NBF=   332
 NBsUse=   332 1.00D-06 EigRej= -1.00D+00 NBFU=   332
 ExpMin= 1.61D-01 ExpMax= 3.05D+03 ExpMxC= 4.57D+02 IAcc=3 IRadAn=         5 AccDes= 0.00D+00
 Harris functional with IExCor=  402 and IRadAn=       5 diagonalized for initial guess.
 HarFok:  IExCor=  402 AccDes= 0.00D+00 IRadAn=         5 IDoV= 1 UseB2=F ITyADJ=14
 ICtDFT=  3500011 ScaDFX=  1.000000  1.000000  1.000000  1.000000
 FoFCou: FMM=F IPFlag=           0 FMFlag=      100000 FMFlg1=           0
         NFxFlg=           0 DoJE=T BraDBF=F KetDBF=T FulRan=T
         wScrn=  0.000000 ICntrl=       500 IOpCl=  0 I1Cent=   200000004 NGrid=           0
         NMat0=    1 NMatS0=      1 NMatT0=    0 NMatD0=    1 NMtDS0=    0 NMtDT0=    0
 Petite list used in FoFCou.
 Requested convergence on RMS density matrix=1.00D-08 within 128 cycles.
 Requested convergence on MAX density matrix=1.00D-06.
 Requested convergence on             energy=1.00D-06.
 No special actions if energy rises.
 Integral accuracy reduced to 1.0D-05 until final iterations.
 Initial convergence to 1.0D-05 achieved.  Increase integral accuracy.
 SCF Done:  E(RB3LYP) =  -352.368674852     A.U. after   13 cycles
            NFock= 13  Conv=0.92D-08     -V/T= 2.0091

 **********************************************************************

            Population analysis using the SCF density.

 **********************************************************************

 Orbital symmetries:
       Occupied  (A) (A) (A) (A) (A) (A) (A) (A) (A) (A) (A) (A)
                 (A) (A) (A) (A) (A) (A) (A) (A) (A) (A) (A) (A)
                 (A) (A) (A) (A) (A) (A) (A) (A) (A) (A) (A)
       Virtual   (A) (A) (A) (A) (A) (A) (A) (A) (A) (A) (A) (A)
                 (A) (A) (A) (A) (A) (A) (A) (A) (A) (A) (A) (A)
                 (A) (A) (A) (A) (A) (A) (A) (A) (A) (A) (A) (A)
                 (A) (A) (A) (A) (A) (A) (A) (A) (A) (A) (A) (A)
                 (A) (A) (A) (A) (A) (A) (A) (A) (A) (A) (A) (A)
                 (A) (A) (A) (A) (A) (A) (A) (A) (A) (A) (A) (A)
                 (A) (A) (A) (A) (A) (A) (A) (A) (A) (A) (A) (A)
                 (A) (A) (A) (A) (A) (A) (A) (A) (A) (A) (A) (A)
                 (A) (A) (A) (A) (A) (A) (A) (A) (A) (A) (A) (A)
                 (A) (A) (A) (A) (A) (A) (A) (A) (A) (A) (A) (A)
                 (A) (A) (A) (A) (A) (A) (A) (A) (A) (A) (A) (A)
                 (A) (A) (A) (A) (A) (A) (A) (A) (A) (A) (A) (A)
                 (A) (A) (A) (A) (A) (A) (A) (A) (A) (A) (A) (A)
                 (A) (A) (A) (A) (A) (A) (A) (A) (A) (A) (A) (A)
                 (A) (A) (A) (A) (A) (A) (A) (A) (A) (A) (A) (A)
                 (A) (A) (A) (A) (A) (A) (A) (A) (A) (A) (A) (A)
                 (A) (A) (A) (A) (A) (A) (A) (A) (A) (A) (A) (A)
                 (A) (A) (A) (A) (A) (A) (A) (A) (A) (A) (A) (A)
                 (A) (A) (A) (A) (A) (A) (A) (A) (A) (A) (A) (A)
                 (A) (A) (A) (A) (A) (A) (A) (A) (A) (A) (A) (A)
                 (A) (A) (A) (A) (A) (A) (A) (A) (A) (A) (A) (A)
                 (A) (A) (A) (A) (A) (A) (A) (A) (A) (A) (A) (A)
                 (A) (A) (A) (A) (A) (A) (A) (A) (A) (A) (A) (A)
                 (A) (A) (A) (A) (A) (A) (A) (A) (A) (A) (A) (A)
                 (A) (A) (A) (A) (A) (A) (A) (A) (A)
 The electronic state is 1-A.
 Alpha  occ. eigenvalues --  -10.22127 -10.20165 -10.18842 -10.18540 -10.17731
 Alpha  occ. eigenvalues --  -10.17535 -10.17178 -10.16798 -10.16388  -0.87600
 Alpha  occ. eigenvalues --   -0.75276  -0.74959  -0.69917  -0.65439  -0.61411
 Alpha  occ. eigenvalues --   -0.58132  -0.57661  -0.50458  -0.46546  -0.44956
 Alpha  occ. eigenvalues --   -0.43899  -0.42268  -0.41513  -0.39411  -0.38823
 Alpha  occ. eigenvalues --   -0.38107  -0.36841  -0.35002  -0.34018  -0.33520
 Alpha  occ. eigenvalues --   -0.30807  -0.28830  -0.27356  -0.24771  -0.22922
 Alpha virt. eigenvalues --   -0.02944   0.08855   0.09833   0.10685   0.11978
 Alpha virt. eigenvalues --    0.12850   0.13218   0.14553   0.15268   0.16293
 Alpha virt. eigenvalues --    0.17248   0.17341   0.18474   0.18776   0.19722
 Alpha virt. eigenvalues --    0.20647   0.21891   0.22138   0.23414   0.23828
 Alpha virt. eigenvalues --    0.24986   0.26139   0.27075   0.28770   0.30532
 Alpha virt. eigenvalues --    0.31578   0.44529   0.45285   0.46517   0.48079
 Alpha virt. eigenvalues --    0.50517   0.51924   0.52062   0.53501   0.53761
 Alpha virt. eigenvalues --    0.54831   0.56177   0.57702   0.58316   0.59057
 Alpha virt. eigenvalues --    0.60427   0.60939   0.62433   0.65080   0.66121
 Alpha virt. eigenvalues --    0.66663   0.68090   0.69298   0.70340   0.72141
 Alpha virt. eigenvalues --    0.72283   0.74417   0.75141   0.75796   0.76372
 Alpha virt. eigenvalues --    0.77177   0.77358   0.78334   0.79045   0.80151
 Alpha virt. eigenvalues --    0.80838   0.81629   0.81764   0.82399   0.85158
 Alpha virt. eigenvalues --    0.88833   0.89158   0.89821   0.92484   0.93303
 Alpha virt. eigenvalues --    0.94657   0.99135   1.03452   1.06388   1.07024
 Alpha virt. eigenvalues --    1.10162   1.13411   1.16407   1.17138   1.18934
 Alpha virt. eigenvalues --    1.21521   1.23949   1.27694   1.29951   1.31455
 Alpha virt. eigenvalues --    1.33287   1.34471   1.39106   1.41391   1.42937
 Alpha virt. eigenvalues --    1.43126   1.44571   1.47411   1.48625   1.50006
 Alpha virt. eigenvalues --    1.51373   1.52270   1.53031   1.54760   1.58150
 Alpha virt. eigenvalues --    1.59059   1.60580   1.61906   1.64914   1.65999
 Alpha virt. eigenvalues --    1.68950   1.69712   1.72380   1.73193   1.75308
 Alpha virt. eigenvalues --    1.77989   1.82028   1.86000   1.86362   1.88193
 Alpha virt. eigenvalues --    1.89945   1.90802   1.96109   1.96528   1.98954
 Alpha virt. eigenvalues --    1.99105   2.00301   2.02829   2.04292   2.11983
 Alpha virt. eigenvalues --    2.13953   2.17089   2.21590   2.26589   2.28643
 Alpha virt. eigenvalues --    2.31344   2.32734   2.34417   2.35472   2.37584
 Alpha virt. eigenvalues --    2.39250   2.40525   2.42521   2.44260   2.44859
 Alpha virt. eigenvalues --    2.47717   2.48849   2.50407   2.51743   2.57462
 Alpha virt. eigenvalues --    2.59889   2.60785   2.65022   2.68509   2.69155
 Alpha virt. eigenvalues --    2.73097   2.73992   2.76519   2.77295   2.79222
 Alpha virt. eigenvalues --    2.81322   2.82127   2.85192   2.86025   2.87265
 Alpha virt. eigenvalues --    2.89962   2.90680   2.92062   2.92311   2.93906
 Alpha virt. eigenvalues --    2.95786   2.96460   2.98004   2.98680   2.99419
 Alpha virt. eigenvalues --    3.02409   3.05439   3.06741   3.08146   3.09950
 Alpha virt. eigenvalues --    3.11016   3.13999   3.15649   3.17131   3.20116
 Alpha virt. eigenvalues --    3.20540   3.22207   3.24883   3.26838   3.28652
 Alpha virt. eigenvalues --    3.29593   3.31149   3.32814   3.34139   3.38385
 Alpha virt. eigenvalues --    3.40376   3.41567   3.43129   3.47824   3.48798
 Alpha virt. eigenvalues --    3.52525   3.54541   3.58005   3.58708   3.59794
 Alpha virt. eigenvalues --    3.60139   3.62470   3.64581   3.66139   3.68216
 Alpha virt. eigenvalues --    3.69388   3.71998   3.77976   3.78130   3.80489
 Alpha virt. eigenvalues --    3.83522   3.86339   3.91302   3.92156   3.94067
 Alpha virt. eigenvalues --    3.96233   3.97065   4.04640   4.06672   4.09797
 Alpha virt. eigenvalues --    4.11259   4.16837   4.18246   4.19318   4.22379
 Alpha virt. eigenvalues --    4.25715   4.28845   4.30876   4.34020   4.36367
 Alpha virt. eigenvalues --    4.38464   4.41445   4.41742   4.45559   4.48013
 Alpha virt. eigenvalues --    4.48501   4.49805   4.52461   4.55265   4.56615
 Alpha virt. eigenvalues --    4.57361   4.59755   4.60711   4.62977   4.64866
 Alpha virt. eigenvalues --    4.68104   4.69794   4.70598   4.71485   4.72732
 Alpha virt. eigenvalues --    4.75833   4.76479   4.77948   4.79780   4.80397
 Alpha virt. eigenvalues --    4.81781   4.83029   4.84551   4.85533   4.87179
 Alpha virt. eigenvalues --    4.90017   4.91365   4.94256   4.94540   4.96698
 Alpha virt. eigenvalues --    5.02471   5.04535   5.07166   5.09869   5.11223
 Alpha virt. eigenvalues --    5.13769   5.18675   5.24062   5.30446   5.34851
 Alpha virt. eigenvalues --    5.39280   5.44701   5.48479   5.53382   5.56936
 Alpha virt. eigenvalues --    5.60911   5.66685   5.74345   5.82263   6.00890
 Alpha virt. eigenvalues --    6.11227   6.40853   7.10086  11.31476  11.53360
 Alpha virt. eigenvalues --   11.72406  11.83675  12.02801  12.20413  12.42346
 Alpha virt. eigenvalues --   12.45966  13.07693
          Condensed to atoms (all electrons):
               1          2          3          4          5          6
     1  C    4.961580   0.407845  -0.026212  -0.000144   0.000484  -0.011207
     2  C    0.407845   4.905576   0.395535  -0.007542   0.007835  -0.042199
     3  C   -0.026212   0.395535   4.820645   0.325293  -0.074000   0.373322
     4  C   -0.000144  -0.007542   0.325293   4.904852   0.357716  -0.068143
     5  C    0.000484   0.007835  -0.074000   0.357716   5.084123   0.350149
     6  C   -0.011207  -0.042199   0.373322  -0.068143   0.350149   4.802416
     7  C   -0.001531   0.000218  -0.083502   0.012825  -0.068586   0.349877
     8  C   -0.005950  -0.029192  -0.009043   0.347876  -0.021951   0.233153
     9  C   -0.004351  -0.003999  -0.018720  -0.059444   0.003857  -0.004037
    10  H    0.367621  -0.026933   0.003233  -0.000060  -0.000028   0.000423
    11  H    0.380333  -0.026144  -0.006173   0.001614   0.000029  -0.000798
    12  H    0.377668  -0.026974  -0.003418  -0.000211   0.000174   0.003119
    13  H   -0.038395   0.362098  -0.030543  -0.007511  -0.000212   0.003995
    14  H   -0.039312   0.361672  -0.022103   0.003070  -0.000257   0.001601
    15  H    0.005320  -0.059454   0.357429  -0.057440  -0.002062  -0.050711
    16  H   -0.000112  -0.000216  -0.034494   0.352064  -0.052292   0.015284
    17  H    0.000017  -0.000375   0.007273  -0.010526   0.342307  -0.023660
    18  H    0.000012  -0.000151  -0.005538  -0.023730   0.372637  -0.026475
    19  H   -0.001700   0.000115   0.007094  -0.000468   0.005024  -0.016282
    20  H    0.000206  -0.000327   0.007250  -0.000380  -0.021819  -0.019017
    21  H    0.000320   0.001968  -0.027758   0.000561   0.006229  -0.020790
    22  H   -0.000712   0.001578   0.002744  -0.023493  -0.003615  -0.033483
    23  H   -0.000737  -0.002100   0.001036  -0.005358   0.000617  -0.000589
    24  H    0.000144   0.000294   0.001211  -0.004765   0.000058   0.000576
    25  H    0.001653  -0.001039  -0.000232   0.006217  -0.000263  -0.000093
               7          8          9         10         11         12
     1  C   -0.001531  -0.005950  -0.004351   0.367621   0.380333   0.377668
     2  C    0.000218  -0.029192  -0.003999  -0.026933  -0.026144  -0.026974
     3  C   -0.083502  -0.009043  -0.018720   0.003233  -0.006173  -0.003418
     4  C    0.012825   0.347876  -0.059444  -0.000060   0.001614  -0.000211
     5  C   -0.068586  -0.021951   0.003857  -0.000028   0.000029   0.000174
     6  C    0.349877   0.233153  -0.004037   0.000423  -0.000798   0.003119
     7  C    5.200517  -0.014224  -0.000456   0.000034   0.000504  -0.001445
     8  C   -0.014224   4.964505   0.386710   0.000994   0.003353  -0.000310
     9  C   -0.000456   0.386710   5.045031   0.000248  -0.003841   0.000236
    10  H    0.000034   0.000994   0.000248   0.627748  -0.033438  -0.032343
    11  H    0.000504   0.003353  -0.003841  -0.033438   0.578056  -0.033377
    12  H   -0.001445  -0.000310   0.000236  -0.032343  -0.033377   0.593229
    13  H   -0.000148  -0.001936   0.000275  -0.004851  -0.001923   0.005129
    14  H    0.000178   0.000677  -0.000003   0.000289   0.005181  -0.005935
    15  H   -0.011505   0.010741   0.001160  -0.000061  -0.000149   0.000134
    16  H   -0.001379  -0.046986   0.006305   0.000002  -0.000009   0.000003
    17  H    0.001384  -0.013119   0.000055  -0.000000   0.000027  -0.000005
    18  H   -0.002949   0.005841  -0.000267   0.000000  -0.000008   0.000002
    19  H    0.328280  -0.000694   0.000012  -0.000058  -0.000040   0.004086
    20  H    0.366120   0.000713  -0.000004  -0.000001  -0.000017  -0.000034
    21  H    0.384567   0.001320   0.000006   0.000017   0.000021   0.000341
    22  H    0.000920   0.333920  -0.059587  -0.000038   0.001155  -0.000066
    23  H    0.000005  -0.025063   0.378729  -0.000027   0.000275  -0.000003
    24  H   -0.000005  -0.021464   0.378593   0.000004   0.000008  -0.000003
    25  H    0.000021  -0.028733   0.352976  -0.000213   0.001445  -0.000013
              13         14         15         16         17         18
     1  C   -0.038395  -0.039312   0.005320  -0.000112   0.000017   0.000012
     2  C    0.362098   0.361672  -0.059454  -0.000216  -0.000375  -0.000151
     3  C   -0.030543  -0.022103   0.357429  -0.034494   0.007273  -0.005538
     4  C   -0.007511   0.003070  -0.057440   0.352064  -0.010526  -0.023730
     5  C   -0.000212  -0.000257  -0.002062  -0.052292   0.342307   0.372637
     6  C    0.003995   0.001601  -0.050711   0.015284  -0.023660  -0.026475
     7  C   -0.000148   0.000178  -0.011505  -0.001379   0.001384  -0.002949
     8  C   -0.001936   0.000677   0.010741  -0.046986  -0.013119   0.005841
     9  C    0.000275  -0.000003   0.001160   0.006305   0.000055  -0.000267
    10  H   -0.004851   0.000289  -0.000061   0.000002  -0.000000   0.000000
    11  H   -0.001923   0.005181  -0.000149  -0.000009   0.000027  -0.000008
    12  H    0.005129  -0.005935   0.000134   0.000003  -0.000005   0.000002
    13  H    0.645209  -0.038669   0.004660   0.000482   0.000009   0.000008
    14  H   -0.038669   0.648264  -0.008665  -0.000010   0.000006  -0.000008
    15  H    0.004660  -0.008665   0.759255   0.000926  -0.000506   0.007203
    16  H    0.000482  -0.000010   0.000926   0.693686   0.001092   0.000692
    17  H    0.000009   0.000006  -0.000506   0.001092   0.654236  -0.048006
    18  H    0.000008  -0.000008   0.007203   0.000692  -0.048006   0.621266
    19  H    0.000050  -0.000173   0.000309   0.000020  -0.000221   0.000227
    20  H    0.000003   0.000011   0.001598   0.000066   0.002115   0.001480
    21  H   -0.000211   0.001069   0.005289   0.000024  -0.000264   0.000925
    22  H   -0.000063  -0.000007  -0.000820  -0.000105   0.007864  -0.000428
    23  H    0.001377   0.000254  -0.001181   0.000087   0.000026  -0.000018
    24  H    0.000019  -0.000013   0.000035   0.000358  -0.000023   0.000012
    25  H    0.001360   0.000001  -0.000011   0.000129   0.000002   0.000004
              19         20         21         22         23         24
     1  C   -0.001700   0.000206   0.000320  -0.000712  -0.000737   0.000144
     2  C    0.000115  -0.000327   0.001968   0.001578  -0.002100   0.000294
     3  C    0.007094   0.007250  -0.027758   0.002744   0.001036   0.001211
     4  C   -0.000468  -0.000380   0.000561  -0.023493  -0.005358  -0.004765
     5  C    0.005024  -0.021819   0.006229  -0.003615   0.000617   0.000058
     6  C   -0.016282  -0.019017  -0.020790  -0.033483  -0.000589   0.000576
     7  C    0.328280   0.366120   0.384567   0.000920   0.000005  -0.000005
     8  C   -0.000694   0.000713   0.001320   0.333920  -0.025063  -0.021464
     9  C    0.000012  -0.000004   0.000006  -0.059587   0.378729   0.378593
    10  H   -0.000058  -0.000001   0.000017  -0.000038  -0.000027   0.000004
    11  H   -0.000040  -0.000017   0.000021   0.001155   0.000275   0.000008
    12  H    0.004086  -0.000034   0.000341  -0.000066  -0.000003  -0.000003
    13  H    0.000050   0.000003  -0.000211  -0.000063   0.001377   0.000019
    14  H   -0.000173   0.000011   0.001069  -0.000007   0.000254  -0.000013
    15  H    0.000309   0.001598   0.005289  -0.000820  -0.001181   0.000035
    16  H    0.000020   0.000066   0.000024  -0.000105   0.000087   0.000358
    17  H   -0.000221   0.002115  -0.000264   0.007864   0.000026  -0.000023
    18  H    0.000227   0.001480   0.000925  -0.000428  -0.000018   0.000012
    19  H    0.632438  -0.024409  -0.036023   0.000001  -0.000000  -0.000000
    20  H   -0.024409   0.610532  -0.045549  -0.000054  -0.000000   0.000000
    21  H   -0.036023  -0.045549   0.604138  -0.000043  -0.000003   0.000001
    22  H    0.000001  -0.000054  -0.000043   0.694724   0.005749  -0.005501
    23  H   -0.000000  -0.000000  -0.000003   0.005749   0.581487  -0.035042
    24  H   -0.000000   0.000000   0.000001  -0.005501  -0.035042   0.582626
    25  H    0.000001  -0.000000  -0.000000   0.002148  -0.035048  -0.032339
              25
     1  C    0.001653
     2  C   -0.001039
     3  C   -0.000232
     4  C    0.006217
     5  C   -0.000263
     6  C   -0.000093
     7  C    0.000021
     8  C   -0.028733
     9  C    0.352976
    10  H   -0.000213
    11  H    0.001445
    12  H   -0.000013
    13  H    0.001360
    14  H    0.000001
    15  H   -0.000011
    16  H    0.000129
    17  H    0.000002
    18  H    0.000004
    19  H    0.000001
    20  H   -0.000000
    21  H   -0.000000
    22  H    0.002148
    23  H   -0.035048
    24  H   -0.032339
    25  H    0.625181
 Mulliken charges:
               1
     1  C   -0.372838
     2  C   -0.218087
     3  C    0.039674
     4  C   -0.042877
     5  C   -0.286152
     6  C    0.183567
     7  C   -0.459722
     8  C   -0.071140
     9  C   -0.399483
    10  H    0.097438
    11  H    0.133915
    12  H    0.120016
    13  H    0.099789
    14  H    0.092880
    15  H    0.038503
    16  H    0.064383
    17  H    0.080292
    18  H    0.097265
    19  H    0.102410
    20  H    0.121516
    21  H    0.123846
    22  H    0.077213
    23  H    0.135527
    24  H    0.135217
    25  H    0.106847
 Sum of Mulliken charges =  -0.00000
 Mulliken charges with hydrogens summed into heavy atoms:
               1
     1  C   -0.021469
     2  C   -0.025417
     3  C    0.078177
     4  C    0.021506
     5  C   -0.108595
     6  C    0.183567
     7  C   -0.111949
     8  C    0.006073
     9  C   -0.021892
 Electronic spatial extent (au):  <R**2>=           1199.7610
 Charge=              0.0000 electrons
 Dipole moment (field-independent basis, Debye):
    X=             -0.3804    Y=             -0.3742    Z=              0.3865  Tot=              0.6589
 Quadrupole moment (field-independent basis, Debye-Ang):
   XX=            -57.0560   YY=            -58.4222   ZZ=            -58.7562
   XY=              1.2123   XZ=              0.6706   YZ=              0.2448
 Traceless Quadrupole moment (field-independent basis, Debye-Ang):
   XX=              1.0221   YY=             -0.3440   ZZ=             -0.6781
   XY=              1.2123   XZ=              0.6706   YZ=              0.2448
 Octapole moment (field-independent basis, Debye-Ang**2):
  XXX=             -0.1890  YYY=             -0.6865  ZZZ=              0.9073  XYY=             -2.9275
  XXY=             -2.8531  XXZ=              2.0388  XZZ=             -0.7102  YZZ=             -0.9289
  YYZ=              1.1828  XYZ=              0.1626
 Hexadecapole moment (field-independent basis, Debye-Ang**3):
 XXXX=           -760.2595 YYYY=           -666.2056 ZZZZ=           -237.1899 XXXY=             -2.4211
 XXXZ=              4.8227 YYYX=              9.6848 YYYZ=              0.0759 ZZZX=              0.6619
 ZZZY=              1.6484 XXYY=           -233.6226 XXZZ=           -166.2948 YYZZ=           -146.4057
 XXYZ=             -1.1770 YYXZ=              0.5371 ZZXY=              2.0425
 N-N= 4.874316447628D+02 E-N=-1.789402145176D+03  KE= 3.491833911314D+02
 PrsmSu:  requested number of processors reduced to:  13 ShMem   1 Linda.
 Calling FoFJK, ICntrl=      2127 FMM=F ISym2X=0 I1Cent= 0 IOpClX= 0 NMat=1 NMatS=1 NMatT=0.
 ***** Axes restored to original set *****
 -------------------------------------------------------------------
 Center     Atomic                   Forces (Hartrees/Bohr)
 Number     Number              X              Y              Z
 -------------------------------------------------------------------
      1        6          -0.001196648   -0.001903521   -0.003045904
      2        6           0.007833220    0.010026703   -0.008223864
      3        6           0.003519430    0.008250111   -0.008693507
      4        6          -0.031903542   -0.025241057    0.028011014
      5        6          -0.021298344    0.010758487   -0.053606540
      6        6           0.085630249   -0.025134086    0.015861955
      7        6          -0.049035108   -0.017943610    0.029753778
      8        6           0.047285665    0.071298644    0.017241417
      9        6          -0.023590128   -0.031601545   -0.016357073
     10        1           0.003928495   -0.004087109    0.001206787
     11        1           0.004028520   -0.002432499    0.000491244
     12        1           0.000344232   -0.000196633   -0.000251090
     13        1           0.000290669   -0.002958983   -0.000781161
     14        1           0.002914500    0.002453502    0.003125691
     15        1          -0.004468644    0.000662785    0.006873166
     16        1           0.008656545    0.010239356   -0.016552146
     17        1           0.008342864    0.006533019   -0.000470398
     18        1           0.000162670   -0.008951292   -0.000548018
     19        1          -0.004853090   -0.005737816    0.005239146
     20        1          -0.008502928    0.002444973   -0.005891120
     21        1          -0.008040382    0.003206744   -0.010256037
     22        1          -0.005399144   -0.001871707    0.008910754
     23        1          -0.007069834   -0.000299731    0.004894115
     24        1          -0.008039109    0.002257266    0.009218900
     25        1           0.000459844    0.000227999   -0.006151111
 -------------------------------------------------------------------
 Cartesian Forces:  Max     0.085630249 RMS     0.019700983

 GradGradGradGradGradGradGradGradGradGradGradGradGradGradGradGradGradGrad
 Berny optimization.
 FormGI is forming the generalized inverse of G from B-inverse, IUseBI=4.
 Internal  Forces:  Max     0.095503015 RMS     0.015812350
 Search for a local minimum.
 Step number   1 out of a maximum of  149
 All quantities printed in internal units (Hartrees-Bohrs-Radians)
 Mixed Optimization -- RFO/linear search
 Second derivative matrix not updated -- first step.
 ITU=  0
     Eigenvalues ---    0.00230   0.00230   0.00230   0.00230   0.00381
     Eigenvalues ---    0.00699   0.02170   0.02352   0.02760   0.02993
     Eigenvalues ---    0.03326   0.03718   0.03839   0.04233   0.04624
     Eigenvalues ---    0.04845   0.04960   0.05352   0.06056   0.06299
     Eigenvalues ---    0.06725   0.06922   0.06959   0.07445   0.08185
     Eigenvalues ---    0.08291   0.09018   0.09070   0.09442   0.10770
     Eigenvalues ---    0.11427   0.12705   0.16000   0.16000   0.16000
     Eigenvalues ---    0.16000   0.16000   0.16000   0.16000   0.16000
     Eigenvalues ---    0.16000   0.16732   0.19277   0.21933   0.22351
     Eigenvalues ---    0.23364   0.24309   0.24354   0.25939   0.26501
     Eigenvalues ---    0.26871   0.27405   0.29508   0.33234   0.33235
     Eigenvalues ---    0.33719   0.33750   0.33797   0.33949   0.34183
     Eigenvalues ---    0.34255   0.34291   0.34315   0.34379   0.34424
     Eigenvalues ---    0.34435   0.34854   0.34985   0.37747
 RFO step:  Lambda=-1.37869029D-01 EMin= 2.30000000D-03
 Linear search not attempted -- first point.
 Maximum step size (   0.300) exceeded in Quadratic search.
    -- Step size scaled by   0.629
 Iteration  1 RMS(Cart)=  0.17418044 RMS(Int)=  0.01165490
 Iteration  2 RMS(Cart)=  0.03340412 RMS(Int)=  0.00141315
 Iteration  3 RMS(Cart)=  0.00062244 RMS(Int)=  0.00139144
 Iteration  4 RMS(Cart)=  0.00000084 RMS(Int)=  0.00139144
 Variable       Old X    -DE/DX   Delta X   Delta X   Delta X     New X
                                 (Linear)    (Quad)   (Total)
    R1        2.93457  -0.00620   0.00000  -0.00946  -0.00946   2.92511
    R2        2.06902   0.00089   0.00000   0.00116   0.00116   2.07018
    R3        2.06843  -0.00412   0.00000  -0.00540  -0.00540   2.06303
    R4        2.06802  -0.00029   0.00000  -0.00038  -0.00038   2.06764
    R5        3.00879  -0.00281   0.00000  -0.00463  -0.00463   3.00416
    R6        2.06621   0.00064   0.00000   0.00084   0.00084   2.06704
    R7        2.07022  -0.00003   0.00000  -0.00004  -0.00004   2.07018
    R8        3.07972   0.00073   0.00000   0.00309   0.00080   3.08052
    R9        2.93870   0.00533   0.00000   0.00263   0.00507   2.94377
   R10        2.07806  -0.00034   0.00000  -0.00045  -0.00045   2.07761
   R11        2.96732  -0.03288   0.00000  -0.05471  -0.05695   2.91037
   R12        2.95538  -0.01574   0.00000  -0.02459  -0.02459   2.93080
   R13        2.01435   0.01787   0.00000   0.02182   0.02182   2.03616
   R14        2.95168   0.00515   0.00000   0.01465   0.01679   2.96847
   R15        2.07415   0.00017   0.00000   0.00023   0.00023   2.07439
   R16        2.05699   0.00045   0.00000   0.00059   0.00059   2.05758
   R17        2.88956   0.02736   0.00000   0.03976   0.03976   2.92932
   R18        2.05912   0.00772   0.00000   0.00999   0.00999   2.06911
   R19        2.08641  -0.00590   0.00000  -0.00790  -0.00790   2.07851
   R20        2.08643  -0.00750   0.00000  -0.01003  -0.01003   2.07639
   R21        2.94674  -0.00291   0.00000  -0.00450  -0.00450   2.94224
   R22        2.06603   0.00217   0.00000   0.00283   0.00283   2.06886
   R23        2.07755  -0.00656   0.00000  -0.00869  -0.00869   2.06886
   R24        2.07674  -0.00263   0.00000  -0.00347  -0.00347   2.07327
   R25        2.06695   0.00336   0.00000   0.00439   0.00439   2.07134
    A1        1.93700  -0.00556   0.00000  -0.01221  -0.01223   1.92477
    A2        2.00984  -0.00159   0.00000  -0.00267  -0.00268   2.00716
    A3        1.94221   0.00087   0.00000   0.00164   0.00163   1.94385
    A4        1.83538   0.00448   0.00000   0.00985   0.00984   1.84521
    A5        1.87517   0.00106   0.00000   0.00092   0.00090   1.87607
    A6        1.85602   0.00129   0.00000   0.00358   0.00358   1.85960
    A7        2.03814   0.02263   0.00000   0.04102   0.04102   2.07916
    A8        1.89808  -0.00800   0.00000  -0.01120  -0.01146   1.88662
    A9        1.85742  -0.00432   0.00000  -0.00717  -0.00687   1.85055
   A10        1.92800  -0.00334   0.00000  -0.00156  -0.00176   1.92625
   A11        1.89949  -0.01194   0.00000  -0.02684  -0.02676   1.87273
   A12        1.83021   0.00309   0.00000   0.00158   0.00143   1.83164
   A13        2.30309  -0.00152   0.00000  -0.00519  -0.00492   2.29817
   A14        1.88367  -0.00041   0.00000   0.01299   0.01213   1.89580
   A15        1.89073  -0.00833   0.00000  -0.02457  -0.02435   1.86638
   A16        1.33231   0.00115   0.00000  -0.00399  -0.00323   1.32908
   A17        1.92368   0.00663   0.00000   0.01895   0.01827   1.94195
   A18        2.08284   0.00736   0.00000   0.01397   0.01429   2.09713
   A19        1.54263   0.00149   0.00000   0.00215   0.00240   1.54504
   A20        1.43929   0.02235   0.00000   0.06909   0.07028   1.50956
   A21        2.16276  -0.01375   0.00000  -0.03288  -0.03400   2.12877
   A22        1.71727  -0.03515   0.00000  -0.10337  -0.10374   1.61353
   A23        2.14707   0.01139   0.00000   0.02974   0.03008   2.17715
   A24        2.23977   0.01257   0.00000   0.03454   0.03372   2.27349
   A25        1.35956   0.01038   0.00000   0.00846   0.00915   1.36871
   A26        2.01996  -0.01631   0.00000  -0.03906  -0.03889   1.98107
   A27        2.07970   0.00923   0.00000   0.02798   0.02782   2.10752
   A28        1.91720   0.00812   0.00000   0.02698   0.02675   1.94395
   A29        2.09612  -0.01416   0.00000  -0.02806  -0.02782   2.06831
   A30        1.93022   0.00286   0.00000   0.00268   0.00289   1.93311
   A31        1.59539  -0.01275   0.00000  -0.02086  -0.02343   1.57196
   A32        1.74995   0.04056   0.00000   0.11128   0.10874   1.85869
   A33        1.85183   0.03534   0.00000   0.09421   0.09237   1.94420
   A34        2.01263   0.00802   0.00000   0.01540   0.01544   2.02807
   A35        1.92668  -0.00420   0.00000  -0.00757  -0.00755   1.91913
   A36        2.00212  -0.01059   0.00000  -0.02215  -0.02212   1.98000
   A37        1.84843  -0.00274   0.00000  -0.00634  -0.00631   1.84212
   A38        1.87008  -0.00103   0.00000  -0.00415  -0.00411   1.86597
   A39        1.78424   0.01142   0.00000   0.02711   0.02711   1.81135
   A40        1.69123   0.09550   0.00000   0.17035   0.16869   1.85991
   A41        2.03562  -0.01974   0.00000  -0.02490  -0.02985   2.00577
   A42        1.84062  -0.01619   0.00000   0.00276   0.00180   1.84242
   A43        2.00779  -0.00460   0.00000  -0.00881  -0.00891   1.99888
   A44        1.91518  -0.01653   0.00000  -0.03610  -0.03611   1.87908
   A45        1.96131   0.01045   0.00000   0.02237   0.02244   1.98375
   A46        1.81395   0.01087   0.00000   0.02250   0.02232   1.83626
   A47        1.87827  -0.00106   0.00000  -0.00031  -0.00031   1.87796
   A48        1.87775   0.00126   0.00000   0.00094   0.00110   1.87885
    D1        2.99121   0.00503   0.00000   0.01766   0.01762   3.00884
    D2        0.79563  -0.00117   0.00000  -0.00260  -0.00258   0.79305
    D3       -1.16765   0.00107   0.00000   0.00423   0.00424  -1.16340
    D4        0.90888   0.00447   0.00000   0.01584   0.01581   0.92468
    D5       -1.28670  -0.00173   0.00000  -0.00441  -0.00440  -1.29110
    D6        3.03321   0.00051   0.00000   0.00242   0.00243   3.03563
    D7       -1.20468   0.00324   0.00000   0.01177   0.01174  -1.19294
    D8        2.88292  -0.00296   0.00000  -0.00848  -0.00846   2.87446
    D9        0.91965  -0.00072   0.00000  -0.00165  -0.00164   0.91801
   D10       -1.36473  -0.00320   0.00000  -0.01411  -0.01437  -1.37910
   D11        0.16302  -0.00241   0.00000  -0.00957  -0.00956   0.15346
   D12        2.44097   0.00074   0.00000   0.00001  -0.00021   2.44076
   D13        0.81583   0.00110   0.00000   0.00219   0.00211   0.81794
   D14        2.34358   0.00189   0.00000   0.00673   0.00692   2.35050
   D15       -1.66166   0.00504   0.00000   0.01631   0.01628  -1.64538
   D16        2.81631  -0.00379   0.00000  -0.01198  -0.01196   2.80435
   D17       -1.93913  -0.00301   0.00000  -0.00744  -0.00715  -1.94627
   D18        0.33882   0.00014   0.00000   0.00214   0.00221   0.34103
   D19        2.42450   0.00369   0.00000   0.03061   0.03116   2.45566
   D20        0.70212   0.04048   0.00000   0.13867   0.13833   0.84046
   D21       -1.59605   0.01274   0.00000   0.05436   0.05470  -1.54135
   D22        0.64481   0.00315   0.00000   0.01629   0.01738   0.66219
   D23       -1.07757   0.03994   0.00000   0.12434   0.12456  -0.95302
   D24        2.90744   0.01220   0.00000   0.04004   0.04093   2.94837
   D25       -1.39030  -0.00447   0.00000   0.00417   0.00453  -1.38577
   D26       -3.11268   0.03232   0.00000   0.11222   0.11170  -3.00097
   D27        0.87233   0.00458   0.00000   0.02792   0.02807   0.90041
   D28       -2.91991   0.00809   0.00000   0.00858   0.00839  -2.91151
   D29        1.50202  -0.02868   0.00000  -0.09224  -0.09179   1.41023
   D30       -0.64872   0.00675   0.00000   0.00166   0.00196  -0.64677
   D31       -2.50999  -0.03001   0.00000  -0.09916  -0.09822  -2.60821
   D32        1.19688   0.01429   0.00000   0.02010   0.02010   1.21699
   D33       -0.66438  -0.02247   0.00000  -0.08072  -0.08007  -0.74446
   D34       -0.63687  -0.00171   0.00000  -0.01095  -0.01202  -0.64889
   D35       -2.49366  -0.01664   0.00000  -0.04789  -0.04827  -2.54192
   D36        1.42060  -0.01209   0.00000  -0.03726  -0.03756   1.38304
   D37        0.79674   0.02285   0.00000   0.06434   0.06276   0.85949
   D38       -1.06005   0.00792   0.00000   0.02740   0.02651  -1.03354
   D39        2.85421   0.01247   0.00000   0.03803   0.03721   2.89142
   D40       -2.91187   0.00906   0.00000   0.01465   0.01490  -2.89696
   D41        1.51453  -0.00587   0.00000  -0.02229  -0.02135   1.49318
   D42       -0.85440  -0.00132   0.00000  -0.01166  -0.01064  -0.86504
   D43       -1.72095   0.02188   0.00000   0.07086   0.06597  -1.65498
   D44        2.62203  -0.00871   0.00000  -0.02387  -0.02788   2.59415
   D45        3.03969   0.01201   0.00000   0.04359   0.04618   3.08586
   D46        1.09948  -0.01857   0.00000  -0.05114  -0.04767   1.05181
   D47        0.50962   0.02898   0.00000   0.10390   0.10488   0.61450
   D48       -1.43059  -0.00161   0.00000   0.00917   0.01103  -1.41956
   D49        0.67278   0.00037   0.00000   0.01152   0.01157   0.68434
   D50        2.43741   0.04180   0.00000   0.12917   0.12808   2.56549
   D51        2.64934  -0.01452   0.00000  -0.02969  -0.02913   2.62022
   D52       -1.86921   0.02690   0.00000   0.08796   0.08739  -1.78182
   D53       -1.36665  -0.01517   0.00000  -0.02394  -0.02352  -1.39016
   D54        0.39799   0.02625   0.00000   0.09371   0.09300   0.49099
   D55       -2.22902   0.00390   0.00000   0.01839   0.02254  -2.20648
   D56        1.96058   0.00506   0.00000   0.02164   0.02580   1.98638
   D57       -0.04349   0.00006   0.00000   0.00628   0.01042  -0.03307
   D58        2.40500  -0.00212   0.00000  -0.01254  -0.01668   2.38832
   D59        0.31142  -0.00096   0.00000  -0.00929  -0.01342   0.29800
   D60       -1.69266  -0.00596   0.00000  -0.02464  -0.02880  -1.72146
   D61        0.67194  -0.00715   0.00000  -0.02554  -0.02710   0.64484
   D62       -1.36546  -0.00644   0.00000  -0.02320  -0.02497  -1.39043
   D63        2.82933  -0.00358   0.00000  -0.01439  -0.01595   2.81338
   D64        2.76859   0.00392   0.00000   0.01483   0.01653   2.78513
   D65        0.73119   0.00462   0.00000   0.01717   0.01866   0.74985
   D66       -1.35720   0.00748   0.00000   0.02599   0.02768  -1.32952
         Item               Value     Threshold  Converged?
 Maximum Force            0.095503     0.000450     NO 
 RMS     Force            0.015812     0.000300     NO 
 Maximum Displacement     0.857732     0.001800     NO 
 RMS     Displacement     0.197683     0.001200     NO 
 Predicted change in Energy=-7.590989D-02
 GradGradGradGradGradGradGradGradGradGradGradGradGradGradGradGradGradGrad

                          Input orientation:                          
 ---------------------------------------------------------------------
 Center     Atomic      Atomic             Coordinates (Angstroms)
 Number     Number       Type             X           Y           Z
 ---------------------------------------------------------------------
      1          6           0        1.201850   -0.241745   -0.076040
      2          6           0        2.727981   -0.061650    0.109654
      3          6           0        3.261535    1.122570    1.026275
      4          6           0        3.437361    2.718143    0.742392
      5          6           0        2.947845    2.986927    2.177674
      6          6           0        2.048977    1.767893    1.761076
      7          6           0        1.734108    0.856600    2.974876
      8          6           0        1.990633    2.681387    0.184762
      9          6           0        2.113402    2.493930   -1.355997
     10          1           0        0.999147   -1.006202   -0.834075
     11          1           0        0.668692    0.651628   -0.406877
     12          1           0        0.722452   -0.564603    0.852990
     13          1           0        3.187370   -0.012229   -0.881803
     14          1           0        3.092614   -0.999122    0.543574
     15          1           0        4.108675    0.724431    1.602969
     16          1           0        4.338426    3.125578    0.314528
     17          1           0        2.355878    3.906380    2.273403
     18          1           0        3.620247    2.870757    3.026152
     19          1           0        0.701417    0.502443    3.058460
     20          1           0        1.937637    1.395603    3.911802
     21          1           0        2.381686   -0.028940    3.036338
     22          1           0        1.419074    3.604743    0.323699
     23          1           0        2.930202    1.836112   -1.670146
     24          1           0        2.347842    3.472675   -1.792788
     25          1           0        1.194178    2.130250   -1.829510
 ---------------------------------------------------------------------
                    Distance matrix (angstroms):
                    1          2          3          4          5
     1  C    0.000000
     2  C    1.547900   0.000000
     3  C    2.705320   1.589733   0.000000
     4  C    3.798457   2.937827   1.630141   0.000000
     5  C    4.307209   3.690375   2.213583   1.540099   0.000000
     6  C    2.851537   2.556456   1.557778   1.966800   1.570848
     7  C    3.285993   3.168670   2.490144   3.369035   2.578174
     8  C    3.038897   2.841404   2.180195   1.550910   2.231884
     9  C    3.154859   3.009457   2.978936   2.491259   3.664174
    10  H    1.095491   2.184415   3.620908   4.722381   5.367787
    11  H    1.091708   2.239697   2.999759   3.640993   4.162699
    12  H    1.094147   2.197193   3.053444   4.261383   4.395512
    13  H    2.155046   1.093831   2.221268   3.186759   4.291003
    14  H    2.128974   1.095490   2.182455   3.738507   4.310432
    15  H    3.493165   2.180420   1.099425   2.272916   2.607049
    16  H    4.618388   3.576859   2.382922   1.077492   2.329002
    17  H    4.904957   4.534924   3.182003   2.219349   1.097717
    18  H    5.015966   4.230971   2.680362   2.296149   1.088823
    19  H    3.260267   3.622240   3.326941   4.214130   3.463364
    20  H    4.373233   4.147838   3.186458   3.747458   2.561256
    21  H    3.335296   2.947282   2.477996   3.731368   3.186424
    22  H    3.873299   3.898909   3.170089   2.243847   2.481141
    23  H    3.137812   2.609613   2.808845   2.618306   4.016267
    24  H    4.249404   4.031779   3.782189   2.860683   4.044814
    25  H    2.949759   3.304139   3.666728   3.462971   4.457215
                    6          7          8          9         10
     6  C    0.000000
     7  C    1.550131   0.000000
     8  C    1.822811   3.343709   0.000000
     9  C    3.201160   4.645555   1.556969   0.000000
    10  H    3.941136   4.303291   3.952137   3.710107   0.000000
    11  H    2.802009   3.551532   2.493489   2.526281   1.743588
    12  H    2.832812   2.746938   3.548417   4.021069   1.765718
    13  H    3.383722   4.211984   3.134534   2.767508   2.403868
    14  H    3.198102   3.346711   3.858659   4.094953   2.506106
    15  H    2.314340   2.745572   3.213579   3.983431   4.313171
    16  H    3.029420   4.359837   2.392964   2.853132   5.435225
    17  H    2.220314   3.190583   2.448762   3.902096   5.969137
    18  H    2.299047   2.759887   3.281006   4.649281   6.066493
    19  H    2.258426   1.094927   3.829885   5.044518   4.185270
    20  H    2.185548   1.099898   3.942952   5.383950   5.401183
    21  H    2.228362   1.098780   3.953515   5.072422   4.224518
    22  H    2.415957   3.831485   1.094792   2.130112   4.772588
    23  H    3.543232   4.895540   2.244541   1.094795   3.536486
    24  H    3.952917   5.472763   2.159731   1.097128   4.774772
    25  H    3.708678   4.999583   2.235036   1.096107   3.296401
                   11         12         13         14         15
    11  H    0.000000
    12  H    1.751963   0.000000
    13  H    2.647641   3.064383   0.000000
    14  H    3.082812   2.429446   1.736271   0.000000
    15  H    3.984755   3.700079   2.750557   2.263920   0.000000
    16  H    4.484172   5.194482   3.549925   4.314818   2.734661
    17  H    4.541355   4.967428   5.099235   5.253479   3.694128
    18  H    5.042014   4.992149   4.875562   4.627910   2.621208
    19  H    3.468702   2.450128   4.687272   3.781160   3.711757
    20  H    4.562314   3.830850   5.149997   4.291111   3.239535
    21  H    3.905541   2.794101   4.000154   2.767769   2.367405
    22  H    3.133321   4.260151   4.202689   4.903535   4.143271
    23  H    2.848382   4.123568   2.025829   3.600761   3.652111
    24  H    3.563510   5.093295   3.698548   5.100023   4.710048
    25  H    2.118099   3.831523   3.075903   4.362173   4.717260
                   16         17         18         19         20
    16  H    0.000000
    17  H    2.894364   0.000000
    18  H    2.816668   1.799382   0.000000
    19  H    5.257170   3.865274   3.758927   0.000000
    20  H    4.658001   3.027091   2.406581   1.747617   0.000000
    21  H    4.603050   4.008676   3.153155   1.762430   1.730011
    22  H    2.958429   2.184018   3.561903   4.197406   4.245432
    23  H    2.754041   4.490817   4.858175   5.394986   5.686596
    24  H    2.919535   4.089263   5.020309   5.921791   6.084804
    25  H    3.933684   4.619316   5.478286   5.175405   5.835674
                   21         22         23         24         25
    21  H    0.000000
    22  H    4.635590   0.000000
    23  H    5.092178   3.063819   0.000000
    24  H    5.965142   2.315074   1.741414   0.000000
    25  H    5.454242   2.619354   1.767964   1.770422   0.000000
 Stoichiometry    C9H16
 Framework group  C1[X(C9H16)]
 Deg. of freedom    69
 Full point group                 C1      NOp   1
 Largest Abelian subgroup         C1      NOp   1
 Largest concise Abelian subgroup C1      NOp   1
                         Standard orientation:                         
 ---------------------------------------------------------------------
 Center     Atomic      Atomic             Coordinates (Angstroms)
 Number     Number       Type             X           Y           Z
 ---------------------------------------------------------------------
      1          6           0       -1.424343    1.741865   -0.463110
      2          6           0       -0.980204    1.182098    0.909987
      3          6           0        0.247560    0.174275    0.974303
      4          6           0        0.358819   -1.420323    0.654555
      5          6           0        1.729613   -1.153895    0.005060
      6          6           0        0.921832    0.121506   -0.428994
      7          6           0        1.839657    1.367135   -0.523405
      8          6           0       -0.399638   -1.112089   -0.662661
      9          6           0       -1.907756   -1.374586   -0.378363
     10          1           0       -2.356236    2.308263   -0.358855
     11          1           0       -1.620638    0.987382   -1.227342
     12          1           0       -0.672719    2.419143   -0.879658
     13          1           0       -1.856392    0.746347    1.398743
     14          1           0       -0.719358    2.052758    1.521549
     15          1           0        0.838272    0.445321    1.861056
     16          1           0        0.171040   -2.167655    1.407697
     17          1           0        1.941386   -1.804729   -0.853166
     18          1           0        2.619775   -1.021529    0.617943
     19          1           0        1.688422    2.014204   -1.393632
     20          1           0        2.893279    1.054616   -0.567996
     21          1           0        1.795106    2.011392    0.365564
     22          1           0       -0.142364   -1.761223   -1.505873
     23          1           0       -2.237960   -1.086574    0.624928
     24          1           0       -2.073849   -2.457523   -0.436247
     25          1           0       -2.581012   -0.896109   -1.098944
 ---------------------------------------------------------------------
 Rotational constants (GHZ):           1.9307770           1.7619623           1.1867658
 Standard basis: 6-31G(2df,p) (6D, 7F)
 There are   359 symmetry adapted cartesian basis functions of A   symmetry.
 There are   332 symmetry adapted basis functions of A   symmetry.
   332 basis functions,   508 primitive gaussians,   359 cartesian basis functions
    35 alpha electrons       35 beta electrons
       nuclear repulsion energy       484.6609075618 Hartrees.
 NAtoms=   25 NActive=   25 NUniq=   25 SFac= 1.00D+00 NAtFMM=   60 NAOKFM=F Big=F
 Integral buffers will be    131072 words long.
 Raffenetti 2 integral format.
 Two-electron integral symmetry is turned on.
 One-electron integrals computed using PRISM.
 PrsmSu:  requested number of processors reduced to:  13 ShMem   1 Linda.
 NBasis=   332 RedAO= T EigKep=  4.15D-04  NBF=   332
 NBsUse=   332 1.00D-06 EigRej= -1.00D+00 NBFU=   332
 Initial guess from the checkpoint file:  "CCC1C2CC1qCrC2C.chk"
 B after Tr=     0.000000   -0.000000    0.000000
         Rot=    0.993645    0.013549   -0.004256   -0.111661 Ang=  12.93 deg.
 ExpMin= 1.61D-01 ExpMax= 3.05D+03 ExpMxC= 4.57D+02 IAcc=2 IRadAn=         4 AccDes= 0.00D+00
 Harris functional with IExCor=  402 and IRadAn=       4 diagonalized for initial guess.
 HarFok:  IExCor=  402 AccDes= 0.00D+00 IRadAn=         4 IDoV= 1 UseB2=F ITyADJ=14
 ICtDFT=  3500011 ScaDFX=  1.000000  1.000000  1.000000  1.000000
 FoFCou: FMM=F IPFlag=           0 FMFlag=      100000 FMFlg1=           0
         NFxFlg=           0 DoJE=T BraDBF=F KetDBF=T FulRan=T
         wScrn=  0.000000 ICntrl=       500 IOpCl=  0 I1Cent=   200000004 NGrid=           0
         NMat0=    1 NMatS0=      1 NMatT0=    0 NMatD0=    1 NMtDS0=    0 NMtDT0=    0
 Petite list used in FoFCou.
 Requested convergence on RMS density matrix=1.00D-08 within 128 cycles.
 Requested convergence on MAX density matrix=1.00D-06.
 Requested convergence on             energy=1.00D-06.
 No special actions if energy rises.
 Integral accuracy reduced to 1.0D-05 until final iterations.
 Initial convergence to 1.0D-05 achieved.  Increase integral accuracy.
 SCF Done:  E(RB3LYP) =  -352.437714405     A.U. after   11 cycles
            NFock= 11  Conv=0.90D-08     -V/T= 2.0096
 PrsmSu:  requested number of processors reduced to:  13 ShMem   1 Linda.
 Calling FoFJK, ICntrl=      2127 FMM=F ISym2X=0 I1Cent= 0 IOpClX= 0 NMat=1 NMatS=1 NMatT=0.
 ***** Axes restored to original set *****
 -------------------------------------------------------------------
 Center     Atomic                   Forces (Hartrees/Bohr)
 Number     Number              X              Y              Z
 -------------------------------------------------------------------
      1        6          -0.001536011    0.000652981    0.000850266
      2        6           0.011553527    0.008927384   -0.008523666
      3        6          -0.008480886    0.007577510   -0.009009671
      4        6          -0.018328134   -0.030987348    0.011102030
      5        6          -0.014791803    0.001542535   -0.022808704
      6        6           0.066807774   -0.011374629    0.012943839
      7        6          -0.040722159    0.001607911    0.008259060
      8        6           0.024841412    0.029168806    0.001743528
      9        6          -0.017713987   -0.018203791    0.001895059
     10        1           0.002815003   -0.002477333    0.001589814
     11        1           0.002857615   -0.001308511    0.001370909
     12        1           0.000455959   -0.000747575   -0.000260644
     13        1           0.002025287   -0.002493131   -0.000922011
     14        1           0.002626069    0.001416333    0.001731587
     15        1          -0.005608785    0.003399685    0.008292581
     16        1           0.000872408    0.009652608   -0.012342620
     17        1           0.006124353    0.003432390    0.003039791
     18        1           0.002002919   -0.006708800   -0.000049825
     19        1          -0.002015648   -0.001770919    0.000501458
     20        1          -0.003677894    0.003495410   -0.004664813
     21        1          -0.002053824    0.002743273   -0.010437100
     22        1          -0.002666667   -0.001608077    0.007488947
     23        1          -0.003106074   -0.000218235    0.004532966
     24        1          -0.003040741    0.002100913    0.005801959
     25        1           0.000760286    0.002180609   -0.002124741
 -------------------------------------------------------------------
 Cartesian Forces:  Max     0.066807774 RMS     0.012710289

 GradGradGradGradGradGradGradGradGradGradGradGradGradGradGradGradGradGrad
 Berny optimization.
 Using GEDIIS/GDIIS optimizer.
 FormGI is forming the generalized inverse of G from B-inverse, IUseBI=4.
 Internal  Forces:  Max     0.049715611 RMS     0.009542648
 Search for a local minimum.
 Step number   2 out of a maximum of  149
 All quantities printed in internal units (Hartrees-Bohrs-Radians)
 Mixed Optimization -- RFO/linear search
 Update second derivatives using D2CorX and points    1    2
 DE= -6.90D-02 DEPred=-7.59D-02 R= 9.09D-01
 TightC=F SS=  1.41D+00  RLast= 4.89D-01 DXNew= 5.0454D-01 1.4683D+00
 Trust test= 9.09D-01 RLast= 4.89D-01 DXMaxT set to 5.05D-01
 ITU=  1  0
 Use linear search instead of GDIIS.
     Eigenvalues ---    0.00230   0.00230   0.00230   0.00233   0.00381
     Eigenvalues ---    0.00685   0.02221   0.02403   0.02745   0.02794
     Eigenvalues ---    0.02904   0.03661   0.03936   0.04253   0.04512
     Eigenvalues ---    0.04605   0.04980   0.05421   0.06089   0.06242
     Eigenvalues ---    0.06581   0.06995   0.07160   0.07640   0.07921
     Eigenvalues ---    0.08603   0.09397   0.09782   0.10455   0.11306
     Eigenvalues ---    0.11703   0.13006   0.15503   0.16000   0.16000
     Eigenvalues ---    0.16000   0.16000   0.16000   0.16000   0.16000
     Eigenvalues ---    0.16086   0.17716   0.18669   0.21973   0.22063
     Eigenvalues ---    0.23928   0.24240   0.24967   0.26324   0.26573
     Eigenvalues ---    0.27395   0.27813   0.33135   0.33234   0.33557
     Eigenvalues ---    0.33725   0.33783   0.33896   0.33959   0.34186
     Eigenvalues ---    0.34258   0.34283   0.34315   0.34415   0.34432
     Eigenvalues ---    0.34624   0.34941   0.35525   0.37746
 RFO step:  Lambda=-6.07045771D-02 EMin= 2.29626285D-03
 Quartic linear search produced a step of  1.39730.
 Iteration  1 RMS(Cart)=  0.32408755 RMS(Int)=  0.04214722
 Iteration  2 RMS(Cart)=  0.16894560 RMS(Int)=  0.00806025
 Iteration  3 RMS(Cart)=  0.01139527 RMS(Int)=  0.00578828
 Iteration  4 RMS(Cart)=  0.00012343 RMS(Int)=  0.00578813
 Iteration  5 RMS(Cart)=  0.00000155 RMS(Int)=  0.00578813
 Iteration  6 RMS(Cart)=  0.00000002 RMS(Int)=  0.00578813
 Variable       Old X    -DE/DX   Delta X   Delta X   Delta X     New X
                                 (Linear)    (Quad)   (Total)
    R1        2.92511  -0.00451  -0.01322  -0.00827  -0.02149   2.90361
    R2        2.07018   0.00011   0.00162  -0.00183  -0.00021   2.06996
    R3        2.06303  -0.00288  -0.00754  -0.00399  -0.01153   2.05150
    R4        2.06764  -0.00020  -0.00053  -0.00027  -0.00080   2.06684
    R5        3.00416  -0.00754  -0.00647  -0.04247  -0.04894   2.95522
    R6        2.06704   0.00157   0.00117   0.00653   0.00770   2.07474
    R7        2.07018   0.00035  -0.00006   0.00193   0.00187   2.07204
    R8        3.08052  -0.01707   0.00112  -0.12807  -0.13244   2.94808
    R9        2.94377  -0.00006   0.00709  -0.02205  -0.01100   2.93278
   R10        2.07761  -0.00120  -0.00063  -0.00549  -0.00612   2.07150
   R11        2.91037  -0.01776  -0.07958   0.00181  -0.08342   2.82695
   R12        2.93080  -0.00640  -0.03435   0.01143  -0.02293   2.90787
   R13        2.03616   0.00928   0.03048   0.00040   0.03089   2.06705
   R14        2.96847  -0.00667   0.02346  -0.06704  -0.03658   2.93190
[...]
 .00613756,-0.02113766,-0.00477037,-0.00285715,-0.06882307,-0.06999755,
 0.00240020,-0.00267703,-0.00447355,-0.00007597,0.00045288,0.00019327,0
 .00179947,-0.00485835,-0.00078697,0.00005420,0.00050724,0.00033052,0.0
 0009922,-0.00026120,0.00002931,-0.00002043,-0.00003625,0.00003466,0.00
 005692,0.00001440,0.00001283,-0.00018847,-0.00019663,-0.00014902,0.000
 16500,0.00021025,0.00012498,0.00034438,-0.00040690,0.00046176,0.000254
 50,0.00020411,0.00026075,0.00684903,0.08069040,0.07841874,0.00003833,-
 0.00001406,-0.00008328,0.00004710,-0.00028096,0.00040285,-0.00227447,0
 .00112254,0.00128957,0.00521858,-0.00845956,0.00781518,-0.09010716,0.0
 6785359,-0.07294860,-0.00541043,0.01643775,-0.01753569,0.00088417,0.00
 049928,-0.00044933,-0.00354331,-0.00095331,-0.00280056,0.00207579,0.00
 092010,-0.00092660,-0.00000749,-0.00002071,0.00001919,-0.00002092,-0.0
 0002769,0.00000596,0.00000938,-0.00000937,-0.00000206,0.00004760,0.000
 03189,0.00002078,0.00005343,0.00008873,0.00010695,0.00066271,-0.000809
 16,0.00000926,0.00017098,-0.00037152,-0.00008134,0.00021577,-0.0009427
 5,0.00062731,0.09269386,0.00007185,0.00002214,0.00011419,-0.00012947,0
 .00050084,-0.00008022,-0.00264796,0.00203323,-0.00406054,-0.00158603,-
 0.00066572,-0.00219972,0.06891740,-0.15393183,0.10749967,-0.00224031,0
 .00289163,-0.00597890,0.00045660,0.00024642,0.00000762,0.00019273,-0.0
 0138055,0.00020547,-0.00010289,0.00131412,-0.00050761,-0.00001332,0.00
 004453,0.00000910,-0.00000051,-0.00000760,-0.00000616,-0.00000787,-0.0
 0000556,-0.00000227,0.00001115,-0.00002551,-0.00003220,-0.00003007,-0.
 00006379,-0.00002660,-0.00020597,-0.00012404,-0.00061465,0.00002336,0.
 00012093,0.00038829,0.01163438,-0.01523005,0.01892434,-0.07438742,0.16
 315698,-0.00005335,-0.00002879,-0.00002434,0.00036720,-0.00033661,0.00
 046427,0.00028131,0.00381859,-0.00111845,-0.01482741,0.01229586,-0.011
 65399,-0.07207629,0.10454839,-0.15914894,0.00193536,0.00213698,-0.0053
 1796,0.00005036,-0.00040524,0.00036931,-0.00281302,-0.00190249,-0.0081
 0187,-0.00109664,0.00158836,0.00072116,0.00002504,-0.00001485,0.000022
 98,-0.00002113,-0.00005879,0.00001308,0.00004158,-0.00003043,-0.000029
 10,0.00009338,0.00006965,0.00010545,-0.00000956,0.00005019,0.00021113,
 0.00017211,-0.00189015,0.00043690,0.00034051,-0.00001523,0.00013223,0.
 00425917,-0.00617372,0.00661639,0.08393273,-0.11391863,0.17663428,0.00
 022444,0.00012037,0.00014549,-0.00058301,0.00026824,-0.00004068,0.0005
 7556,-0.00001881,-0.00062947,-0.00062438,-0.00039302,-0.00059093,-0.00
 110171,0.00038479,0.00393616,-0.02222865,-0.01087119,-0.02201619,-0.16
 178389,-0.05909747,-0.11390319,0.00058407,0.00005467,-0.00017967,-0.00
 007493,-0.00030801,0.00023811,-0.00001572,0.00005212,0.00000165,-0.000
 04582,0.00001380,-0.00002456,0.00007464,-0.00011783,-0.00001177,0.0002
 5940,0.00036464,0.00056583,0.00020597,0.00000475,0.00003112,0.00000877
 ,0.00001744,0.00007365,0.00003642,0.00023354,0.00087135,-0.00023402,-0
 .00014161,0.00006685,-0.00011090,0.00005268,-0.00000518,0.17868723,-0.
 00000170,-0.00001397,0.00004972,0.00005030,0.00008139,0.00015515,0.000
 06930,0.00021437,0.00043366,-0.00028488,0.00023116,-0.00010941,0.00016
 082,0.00086222,0.00072210,-0.00306277,-0.00285144,-0.00265331,-0.05896
 883,-0.07631695,-0.05807589,-0.00014143,0.00005434,-0.00062562,-0.0000
 5330,0.00019785,-0.00002248,0.00000020,0.00002189,0.00000222,0.0000271
 7,-0.00003088,0.00000946,-0.00001781,-0.00000325,0.00000553,-0.0000620
 2,0.00004502,-0.00012284,-0.00008925,0.00006872,0.00006100,-0.00000756
 ,0.00002483,-0.00000456,-0.00000514,0.00001820,0.00016542,0.00027660,0
 .00008254,-0.00004699,-0.00031862,-0.00002437,0.00003943,0.06640657,0.
 07906443,-0.00006947,-0.00004252,0.00006429,0.00008689,0.00008067,0.00
 002336,-0.00045273,-0.00043763,0.00012180,-0.00015498,-0.00002712,0.00
 049937,0.00245946,0.00024831,-0.00063781,0.01036694,0.00621108,0.01236
 313,-0.11338918,-0.05798508,-0.15862802,-0.00057751,0.00013600,0.00041
 205,-0.00024146,-0.00000937,0.00005290,-0.00000245,0.00001554,0.000007
 60,-0.00001864,0.00001867,-0.00002743,0.00000386,0.00002207,-0.0000099
 8,-0.00000809,-0.00009613,-0.00001429,0.00001827,0.00006044,0.00002353
 ,0.00001605,-0.00000072,-0.00001749,-0.00008611,-0.00008019,-0.0002943
 3,0.00009795,0.00005073,-0.00001379,0.00024541,0.00001029,-0.00002445,
 0.12455888,0.06414012,0.17038143,0.00010266,-0.00001243,0.00018832,-0.
 00053132,-0.00030054,-0.00034307,-0.00246876,-0.00304602,0.00095714,-0
 .00005935,0.00085743,0.00030192,0.00095195,0.00053306,-0.00071903,-0.0
 1185852,0.02948948,0.01206442,-0.07476736,0.07549625,0.03247443,0.0009
 9161,-0.00023341,-0.00007830,0.00000598,-0.00015411,0.00003869,0.00000
 596,0.00009370,0.00001556,-0.00002710,0.00000381,-0.00002894,0.0000202
 5,-0.00005109,-0.00002430,0.00025759,0.00015172,0.00019267,0.00010638,
 0.00011274,0.00018878,-0.00006856,0.00004206,-0.00005451,-0.00019561,-
 0.00087890,-0.00009530,-0.00029968,-0.00050136,-0.00016980,-0.00003049
 ,-0.00009645,-0.00001205,0.00773503,-0.01955613,-0.00757894,0.08189674
 ,-0.00001250,-0.00002101,0.00004008,-0.00007904,-0.00001731,-0.0000411
 3,-0.00214836,0.00117454,0.00107492,0.00022166,0.00070332,-0.00009084,
 0.00042408,0.00033436,-0.00012131,-0.00113568,0.00451870,0.00194689,0.
 07525054,-0.24045023,-0.08340895,0.00059383,0.00055794,-0.00007139,0.0
 0008707,-0.00003616,-0.00000952,0.00000870,-0.00000500,-0.00002328,-0.
 00001002,0.00004687,-0.00001908,0.00002672,-0.00001274,-0.00001139,0.0
 0007682,0.00002561,0.00012760,0.00004810,0.00000414,-0.00002418,-0.000
 12240,0.00000855,0.00005907,0.00010808,-0.00000588,-0.00005799,0.00032
 342,0.00008328,-0.00001884,-0.00001414,-0.00001399,0.00000569,0.003424
 51,-0.00935912,-0.00292402,-0.08345119,0.26016025,0.00000947,0.0000479
 0,-0.00010368,0.00015913,0.00030428,0.00036570,0.00111858,0.00127230,0
 .00016687,0.00007089,-0.00040197,0.00020240,-0.00003275,0.00050481,0.0
 0046016,0.00518015,-0.01400712,-0.00723099,0.03248662,-0.08357844,-0.0
 8202925,-0.00058061,-0.00044512,0.00022936,0.00009028,-0.00006200,-0.0
 0011272,-0.00001559,-0.00005657,0.00000289,-0.00000651,-0.00002044,0.0
 0001385,0.00000029,-0.00001509,0.00001443,-0.00021369,0.00011400,0.000
 17987,0.00004058,-0.00002804,-0.00006991,0.00033373,-0.00009444,-0.000
 07391,0.00008294,0.00044683,-0.00002362,0.00031433,0.00016590,0.000133
 56,0.00000291,0.00005422,0.00002560,0.00768964,-0.01867429,-0.00837414
 ,-0.03815162,0.09250941,0.08634331,0.00002094,0.00002000,0.00003337,-0
 .00016731,0.00007649,-0.00005675,0.00113240,0.00043740,-0.00016843,0.0
 0054049,-0.00080467,0.00067521,0.00132817,-0.00027708,-0.00055832,0.00
 267455,-0.02288944,0.02499957,-0.04750794,0.01347408,-0.01503068,-0.00
 402118,0.00102516,0.00045228,-0.00060676,-0.00004138,-0.00016051,-0.00
 000060,0.00000886,-0.00001335,0.00001264,0.00002450,-0.00000148,0.0000
 0490,-0.00001062,0.00000538,0.00004212,-0.00000307,0.00002473,0.000019
 54,-0.00002861,-0.00006256,-0.00024639,0.00040401,-0.00018750,-0.00048
 731,0.00053169,-0.00043471,-0.00008101,0.00005067,-0.00004849,-0.00030
 494,0.00019641,-0.00032777,-0.00185617,0.01533468,-0.01538891,-0.00166
 804,0.00624168,-0.00853410,0.05080032,0.00003087,-0.00000678,0.0000127
 1,-0.00005815,-0.00002806,-0.00008108,-0.00061650,0.00053286,-0.000113
 40,-0.00029525,0.00030705,0.00013376,0.00021132,-0.00011104,0.00001173
 ,-0.00015852,-0.00426032,0.00324695,0.01354780,-0.15935835,0.12785869,
 0.00009263,0.00178342,-0.00095914,-0.00017002,-0.00006614,0.00004129,0
 .00000416,0.00002041,0.00000723,0.00000627,0.00000452,-0.00000861,0.00
 000235,-0.00001332,0.00000051,0.00002871,0.00002677,0.00002859,0.00001
 424,-0.00000689,-0.00000847,-0.00029918,0.00018802,0.00020269,-0.00022
 902,0.00009880,-0.00009398,-0.00000908,0.00000394,-0.00000169,-0.00034
 232,0.00005730,-0.00007989,-0.00044411,0.00779663,-0.00935467,0.002075
 36,-0.01785530,0.02142720,-0.01359062,0.17085670,0.00007126,0.00009102
 ,-0.00014803,-0.00002047,-0.00013831,-0.00005126,-0.00049109,-0.000028
 20,0.00009850,0.00006822,0.00028945,0.00003308,0.00023144,-0.00023622,
 0.00068222,-0.00095520,0.01051176,-0.01302785,-0.01524263,0.12796954,-
 0.19085104,0.00117136,-0.00128991,0.00160179,0.00019942,0.00002322,0.0
 0022370,-0.00001136,-0.00003439,0.00002979,0.00001516,-0.00011585,0.00
 005567,-0.00001151,-0.00002967,0.00003666,0.00003589,0.00008970,-0.000
 06544,-0.00002912,-0.00001118,0.00006309,0.00044110,-0.00035748,0.0000
 3934,0.00036769,-0.00034178,0.00016465,0.00002700,-0.00003078,0.000051
 09,0.00052824,0.00008422,0.00016855,-0.00135539,0.01430314,-0.01577335
 ,0.00063755,-0.00859447,0.00991433,0.01426929,-0.14226663,0.20697501,0
 .00005064,0.00002859,0.00007056,-0.00004912,-0.00015157,-0.00023502,-0
 .00247439,0.00244452,-0.00173361,0.00169861,0.02485872,0.00413561,-0.0
 0271831,0.00294429,0.00152949,-0.00065098,-0.01219314,-0.00370180,0.00
 062733,-0.00050719,-0.00062386,-0.04726322,-0.00901733,-0.00178122,-0.
 00115986,-0.01391396,-0.00775527,-0.00002319,0.00002781,0.00004579,-0.
 00000829,-0.00005854,0.00003319,0.00001944,-0.00003911,-0.00000881,0.0
 0016391,0.00014726,0.00002718,-0.00009122,-0.00002492,0.00006597,0.001
 76075,0.00141051,-0.00047323,0.00005350,0.00000204,0.00028184,0.000184
 22,-0.00009597,-0.00075235,-0.00006847,-0.00018062,0.00014943,0.000041
 38,0.00002011,0.00001603,-0.00010320,0.00024762,0.00009197,-0.00011804
 ,0.00017513,0.00021829,0.04964062,-0.00010994,-0.00003872,-0.00020274,
 0.00013091,0.00025421,0.00036874,0.00234265,-0.00443169,0.00450576,-0.
 00282410,-0.01056398,-0.00007219,-0.00137603,-0.00037448,-0.00206318,0
 .00486302,-0.01526222,-0.00535818,0.00037211,0.00013140,-0.00010994,-0
 .00746549,-0.26345129,-0.07735212,0.00031400,-0.00188843,-0.00041293,-
 0.00000241,-0.00012922,-0.00007712,0.00002774,0.00005485,0.00000049,-0
 .00001942,0.00003493,0.00003705,-0.00008284,-0.00004342,-0.00004508,0.
 00001929,-0.00000954,-0.00011540,0.00054168,-0.00205003,-0.00024108,0.
 00042210,0.00012072,0.00009051,0.00051635,0.00140221,0.00140334,-0.000
 06228,0.00106862,0.00022563,0.00001156,0.00004476,-0.00001387,-0.00059
 584,0.00012290,0.00038797,-0.00011931,0.00005509,0.00018291,0.00373205
 ,0.29213242,0.00005556,0.00005584,0.00016907,-0.00009467,-0.00009660,-
 0.00027112,-0.00159228,0.00381274,-0.00313687,0.00061703,-0.00043341,-
 0.00180777,0.00008576,0.00692618,-0.00069834,-0.00289056,0.01712874,0.
 00455750,-0.00064513,-0.00015988,0.00061548,-0.00146985,-0.08004234,-0
 .07475105,-0.00408426,-0.02909895,-0.01384928,0.00001615,0.00005570,0.
 00003688,-0.00000701,-0.00009504,0.00003243,0.00006038,-0.00006468,-0.
 00000959,0.00016131,0.00010455,-0.00001377,-0.00015991,0.00013222,0.00
 025607,-0.00076129,0.00154277,0.00103437,0.00009628,-0.00042262,0.0000
 2374,-0.00055674,0.00009511,-0.00050571,0.00024102,-0.00004190,0.00030
 653,0.00005616,0.00002320,-0.00002980,0.00015987,-0.00030059,-0.000007
 21,0.00003908,-0.00011903,-0.00011824,0.01311368,0.07970314,0.09145046
 ,0.00003054,-0.00007785,0.00004905,0.00005408,-0.00010620,0.00000092,-
 0.00004372,-0.00049142,0.00010530,0.00163688,-0.00202010,-0.00179510,-
 0.00049646,0.00074032,-0.00033854,0.00011716,-0.00002486,-0.00004887,-
 0.00009591,0.00026184,-0.00030894,-0.01427843,0.00745779,0.00067396,-0
 .24907170,0.10270018,0.02093769,-0.00000504,0.00003329,0.00001728,-0.0
 0000371,-0.00000576,-0.00001106,0.00000386,-0.00000887,-0.00000645,0.0
 0002287,0.00006924,0.00002860,-0.00000634,-0.00001556,0.00003628,0.000
 06083,0.00009214,-0.00007828,-0.00005008,0.00006602,-0.00002000,0.0000
 0611,-0.00007586,-0.00006108,0.00012869,-0.00001740,-0.00042047,0.0001
 1481,0.00013413,0.00003664,0.00003287,-0.00006021,-0.00009586,0.000200
 42,-0.00000169,-0.00004831,0.00046681,-0.00067041,-0.00008063,0.272302
 29,-0.00012358,0.00002577,0.00037920,0.00072942,-0.00049464,-0.0004466
 9,-0.00022611,0.00003148,-0.00054238,-0.00053709,0.00092984,0.00006331
 ,0.00015743,0.00000327,0.00026099,0.00073515,0.00005936,-0.00035140,0.
 00012917,0.00023441,0.00005844,-0.00032255,-0.00124187,-0.00004167,0.1
 0339202,-0.09931824,-0.01151453,-0.00000111,-0.00000040,-0.00002450,0.
 00004948,-0.00016897,0.00005862,0.00003874,-0.00004051,0.00000357,0.00
 008456,0.00000841,-0.00012894,-0.00039031,-0.00017963,0.00059987,0.000
 04266,0.00006146,0.00008082,0.00001324,-0.00003507,0.00009504,-0.00000
 914,0.00000827,0.00002175,0.00001590,0.00001373,0.00008335,-0.00017254
 ,-0.00024096,0.00003027,-0.00002129,0.00001811,0.00005848,-0.00009887,
 -0.00003689,-0.00008946,-0.00046098,0.00064354,0.00038146,-0.11401594,
 0.10400932,-0.00001341,0.00000293,0.00018795,0.00028588,-0.00022254,-0
 .00030502,-0.00031259,-0.00075947,0.00010674,-0.00035840,-0.00159775,-
 0.00382956,-0.00068851,0.00069260,-0.00029101,-0.00001590,0.00019847,0
 .00102952,0.00016195,0.00007796,0.00003255,-0.03026174,0.01531250,0.00
 155811,0.02117380,-0.01161739,-0.04720997,-0.00000351,0.00003040,0.000
 00177,0.00001051,-0.00007217,0.00001497,0.00002100,-0.00002809,-0.0000
 1175,0.00009208,0.00008342,0.00003905,-0.00018338,0.00003051,0.0002746
 4,0.00011256,0.00010686,-0.00005366,-0.00031874,0.00027387,-0.00031054
 ,0.00003195,-0.00009266,-0.00005513,0.00029434,-0.00002800,-0.00063130
 ,0.00016553,0.00017804,-0.00009563,0.00007157,-0.00005013,-0.00016120,
 0.00006882,-0.00005541,0.00003622,0.00058721,-0.00016855,0.00122070,-0
 .02029782,0.01231653,0.05274151,-0.00023918,0.00017250,0.00046299,0.00
 092160,0.00108327,-0.00126540,-0.00040582,-0.00004155,-0.00049142,0.00
 011217,-0.00049419,0.00056190,0.00013037,-0.00000997,0.00010459,0.0007
 4059,0.00031282,0.00035777,-0.00003550,0.00031626,-0.00006200,-0.00214
 201,-0.01513793,-0.00335678,-0.05299475,-0.03585305,-0.01571977,0.0000
 1515,0.00001187,-0.00002932,0.00007763,-0.00023474,0.00005333,0.000049
 73,-0.00002657,-0.00001348,-0.00001034,-0.00028105,0.00017810,-0.00125
 776,0.00145461,0.00034096,-0.00003330,0.00010524,0.00021447,-0.0001393
 8,0.00007995,-0.00006434,0.00000289,0.00016719,0.00014585,-0.00002349,
 0.00016632,-0.00000233,-0.00004290,-0.00004564,0.00002950,-0.00004924,
 -0.00003346,0.00000447,0.00006646,-0.00002606,-0.00008983,-0.00027855,
 0.00002310,-0.00322480,0.00510407,0.02740768,0.01089665,0.05335597,0.0
 0019439,-0.00054219,0.00054448,0.00222964,-0.00502685,0.00082042,-0.00
 031209,0.00076986,-0.00037834,0.00021905,0.00024876,-0.00037334,-0.000
 00663,0.00018122,0.00002018,-0.00053964,0.00029946,0.00006005,-0.00009
 521,-0.00002486,-0.00012213,0.00016682,0.00248654,0.00023620,-0.038089
 75,-0.27565342,-0.09781181,-0.00000662,0.00004674,0.00000360,0.0000150
 1,-0.00010277,0.00004717,0.00002951,0.00000476,-0.00000225,0.00060361,
 -0.00142521,0.00064448,0.00090901,-0.00204596,0.00113587,-0.00005810,0
 .00006917,-0.00006125,-0.00005334,-0.00000919,-0.00000655,0.00004436,-
 0.00008603,0.00006293,-0.00003376,-0.00001457,-0.00006907,0.00008613,0
 .00006096,-0.00000670,0.00002459,0.00000590,0.00002942,0.00004766,0.00
 002484,0.00000086,0.00016150,0.00173508,0.00071173,-0.00232729,-0.0122
 0473,-0.00404758,0.03790650,0.30591739,0.00034972,0.00033003,0.0004283
 8,-0.00086380,-0.00024023,-0.00022071,-0.00057649,0.00049758,-0.000950
 16,0.00001564,0.00007833,0.00104620,0.00016696,-0.00010838,0.00028382,
 0.00074181,-0.00036972,0.00101217,-0.00011679,0.00018525,-0.00029890,-
 0.00158650,-0.02981926,-0.00888913,-0.01609743,-0.09443521,-0.08826187
 ,-0.00002760,-0.00000005,-0.00001588,0.00001935,-0.00017545,0.00005920
 ,0.00011715,-0.00024340,0.00003063,0.00066109,0.00102180,-0.00017469,-
 0.00012059,-0.00003086,0.00069316,0.00015894,0.00017750,0.00018943,-0.
 00018190,0.00023725,-0.00012690,0.00008272,0.00030895,0.00024628,-0.00
 000681,0.00033054,-0.00000623,0.00022704,0.00005851,-0.00009102,-0.000
 05517,0.00002113,0.00012273,0.00012297,0.00006142,-0.00001383,-0.00342
 960,0.00004418,-0.00527107,-0.00013664,-0.00266888,-0.00188056,0.01848
 758,0.10467695,0.09352364,0.00002044,0.00004838,0.00006249,-0.00004232
 ,-0.00014351,-0.00002927,0.00027114,-0.00011651,-0.00018619,0.00136728
 ,0.00018924,0.00066168,0.00022347,0.00027477,-0.00041982,-0.00128736,-
 0.00042584,-0.00251742,-0.00038516,0.00006226,-0.00021376,0.00914775,0
 .01010850,-0.01207213,-0.12182499,-0.07584171,0.09150885,-0.00000536,0
 .00000185,-0.00000439,0.00000069,-0.00002263,0.00000625,0.00001429,-0.
 00001996,0.00000236,0.00007013,0.00009077,-0.00003322,-0.00005410,-0.0
 0002513,0.00009124,-0.00003354,-0.00000423,0.00003383,-0.00012820,-0.0
 0014408,0.00030947,-0.00001944,-0.00002933,0.00000279,-0.00034429,-0.0
 0007659,0.00001702,0.00015437,0.00013519,0.00003260,0.00002020,-0.0000
 1582,-0.00004525,0.00022276,0.00005169,-0.00002703,0.00029962,0.000011
 50,0.00086486,-0.01623090,-0.01641597,0.01848014,-0.00292441,-0.001115
 35,0.00204836,0.13146794,0.00027231,0.00010829,0.00005045,-0.00043514,
 -0.00058097,0.00033851,-0.00031386,0.00006976,-0.00037893,-0.00052584,
 0.00004428,0.00020071,0.00011508,-0.00009120,0.00032169,0.00032507,0.0
 0118063,-0.00031306,0.00002431,0.00000073,-0.00003016,0.00065189,-0.00
 092520,0.00031039,-0.07621999,-0.12041376,0.08805859,-0.00001812,-0.00
 001742,-0.00001124,-0.00000251,-0.00002267,0.00001447,0.00007201,-0.00
 012127,0.00003332,0.00054778,0.00014251,-0.00005687,-0.00009772,-0.000
 08298,-0.00006179,0.00003397,0.00001785,0.00004739,0.00018452,-0.00003
 583,0.00004098,0.00002358,0.00000770,-0.00001486,0.00007783,0.00001711
 ,0.00006177,0.00006879,-0.00002836,-0.00004619,0.00001854,0.00001229,0
 .00006081,-0.00000962,-0.00001327,0.00001852,0.00044318,0.00044229,0.0
 0020164,0.00836447,0.00791495,-0.01056438,-0.01702309,-0.01471492,0.02
 006202,0.08342253,0.12708946,0.00012505,-0.00000585,0.00008374,-0.0002
 3742,-0.00018338,-0.00002066,0.00040836,-0.00060904,-0.00022711,-0.000
 00281,0.00014891,0.00116936,-0.00009040,0.00090519,-0.00071601,-0.0027
 1214,-0.00353208,-0.00146390,-0.00061474,0.00026466,-0.00018377,0.0163
 9304,0.01832231,-0.02185225,0.09176864,0.08813121,-0.15299462,0.000000
 19,0.00004684,0.00001183,-0.00000863,-0.00002947,0.00000476,0.00001494
 ,-0.00004042,-0.00001038,0.00018900,0.00005777,0.00004152,-0.00001496,
 0.00012837,0.00007009,-0.00016137,0.00007607,0.00004965,-0.00065309,0.
 00032734,-0.00009840,-0.00002742,-0.00009841,-0.00004114,-0.00070744,-
 0.00013055,-0.00017124,0.00012957,-0.00001130,0.00008207,0.00002010,-0
 .00001768,0.00001157,0.00028284,0.00010922,-0.00012466,0.00012851,-0.0
 0071734,0.00076659,0.00186233,0.00131674,-0.00240838,-0.00751870,-0.00
 611531,0.00856531,-0.09857346,-0.09834379,0.16945605\\-0.00000103,0.00
 000608,0.00000383,0.00001032,0.00001799,0.00000093,-0.00000051,-0.0000
 2003,-0.00000250,-0.00000036,0.00000449,-0.00000563,-0.00000114,0.0000
 0077,0.00000671,-0.00000455,-0.00000588,-0.00000223,0.00000105,0.00000
 119,-0.00000079,-0.00000041,0.00000260,0.00001462,0.00000417,-0.000003
 99,-0.00001043,-0.00000075,0.00000235,0.00000055,0.00000034,-0.0000010
 7,0.00000215,0.00000033,-0.00000036,0.00000143,-0.00000029,0.00000211,
 -0.00000037,-0.00000222,0.00000013,-0.00000211,0.00000139,-0.00000102,
 -0.00000078,0.00000021,-0.00000143,0.00000194,0.00000107,0.00000072,-0
 .00000036,-0.00000095,0.00000087,-0.00000057,-0.00000045,-0.00000060,-
 0.00000087,-0.00000209,0.,0.00000055,-0.00000008,0.00000046,-0.0000016
 6,0.00000062,-0.00000122,0.00000002,0.00000044,0.00000454,-0.00000195,
 -0.00000212,-0.00000824,-0.00000149,-0.00000296,-0.00000046,-0.0000009
 7\\\@


 THE TRULY SUCCESSFUL PERFORMANCE OF RESEARCHES IN
 INORGANIC CHEMISTRY IS POSSIBLE ONLY TO ONE WHO IS NOT
 ONLY A THEORETICAL CHEMIST, BUT ALSO AN ACCOMPLISHED
 ANALYST AND, MOREOVER, NOT MERELY A PRACTICALLY TRAINED,
 MECHANICAL WORKER, BUT A THINKING CREATIVE ARTIST.
   --  CLEMENS WINKLER, BER. 33, 1697(1900)
 Job cpu time:       0 days  2 hours 48 minutes 44.8 seconds.
 Elapsed time:       0 days  0 hours 42 minutes 11.9 seconds.
 File lengths (MBytes):  RWF=    199 Int=      0 D2E=      0 Chk=     10 Scr=      1
 Normal termination of Gaussian 16 at Sun May 28 12:37:46 2023.
### All Done ###
