### Starting Gaussian ###
 Entering Gaussian System, Link 0=g16
 Initial command:
 /cluster/software/gaussian/gaussian-16-A.03/avx2/g16/l1.exe "/local/scratch/linjian/Gau-16551.inp" -scrdir="/local/scratch/linjian/"
 Entering Link 1 = /cluster/software/gaussian/gaussian-16-A.03/avx2/g16/l1.exe PID=     16553.
  
 Copyright (c) 1988,1990,1992,1993,1995,1998,2003,2009,2016,
            Gaussian, Inc.  All Rights Reserved.
  
 This is part of the Gaussian(R) 16 program.  It is based on
 the Gaussian(R) 09 system (copyright 2009, Gaussian, Inc.),
 the Gaussian(R) 03 system (copyright 2003, Gaussian, Inc.),
 the Gaussian(R) 98 system (copyright 1998, Gaussian, Inc.),
 the Gaussian(R) 94 system (copyright 1995, Gaussian, Inc.),
 the Gaussian 92(TM) system (copyright 1992, Gaussian, Inc.),
 the Gaussian 90(TM) system (copyright 1990, Gaussian, Inc.),
 the Gaussian 88(TM) system (copyright 1988, Gaussian, Inc.),
 the Gaussian 86(TM) system (copyright 1986, Carnegie Mellon
 University), and the Gaussian 82(TM) system (copyright 1983,
 Carnegie Mellon University). Gaussian is a federally registered
 trademark of Gaussian, Inc.
  
 This software contains proprietary and confidential information,
 including trade secrets, belonging to Gaussian, Inc.
  
 This software is provided under written license and may be
 used, copied, transmitted, or stored only in accord with that
 written license.
  
 The following legend is applicable only to US Government
 contracts under FAR:
  
                    RESTRICTED RIGHTS LEGEND
  
 Use, reproduction and disclosure by the US Government is
 subject to restrictions as set forth in subparagraphs (a)
 and (c) of the Commercial Computer Software - Restricted
 Rights clause in FAR 52.227-19.
  
 Gaussian, Inc.
 340 Quinnipiac St., Bldg. 40, Wallingford CT 06492
  
  
 ---------------------------------------------------------------
 Warning -- This program may not be used in any manner that
 competes with the business of Gaussian, Inc. or will provide
 assistance to any competitor of Gaussian, Inc.  The licensee
 of this program is prohibited from giving any competitor of
 Gaussian, Inc. access to this program.  By using this program,
 the user acknowledges that Gaussian, Inc. is engaged in the
 business of creating and licensing software in the field of
 computational chemistry and represents and warrants to the
 licensee that it is not a competitor of Gaussian, Inc. and that
 it will not use this program in any manner prohibited above.
 ---------------------------------------------------------------
  

 Cite this work as:
 Gaussian 16, Revision A.03,
 M. J. Frisch, G. W. Trucks, H. B. Schlegel, G. E. Scuseria, 
 M. A. Robb, J. R. Cheeseman, G. Scalmani, V. Barone, 
 G. A. Petersson, H. Nakatsuji, X. Li, M. Caricato, A. V. Marenich, 
 J. Bloino, B. G. Janesko, R. Gomperts, B. Mennucci, H. P. Hratchian, 
 J. V. Ortiz, A. F. Izmaylov, J. L. Sonnenberg, D. Williams-Young, 
 F. Ding, F. Lipparini, F. Egidi, J. Goings, B. Peng, A. Petrone, 
 T. Henderson, D. Ranasinghe, V. G. Zakrzewski, J. Gao, N. Rega, 
 G. Zheng, W. Liang, M. Hada, M. Ehara, K. Toyota, R. Fukuda, 
 J. Hasegawa, M. Ishida, T. Nakajima, Y. Honda, O. Kitao, H. Nakai, 
 T. Vreven, K. Throssell, J. A. Montgomery, Jr., J. E. Peralta, 
 F. Ogliaro, M. J. Bearpark, J. J. Heyd, E. N. Brothers, K. N. Kudin, 
 V. N. Staroverov, T. A. Keith, R. Kobayashi, J. Normand, 
 K. Raghavachari, A. P. Rendell, J. C. Burant, S. S. Iyengar, 
 J. Tomasi, M. Cossi, J. M. Millam, M. Klene, C. Adamo, R. Cammi, 
 J. W. Ochterski, R. L. Martin, K. Morokuma, O. Farkas, 
 J. B. Foresman, and D. J. Fox, Gaussian, Inc., Wallingford CT, 2016.
 
 ******************************************
 Gaussian 16:  ES64L-G16RevA.03 25-Dec-2016
                22-May-2023 
 ******************************************
 %chk=CCC1CCqCrN1CCqCOrCCCCCO.chk
 %NProcShared=20
 Will use up to   20 processors via shared memory.
 -----------------------------
 # opt freq b3lyp/6-31g(2df,p)
 -----------------------------
 1/18=20,19=15,26=3,38=1/1,3;
 2/9=110,12=2,17=6,18=5,40=1/2;
 3/5=1,6=6,7=104,11=2,25=1,30=1,71=1,74=-5/1,2,3;
 4//1;
 5/5=2,38=5/2;
 6/7=2,8=2,9=2,10=2,28=1/1;
 7//1,2,3,16;
 1/18=20,19=15,26=3/3(2);
 2/9=110/2;
 99//99;
 2/9=110/2;
 3/5=1,6=6,7=104,11=2,25=1,30=1,71=1,74=-5/1,2,3;
 4/5=5,16=3,69=1/1;
 5/5=2,38=5/2;
 7//1,2,3,16;
 1/18=20,19=15,26=3/3(-5);
 2/9=110/2;
 6/7=2,8=2,9=2,10=2,19=2,28=1/1;
 99/9=1/99;
 -------------------
 Title Card Required
 -------------------
 Symbolic Z-matrix:
 Charge =  0 Multiplicity = 1
 C                     0.98955   0.03996   0.41427 
 C                     2.49811  -0.03038   0.18913 
 C                     3.18499  -1.39658   0.06354 
 C                     3.1399   -2.19687   1.38378 
 C                     3.25321  -3.43622   0.47671 
 C                     4.70098  -3.88256   0.22533 
 N                     2.54429  -2.59666  -0.59108 
 C                     3.07835  -2.9383   -1.93277 
 C                     2.3347   -2.25917  -3.11006 
 C                     2.40762  -0.73484  -3.01015 
 O                     1.32124  -0.26806  -2.26426 
 C                     2.87372  -2.67637  -4.47873 
 C                     2.07264  -1.96506  -5.5742 
 C                     2.61079  -2.24375  -6.94701 
 C                     1.82211  -1.41703  -7.95294 
 C                     2.3506   -1.68847  -9.34232 
 O                     1.60825  -0.94681  -10.2927 
 H                     0.6691    1.08326   0.28591 
 H                     0.70892  -0.288     1.41335 
 H                     0.36612  -0.55139  -0.25468 
 H                     2.95786   0.49158   1.03795 
 H                     2.7884    0.59494  -0.66361 
 H                     4.20893  -1.21188  -0.29399 
 H                     2.18691  -2.14333   1.92531 
 H                     3.95319  -1.9931    2.08397 
 H                     2.66187  -4.28797   0.83481 
 H                     5.34481  -3.07987  -0.15049 
 H                     4.73918  -4.71136  -0.48886 
 H                     5.15741  -4.23656   1.15678 
 H                     2.95823  -4.02524  -2.06986 
 H                     4.15116  -2.73539  -2.02519 
 H                     1.28908  -2.60225  -3.06032 
 H                     2.25508  -0.17862  -3.92191 
 H                     3.38991  -0.40036  -2.65192 
 H                     0.90595  -1.07354  -1.87582 
 H                     2.78703  -3.76162  -4.60974 
 H                     3.93723  -2.42043  -4.55509 
 H                     2.1374   -0.8806   -5.50211 
 H                     1.00737  -2.21204  -5.48701 
 H                     2.54038  -3.31207  -7.16202 
 H                     3.66757  -1.95036  -6.97996 
 H                     1.897    -0.34248  -7.72914 
 H                     0.75173  -1.65268  -7.89062 
 H                     2.27165  -2.7538   -9.57824 
 H                     3.4025   -1.39396  -9.41116 
 H                     0.67711  -1.2119   -10.201 
 

 GradGradGradGradGradGradGradGradGradGradGradGradGradGradGradGradGradGrad
 Berny optimization.
 Initialization pass.
                           ----------------------------
                           !    Initial Parameters    !
                           ! (Angstroms and Degrees)  !
 --------------------------                            --------------------------
 ! Name  Definition              Value          Derivative Info.                !
 --------------------------------------------------------------------------------
 ! R1    R(1,2)                  1.5269         estimate D2E/DX2                !
 ! R2    R(1,18)                 1.0989         estimate D2E/DX2                !
 ! R3    R(1,19)                 1.0883         estimate D2E/DX2                !
 ! R4    R(1,20)                 1.089          estimate D2E/DX2                !
 ! R5    R(2,3)                  1.5343         estimate D2E/DX2                !
 ! R6    R(2,21)                 1.0974         estimate D2E/DX2                !
 ! R7    R(2,22)                 1.0966         estimate D2E/DX2                !
 ! R8    R(3,4)                  1.5445         estimate D2E/DX2                !
 ! R9    R(3,7)                  1.5097         estimate D2E/DX2                !
 ! R10   R(3,23)                 1.1002         estimate D2E/DX2                !
 ! R11   R(4,5)                  1.54           estimate D2E/DX2                !
 ! R12   R(4,24)                 1.0974         estimate D2E/DX2                !
 ! R13   R(4,25)                 1.0924         estimate D2E/DX2                !
 ! R14   R(5,6)                  1.5357         estimate D2E/DX2                !
 ! R15   R(5,7)                  1.5322         estimate D2E/DX2                !
 ! R16   R(5,26)                 1.097          estimate D2E/DX2                !
 ! R17   R(6,27)                 1.0955         estimate D2E/DX2                !
 ! R18   R(6,28)                 1.0947         estimate D2E/DX2                !
 ! R19   R(6,29)                 1.096          estimate D2E/DX2                !
 ! R20   R(7,8)                  1.4839         estimate D2E/DX2                !
 ! R21   R(8,9)                  1.5493         estimate D2E/DX2                !
 ! R22   R(8,30)                 1.1021         estimate D2E/DX2                !
 ! R23   R(8,31)                 1.0957         estimate D2E/DX2                !
 ! R24   R(9,10)                 1.5293         estimate D2E/DX2                !
 ! R25   R(9,12)                 1.529          estimate D2E/DX2                !
 ! R26   R(9,32)                 1.1016         estimate D2E/DX2                !
 ! R27   R(10,11)                1.398          estimate D2E/DX2                !
 ! R28   R(10,33)                1.0789         estimate D2E/DX2                !
 ! R29   R(10,34)                1.0978         estimate D2E/DX2                !
 ! R30   R(11,35)                0.986          estimate D2E/DX2                !
 ! R31   R(12,13)                1.5322         estimate D2E/DX2                !
 ! R32   R(12,36)                1.0966         estimate D2E/DX2                !
 ! R33   R(12,37)                1.0965         estimate D2E/DX2                !
 ! R34   R(13,14)                1.5006         estimate D2E/DX2                !
 ! R35   R(13,38)                1.0888         estimate D2E/DX2                !
 ! R36   R(13,39)                1.097          estimate D2E/DX2                !
 ! R37   R(14,15)                1.5223         estimate D2E/DX2                !
 ! R38   R(14,40)                1.092          estimate D2E/DX2                !
 ! R39   R(14,41)                1.0972         estimate D2E/DX2                !
 ! R40   R(15,16)                1.5111         estimate D2E/DX2                !
 ! R41   R(15,42)                1.1002         estimate D2E/DX2                !
 ! R42   R(15,43)                1.0978         estimate D2E/DX2                !
 ! R43   R(16,17)                1.4158         estimate D2E/DX2                !
 ! R44   R(16,44)                1.094          estimate D2E/DX2                !
 ! R45   R(16,45)                1.0945         estimate D2E/DX2                !
 ! R46   R(17,46)                0.9725         estimate D2E/DX2                !
 ! A1    A(2,1,18)             108.3376         estimate D2E/DX2                !
 ! A2    A(2,1,19)             112.1006         estimate D2E/DX2                !
 ! A3    A(2,1,20)             116.7455         estimate D2E/DX2                !
 ! A4    A(18,1,19)            108.5494         estimate D2E/DX2                !
 ! A5    A(18,1,20)            106.0726         estimate D2E/DX2                !
 ! A6    A(19,1,20)            104.6349         estimate D2E/DX2                !
 ! A7    A(1,2,3)              119.696          estimate D2E/DX2                !
 ! A8    A(1,2,21)             106.138          estimate D2E/DX2                !
 ! A9    A(1,2,22)             110.4838         estimate D2E/DX2                !
 ! A10   A(3,2,21)             107.4143         estimate D2E/DX2                !
 ! A11   A(3,2,22)             109.0024         estimate D2E/DX2                !
 ! A12   A(21,2,22)            102.6712         estimate D2E/DX2                !
 ! A13   A(2,3,4)              112.231          estimate D2E/DX2                !
 ! A14   A(2,3,7)              123.595          estimate D2E/DX2                !
 ! A15   A(2,3,23)             107.0839         estimate D2E/DX2                !
 ! A16   A(4,3,7)               86.9259         estimate D2E/DX2                !
 ! A17   A(4,3,23)             113.0755         estimate D2E/DX2                !
 ! A18   A(7,3,23)             112.8001         estimate D2E/DX2                !
 ! A19   A(3,4,5)               84.915          estimate D2E/DX2                !
 ! A20   A(3,4,24)             114.9533         estimate D2E/DX2                !
 ! A21   A(3,4,25)             115.4374         estimate D2E/DX2                !
 ! A22   A(5,4,24)             113.1917         estimate D2E/DX2                !
 ! A23   A(5,4,25)             118.2222         estimate D2E/DX2                !
 ! A24   A(24,4,25)            108.7321         estimate D2E/DX2                !
 ! A25   A(4,5,6)              113.5578         estimate D2E/DX2                !
 ! A26   A(4,5,7)               86.2998         estimate D2E/DX2                !
 ! A27   A(4,5,26)             113.1364         estimate D2E/DX2                !
 ! A28   A(6,5,7)              118.7746         estimate D2E/DX2                !
 ! A29   A(6,5,26)             109.6305         estimate D2E/DX2                !
 ! A30   A(7,5,26)             113.7992         estimate D2E/DX2                !
 ! A31   A(5,6,27)             113.4066         estimate D2E/DX2                !
 ! A32   A(5,6,28)             111.0831         estimate D2E/DX2                !
 ! A33   A(5,6,29)             110.3257         estimate D2E/DX2                !
 ! A34   A(27,6,28)            108.0844         estimate D2E/DX2                !
 ! A35   A(27,6,29)            106.4672         estimate D2E/DX2                !
 ! A36   A(28,6,29)            107.18           estimate D2E/DX2                !
 ! A37   A(3,7,5)               86.3896         estimate D2E/DX2                !
 ! A38   A(3,7,8)              114.9809         estimate D2E/DX2                !
 ! A39   A(5,7,8)              109.7205         estimate D2E/DX2                !
 ! A40   A(7,8,9)              114.4178         estimate D2E/DX2                !
 ! A41   A(7,8,30)             107.4753         estimate D2E/DX2                !
 ! A42   A(7,8,31)             112.7053         estimate D2E/DX2                !
 ! A43   A(9,8,30)             106.5876         estimate D2E/DX2                !
 ! A44   A(9,8,31)             108.9467         estimate D2E/DX2                !
 ! A45   A(30,8,31)            106.1916         estimate D2E/DX2                !
 ! A46   A(8,9,10)             111.3699         estimate D2E/DX2                !
 ! A47   A(8,9,12)             113.0411         estimate D2E/DX2                !
 ! A48   A(8,9,32)             106.5456         estimate D2E/DX2                !
 ! A49   A(10,9,12)            108.2783         estimate D2E/DX2                !
 ! A50   A(10,9,32)            110.6543         estimate D2E/DX2                !
 ! A51   A(12,9,32)            106.8614         estimate D2E/DX2                !
 ! A52   A(9,10,11)            109.305          estimate D2E/DX2                !
 ! A53   A(9,10,33)            116.8668         estimate D2E/DX2                !
 ! A54   A(9,10,34)            111.5723         estimate D2E/DX2                !
 ! A55   A(11,10,33)            99.7229         estimate D2E/DX2                !
 ! A56   A(11,10,34)           114.8032         estimate D2E/DX2                !
 ! A57   A(33,10,34)           104.1942         estimate D2E/DX2                !
 ! A58   A(10,11,35)           105.3512         estimate D2E/DX2                !
 ! A59   A(9,12,13)            109.2081         estimate D2E/DX2                !
 ! A60   A(9,12,36)            110.4334         estimate D2E/DX2                !
 ! A61   A(9,12,37)            109.911          estimate D2E/DX2                !
 ! A62   A(13,12,36)           109.4323         estimate D2E/DX2                !
 ! A63   A(13,12,37)           110.4218         estimate D2E/DX2                !
 ! A64   A(36,12,37)           107.4189         estimate D2E/DX2                !
 ! A65   A(12,13,14)           112.3551         estimate D2E/DX2                !
 ! A66   A(12,13,38)           112.5788         estimate D2E/DX2                !
 ! A67   A(12,13,39)           110.2645         estimate D2E/DX2                !
 ! A68   A(14,13,38)           102.957          estimate D2E/DX2                !
 ! A69   A(14,13,39)           112.2806         estimate D2E/DX2                !
 ! A70   A(38,13,39)           106.066          estimate D2E/DX2                !
 ! A71   A(13,14,15)           108.5337         estimate D2E/DX2                !
 ! A72   A(13,14,40)           109.7968         estimate D2E/DX2                !
 ! A73   A(13,14,41)           108.8569         estimate D2E/DX2                !
 ! A74   A(15,14,40)           111.5788         estimate D2E/DX2                !
 ! A75   A(15,14,41)           109.5072         estimate D2E/DX2                !
 ! A76   A(40,14,41)           108.5283         estimate D2E/DX2                !
 ! A77   A(14,15,16)           109.1977         estimate D2E/DX2                !
 ! A78   A(14,15,42)           111.1458         estimate D2E/DX2                !
 ! A79   A(14,15,43)           110.5525         estimate D2E/DX2                !
 ! A80   A(16,15,42)           109.7968         estimate D2E/DX2                !
 ! A81   A(16,15,43)           110.772          estimate D2E/DX2                !
 ! A82   A(42,15,43)           105.3365         estimate D2E/DX2                !
 ! A83   A(15,16,17)           109.8606         estimate D2E/DX2                !
 ! A84   A(15,16,44)           110.3632         estimate D2E/DX2                !
 ! A85   A(15,16,45)           110.2197         estimate D2E/DX2                !
 ! A86   A(17,16,44)           109.1191         estimate D2E/DX2                !
 ! A87   A(17,16,45)           108.7084         estimate D2E/DX2                !
 ! A88   A(44,16,45)           108.5312         estimate D2E/DX2                !
 ! A89   A(16,17,46)           107.2152         estimate D2E/DX2                !
 ! D1    D(18,1,2,3)          -169.4023         estimate D2E/DX2                !
 ! D2    D(18,1,2,21)           69.0185         estimate D2E/DX2                !
 ! D3    D(18,1,2,22)          -41.5826         estimate D2E/DX2                !
 ! D4    D(19,1,2,3)            70.8416         estimate D2E/DX2                !
 ! D5    D(19,1,2,21)          -50.7376         estimate D2E/DX2                !
 ! D6    D(19,1,2,22)         -161.3387         estimate D2E/DX2                !
 ! D7    D(20,1,2,3)           -49.8223         estimate D2E/DX2                !
 ! D8    D(20,1,2,21)         -171.4015         estimate D2E/DX2                !
 ! D9    D(20,1,2,22)           77.9973         estimate D2E/DX2                !
 ! D10   D(1,2,3,4)            -66.67           estimate D2E/DX2                !
 ! D11   D(1,2,3,7)             34.9812         estimate D2E/DX2                !
 ! D12   D(1,2,3,23)           168.6789         estimate D2E/DX2                !
 ! D13   D(21,2,3,4)            54.2755         estimate D2E/DX2                !
 ! D14   D(21,2,3,7)           155.9267         estimate D2E/DX2                !
 ! D15   D(21,2,3,23)          -70.3756         estimate D2E/DX2                !
 ! D16   D(22,2,3,4)           164.8336         estimate D2E/DX2                !
 ! D17   D(22,2,3,7)           -93.5151         estimate D2E/DX2                !
 ! D18   D(22,2,3,23)           40.1825         estimate D2E/DX2                !
 ! D19   D(2,3,4,5)            154.3678         estimate D2E/DX2                !
 ! D20   D(2,3,4,24)            41.1226         estimate D2E/DX2                !
 ! D21   D(2,3,4,25)           -86.7243         estimate D2E/DX2                !
 ! D22   D(7,3,4,5)             29.1515         estimate D2E/DX2                !
 ! D23   D(7,3,4,24)           -84.0937         estimate D2E/DX2                !
 ! D24   D(7,3,4,25)           148.0595         estimate D2E/DX2                !
 ! D25   D(23,3,4,5)           -84.3608         estimate D2E/DX2                !
 ! D26   D(23,3,4,24)          162.394          estimate D2E/DX2                !
 ! D27   D(23,3,4,25)           34.5471         estimate D2E/DX2                !
 ! D28   D(2,3,7,5)           -144.0351         estimate D2E/DX2                !
 ! D29   D(2,3,7,8)            105.8685         estimate D2E/DX2                !
 ! D30   D(4,3,7,5)            -29.2517         estimate D2E/DX2                !
 ! D31   D(4,3,7,8)           -139.3481         estimate D2E/DX2                !
 ! D32   D(23,3,7,5)            84.5268         estimate D2E/DX2                !
 ! D33   D(23,3,7,8)           -25.5696         estimate D2E/DX2                !
 ! D34   D(3,4,5,6)             91.1659         estimate D2E/DX2                !
 ! D35   D(3,4,5,7)            -28.7039         estimate D2E/DX2                !
 ! D36   D(3,4,5,26)          -143.0414         estimate D2E/DX2                !
 ! D37   D(24,4,5,6)          -153.8317         estimate D2E/DX2                !
 ! D38   D(24,4,5,7)            86.2985         estimate D2E/DX2                !
 ! D39   D(24,4,5,26)          -28.0389         estimate D2E/DX2                !
 ! D40   D(25,4,5,6)           -25.043          estimate D2E/DX2                !
 ! D41   D(25,4,5,7)          -144.9128         estimate D2E/DX2                !
 ! D42   D(25,4,5,26)          100.7498         estimate D2E/DX2                !
 ! D43   D(4,5,6,27)           -53.2655         estimate D2E/DX2                !
 ! D44   D(4,5,6,28)          -175.2307         estimate D2E/DX2                !
 ! D45   D(4,5,6,29)            66.0582         estimate D2E/DX2                !
 ! D46   D(7,5,6,27)            45.8908         estimate D2E/DX2                !
 ! D47   D(7,5,6,28)           -76.0744         estimate D2E/DX2                !
 ! D48   D(7,5,6,29)           165.2144         estimate D2E/DX2                !
 ! D49   D(26,5,6,27)          179.1005         estimate D2E/DX2                !
 ! D50   D(26,5,6,28)           57.1353         estimate D2E/DX2                !
 ! D51   D(26,5,6,29)          -61.5758         estimate D2E/DX2                !
 ! D52   D(4,5,7,3)             29.3667         estimate D2E/DX2                !
 ! D53   D(4,5,7,8)            144.6379         estimate D2E/DX2                !
 ! D54   D(6,5,7,3)            -85.5573         estimate D2E/DX2                !
 ! D55   D(6,5,7,8)             29.7139         estimate D2E/DX2                !
 ! D56   D(26,5,7,3)           143.0583         estimate D2E/DX2                !
 ! D57   D(26,5,7,8)          -101.6705         estimate D2E/DX2                !
 ! D58   D(3,7,8,9)            -90.7061         estimate D2E/DX2                !
 ! D59   D(3,7,8,30)           151.1543         estimate D2E/DX2                !
 ! D60   D(3,7,8,31)            34.4985         estimate D2E/DX2                !
 ! D61   D(5,7,8,9)            173.9458         estimate D2E/DX2                !
 ! D62   D(5,7,8,30)            55.8062         estimate D2E/DX2                !
 ! D63   D(5,7,8,31)           -60.8496         estimate D2E/DX2                !
 ! D64   D(7,8,9,10)            60.1532         estimate D2E/DX2                !
 ! D65   D(7,8,9,12)          -177.6784         estimate D2E/DX2                !
 ! D66   D(7,8,9,32)           -60.6023         estimate D2E/DX2                !
 ! D67   D(30,8,9,10)          178.796          estimate D2E/DX2                !
 ! D68   D(30,8,9,12)          -59.0356         estimate D2E/DX2                !
 ! D69   D(30,8,9,32)           58.0404         estimate D2E/DX2                !
 ! D70   D(31,8,9,10)          -67.0066         estimate D2E/DX2                !
 ! D71   D(31,8,9,12)           55.1618         estimate D2E/DX2                !
 ! D72   D(31,8,9,32)          172.2379         estimate D2E/DX2                !
 ! D73   D(8,9,10,11)          -89.5739         estimate D2E/DX2                !
 ! D74   D(8,9,10,33)          158.2127         estimate D2E/DX2                !
 ! D75   D(8,9,10,34)           38.4849         estimate D2E/DX2                !
 ! D76   D(12,9,10,11)         145.5458         estimate D2E/DX2                !
 ! D77   D(12,9,10,33)          33.3324         estimate D2E/DX2                !
 ! D78   D(12,9,10,34)         -86.3953         estimate D2E/DX2                !
 ! D79   D(32,9,10,11)          28.7404         estimate D2E/DX2                !
 ! D80   D(32,9,10,33)         -83.473          estimate D2E/DX2                !
 ! D81   D(32,9,10,34)         156.7993         estimate D2E/DX2                !
 ! D82   D(8,9,12,13)          179.5668         estimate D2E/DX2                !
 ! D83   D(8,9,12,36)           59.185          estimate D2E/DX2                !
 ! D84   D(8,9,12,37)          -59.1556         estimate D2E/DX2                !
 ! D85   D(10,9,12,13)         -56.55           estimate D2E/DX2                !
 ! D86   D(10,9,12,36)        -176.9318         estimate D2E/DX2                !
 ! D87   D(10,9,12,37)          64.7276         estimate D2E/DX2                !
 ! D88   D(32,9,12,13)          62.6768         estimate D2E/DX2                !
 ! D89   D(32,9,12,36)         -57.705          estimate D2E/DX2                !
 ! D90   D(32,9,12,37)        -176.0456         estimate D2E/DX2                !
 ! D91   D(9,10,11,35)          10.0532         estimate D2E/DX2                !
 ! D92   D(33,10,11,35)        133.1354         estimate D2E/DX2                !
 ! D93   D(34,10,11,35)       -116.1784         estimate D2E/DX2                !
 ! D94   D(9,12,13,14)         175.6628         estimate D2E/DX2                !
 ! D95   D(9,12,13,38)          59.9681         estimate D2E/DX2                !
 ! D96   D(9,12,13,39)         -58.2623         estimate D2E/DX2                !
 ! D97   D(36,12,13,14)        -63.3436         estimate D2E/DX2                !
 ! D98   D(36,12,13,38)       -179.0384         estimate D2E/DX2                !
 ! D99   D(36,12,13,39)         62.7312         estimate D2E/DX2                !
 ! D100  D(37,12,13,14)         54.696          estimate D2E/DX2                !
 ! D101  D(37,12,13,38)        -60.9988         estimate D2E/DX2                !
 ! D102  D(37,12,13,39)       -179.2292         estimate D2E/DX2                !
 ! D103  D(12,13,14,15)       -175.7935         estimate D2E/DX2                !
 ! D104  D(12,13,14,40)         62.0022         estimate D2E/DX2                !
 ! D105  D(12,13,14,41)        -56.6719         estimate D2E/DX2                !
 ! D106  D(38,13,14,15)        -54.4195         estimate D2E/DX2                !
 ! D107  D(38,13,14,40)       -176.6238         estimate D2E/DX2                !
 ! D108  D(38,13,14,41)         64.7021         estimate D2E/DX2                !
 ! D109  D(39,13,14,15)         59.2312         estimate D2E/DX2                !
 ! D110  D(39,13,14,40)        -62.9731         estimate D2E/DX2                !
 ! D111  D(39,13,14,41)        178.3528         estimate D2E/DX2                !
 ! D112  D(13,14,15,16)       -179.8957         estimate D2E/DX2                !
 ! D113  D(13,14,15,42)         58.8259         estimate D2E/DX2                !
 ! D114  D(13,14,15,43)        -57.7816         estimate D2E/DX2                !
 ! D115  D(40,14,15,16)        -58.7827         estimate D2E/DX2                !
 ! D116  D(40,14,15,42)        179.9389         estimate D2E/DX2                !
 ! D117  D(40,14,15,43)         63.3314         estimate D2E/DX2                !
 ! D118  D(41,14,15,16)         61.3922         estimate D2E/DX2                !
 ! D119  D(41,14,15,42)        -59.8861         estimate D2E/DX2                !
 ! D120  D(41,14,15,43)       -176.4937         estimate D2E/DX2                !
 ! D121  D(14,15,16,17)        178.8079         estimate D2E/DX2                !
 ! D122  D(14,15,16,44)         58.4413         estimate D2E/DX2                !
 ! D123  D(14,15,16,45)        -61.425          estimate D2E/DX2                !
 ! D124  D(42,15,16,17)        -59.0979         estimate D2E/DX2                !
 ! D125  D(42,15,16,44)       -179.4645         estimate D2E/DX2                !
 ! D126  D(42,15,16,45)         60.6692         estimate D2E/DX2                !
 ! D127  D(43,15,16,17)         56.826          estimate D2E/DX2                !
 ! D128  D(43,15,16,44)        -63.5406         estimate D2E/DX2                !
 ! D129  D(43,15,16,45)        176.5931         estimate D2E/DX2                !
 ! D130  D(15,16,17,46)        -58.2187         estimate D2E/DX2                !
 ! D131  D(44,16,17,46)         62.8986         estimate D2E/DX2                !
 ! D132  D(45,16,17,46)       -178.9026         estimate D2E/DX2                !
 --------------------------------------------------------------------------------
 Trust Radius=3.00D-01 FncErr=1.00D-07 GrdErr=1.00D-06 EigMax=2.50D+02 EigMin=1.00D-04
 Number of steps in this run=    276 maximum allowed number of steps=    276.
 GradGradGradGradGradGradGradGradGradGradGradGradGradGradGradGradGradGrad

                          Input orientation:                          
 ---------------------------------------------------------------------
 Center     Atomic      Atomic             Coordinates (Angstroms)
 Number     Number       Type             X           Y           Z
 ---------------------------------------------------------------------
      1          6           0        0.989550    0.039960    0.414270
      2          6           0        2.498110   -0.030380    0.189130
      3          6           0        3.184990   -1.396580    0.063540
      4          6           0        3.139900   -2.196870    1.383780
      5          6           0        3.253210   -3.436220    0.476710
      6          6           0        4.700980   -3.882560    0.225330
      7          7           0        2.544290   -2.596660   -0.591080
      8          6           0        3.078350   -2.938300   -1.932770
      9          6           0        2.334700   -2.259170   -3.110060
     10          6           0        2.407620   -0.734840   -3.010150
     11          8           0        1.321240   -0.268060   -2.264260
     12          6           0        2.873720   -2.676370   -4.478730
     13          6           0        2.072640   -1.965060   -5.574200
     14          6           0        2.610790   -2.243750   -6.947010
     15          6           0        1.822110   -1.417030   -7.952940
     16          6           0        2.350600   -1.688470   -9.342320
     17          8           0        1.608250   -0.946810  -10.292700
     18          1           0        0.669100    1.083260    0.285910
     19          1           0        0.708920   -0.288000    1.413350
     20          1           0        0.366120   -0.551390   -0.254680
     21          1           0        2.957860    0.491580    1.037950
     22          1           0        2.788400    0.594940   -0.663610
     23          1           0        4.208930   -1.211880   -0.293990
     24          1           0        2.186910   -2.143330    1.925310
     25          1           0        3.953190   -1.993100    2.083970
     26          1           0        2.661870   -4.287970    0.834810
     27          1           0        5.344810   -3.079870   -0.150490
     28          1           0        4.739180   -4.711360   -0.488860
     29          1           0        5.157410   -4.236560    1.156780
     30          1           0        2.958230   -4.025240   -2.069860
     31          1           0        4.151160   -2.735390   -2.025190
     32          1           0        1.289080   -2.602250   -3.060320
     33          1           0        2.255080   -0.178620   -3.921910
     34          1           0        3.389910   -0.400360   -2.651920
     35          1           0        0.905950   -1.073540   -1.875820
     36          1           0        2.787030   -3.761620   -4.609740
     37          1           0        3.937230   -2.420430   -4.555090
     38          1           0        2.137400   -0.880600   -5.502110
     39          1           0        1.007370   -2.212040   -5.487010
     40          1           0        2.540380   -3.312070   -7.162020
     41          1           0        3.667570   -1.950360   -6.979960
     42          1           0        1.897000   -0.342480   -7.729140
     43          1           0        0.751730   -1.652680   -7.890620
     44          1           0        2.271650   -2.753800   -9.578240
     45          1           0        3.402500   -1.393960   -9.411160
     46          1           0        0.677110   -1.211900  -10.201000
 ---------------------------------------------------------------------
                    Distance matrix (angstroms):
                    1          2          3          4          5
     1  C    0.000000
     2  C    1.526889   0.000000
     3  C    2.647001   1.534301   0.000000
     4  C    3.250748   2.555927   1.544516   0.000000
     5  C    4.148721   3.500375   2.082185   1.540001   0.000000
     6  C    5.403385   4.437706   2.916247   2.573039   1.535724
     7  N    3.221756   2.682658   1.509707   2.101108   1.532189
     8  C    4.329170   3.646250   2.524584   3.398972   2.466596
     9  C    4.417729   3.984829   3.396880   4.565832   3.885103
    10  C    3.786541   3.277170   3.238792   4.688324   4.491177
    11  O    2.716508   2.731417   3.188381   4.509549   4.613314
    12  C    5.905082   5.378779   4.729373   5.888106   5.027700
    13  C    6.407415   6.094258   5.774479   7.043172   6.338105
    14  C    7.876052   7.472362   7.084858   8.347707   7.546278
    15  C    8.533826   8.286922   8.131532   9.461451   8.785452
    16  C   10.001549   9.675720   9.447307  10.767111  10.014124
    17  O   10.770131  10.559378  10.485233  11.842668  11.175117
    18  H    1.098926   2.143557   3.539598   4.250815   5.209580
    19  H    1.088334   2.183182   3.030158   3.091007   4.154756
    20  H    1.088969   2.239152   2.960006   3.617459   4.146380
    21  H    2.113571   1.097410   2.136869   2.716708   3.978672
    22  H    2.169260   1.096567   2.156892   3.479879   4.215048
    23  H    3.526066   2.134538   1.100179   2.219897   2.540683
    24  H    2.912674   2.752403   2.240533   1.097411   2.215175
    25  H    3.962877   3.091916   2.242344   1.092350   2.270650
    26  H    4.658807   4.309384   3.037869   2.214177   1.096994
    27  H    5.387076   4.185503   2.746652   2.827596   2.212500
    28  H    6.119674   5.233893   3.702488   3.519536   2.183212
    29  H    6.017558   5.069534   3.626445   2.877883   2.174630
    30  H    5.154848   4.612337   3.393032   3.911978   2.630395
    31  H    4.863056   3.866894   2.662459   3.596349   2.748996
    32  H    4.375359   4.316850   3.847937   4.831138   4.130847
    33  H    4.522367   4.120884   4.269891   5.745136   5.563819
    34  H    3.918818   3.000626   2.899684   4.424571   4.361589
    35  H    2.547819   2.808411   3.009900   4.108211   4.077534
    36  H    6.551612   6.085621   5.252745   6.204453   5.118123
    37  H    6.279879   5.503729   4.790185   5.996323   5.178680
    38  H    6.096601   5.765692   5.686839   7.081882   6.597160
    39  H    6.316401   6.261031   6.017941   7.194141   6.489096
    40  H    8.428603   8.050508   7.502889   8.639085   7.672922
    41  H    8.112201   7.513309   7.081698   8.383994   7.614552
    42  H    8.202734   7.947184   7.968432   9.382370   8.873923
    43  H    8.478961   8.424017   8.321959   9.592393   8.913508
    44  H   10.454622  10.142476   9.779579  11.010446  10.125768
    45  H   10.218490   9.738729   9.477197  10.827943  10.097677
    46  H   10.693397  10.614463  10.568082  11.884554  11.207024
                    6          7          8          9         10
     6  C    0.000000
     7  N    2.640336   0.000000
     8  C    2.860411   1.483937   0.000000
     9  C    4.399943   2.550115   1.549272   0.000000
    10  C    5.063198   3.055643   2.542806   1.529340   0.000000
    11  O    5.539432   3.117332   3.213643   2.388932   1.398019
    12  C    5.188637   3.902397   2.567566   1.529005   2.478612
    13  C    6.649776   5.045082   3.901110   2.495428   2.863565
    14  C    7.648337   6.366067   5.083662   3.846901   4.221013
    15  C    9.013924   7.490664   6.335207   4.942210   5.023881
    16  C   10.093475   8.800371   7.549379   6.258356   6.403830
    17  O   11.349562   9.885323   8.718696   7.337597   7.329356
    18  H    6.396803   4.222234   5.186518   5.047640   4.146318
    19  H    5.501708   3.565983   4.882091   5.195181   4.759475
    20  H    5.487997   3.006779   3.983656   3.865878   3.434238
    21  H    4.778276   3.515964   4.539138   5.016068   4.265441
    22  H    4.949362   3.201743   3.765451   3.786411   2.723887
    23  H    2.764840   2.185613   2.635211   3.541159   3.293905
    24  H    3.497914   2.581753   4.038740   5.038870   5.137249
    25  H    2.753868   3.083047   4.218169   5.446857   5.470106
    26  H    2.166516   2.215292   3.107179   4.448041   5.241478
    27  H    1.095477   2.875852   2.886764   4.300391   4.722701
    28  H    1.094731   3.049581   2.826124   4.320353   5.254121
    29  H    1.096013   3.545798   3.943766   5.484860   6.098089
    30  H    2.885383   2.097374   1.102117   2.142384   3.466129
    31  H    2.585177   2.158228   1.095735   2.168699   2.830597
    32  H    4.906705   2.769969   2.141445   1.101589   2.177354
    33  H    6.074636   4.126135   3.500041   2.234755   1.078868
    34  H    4.703529   3.128237   2.656198   2.185986   1.097770
    35  H    5.167947   2.579653   2.863546   2.229438   1.912181
    36  H    5.201513   4.191143   2.815829   2.170483   3.444421
    37  H    5.057030   4.205320   2.807566   2.163844   2.750956
    38  H    6.956096   5.218107   4.226074   2.767903   2.510803
    39  H    7.004586   5.145890   4.177204   2.722851   3.205878
    40  H    7.717940   6.609771   5.270121   4.191573   4.888534
    41  H    7.531105   6.518991   5.176614   4.104635   4.338704
    42  H    9.147025   7.513469   6.460014   5.020078   4.762725
    43  H    9.297182   7.575464   6.523952   5.072216   5.234825
    44  H   10.162959   8.992668   7.690125   6.487371   6.872736
    45  H   10.036988   8.942976   7.643061   6.449236   6.511310
    46  H   11.490531   9.887087   8.781232   7.357024   7.411516
                   11         12         13         14         15
    11  O    0.000000
    12  C    3.621330   0.000000
    13  C    3.794748   1.532235   0.000000
    14  C    5.243514   2.519662   1.500627   0.000000
    15  C    5.825125   3.842129   2.453876   1.522293   0.000000
    16  C    7.292193   4.990402   3.788468   2.472558   1.511078
    17  O    8.062191   6.196373   4.849405   3.725692   2.396105
    18  H    2.958837   6.457318   6.753004   8.194772   8.686745
    19  H    3.728290   6.716195   7.314241   8.794185   9.499542
    20  H    2.242976   5.352214   5.762635   7.258781   7.882414
    21  H    3.763000   6.362134   7.109094   8.447608   9.261146
    22  H    2.336538   5.026320   5.583888   6.897160   7.623390
    23  H    3.620982   4.630288   5.745575   6.919645   8.024868
    24  H    4.671030   6.462783   7.502499   8.883007   9.911630
    25  H    5.367497   6.685891   7.885735   9.133645  10.276815
    26  H    5.249876   5.556603   6.842405   8.046003   9.282890
    27  H    5.344475   5.000276   6.431682   7.373374   8.720819
    28  H    5.880244   4.851823   6.365004   7.233730   8.664548
    29  H    6.493744   6.277611   7.744780   8.725135  10.102523
    30  H    4.102917   2.762109   4.160410   5.203942   6.534842
    31  H    3.762090   2.766802   4.184391   5.180614   6.503904
    32  H    2.466412   2.128019   2.709164   4.120898   5.062272
    33  H    1.904694   2.632778   2.440228   3.680017   4.239142
    34  H    2.108834   2.963766   3.566960   4.738450   5.620714
    35  H    0.985976   3.635426   3.979194   5.476572   6.155382
    36  H    4.455870   1.096561   2.160593   2.792458   4.195850
    37  H    4.089499   1.096535   2.173164   2.740792   4.126249
    38  H    3.394848   2.194143   1.088781   2.042061   2.528583
    39  H    3.776730   2.171519   1.096997   2.168770   2.715999
    40  H    5.894095   2.777638   2.134101   1.092014   2.175464
    41  H    5.529306   2.722763   2.126071   1.097245   2.153335
    42  H    5.495630   4.119003   2.703217   2.176247   1.100160
    43  H    5.822151   4.146297   2.684807   2.166995   1.097783
    44  H    7.783090   5.135512   4.085836   2.701581   2.151892
    45  H    7.528444   5.123773   4.100847   2.724148   2.150481
    46  H    8.018577   6.301916   4.891015   3.923300   2.531181
                   16         17         18         19         20
    16  C    0.000000
    17  O    1.415756   0.000000
    18  H   10.159367  10.812501   0.000000
    19  H   10.969998  11.759015   1.775686   0.000000
    20  H    9.371036  10.122307   1.748175   1.723140   0.000000
    21  H   10.624095  11.501045   2.480740   2.409648   3.078278
    22  H    8.984745   9.822888   2.373073   3.068808   2.710855
    23  H    9.249476  10.334796   4.258444   4.002329   3.899356
    24  H   11.277995  12.290089   3.924572   2.426686   3.256057
    25  H   11.542149  12.640230   4.845850   3.725907   4.518283
    26  H   10.508485  11.665974   5.755218   4.488706   4.518793
    27  H    9.766833  11.017089   6.275696   5.633082   5.584928
    28  H    9.655409  10.958551   7.123443   6.279133   6.040186
    29  H   11.162529  12.430188   7.014544   5.953656   6.207186
    30  H    7.662792   8.883371   6.073429   5.582035   4.699101
    31  H    7.607789   8.832731   5.661096   5.446310   4.714986
    32  H    6.436252   7.426282   5.016434   5.070115   3.595761
    33  H    5.627576   6.449455   4.670484   5.555859   4.141944
    34  H    6.892086   7.864759   4.270220   4.871011   3.861719
    35  H    7.629795   8.447080   3.062835   3.387408   1.786659
    36  H    5.185146   6.450482   7.205961   7.256872   5.927304
    37  H    5.096149   6.365208   6.811152   7.112772   5.894036
    38  H    3.930054   4.820180   6.286002   7.086277   5.548093
    39  H    4.116043   5.005649   6.655827   7.169796   5.526865
    40  H    2.725032   4.032924   8.848292   9.275571   7.749846
    41  H    2.717304   4.027674   8.425351   9.053436   7.621422
    42  H    2.149370   2.649610   8.232952   9.219524   7.632483
    43  H    2.159884   2.646104   8.622519   9.403619   7.724579
    44  H    1.093992   2.053233  10.704796  11.372658   9.767826
    45  H    1.094518   2.048509  10.375031  11.209306   9.683525
    46  H    1.940366   0.972473  10.735134  11.651083   9.973077
                   21         22         23         24         25
    21  H    0.000000
    22  H    1.713098   0.000000
    23  H    2.498203   2.327901   0.000000
    24  H    2.885225   3.816074   3.143478   0.000000
    25  H    2.873756   3.950175   2.516029   1.779744   0.000000
    26  H    4.793013   5.109215   3.623522   2.452398   2.914504
    27  H    4.457037   4.505858   2.190936   3.893377   2.847892
    28  H    5.707437   5.656227   3.544785   4.351675   3.824418
    29  H    5.216076   5.680618   3.486121   3.714313   2.709786
    30  H    5.482713   4.832437   3.554287   4.483068   4.730100
    31  H    4.606531   3.847351   2.306832   4.451434   4.180357
    32  H    5.399299   4.267810   4.255730   5.086572   5.825141
    33  H    5.054036   3.391068   4.248171   6.168850   6.499732
    34  H    3.820650   2.303435   2.624727   5.043430   5.028196
    35  H    3.892299   2.792292   3.664833   4.151373   5.080472
    36  H    7.072149   5.878057   5.210439   6.759133   7.020922
    37  H    6.381306   5.055283   4.437498   6.718332   6.652818
    38  H    6.732638   5.100206   5.614757   7.534156   7.879299
    39  H    7.327283   5.858019   6.182052   7.505899   8.126840
    40  H    9.048843   7.586539   7.373242   9.168995   9.445848
    41  H    8.411518   6.866423   6.748379   9.029586   9.068530
    42  H    8.870341   7.182970   7.834688   9.825249  10.161181
    43  H    9.443740   7.837697   8.357950   9.932420  10.481301
    44  H   11.122359   9.536861   9.608739  11.520048  11.807344
    45  H   10.627176   8.991800   9.154577  11.426056  11.523899
    46  H   11.593863   9.933983  10.517728  12.255385  12.738268
                   26         27         28         29         30
    26  H    0.000000
    27  H    3.102981   0.000000
    28  H    2.499316   1.772863   0.000000
    29  H    2.516749   1.755564   1.763089   0.000000
    30  H    2.931546   3.205225   2.478327   3.910531   0.000000
    31  H    3.578839   2.248992   2.571096   3.659369   1.757495
    32  H    4.460745   5.014397   4.792071   5.951376   2.406652
    33  H    6.299097   5.673385   6.205024   7.119234   4.326776
    34  H    5.272650   4.154342   5.008401   5.687414   3.696606
    35  H    4.556680   5.167746   5.463611   6.105430   3.600283
    36  H    5.471365   5.185743   4.657741   6.252761   2.559257
    37  H    5.845107   4.670829   4.735579   6.116586   3.116123
    38  H    7.214000   6.615444   6.824709   8.045107   4.726824
    39  H    6.856549   6.931447   6.719711   8.090826   4.332489
    40  H    8.057073   7.555150   7.164063   8.769604   5.158808
    41  H    8.218667   7.122541   7.134833   8.582125   5.377488
    42  H    9.460082   8.764510   8.921141  10.234926   6.834938
    43  H    9.312707   9.112786   8.946582  10.389509   6.661751
    44  H   10.532690   9.921346   9.619645  11.214582   7.646157
    45  H   10.672569   9.611185   9.612455  11.083386   7.811254
    46  H   11.627148  11.237860  11.093795  12.578586   8.901339
                   31         32         33         34         35
    31  H    0.000000
    32  H    3.046428   0.000000
    33  H    3.705366   2.747631   0.000000
    34  H    2.534691   3.070602   1.717522   0.000000
    35  H    3.649033   1.971493   2.609122   2.688040   0.000000
    36  H    3.097402   2.447181   3.687000   3.936317   4.270662
    37  H    2.558390   3.046325   2.873370   2.828833   4.263949
    38  H    4.425432   3.105811   1.733106   3.150079   3.834537
    39  H    4.705476   2.473954   2.853264   4.122671   3.787765
    40  H    5.414258   4.346670   4.516439   5.435141   5.968776
    41  H    5.039829   4.630956   3.806029   4.605597   5.869208
    42  H    6.583487   5.222452   3.827541   5.292475   5.981470
    43  H    6.865250   4.951992   4.492613   5.997689   6.044585
    44  H    7.783409   6.593307   6.214974   7.400209   8.000980
    45  H    7.544036   6.801447   5.738074   6.831890   7.944607
    46  H    9.012986   7.300472   6.556266   8.062660   8.329474
                   36         37         38         39         40
    36  H    0.000000
    37  H    1.767693   0.000000
    38  H    3.085226   2.550943   0.000000
    39  H    2.517537   3.081555   1.746404   0.000000
    40  H    2.603280   3.089061   2.971488   2.523062   0.000000
    41  H    3.110298   2.484688   2.381144   3.061705   1.777064
    42  H    4.713102   4.307552   2.303699   3.051859   3.090959
    43  H    4.399346   4.675747   2.867258   2.481043   2.546311
    44  H    5.095813   5.302578   4.487955   4.316257   2.494394
    45  H    5.388715   4.992093   4.140614   4.669567   3.079128
    46  H    6.497309   6.630628   4.931711   4.830223   4.137377
                   41         42         43         44         45
    41  H    0.000000
    42  H    2.506285   0.000000
    43  H    3.069208   1.747668   0.000000
    44  H    3.056987   3.061698   2.524021   0.000000
    45  H    2.508102   2.490247   3.066848   1.776486   0.000000
    46  H    4.456823   2.890349   2.353234   2.303876   2.843368
                   46
    46  H    0.000000
 Stoichiometry    C14H29NO2
 Framework group  C1[X(C14H29NO2)]
 Deg. of freedom   132
 Full point group                 C1      NOp   1
 Largest Abelian subgroup         C1      NOp   1
 Largest concise Abelian subgroup C1      NOp   1
                         Standard orientation:                         
 ---------------------------------------------------------------------
 Center     Atomic      Atomic             Coordinates (Angstroms)
 Number     Number       Type             X           Y           Z
 ---------------------------------------------------------------------
      1          6           0       -3.325027    2.673129   -0.447815
      2          6           0       -3.255340    1.759078    0.773268
      3          6           0       -3.257624    0.236485    0.584096
      4          6           0       -4.599662   -0.280360    0.020770
      5          6           0       -3.762244   -1.451762   -0.525262
      6          6           0       -3.676435   -2.645767    0.436734
      7          7           0       -2.593950   -0.461870   -0.578252
      8          6           0       -1.328318   -1.162897   -0.248391
      9          6           0       -0.054545   -0.296566   -0.413368
     10          6           0       -0.096092    0.933876    0.493919
     11          8           0       -0.708798    1.989872   -0.187198
     12          6           0        1.234183   -1.065345   -0.120086
     13          6           0        2.433749   -0.133107   -0.319383
     14          6           0        3.732593   -0.787137    0.050927
     15          6           0        4.846837    0.241939   -0.078849
     16          6           0        6.163429   -0.402255    0.288513
     17          8           0        7.214181    0.535839    0.146150
     18          1           0       -3.120793    3.702374   -0.121346
     19          1           0       -4.304057    2.648313   -0.922532
     20          1           0       -2.622851    2.467749   -1.254426
     21          1           0       -4.122883    2.014080    1.395080
     22          1           0       -2.410053    2.038038    1.413682
     23          1           0       -2.996902   -0.210235    1.555106
     24          1           0       -5.040227    0.341075   -0.769188
     25          1           0       -5.368457   -0.498050    0.765616
     26          1           0       -4.095342   -1.796632   -1.511927
     27          1           0       -3.333074   -2.372185    1.440390
     28          1           0       -3.005699   -3.418151    0.046897
     29          1           0       -4.663179   -3.106413    0.560768
     30          1           0       -1.226413   -2.008573   -0.947754
     31          1           0       -1.335248   -1.597388    0.757494
     32          1           0       -0.013897    0.002953   -1.472676
     33          1           0        0.849272    1.395439    0.733088
     34          1           0       -0.536308    0.699567    1.471880
     35          1           0       -1.087715    1.588595   -1.004234
     36          1           0        1.326768   -1.927576   -0.791228
     37          1           0        1.214485   -1.449326    0.906832
     38          1           0        2.401897    0.735231    0.336681
     39          1           0        2.443241    0.260255   -1.343384
     40          1           0        3.907771   -1.652041   -0.592305
     41          1           0        3.672016   -1.132430    1.090663
     42          1           0        4.662738    1.110323    0.571051
     43          1           0        4.882046    0.645237   -1.099261
     44          1           0        6.360376   -1.261866   -0.358866
     45          1           0        6.139065   -0.747197    1.326969
     46          1           0        7.204981    0.840357   -0.777369
 ---------------------------------------------------------------------
 Rotational constants (GHZ):           0.9844315           0.1488411           0.1336835
 Standard basis: 6-31G(2df,p) (6D, 7F)
 There are   672 symmetry adapted cartesian basis functions of A   symmetry.
 There are   621 symmetry adapted basis functions of A   symmetry.
   621 basis functions,   951 primitive gaussians,   672 cartesian basis functions
    68 alpha electrons       68 beta electrons
       nuclear repulsion energy      1304.2447322781 Hartrees.
 NAtoms=   46 NActive=   46 NUniq=   46 SFac= 1.00D+00 NAtFMM=   60 NAOKFM=F Big=F
 Integral buffers will be    131072 words long.
 Raffenetti 2 integral format.
 Two-electron integral symmetry is turned on.
 One-electron integrals computed using PRISM.
 PrsmSu:  requested number of processors reduced to:  12 ShMem   1 Linda.
 NBasis=   621 RedAO= T EigKep=  2.63D-04  NBF=   621
 NBsUse=   621 1.00D-06 EigRej= -1.00D+00 NBFU=   621
 ExpMin= 1.61D-01 ExpMax= 5.48D+03 ExpMxC= 8.25D+02 IAcc=3 IRadAn=         5 AccDes= 0.00D+00
 Harris functional with IExCor=  402 and IRadAn=       5 diagonalized for initial guess.
 HarFok:  IExCor=  402 AccDes= 0.00D+00 IRadAn=         5 IDoV= 1 UseB2=F ITyADJ=14
 ICtDFT=  3500011 ScaDFX=  1.000000  1.000000  1.000000  1.000000
 FoFCou: FMM=F IPFlag=           0 FMFlag=      100000 FMFlg1=           0
         NFxFlg=           0 DoJE=T BraDBF=F KetDBF=T FulRan=T
         wScrn=  0.000000 ICntrl=       500 IOpCl=  0 I1Cent=   200000004 NGrid=           0
         NMat0=    1 NMatS0=      1 NMatT0=    0 NMatD0=    1 NMtDS0=    0 NMtDT0=    0
 Petite list used in FoFCou.
 Requested convergence on RMS density matrix=1.00D-08 within 128 cycles.
 Requested convergence on MAX density matrix=1.00D-06.
 Requested convergence on             energy=1.00D-06.
 No special actions if energy rises.
 Integral accuracy reduced to 1.0D-05 until final iterations.
 Initial convergence to 1.0D-05 achieved.  Increase integral accuracy.
 SCF Done:  E(RB3LYP) =  -756.117227550     A.U. after   12 cycles
            NFock= 12  Conv=0.58D-08     -V/T= 2.0076

 **********************************************************************

            Population analysis using the SCF density.

 **********************************************************************

 Orbital symmetries:
       Occupied  (A) (A) (A) (A) (A) (A) (A) (A) (A) (A) (A) (A)
                 (A) (A) (A) (A) (A) (A) (A) (A) (A) (A) (A) (A)
                 (A) (A) (A) (A) (A) (A) (A) (A) (A) (A) (A) (A)
                 (A) (A) (A) (A) (A) (A) (A) (A) (A) (A) (A) (A)
                 (A) (A) (A) (A) (A) (A) (A) (A) (A) (A) (A) (A)
                 (A) (A) (A) (A) (A) (A) (A) (A)
       Virtual   (A) (A) (A) (A) (A) (A) (A) (A) (A) (A) (A) (A)
                 (A) (A) (A) (A) (A) (A) (A) (A) (A) (A) (A) (A)
                 (A) (A) (A) (A) (A) (A) (A) (A) (A) (A) (A) (A)
                 (A) (A) (A) (A) (A) (A) (A) (A) (A) (A) (A) (A)
                 (A) (A) (A) (A) (A) (A) (A) (A) (A) (A) (A) (A)
                 (A) (A) (A) (A) (A) (A) (A) (A) (A) (A) (A) (A)
                 (A) (A) (A) (A) (A) (A) (A) (A) (A) (A) (A) (A)
                 (A) (A) (A) (A) (A) (A) (A) (A) (A) (A) (A) (A)
                 (A) (A) (A) (A) (A) (A) (A) (A) (A) (A) (A) (A)
                 (A) (A) (A) (A) (A) (A) (A) (A) (A) (A) (A) (A)
                 (A) (A) (A) (A) (A) (A) (A) (A) (A) (A) (A) (A)
                 (A) (A) (A) (A) (A) (A) (A) (A) (A) (A) (A) (A)
                 (A) (A) (A) (A) (A) (A) (A) (A) (A) (A) (A) (A)
                 (A) (A) (A) (A) (A) (A) (A) (A) (A) (A) (A) (A)
                 (A) (A) (A) (A) (A) (A) (A) (A) (A) (A) (A) (A)
                 (A) (A) (A) (A) (A) (A) (A) (A) (A) (A) (A) (A)
                 (A) (A) (A) (A) (A) (A) (A) (A) (A) (A) (A) (A)
                 (A) (A) (A) (A) (A) (A) (A) (A) (A) (A) (A) (A)
                 (A) (A) (A) (A) (A) (A) (A) (A) (A) (A) (A) (A)
                 (A) (A) (A) (A) (A) (A) (A) (A) (A) (A) (A) (A)
                 (A) (A) (A) (A) (A) (A) (A) (A) (A) (A) (A) (A)
                 (A) (A) (A) (A) (A) (A) (A) (A) (A) (A) (A) (A)
                 (A) (A) (A) (A) (A) (A) (A) (A) (A) (A) (A) (A)
                 (A) (A) (A) (A) (A) (A) (A) (A) (A) (A) (A) (A)
                 (A) (A) (A) (A) (A) (A) (A) (A) (A) (A) (A) (A)
                 (A) (A) (A) (A) (A) (A) (A) (A) (A) (A) (A) (A)
                 (A) (A) (A) (A) (A) (A) (A) (A) (A) (A) (A) (A)
                 (A) (A) (A) (A) (A) (A) (A) (A) (A) (A) (A) (A)
                 (A) (A) (A) (A) (A) (A) (A) (A) (A) (A) (A) (A)
                 (A) (A) (A) (A) (A) (A) (A) (A) (A) (A) (A) (A)
                 (A) (A) (A) (A) (A) (A) (A) (A) (A) (A) (A) (A)
                 (A) (A) (A) (A) (A) (A) (A) (A) (A) (A) (A) (A)
                 (A) (A) (A) (A) (A) (A) (A) (A) (A) (A) (A) (A)
                 (A) (A) (A) (A) (A) (A) (A) (A) (A) (A) (A) (A)
                 (A) (A) (A) (A) (A) (A) (A) (A) (A) (A) (A) (A)
                 (A) (A) (A) (A) (A) (A) (A) (A) (A) (A) (A) (A)
                 (A) (A) (A) (A) (A) (A) (A) (A) (A) (A) (A) (A)
                 (A) (A) (A) (A) (A) (A) (A) (A) (A) (A) (A) (A)
                 (A) (A) (A) (A) (A) (A) (A) (A) (A) (A) (A) (A)
                 (A) (A) (A) (A) (A) (A) (A) (A) (A) (A) (A) (A)
                 (A) (A) (A) (A) (A) (A) (A) (A) (A) (A) (A) (A)
                 (A) (A) (A) (A) (A) (A) (A) (A) (A) (A) (A) (A)
                 (A) (A) (A) (A) (A) (A) (A) (A) (A) (A) (A) (A)
                 (A) (A) (A) (A) (A) (A) (A) (A) (A) (A) (A) (A)
                 (A) (A) (A) (A) (A) (A) (A) (A) (A) (A) (A) (A)
                 (A) (A) (A) (A) (A) (A) (A) (A) (A) (A) (A) (A)
                 (A)
 The electronic state is 1-A.
 Alpha  occ. eigenvalues --  -19.12480 -19.11848 -14.32483 -10.21836 -10.21081
 Alpha  occ. eigenvalues --  -10.20984 -10.20447 -10.20180 -10.18630 -10.18106
 Alpha  occ. eigenvalues --  -10.17936 -10.17621 -10.17561 -10.17329 -10.17137
 Alpha  occ. eigenvalues --  -10.16390 -10.15743  -1.01030  -1.00734  -0.93137
 Alpha  occ. eigenvalues --   -0.82393  -0.79454  -0.76225  -0.75158  -0.71964
 Alpha  occ. eigenvalues --   -0.70624  -0.66258  -0.64698  -0.64388  -0.60445
 Alpha  occ. eigenvalues --   -0.58485  -0.58209  -0.57562  -0.52522  -0.50378
 Alpha  occ. eigenvalues --   -0.49542  -0.48149  -0.47750  -0.47123  -0.45580
 Alpha  occ. eigenvalues --   -0.44424  -0.43871  -0.42872  -0.42593  -0.41773
 Alpha  occ. eigenvalues --   -0.40381  -0.39952  -0.39645  -0.39492  -0.38068
 Alpha  occ. eigenvalues --   -0.37775  -0.36610  -0.35544  -0.35037  -0.34903
 Alpha  occ. eigenvalues --   -0.34658  -0.33944  -0.33539  -0.33065  -0.32825
 Alpha  occ. eigenvalues --   -0.31619  -0.30926  -0.29452  -0.29138  -0.27836
 Alpha  occ. eigenvalues --   -0.25463  -0.24519  -0.23356
 Alpha virt. eigenvalues --    0.07540   0.07589   0.08189   0.08456   0.09299
 Alpha virt. eigenvalues --    0.10013   0.10908   0.11276   0.11620   0.12412
 Alpha virt. eigenvalues --    0.13179   0.13719   0.13814   0.14880   0.15528
 Alpha virt. eigenvalues --    0.15853   0.16505   0.16959   0.17183   0.17555
 Alpha virt. eigenvalues --    0.18092   0.18634   0.19532   0.19683   0.20086
 Alpha virt. eigenvalues --    0.20348   0.20582   0.21070   0.21660   0.22156
 Alpha virt. eigenvalues --    0.22582   0.23137   0.23545   0.24423   0.25190
 Alpha virt. eigenvalues --    0.25363   0.26170   0.26780   0.27297   0.28374
 Alpha virt. eigenvalues --    0.29268   0.31635   0.31720   0.33830   0.34646
 Alpha virt. eigenvalues --    0.35929   0.41725   0.43058   0.45251   0.45926
 Alpha virt. eigenvalues --    0.46342   0.47003   0.48097   0.49477   0.49514
 Alpha virt. eigenvalues --    0.50377   0.51608   0.51810   0.52230   0.52739
 Alpha virt. eigenvalues --    0.53147   0.53933   0.54601   0.55036   0.56287
 Alpha virt. eigenvalues --    0.56869   0.57883   0.58739   0.58920   0.59342
 Alpha virt. eigenvalues --    0.60035   0.61980   0.62510   0.63261   0.63965
 Alpha virt. eigenvalues --    0.64377   0.64623   0.66179   0.66885   0.67324
 Alpha virt. eigenvalues --    0.68403   0.68579   0.69156   0.70960   0.71377
 Alpha virt. eigenvalues --    0.71951   0.72689   0.73252   0.73383   0.73840
 Alpha virt. eigenvalues --    0.74188   0.74805   0.75313   0.75923   0.76316
 Alpha virt. eigenvalues --    0.76695   0.77203   0.77959   0.78220   0.78896
 Alpha virt. eigenvalues --    0.79288   0.79847   0.80558   0.81312   0.81982
 Alpha virt. eigenvalues --    0.82641   0.82717   0.83268   0.83526   0.84060
 Alpha virt. eigenvalues --    0.84408   0.84590   0.85522   0.86228   0.86823
 Alpha virt. eigenvalues --    0.87251   0.87607   0.89394   0.90169   0.90993
 Alpha virt. eigenvalues --    0.92124   0.92555   0.92836   0.93786   0.95749
 Alpha virt. eigenvalues --    0.98102   0.98710   0.99779   1.00238   1.01187
 Alpha virt. eigenvalues --    1.03012   1.03563   1.05413   1.06019   1.07477
 Alpha virt. eigenvalues --    1.07869   1.09981   1.10817   1.12395   1.13371
 Alpha virt. eigenvalues --    1.14218   1.16052   1.16562   1.18555   1.19271
 Alpha virt. eigenvalues --    1.20216   1.21420   1.22432   1.23863   1.26078
 Alpha virt. eigenvalues --    1.26277   1.27482   1.27839   1.30062   1.32892
 Alpha virt. eigenvalues --    1.32975   1.33653   1.34499   1.34766   1.35574
 Alpha virt. eigenvalues --    1.36729   1.37773   1.39369   1.40150   1.40402
 Alpha virt. eigenvalues --    1.41136   1.41692   1.43052   1.44367   1.45734
 Alpha virt. eigenvalues --    1.46882   1.47799   1.47887   1.49459   1.51808
 Alpha virt. eigenvalues --    1.52592   1.53979   1.54679   1.55406   1.56828
 Alpha virt. eigenvalues --    1.57265   1.58083   1.58437   1.60025   1.60531
 Alpha virt. eigenvalues --    1.61005   1.62554   1.63284   1.64375   1.65374
 Alpha virt. eigenvalues --    1.65848   1.67843   1.69209   1.70324   1.71219
 Alpha virt. eigenvalues --    1.72247   1.72753   1.73569   1.73864   1.75171
 Alpha virt. eigenvalues --    1.75914   1.77803   1.78994   1.79499   1.80911
 Alpha virt. eigenvalues --    1.83418   1.85390   1.86455   1.86704   1.88314
 Alpha virt. eigenvalues --    1.89345   1.90735   1.92152   1.92784   1.93289
 Alpha virt. eigenvalues --    1.94355   1.94775   1.96038   1.97545   1.98403
 Alpha virt. eigenvalues --    1.98807   2.02743   2.03324   2.04173   2.06285
 Alpha virt. eigenvalues --    2.08262   2.10051   2.12690   2.14679   2.15429
 Alpha virt. eigenvalues --    2.17548   2.18771   2.20019   2.20554   2.23215
 Alpha virt. eigenvalues --    2.24392   2.24648   2.27203   2.29625   2.30378
 Alpha virt. eigenvalues --    2.30921   2.31660   2.33317   2.33839   2.34616
 Alpha virt. eigenvalues --    2.35196   2.35750   2.37650   2.39745   2.41669
 Alpha virt. eigenvalues --    2.43250   2.44513   2.45457   2.45831   2.48404
 Alpha virt. eigenvalues --    2.50682   2.51663   2.53354   2.55079   2.56602
 Alpha virt. eigenvalues --    2.57765   2.59756   2.61598   2.63514   2.63612
 Alpha virt. eigenvalues --    2.65652   2.66297   2.69204   2.70198   2.70982
 Alpha virt. eigenvalues --    2.71595   2.72454   2.73749   2.74313   2.75528
 Alpha virt. eigenvalues --    2.76453   2.77426   2.77727   2.78099   2.79694
 Alpha virt. eigenvalues --    2.80508   2.81346   2.81714   2.82572   2.82880
 Alpha virt. eigenvalues --    2.83190   2.83450   2.84166   2.85231   2.85498
 Alpha virt. eigenvalues --    2.86318   2.87321   2.88125   2.88912   2.89652
 Alpha virt. eigenvalues --    2.89913   2.90520   2.91896   2.92630   2.92848
 Alpha virt. eigenvalues --    2.93514   2.94609   2.95728   2.96344   2.96681
 Alpha virt. eigenvalues --    2.98042   2.98700   2.99552   3.00476   3.01414
 Alpha virt. eigenvalues --    3.01886   3.02289   3.03690   3.04446   3.05710
 Alpha virt. eigenvalues --    3.08000   3.08379   3.09391   3.11644   3.12330
 Alpha virt. eigenvalues --    3.14334   3.14915   3.16002   3.17867   3.19269
 Alpha virt. eigenvalues --    3.20757   3.21090   3.21623   3.24859   3.25216
 Alpha virt. eigenvalues --    3.27575   3.28041   3.28473   3.30777   3.32088
 Alpha virt. eigenvalues --    3.32840   3.34655   3.36493   3.36952   3.38139
 Alpha virt. eigenvalues --    3.38962   3.39847   3.40757   3.41347   3.43613
 Alpha virt. eigenvalues --    3.43886   3.44928   3.45676   3.46876   3.49001
 Alpha virt. eigenvalues --    3.49319   3.51945   3.52567   3.53192   3.54476
 Alpha virt. eigenvalues --    3.54913   3.56438   3.57290   3.58799   3.60204
 Alpha virt. eigenvalues --    3.60608   3.61921   3.62165   3.62619   3.63684
 Alpha virt. eigenvalues --    3.64738   3.65412   3.67599   3.69754   3.70872
 Alpha virt. eigenvalues --    3.71414   3.72049   3.73979   3.75101   3.76403
 Alpha virt. eigenvalues --    3.77181   3.78711   3.79022   3.79931   3.81155
 Alpha virt. eigenvalues --    3.84217   3.84925   3.85684   3.86578   3.89252
 Alpha virt. eigenvalues --    3.90354   3.93937   3.94832   3.96329   3.98569
 Alpha virt. eigenvalues --    4.00238   4.01978   4.03100   4.05805   4.09823
 Alpha virt. eigenvalues --    4.11965   4.15533   4.16458   4.16999   4.20210
 Alpha virt. eigenvalues --    4.21669   4.23174   4.25747   4.29024   4.30899
 Alpha virt. eigenvalues --    4.31736   4.34163   4.34921   4.37461   4.38577
 Alpha virt. eigenvalues --    4.39976   4.40229   4.41872   4.42759   4.43600
 Alpha virt. eigenvalues --    4.44842   4.45373   4.46178   4.47525   4.48280
 Alpha virt. eigenvalues --    4.48583   4.49766   4.50745   4.51043   4.52597
 Alpha virt. eigenvalues --    4.54326   4.55244   4.55693   4.56835   4.57042
 Alpha virt. eigenvalues --    4.57987   4.58574   4.59310   4.60493   4.60974
 Alpha virt. eigenvalues --    4.61659   4.62405   4.62716   4.64514   4.65040
 Alpha virt. eigenvalues --    4.65663   4.65900   4.66765   4.67527   4.68402
 Alpha virt. eigenvalues --    4.69101   4.69540   4.69595   4.70915   4.72836
 Alpha virt. eigenvalues --    4.73094   4.74434   4.74911   4.75731   4.76259
 Alpha virt. eigenvalues --    4.76748   4.77229   4.78022   4.78346   4.79420
 Alpha virt. eigenvalues --    4.79808   4.80549   4.80935   4.81404   4.82077
 Alpha virt. eigenvalues --    4.82757   4.84205   4.85688   4.86465   4.88066
 Alpha virt. eigenvalues --    4.88463   4.89453   4.90202   4.90908   4.91515
 Alpha virt. eigenvalues --    4.92811   4.94109   4.94666   4.95027   4.95958
 Alpha virt. eigenvalues --    4.96563   4.97596   4.98340   5.00658   5.01963
 Alpha virt. eigenvalues --    5.04432   5.05154   5.05992   5.06461   5.11348
 Alpha virt. eigenvalues --    5.12885   5.16293   5.17651   5.21114   5.24197
 Alpha virt. eigenvalues --    5.24331   5.27050   5.30250   5.30788   5.33759
 Alpha virt. eigenvalues --    5.35210   5.37541   5.39111   5.39743   5.41379
 Alpha virt. eigenvalues --    5.43756   5.45257   5.46274   5.48645   5.49605
 Alpha virt. eigenvalues --    5.51117   5.53381   5.53955   5.54598   5.55943
 Alpha virt. eigenvalues --    5.58130   5.60006   5.65034   5.66288   5.68072
 Alpha virt. eigenvalues --    5.74350   5.76852   5.90806   5.92720   5.97334
 Alpha virt. eigenvalues --    6.03069   6.05300   6.06243   6.10495   6.18772
 Alpha virt. eigenvalues --    6.20546   6.44583   6.80969   7.02920   7.25407
 Alpha virt. eigenvalues --   11.10091  11.21082  11.41135  11.42780  11.61619
 Alpha virt. eigenvalues --   11.79588  11.95706  12.06206  12.07808  12.25044
 Alpha virt. eigenvalues --   12.33487  12.41450  12.49456  12.69972  12.93983
 Alpha virt. eigenvalues --   13.17214  13.44680  19.01060
          Condensed to atoms (all electrons):
               1          2          3          4          5          6
     1  C    4.919511   0.408681  -0.020019  -0.005809   0.000525   0.000032
     2  C    0.408681   4.886440   0.405432  -0.039290   0.004805   0.000069
     3  C   -0.020019   0.405432   4.707065   0.369208  -0.088699  -0.000509
     4  C   -0.005809  -0.039290   0.369208   5.031397   0.353871  -0.028180
     5  C    0.000525   0.004805  -0.088699   0.353871   4.741879   0.379106
     6  C    0.000032   0.000069  -0.000509  -0.028180   0.379106   5.050205
     7  N   -0.002051  -0.023123   0.347967  -0.073338   0.365848  -0.035303
     8  C    0.000008   0.003455  -0.066338   0.011248  -0.063457  -0.010559
     9  C   -0.000155  -0.000049  -0.000729  -0.000064   0.003048   0.000507
    10  C    0.001268  -0.002137   0.004039  -0.000160   0.000026  -0.000012
    11  O   -0.006165  -0.007822  -0.001546   0.000005   0.000254  -0.000004
    12  C   -0.000004   0.000005  -0.000081   0.000006  -0.000129   0.000021
    13  C    0.000000  -0.000001   0.000002  -0.000000   0.000001   0.000000
    14  C   -0.000000   0.000000  -0.000000   0.000000  -0.000000   0.000000
    15  C    0.000000  -0.000000   0.000000  -0.000000   0.000000   0.000000
    16  C    0.000000  -0.000000   0.000000   0.000000  -0.000000   0.000000
    17  O    0.000000  -0.000000   0.000000   0.000000   0.000000   0.000000
    18  H    0.374032  -0.020176   0.002724   0.000097  -0.000002   0.000000
    19  H    0.366572  -0.029703  -0.002981   0.001147  -0.000141  -0.000000
    20  H    0.381229  -0.030635  -0.005854  -0.000283   0.000018   0.000003
    21  H   -0.038552   0.346529  -0.025615  -0.010533   0.000444  -0.000001
    22  H   -0.035639   0.358006  -0.025922   0.006063  -0.000410   0.000001
    23  H    0.005931  -0.055761   0.360122  -0.038831   0.003149   0.004104
    24  H    0.003160  -0.009140  -0.010392   0.354593  -0.012897   0.004219
    25  H   -0.000074   0.001770  -0.022138   0.355412  -0.023087  -0.006466
    26  H   -0.000043  -0.000464   0.006944  -0.036132   0.365694  -0.067019
    27  H   -0.000001  -0.000219   0.002720  -0.004903  -0.019595   0.369200
    28  H    0.000000  -0.000013  -0.000743   0.004200  -0.024682   0.372789
    29  H   -0.000000   0.000008  -0.000205  -0.003708  -0.017727   0.367767
    30  H    0.000001  -0.000185   0.005436  -0.000281  -0.008715  -0.000840
    31  H    0.000058  -0.000598  -0.011596   0.001394  -0.007002   0.006020
    32  H   -0.000008  -0.000130   0.000118   0.000025  -0.000275   0.000027
    33  H   -0.000033   0.000269  -0.000054  -0.000005   0.000010  -0.000000
    34  H   -0.000062  -0.000655   0.000859   0.000130  -0.000349   0.000029
    35  H   -0.000684  -0.001710  -0.000239   0.000114  -0.000104   0.000018
    36  H    0.000000  -0.000000   0.000001  -0.000000  -0.000004   0.000001
    37  H   -0.000000  -0.000002   0.000003   0.000000  -0.000000  -0.000005
    38  H    0.000000  -0.000000  -0.000000   0.000000   0.000000  -0.000000
    39  H   -0.000000   0.000000  -0.000000  -0.000000   0.000000  -0.000000
    40  H    0.000000  -0.000000  -0.000000   0.000000   0.000000   0.000000
    41  H   -0.000000   0.000000  -0.000000  -0.000000   0.000000   0.000000
    42  H    0.000000  -0.000000   0.000000  -0.000000   0.000000   0.000000
    43  H    0.000000  -0.000000  -0.000000  -0.000000   0.000000   0.000000
    44  H    0.000000  -0.000000   0.000000  -0.000000   0.000000   0.000000
    45  H    0.000000  -0.000000   0.000000   0.000000   0.000000   0.000000
    46  H   -0.000000  -0.000000   0.000000   0.000000  -0.000000   0.000000
               7          8          9         10         11         12
     1  C   -0.002051   0.000008  -0.000155   0.001268  -0.006165  -0.000004
     2  C   -0.023123   0.003455  -0.000049  -0.002137  -0.007822   0.000005
     3  C    0.347967  -0.066338  -0.000729   0.004039  -0.001546  -0.000081
     4  C   -0.073338   0.011248  -0.000064  -0.000160   0.000005   0.000006
     5  C    0.365848  -0.063457   0.003048   0.000026   0.000254  -0.000129
     6  C   -0.035303  -0.010559   0.000507  -0.000012  -0.000004   0.000021
     7  N    6.361612   0.356452  -0.024211  -0.005624   0.002362   0.002269
     8  C    0.356452   4.964014   0.408220  -0.021340  -0.002735  -0.038746
     9  C   -0.024211   0.408220   4.744731   0.413444  -0.030464   0.379746
    10  C   -0.005624  -0.021340   0.413444   4.795924   0.352172  -0.037797
    11  O    0.002362  -0.002735  -0.030464   0.352172   7.876153   0.002765
    12  C    0.002269  -0.038746   0.379746  -0.037797   0.002765   4.951272
    13  C   -0.000026   0.001721  -0.031265  -0.010275   0.000687   0.419962
    14  C    0.000000  -0.000139   0.001395   0.001047  -0.000001  -0.039812
    15  C   -0.000000   0.000000  -0.000117   0.000022  -0.000000   0.001086
    16  C    0.000000  -0.000000   0.000000  -0.000000   0.000000  -0.000132
    17  O   -0.000000   0.000000  -0.000000  -0.000000   0.000000   0.000000
    18  H    0.000199  -0.000006   0.000006   0.000006   0.001016   0.000000
    19  H    0.000060  -0.000015   0.000022  -0.000081   0.000910  -0.000000
    20  H    0.003641  -0.000087  -0.000275   0.000200  -0.004945   0.000002
    21  H    0.002777  -0.000116   0.000010   0.000072   0.000928   0.000000
    22  H   -0.000144  -0.000059   0.000751  -0.003042   0.007479  -0.000002
    23  H   -0.053557  -0.010354  -0.000229  -0.001582  -0.000308   0.000036
    24  H   -0.003584  -0.000124   0.000008  -0.000002  -0.000001  -0.000000
    25  H    0.007119  -0.000698  -0.000000   0.000005  -0.000000  -0.000000
    26  H   -0.033572   0.002065  -0.000042  -0.000002   0.000001  -0.000001
    27  H   -0.005069  -0.001516   0.000079   0.000009   0.000000  -0.000001
    28  H   -0.001853   0.000924   0.000060   0.000001  -0.000000   0.000007
    29  H    0.002857   0.000028  -0.000015   0.000000   0.000000  -0.000000
    30  H   -0.017422   0.338857  -0.019554   0.005233  -0.000114  -0.005168
    31  H   -0.034190   0.341461  -0.030946  -0.011292  -0.000087  -0.001481
    32  H    0.000231  -0.039190   0.349255  -0.053560  -0.005001  -0.031384
    33  H    0.000083   0.003332  -0.021377   0.366110  -0.025084  -0.010138
    34  H   -0.002543  -0.003254  -0.040064   0.323824  -0.034244   0.001021
    35  H    0.009065   0.000116  -0.009146  -0.078195   0.304350   0.000196
    36  H    0.000058  -0.003745  -0.016699   0.004575  -0.000094   0.347375
    37  H    0.000009  -0.004627  -0.023327  -0.008849   0.000017   0.355310
    38  H    0.000002   0.000030  -0.005010  -0.006435  -0.000580  -0.032109
    39  H    0.000001   0.000198  -0.000552  -0.000473  -0.000124  -0.034655
    40  H   -0.000000   0.000002   0.000141  -0.000026   0.000000  -0.001009
    41  H    0.000000   0.000010   0.000282   0.000027  -0.000000  -0.003826
    42  H    0.000000   0.000000   0.000019  -0.000028   0.000000   0.000234
    43  H    0.000000   0.000000   0.000007   0.000002  -0.000000   0.000205
    44  H    0.000000   0.000000   0.000000  -0.000000   0.000000   0.000024
    45  H   -0.000000   0.000000  -0.000000  -0.000000   0.000000   0.000010
    46  H    0.000000   0.000000  -0.000000   0.000000   0.000000   0.000000
              13         14         15         16         17         18
     1  C    0.000000  -0.000000   0.000000   0.000000   0.000000   0.374032
     2  C   -0.000001   0.000000  -0.000000  -0.000000  -0.000000  -0.020176
     3  C    0.000002  -0.000000   0.000000   0.000000   0.000000   0.002724
     4  C   -0.000000   0.000000  -0.000000   0.000000   0.000000   0.000097
     5  C    0.000001  -0.000000   0.000000  -0.000000   0.000000  -0.000002
     6  C    0.000000   0.000000   0.000000   0.000000   0.000000   0.000000
     7  N   -0.000026   0.000000  -0.000000   0.000000  -0.000000   0.000199
     8  C    0.001721  -0.000139   0.000000  -0.000000   0.000000  -0.000006
     9  C   -0.031265   0.001395  -0.000117   0.000000  -0.000000   0.000006
    10  C   -0.010275   0.001047   0.000022  -0.000000  -0.000000   0.000006
    11  O    0.000687  -0.000001  -0.000000   0.000000   0.000000   0.001016
    12  C    0.419962  -0.039812   0.001086  -0.000132   0.000000   0.000000
    13  C    4.797068   0.413953  -0.027199   0.001181  -0.000082  -0.000000
    14  C    0.413953   4.898371   0.343052  -0.034303   0.003995   0.000000
    15  C   -0.027199   0.343052   4.938432   0.415444  -0.051526   0.000000
    16  C    0.001181  -0.034303   0.415444   4.733613   0.362417  -0.000000
    17  O   -0.000082   0.003995  -0.051526   0.362417   7.844480   0.000000
    18  H   -0.000000   0.000000   0.000000  -0.000000   0.000000   0.600657
    19  H   -0.000000   0.000000   0.000000  -0.000000   0.000000  -0.032377
    20  H    0.000000   0.000000   0.000000   0.000000  -0.000000  -0.032796
    21  H    0.000000  -0.000000   0.000000  -0.000000   0.000000  -0.000321
    22  H    0.000000   0.000000  -0.000000   0.000000   0.000000  -0.006004
    23  H    0.000002   0.000000   0.000000   0.000000   0.000000  -0.000142
    24  H    0.000000  -0.000000   0.000000  -0.000000   0.000000  -0.000142
    25  H    0.000000  -0.000000   0.000000  -0.000000   0.000000  -0.000004
    26  H   -0.000000   0.000000  -0.000000   0.000000   0.000000  -0.000001
    27  H    0.000000   0.000000  -0.000000   0.000000  -0.000000  -0.000000
    28  H   -0.000000   0.000000  -0.000000   0.000000  -0.000000  -0.000000
    29  H   -0.000000  -0.000000   0.000000  -0.000000   0.000000  -0.000000
    30  H    0.000061   0.000004   0.000000   0.000000  -0.000000  -0.000000
    31  H    0.000130   0.000012   0.000000   0.000000  -0.000000   0.000001
    32  H   -0.005375   0.000079   0.000008   0.000000   0.000000   0.000002
    33  H   -0.004658  -0.000085  -0.000014  -0.000000   0.000000   0.000005
    34  H    0.000509  -0.000096  -0.000001  -0.000000   0.000000  -0.000011
    35  H   -0.000001   0.000001   0.000000  -0.000000   0.000000  -0.000209
    36  H   -0.028831  -0.001714   0.000077   0.000010  -0.000000   0.000000
    37  H   -0.030066  -0.003797   0.000159   0.000006  -0.000000   0.000000
    38  H    0.371909  -0.038095  -0.003025   0.000256  -0.000003   0.000000
    39  H    0.367609  -0.034582  -0.002988   0.000105  -0.000002   0.000000
    40  H   -0.033976   0.364420  -0.033283  -0.003306   0.000054  -0.000000
    41  H   -0.028532   0.364702  -0.032510  -0.003976   0.000048   0.000000
    42  H   -0.004769  -0.024081   0.359233  -0.029100   0.003863  -0.000000
    43  H   -0.001775  -0.030368   0.362336  -0.036781  -0.000877  -0.000000
    44  H    0.000016   0.004766  -0.051358   0.361831  -0.030072  -0.000000
    45  H    0.000012  -0.004385  -0.024620   0.357637  -0.014026  -0.000000
    46  H   -0.000001  -0.000294  -0.002600  -0.068472   0.309791   0.000000
              19         20         21         22         23         24
     1  C    0.366572   0.381229  -0.038552  -0.035639   0.005931   0.003160
     2  C   -0.029703  -0.030635   0.346529   0.358006  -0.055761  -0.009140
     3  C   -0.002981  -0.005854  -0.025615  -0.025922   0.360122  -0.010392
     4  C    0.001147  -0.000283  -0.010533   0.006063  -0.038831   0.354593
     5  C   -0.000141   0.000018   0.000444  -0.000410   0.003149  -0.012897
     6  C   -0.000000   0.000003  -0.000001   0.000001   0.004104   0.004219
     7  N    0.000060   0.003641   0.002777  -0.000144  -0.053557  -0.003584
     8  C   -0.000015  -0.000087  -0.000116  -0.000059  -0.010354  -0.000124
     9  C    0.000022  -0.000275   0.000010   0.000751  -0.000229   0.000008
    10  C   -0.000081   0.000200   0.000072  -0.003042  -0.001582  -0.000002
    11  O    0.000910  -0.004945   0.000928   0.007479  -0.000308  -0.000001
    12  C   -0.000000   0.000002   0.000000  -0.000002   0.000036  -0.000000
    13  C   -0.000000   0.000000   0.000000   0.000000   0.000002   0.000000
[...]
 00000051,0.00000103,0.00000069,-0.00000070,0.00000067,-0.00000204,0.00
 000034,0.00000187,0.00000081,0.00000024,-0.00000071,0.00000094,0.00000
 228,-0.00000403,0.00000250,-0.00000015,0.00000204,-0.00000185,-0.00000
 445,-0.00000112,-0.00000164,-0.00000262,0.00000463,0.00000174,0.000014
 29,0.00000216,-0.00002923,-0.00000167,0.00000431,-0.00000274,0.0000000
 4,0.00000391,-0.00000062,0.00000641,-0.00000251,0.00000759,-0.00004423
 ,-0.00002406,-0.00000146,0.00004130,0.00011988,0.00012000,0.00007658,0
 .00011941,-0.00009098,0.00047101,0.00031133,-0.00036457,0.00048858,0.0
 0006496,0.00079345,-0.00160092,-0.00128756,-0.00306273,0.00775056,0.02
 510947,-0.00314934,0.07311630,0.00000061,-0.00000029,0.00000308,-0.000
 00264,-0.00000234,0.00000086,0.00000651,0.00000468,0.00000632,-0.00000
 216,0.00000386,-0.00000212,-0.00000837,-0.00004125,0.00000927,-0.00000
 239,0.00000825,-0.00000808,-0.00001255,0.00001846,-0.00004834,0.000034
 81,0.00000251,0.00001467,-0.00005988,-0.00004430,-0.00004313,-0.000049
 04,-0.00000654,0.00002619,0.00004317,0.00002350,-0.00006439,0.00013882
 ,0.00044420,-0.00024449,0.00004344,0.00005773,0.00098878,-0.00303152,-
 0.01013245,0.00070648,-0.06412346,-0.26856012,0.02889519,-0.00166705,-
 0.00437660,-0.00101656,0.00173095,0.00221868,0.00080864,-0.00000016,-0
 .00000028,0.00000044,0.00000127,0.00000212,-0.00000373,-0.00000169,-0.
 00000026,0.00000112,-0.00000059,-0.00000061,-0.00000171,0.00000278,0.0
 0000436,-0.00000127,-0.00000089,-0.00000082,-0.00000091,0.00000119,0.0
 0000051,-0.00000056,-0.00000094,0.00000226,-0.00000329,0.00000683,0.00
 000383,-0.00000022,0.00000426,0.00000035,0.00000452,-0.00000358,-0.000
 00771,0.00000429,-0.00000160,0.00000507,-0.00000578,-0.00000001,-0.000
 00509,-0.00000300,0.00000224,0.00000629,0.00000420,0.00000805,0.000023
 79,-0.00003638,-0.00001397,-0.00001415,0.00000555,0.00001499,0.0000202
 0,0.00000723,0.00000480,-0.00000650,0.00001098,0.00000698,-0.00002903,
 0.00001924,0.00012317,0.00011211,0.00022514,-0.00003547,-0.00002711,-0
 .00002430,0.00031336,0.00050259,-0.00085627,-0.00027406,0.00091305,-0.
 00021997,-0.00147858,0.00108995,-0.00167006,-0.00548142,-0.01817271,0.
 00229848,0.07509550,0.29354940,0.00000035,0.00000032,0.00000077,-0.000
 00084,-0.00000112,0.00000081,0.00000106,0.00000065,0.00000325,-0.00000
 060,0.00000085,-0.00000009,-0.00000133,-0.00001320,0.00000385,-0.00000
 115,0.00000224,-0.00000474,0.00000122,0.00000678,-0.00001031,-0.000001
 63,0.00000299,0.00002321,0.00003785,0.00007938,0.00002804,-0.00001940,
 -0.00000588,0.00000335,0.00001605,0.00000763,-0.00002252,-0.00014057,0
 .00000769,-0.00000879,-0.00030117,-0.00113988,0.00194797,-0.00792203,-
 0.02638737,0.00146575,0.00905084,0.02988698,-0.05006709,0.00958373,0.0
 3019438,-0.00660761,0.00001823,-0.00035882,0.00347322,-0.00000014,-0.0
 0000021,0.00000005,0.00000041,0.00000047,-0.00000099,-0.00000056,0.000
 00001,0.00000041,-0.00000024,-0.00000003,-0.00000083,0.00000093,0.0000
 0159,-0.00000029,-0.00000030,-0.00000039,-0.00000033,0.00000039,0.0000
 0036,0.00000003,-0.00000045,0.00000066,-0.00000090,0.00000192,0.000001
 10,-0.00000022,0.00000145,0.00000022,0.00000212,-0.00000145,-0.0000021
 1,0.00000116,-0.00000035,0.00000166,-0.00000109,0.00000059,-0.00000340
 ,-0.00000153,0.00000114,0.00000402,0.00000652,0.00002122,0.00002225,-0
 .00005187,-0.00000115,-0.00000764,0.00000099,0.00000482,0.00001326,0.0
 0000576,0.00000265,-0.00000186,0.00000437,-0.00000087,-0.00001530,0.00
 001948,0.00011639,0.00022938,0.00002071,0.00006771,0.00001360,-0.00008
 079,0.00018992,0.00064705,-0.00033951,0.00056325,0.00072604,0.00100192
 ,-0.00324049,-0.00156963,-0.00415748,0.00042449,0.00109069,-0.00046865
 ,-0.01002109,-0.03184727,0.05846436,-0.00000187,-0.00000016,-0.0000031
 7,-0.00000062,0.00000027,0.00000159,-0.00001337,-0.00000330,-0.0000062
 8,0.00000146,-0.00000061,0.00000011,-0.00000988,0.00002007,-0.00000475
 ,0.00000180,-0.00000656,0.00000079,0.00003381,-0.00001173,0.00002533,-
 0.00004154,0.00000589,0.00000527,0.00005295,0.00001621,0.00002355,-0.0
 0000840,-0.00000035,-0.00003881,0.00001249,-0.00000790,0.00003849,-0.0
 0006703,-0.00005491,0.00010269,0.00054624,-0.00020382,0.00032042,-0.00
 051336,0.00002158,-0.00055351,-0.01444163,0.01262358,0.00234529,-0.201
 18457,0.10812716,0.00543494,-0.02218231,0.00485459,-0.01574434,0.00000
 041,0.00000010,0.00000022,0.00000024,-0.00000032,0.00000059,0.00000097
 ,-0.00000072,0.00000004,0.00000175,0.00000024,0.00000242,-0.00000081,-
 0.00000033,-0.00000144,0.00000717,-0.00000065,0.00000047,0.00000061,-0
 .00000127,-0.00000136,0.00000114,-0.00000146,0.00000293,0.00000302,-0.
 00000133,-0.00000154,0.00000248,0.00000191,0.00000224,-0.00000438,0.00
 000373,-0.00000092,0.00000005,-0.00000158,0.00000174,0.00001029,-0.000
 00664,0.00000390,-0.00000078,0.00000091,0.00000139,-0.00000333,-0.0000
 0116,-0.00000260,0.00001190,-0.00000022,0.00000685,0.00000125,-0.00000
 018,0.00000202,-0.00002187,0.00000727,-0.00001395,0.00003849,-0.000007
 33,0.00004545,0.00000192,0.00000924,0.00000343,0.00015170,-0.00005004,
 -0.00030831,-0.00004263,0.00000516,-0.00000523,0.00090083,-0.00009509,
 0.00067417,0.00009662,-0.00002414,0.00006621,-0.00100247,-0.00064482,0
 .00288607,0.00057781,-0.00041885,-0.00086324,0.22911750,0.00000117,0.0
 0000022,0.00000144,0.00000077,-0.00000026,-0.00000064,0.00000753,0.000
 00031,0.00000219,-0.00000006,-0.00000016,0.00000036,0.00000544,-0.0000
 0641,0.00000146,0.00000036,0.00000266,0.00000115,-0.00001898,0.0000055
 5,-0.00000703,0.00002129,-0.00000497,-0.00000484,-0.00002525,-0.000000
 14,-0.00001205,0.00000203,-0.00000792,0.00001822,-0.00000992,0.0000082
 0,-0.00001604,0.00007436,-0.00002552,-0.00004463,-0.00029049,0.0000900
 7,-0.00014617,0.00022474,-0.00011234,0.00009487,-0.00243692,0.00202543
 ,0.00201691,0.11054162,-0.13678862,-0.00025454,-0.01014421,0.01083882,
 -0.00178561,-0.00000025,0.00000032,0.00000036,-0.00000038,0.00000014,-
 0.00000019,-0.00000061,-0.00000013,-0.00000025,-0.00000107,0.00000013,
 -0.00000134,0.00000047,-0.00000035,0.00000085,-0.00000442,0.00000082,-
 0.00000005,-0.00000073,0.00000040,0.00000085,-0.00000056,0.00000075,-0
 .00000118,-0.00000226,0.00000030,0.00000089,-0.00000192,-0.00000112,-0
 .00000203,0.00000240,-0.00000074,-0.00000019,-0.00000009,0.00000032,-0
 .00000009,-0.00000689,0.00000606,-0.00000215,0.00000105,-0.00000157,-0
 .00000115,-0.00000085,-0.00000005,0.00000188,-0.00000583,-0.00000136,-
 0.00000299,0.00000223,0.00000235,0.00000062,0.00001239,-0.00000456,0.0
 0000661,-0.00001442,0.00001730,-0.00001776,0.00000098,-0.00000414,-0.0
 0000216,-0.00005099,-0.00002126,0.00011821,-0.00000666,-0.00001973,0.0
 0001052,-0.00021604,0.00019205,-0.00050289,0.00010054,0.00002995,0.000
 05365,-0.00071763,0.00158622,0.00026707,-0.00008163,0.00104787,-0.0008
 0041,-0.12128959,0.13694504,0.00000132,-0.00000059,0.00000271,-0.00000
 103,-0.00000034,-0.00000022,0.00000894,0.00000623,0.00000962,-0.000001
 12,0.00000055,-0.00000061,0.00000127,-0.00001401,0.00000465,-0.0000005
 0,0.00000377,0.00000040,-0.00001448,0.00000648,-0.00002490,0.00001394,
 -0.00000102,0.00001090,-0.00000731,-0.00000578,0.00001463,0.00000587,0
 .00000009,0.00004258,0.00000217,0.00000401,-0.00004413,-0.00006212,0.0
 0005594,0.00001882,0.00007685,0.00009631,-0.00007495,0.00108023,-0.000
 23384,0.00208550,0.02435706,-0.01720852,-0.00098157,0.00506961,-0.0028
 4899,-0.04830750,-0.03402089,0.01197444,-0.01126373,-0.00000024,-0.000
 00140,-0.00000089,0.00000014,0.00000085,-0.00000083,-0.00000113,0.0000
 0156,0.00000060,-0.00000096,-0.00000071,-0.00000228,0.00000144,0.00000
 113,0.00000047,-0.00000353,-0.00000045,-0.00000109,0.00000081,0.000000
 05,-0.00000062,-0.00000122,0.00000128,-0.00000212,-0.00000005,0.000000
 79,0.00000101,-0.00000044,-0.00000085,0.00000003,0.00000099,-0.0000034
 7,-0.00000052,-0.00000007,0.00000209,-0.00000201,-0.00000231,0.0000005
 1,-0.00000332,0.00000057,0.00000008,-0.00000046,0.00000326,0.00000156,
 -0.00000033,-0.00001582,0.00000100,-0.00000512,-0.00000099,0.00000046,
 -0.00000299,0.00001285,-0.00000294,0.00001119,-0.00004121,-0.00000411,
 -0.00004454,-0.00000362,-0.00000454,-0.00000361,-0.00023886,0.00011936
 ,0.00005932,0.00001232,0.00000575,0.00000757,-0.00073008,0.00028375,-0
 .00038594,-0.00007206,-0.00003039,-0.00008350,0.00309695,0.00057072,-0
 .00527647,-0.00079037,0.00051107,0.00123973,0.00470829,0.00107690,0.06
 054127,0.00000011,0.00000018,0.00000019,0.00000051,-0.00000053,0.,-0.0
 0000179,-0.00000299,-0.00000252,0.00000030,0.00000046,0.00000022,-0.00
 000092,-0.00000077,-0.00000019,0.00000003,-0.00000016,-0.00000123,0.00
 000037,0.00000238,0.00000608,-0.00000411,-0.00000047,-0.00000174,0.000
 00501,-0.00000044,-0.00000495,0.00000178,-0.00001198,0.00000220,-0.000
 00294,0.00001015,0.00000057,-0.00000552,0.00006498,0.00000626,-0.00001
 078,0.00017767,0.00004194,0.00004958,-0.00005794,-0.00067943,-0.004350
 14,-0.01705436,0.00519700,-0.06708318,-0.05533624,0.01148664,-0.009336
 31,-0.02467583,-0.00351368,0.00000008,0.00000068,0.00000074,-0.0000000
 3,0.00000017,-0.00000049,-0.00000005,-0.00000091,-0.00000026,-0.000000
 16,0.00000044,0.00000043,0.00000011,0.00000010,-0.00000027,0.00000035,
 0.00000052,0.00000031,-0.00000028,-0.00000016,0.00000044,0.00000020,-0
 .00000013,0.00000043,0.00000090,-0.00000024,-0.00000022,0.00000055,0.0
 0000043,0.00000047,-0.00000088,0.00000038,0.00000094,-0.00000033,-0.00
 000012,0.00000003,-0.00000126,0.00000112,-0.00000005,0.00000095,0.0000
 0014,0.00000019,-0.00000267,0.00000198,-0.00000169,-0.00000069,-0.0000
 0505,-0.00000008,0.00000426,0.00000574,0.00000273,0.00000183,-0.000003
 06,-0.00000130,0.00000218,0.00000234,0.00000138,0.00001952,0.00000672,
 0.00002275,-0.00003764,-0.00001896,0.00001078,0.00003183,0.00007000,-0
 .00015213,0.00007911,0.00012594,0.00007250,0.00046213,0.00028388,0.000
 18966,0.00050150,-0.00029649,-0.00093655,-0.00099821,-0.00072931,0.002
 87833,0.00754949,0.02494303,-0.00384479,0.07545039,-0.00000060,0.00000
 067,-0.00000063,-0.00000012,-0.00000201,0.00000114,-0.00000810,-0.0000
 0805,-0.00000671,0.00000016,0.00000162,0.00000073,-0.00000044,-0.00000
 726,-0.00000016,-0.00000253,0.00000106,-0.00000357,0.00001035,0.000011
 64,0.00001321,-0.00001593,-0.00000858,0.00000341,0.00003048,0.00001670
 ,0.00001523,-0.00000622,-0.00001737,-0.00000657,0.00000315,0.00001173,
 0.00001004,-0.00006519,-0.00003745,0.00007706,0.00022561,0.00048163,0.
 00016878,-0.00005209,0.00001152,-0.00009294,-0.00028003,-0.00251125,0.
 00090398,-0.06231483,-0.28018025,0.04002438,-0.00745308,-0.00900125,-0
 .00520538,-0.00000016,0.00000137,0.00000143,0.00000075,0.00000058,-0.0
 0000147,0.00000024,-0.00000177,0.,0.00000032,0.00000088,0.00000165,0.,
 0.00000155,-0.00000149,0.00000304,0.00000007,0.00000067,-0.00000042,0.
 00000035,0.00000103,0.00000037,-0.00000043,0.00000050,0.00000186,0.000
 00096,-0.00000036,0.00000158,0.00000041,0.00000078,-0.00000011,-0.0000
 0046,0.00000283,-0.00000044,0.00000015,-0.00000076,-0.00000089,-0.0000
 0169,0.00000048,-0.00000002,0.00000566,0.00000219,0.00000267,0.0000041
 6,-0.00000570,0.00000441,-0.00000344,0.00000270,0.00000509,0.00000922,
 0.00000343,-0.00000351,-0.00000348,-0.00000491,0.00000285,-0.00000654,
 0.00000253,0.00000042,0.00002314,0.00002067,0.00000429,-0.00002256,-0.
 00000696,0.00007019,-0.00001147,-0.00022617,-0.00005041,-0.00001136,-0
 .00001088,0.00027066,0.00048927,0.00057255,-0.00029579,0.00092099,0.00
 013223,-0.00026222,0.00164826,0.00010674,-0.00371480,-0.01751081,0.004
 40568,0.07429634,0.30362097,0.00000047,-0.00000087,0.00000078,-0.00000
 014,0.00000095,-0.00000095,0.00000514,0.00000499,0.00000537,0.00000021
 ,-0.00000094,-0.00000052,0.00000074,0.00000307,0.00000041,0.00000139,0
 .00000023,0.00000423,-0.00000628,-0.00000505,-0.00001009,0.00000730,0.
 00000361,0.00000367,-0.00000628,-0.00000382,0.00001231,0.00000607,0.00
 001418,0.00000786,-0.00000082,-0.00001101,-0.00000916,-0.00000353,-0.0
 0006589,0.00000923,0.00006690,-0.00012797,-0.00010558,0.00056892,0.001
 18810,0.00178280,0.00786995,0.02802566,-0.00599625,0.01465191,0.048657
 91,-0.05466112,-0.01457273,-0.03277225,-0.00175075,0.00000002,-0.00000
 116,-0.00000104,-0.00000032,0.00000003,0.00000061,-0.00000029,0.000001
 46,0.00000021,-0.00000018,-0.00000062,-0.00000110,0.00000008,-0.000000
 71,0.00000087,-0.00000193,-0.00000014,-0.00000055,0.00000024,-0.000000
 26,-0.00000080,-0.00000047,0.00000034,-0.00000047,-0.00000147,-0.00000
 043,0.00000056,-0.00000109,-0.00000058,-0.00000104,0.00000062,-0.00000
 043,-0.00000218,0.00000034,-0.00000003,-0.00000019,0.00000083,0.000000
 64,-0.00000064,-0.00000047,-0.00000323,-0.00000239,-0.00000098,-0.0000
 0455,0.00001076,-0.00000426,0.00000573,-0.00000194,-0.00000492,-0.0000
 0886,-0.00000408,0.00000222,0.00000257,0.00000375,-0.00000460,0.000003
 02,-0.00000513,-0.00002996,-0.00003754,-0.00004795,0.00000696,0.000015
 35,0.00001773,-0.00012927,-0.00023038,0.00014894,-0.00006084,-0.000049
 87,-0.00009592,-0.00039088,-0.00085325,-0.00039135,-0.00045809,-0.0007
 0013,0.00131712,0.00312888,0.00010847,-0.00504631,0.00095981,-0.000862
 77,0.00174674,-0.00750495,-0.03958353,0.06723361,0.00000126,0.00000084
 ,0.00000149,0.00000157,-0.00000034,-0.00000085,0.00000510,-0.00000245,
 0.00000078,-0.00000046,-0.00000048,0.00000137,0.00001197,-0.00000330,0
 .00000083,-0.00000214,0.00000273,-0.00000104,-0.00001787,0.00000700,0.
 00000448,0.00000847,-0.00000617,-0.00000291,0.00000899,0.00001269,0.00
 000325,0.00002505,-0.00000592,0.00001367,-0.00002735,0.00000451,-0.000
 00491,-0.00002890,-0.00002393,0.00004170,0.00008656,0.00011713,0.00002
 406,-0.00012998,-0.00006019,0.00054115,0.00175829,0.00168869,0.0001049
 0,-0.01171499,-0.02869029,0.00017704,-0.05064044,-0.11666000,-0.006954
 41,-0.00000019,0.00000068,0.00000030,-0.00000036,-0.00000057,0.0000006
 0,-0.00000012,-0.00000011,-0.00000097,-0.00000127,0.00000047,-0.000000
 78,-0.00000027,-0.00000061,0.00000104,-0.00000462,0.00000089,0.0000003
 5,-0.00000090,0.00000100,0.00000195,-0.00000047,0.00000011,-0.00000096
 ,-0.00000416,-0.00000030,0.00000104,-0.00000310,-0.00000170,-0.0000022
 8,0.00000430,-0.00000034,0.00000085,0.00000084,-0.00000037,0.00000054,
 -0.00000892,0.00000586,-0.00000146,0.00000001,-0.00000084,-0.00000111,
 0.00000164,-0.00000317,0.00000144,-0.00000409,0.00000118,-0.00000824,-
 0.00000376,-0.00000126,-0.00000141,0.00001712,-0.00000588,0.00000601,-
 0.00001946,0.00000439,-0.00001251,-0.00000541,-0.00000207,-0.00000467,
 -0.00002928,0.00003165,0.00003618,0.00001951,-0.00003411,-0.00000125,-
 0.00021581,0.00000356,-0.00014673,-0.00008021,0.00002978,0.00005885,-0
 .00013698,0.00039479,0.00014132,0.00061872,-0.00018355,-0.00046589,0.0
 0041646,-0.00061375,0.00140030,-0.00232521,-0.00040692,-0.00409427,0.0
 6242088,-0.00000223,0.00000234,-0.00000516,0.00000304,0.00000116,0.000
 00106,-0.00001928,-0.00001419,-0.00001915,0.00000168,-0.00000156,0.000
 00233,0.00000007,0.00003034,-0.00000950,0.00000011,-0.00000875,-0.0000
 0223,0.00003100,-0.00001053,0.00006068,-0.00004387,0.00000011,-0.00002
 025,0.00006282,0.00003812,0.00001069,0.00002099,-0.00001548,-0.0000503
 5,-0.00001878,0.00000017,0.00007941,-0.00011591,-0.00004084,0.00006569
 ,0.00026141,0.00019043,0.00006680,-0.00050921,0.00009513,0.00043622,0.
 00206743,0.00180337,0.00080236,-0.00147964,-0.01262975,0.00520925,-0.1
 4409969,-0.46609311,0.04331037,0.,0.00000253,0.00000156,-0.00000061,-0
 .00000198,0.00000187,0.00000234,-0.00000321,-0.00000123,0.00000167,0.0
 0000186,0.00000501,-0.00000319,-0.00000266,-0.00000097,0.00000691,0.00
 000085,0.00000169,-0.00000216,0.00000012,0.00000192,0.00000285,-0.0000
 0344,0.00000514,-0.00000103,-0.00000198,-0.00000169,0.00000059,0.00000
 202,-0.00000121,-0.00000024,0.00000862,0.00000096,-0.00000017,-0.00000
 500,0.00000591,0.00000153,0.00000089,0.00000478,-0.00000058,0.00000025
 ,0.00000156,-0.00000523,-0.00000471,0.00000021,0.00001997,-0.00000375,
 0.00000498,-0.00000032,0.00000129,0.00000420,-0.00001868,0.00000279,-0
 .00002332,0.00001143,-0.00000208,0.00000084,0.00000151,0.00000322,-0.0
 0000203,-0.00000379,-0.00001052,-0.00000836,-0.00001451,-0.00002896,-0
 .00000344,0.00007085,-0.00001354,0.00001824,0.00007870,0.00006684,0.00
 020425,0.00000794,-0.00027540,-0.00016714,0.00023123,-0.00028576,-0.00
 089448,0.00085196,0.00171087,0.00122954,-0.00179961,0.00208289,-0.0027
 1005,0.14440068,0.47341097,-0.00000332,0.00000365,-0.00000858,0.000004
 82,-0.00000026,-0.00000025,-0.00003881,-0.00003343,-0.00004360,0.00000
 190,0.00000131,0.00000337,0.00000407,0.00004011,-0.00001555,-0.0000038
 1,-0.00001108,-0.00001252,0.00004654,-0.00000754,0.00011307,-0.0000602
 9,0.00000072,-0.00004815,0.00007137,0.00004049,-0.00000206,0.00004211,
 -0.00003335,-0.00009191,-0.00004044,0.00001271,0.00014407,-0.00012572,
 -0.00002167,0.00004610,0.00021283,0.00015704,-0.00001591,-0.00039948,0
 .00044791,-0.00055699,-0.00042598,-0.00291693,0.00178211,-0.01452684,-
 0.03806267,-0.00225652,0.00847287,0.08664902,-0.04065812,0.00000034,0.
 00000719,0.00000418,-0.00000072,-0.00000386,0.00000227,0.00000455,-0.0
 0000686,-0.00000232,0.00000320,0.00000389,0.00001046,-0.00000582,-0.00
 000343,-0.00000242,0.00001258,0.00000258,0.00000442,-0.00000394,0.0000
 0102,0.00000532,0.00000498,-0.00000583,0.00000786,0.00000031,-0.000003
 03,-0.00000311,0.00000149,0.00000357,-0.00000067,0.00000041,0.00001233
 ,0.00000782,-0.00000094,-0.00000802,0.00000840,-0.00000324,0.00000302,
 0.00000877,0.00000030,0.00000400,0.00000403,-0.00000510,0.00000082,-0.
 00000415,0.00003563,-0.00000977,0.00000869,0.00000069,0.00000826,0.000
 00874,-0.00002753,-0.00000180,-0.00004133,0.00001097,-0.00000413,0.000
 00419,0.00001391,0.00001375,0.00001688,-0.00000463,-0.00000295,-0.0000
 1829,0.00001499,0.00002444,-0.00006954,0.00009544,-0.00006388,0.000090
 08,0.00031939,0.00034552,0.00027781,0.00011864,0.00011633,-0.00012836,
 0.00043503,0.00144150,-0.00084584,-0.00011721,0.00079414,0.00071653,-0
 .00327673,-0.00131785,-0.00417004,0.00914120,-0.04761700,0.04572109\\-
 0.00000068,-0.00000032,0.00000022,0.00000233,-0.00000372,0.00000099,-0
 .00000033,0.00000162,0.00000792,0.00000969,-0.00000231,-0.00000448,-0.
 00000631,-0.00000355,-0.00000313,0.00000276,-0.00000015,-0.00000210,0.
 00000211,0.00000366,-0.00000067,-0.00000077,-0.00000572,0.00000437,0.0
 0000080,-0.00000088,-0.00000615,0.00000360,0.00000406,-0.00000140,-0.0
 0000608,-0.00000643,-0.00000147,-0.00000340,0.,0.00000688,0.00000093,0
 .00000070,-0.00000141,-0.00000144,0.00000014,-0.00000030,0.00000015,0.
 00000082,0.00000094,0.00000059,0.00000060,0.00000074,-0.00000022,0.000
 00156,0.00000097,0.00000081,-0.00000043,0.00000155,-0.00000100,-0.0000
 0040,-0.00000089,0.00000084,-0.00000122,-0.00000100,-0.00000092,0.0000
 0191,-0.00000128,-0.00000056,-0.00000016,-0.00000242,0.00000037,-0.000
 00076,0.00000117,-0.00000063,0.00000069,0.00000034,-0.00000098,-0.0000
 0012,0.00000107,0.00000158,0.00000013,-0.00000063,-0.00000042,-0.00000
 033,-0.00000008,0.00000073,-0.00000054,-0.00000014,-0.00000071,0.00000
 026,0.00000070,0.00000065,0.00000028,0.00000216,0.00000218,0.00000160,
 -0.00000425,-0.00000159,-0.00000034,0.00000040,-0.00000103,0.00000188,
 0.00000351,-0.00000112,-0.00000168,0.00000203,-0.00000230,0.00000813,-
 0.00000231,0.00000071,0.00000042,-0.00000081,0.00000132,0.00000062,-0.
 00000023,0.00000001,-0.00000092,-0.00000091,-0.00000028,-0.00000053,-0
 .00000014,0.00000030,0.00000022,0.,0.00000034,0.00000024,0.00000034,-0
 .00000056,0.00000032,0.00000025,-0.00000075,0.00000029,-0.00000030,-0.
 00000012,0.00000061,-0.00000013,-0.00000023,0.00000021,-0.00000002,-0.
 00000039,-0.00000043,0.00000010\\\@


 THE GREAT THING ABOUT BEING IMPERFECT IS THE JOY IT BRINGS OTHERS.
   -- SIGN OUTSIDE LAKE AGASSIZ JR. HIGH SCHOOL, FARGO, N.D.
 Job cpu time:       0 days 20 hours 46 minutes 15.7 seconds.
 Elapsed time:       0 days  5 hours 13 minutes 31.3 seconds.
 File lengths (MBytes):  RWF=   1217 Int=      0 D2E=      0 Chk=     33 Scr=      1
 Normal termination of Gaussian 16 at Mon May 22 18:45:18 2023.
### All Done ###
