### Starting Gaussian ###
 Entering Gaussian System, Link 0=g16
 Initial command:
 /cluster/software/gaussian/gaussian-16-A.03/avx2/g16/l1.exe "/local/scratch/linjian/Gau-11825.inp" -scrdir="/local/scratch/linjian/"
 Entering Link 1 = /cluster/software/gaussian/gaussian-16-A.03/avx2/g16/l1.exe PID=     11826.
  
 Copyright (c) 1988,1990,1992,1993,1995,1998,2003,2009,2016,
            Gaussian, Inc.  All Rights Reserved.
  
 This is part of the Gaussian(R) 16 program.  It is based on
 the Gaussian(R) 09 system (copyright 2009, Gaussian, Inc.),
 the Gaussian(R) 03 system (copyright 2003, Gaussian, Inc.),
 the Gaussian(R) 98 system (copyright 1998, Gaussian, Inc.),
 the Gaussian(R) 94 system (copyright 1995, Gaussian, Inc.),
 the Gaussian 92(TM) system (copyright 1992, Gaussian, Inc.),
 the Gaussian 90(TM) system (copyright 1990, Gaussian, Inc.),
 the Gaussian 88(TM) system (copyright 1988, Gaussian, Inc.),
 the Gaussian 86(TM) system (copyright 1986, Carnegie Mellon
 University), and the Gaussian 82(TM) system (copyright 1983,
 Carnegie Mellon University). Gaussian is a federally registered
 trademark of Gaussian, Inc.
  
 This software contains proprietary and confidential information,
 including trade secrets, belonging to Gaussian, Inc.
  
 This software is provided under written license and may be
 used, copied, transmitted, or stored only in accord with that
 written license.
  
 The following legend is applicable only to US Government
 contracts under FAR:
  
                    RESTRICTED RIGHTS LEGEND
  
 Use, reproduction and disclosure by the US Government is
 subject to restrictions as set forth in subparagraphs (a)
 and (c) of the Commercial Computer Software - Restricted
 Rights clause in FAR 52.227-19.
  
 Gaussian, Inc.
 340 Quinnipiac St., Bldg. 40, Wallingford CT 06492
  
  
 ---------------------------------------------------------------
 Warning -- This program may not be used in any manner that
 competes with the business of Gaussian, Inc. or will provide
 assistance to any competitor of Gaussian, Inc.  The licensee
 of this program is prohibited from giving any competitor of
 Gaussian, Inc. access to this program.  By using this program,
 the user acknowledges that Gaussian, Inc. is engaged in the
 business of creating and licensing software in the field of
 computational chemistry and represents and warrants to the
 licensee that it is not a competitor of Gaussian, Inc. and that
 it will not use this program in any manner prohibited above.
 ---------------------------------------------------------------
  

 Cite this work as:
 Gaussian 16, Revision A.03,
 M. J. Frisch, G. W. Trucks, H. B. Schlegel, G. E. Scuseria, 
 M. A. Robb, J. R. Cheeseman, G. Scalmani, V. Barone, 
 G. A. Petersson, H. Nakatsuji, X. Li, M. Caricato, A. V. Marenich, 
 J. Bloino, B. G. Janesko, R. Gomperts, B. Mennucci, H. P. Hratchian, 
 J. V. Ortiz, A. F. Izmaylov, J. L. Sonnenberg, D. Williams-Young, 
 F. Ding, F. Lipparini, F. Egidi, J. Goings, B. Peng, A. Petrone, 
 T. Henderson, D. Ranasinghe, V. G. Zakrzewski, J. Gao, N. Rega, 
 G. Zheng, W. Liang, M. Hada, M. Ehara, K. Toyota, R. Fukuda, 
 J. Hasegawa, M. Ishida, T. Nakajima, Y. Honda, O. Kitao, H. Nakai, 
 T. Vreven, K. Throssell, J. A. Montgomery, Jr., J. E. Peralta, 
 F. Ogliaro, M. J. Bearpark, J. J. Heyd, E. N. Brothers, K. N. Kudin, 
 V. N. Staroverov, T. A. Keith, R. Kobayashi, J. Normand, 
 K. Raghavachari, A. P. Rendell, J. C. Burant, S. S. Iyengar, 
 J. Tomasi, M. Cossi, J. M. Millam, M. Klene, C. Adamo, R. Cammi, 
 J. W. Ochterski, R. L. Martin, K. Morokuma, O. Farkas, 
 J. B. Foresman, and D. J. Fox, Gaussian, Inc., Wallingford CT, 2016.
 
 ******************************************
 Gaussian 16:  ES64L-G16RevA.03 25-Dec-2016
                28-May-2023 
 ******************************************
 %chk=CCC1C2CqCrC1C2C.chk
 %NProcShared=20
 Will use up to   20 processors via shared memory.
 -----------------------------
 # opt freq b3lyp/6-31g(2df,p)
 -----------------------------
 1/18=20,19=15,26=3,38=1/1,3;
 2/9=110,12=2,17=6,18=5,40=1/2;
 3/5=1,6=6,7=104,11=2,25=1,30=1,71=1,74=-5/1,2,3;
 4//1;
 5/5=2,38=5/2;
 6/7=2,8=2,9=2,10=2,28=1/1;
 7//1,2,3,16;
 1/18=20,19=15,26=3/3(2);
 2/9=110/2;
 99//99;
 2/9=110/2;
 3/5=1,6=6,7=104,11=2,25=1,30=1,71=1,74=-5/1,2,3;
 4/5=5,16=3,69=1/1;
 5/5=2,38=5/2;
 7//1,2,3,16;
 1/18=20,19=15,26=3/3(-5);
 2/9=110/2;
 6/7=2,8=2,9=2,10=2,19=2,28=1/1;
 99/9=1/99;
 -------------------
 Title Card Required
 -------------------
 Symbolic Z-matrix:
 Charge =  0 Multiplicity = 1
 C                     0.96354   0.12894  -0.0496 
 C                     2.47846   0.24784  -0.02387 
 C                     3.16743  -0.65595  -1.07842 
 C                     4.75684  -1.05085  -1.29168 
 C                     4.21621  -2.49293  -1.69018 
 C                     3.95826  -2.68275  -3.16356 
 C                     3.35897  -2.03009  -0.41091 
 C                     4.75503  -1.2726    0.27429 
 C                     5.31457   0.07446   0.74855 
 H                     0.53735   0.72912   0.7632 
 H                     0.63679  -0.90561   0.09915 
 H                     0.55608   0.49087  -0.99548 
 H                     2.76884  -0.02799   0.99885 
 H                     2.765     1.29344  -0.16735 
 H                     2.62342  -0.58512  -2.02674 
 H                     5.46909  -0.47664  -1.85453 
 H                     4.87     -3.32099  -1.37621 
 H                     3.39493  -1.86729  -3.61875 
 H                     3.43959  -3.62573  -3.35679 
 H                     4.92452  -2.73602  -3.6839 
 H                     2.55595  -2.58587   0.03897 
 H                     5.41112  -2.05534   0.67492 
 H                     4.93865   0.93734   0.18459 
 H                     6.4001    0.08643   0.5847 
 H                     5.13057   0.25641   1.80868 
 

 GradGradGradGradGradGradGradGradGradGradGradGradGradGradGradGradGradGrad
 Berny optimization.
 Initialization pass.
                           ----------------------------
                           !    Initial Parameters    !
                           ! (Angstroms and Degrees)  !
 --------------------------                            --------------------------
 ! Name  Definition              Value          Derivative Info.                !
 --------------------------------------------------------------------------------
 ! R1    R(1,2)                  1.5198         estimate D2E/DX2                !
 ! R2    R(1,10)                 1.0966         estimate D2E/DX2                !
 ! R3    R(1,11)                 1.0951         estimate D2E/DX2                !
 ! R4    R(1,12)                 1.0917         estimate D2E/DX2                !
 ! R5    R(2,3)                  1.5504         estimate D2E/DX2                !
 ! R6    R(2,13)                 1.0983         estimate D2E/DX2                !
 ! R7    R(2,14)                 1.0936         estimate D2E/DX2                !
 ! R8    R(3,4)                  1.6516         estimate D2E/DX2                !
 ! R9    R(3,7)                  1.5396         estimate D2E/DX2                !
 ! R10   R(3,15)                 1.0956         estimate D2E/DX2                !
 ! R11   R(4,5)                  1.5908         estimate D2E/DX2                !
 ! R12   R(4,8)                  1.5816         estimate D2E/DX2                !
 ! R13   R(4,16)                 1.0742         estimate D2E/DX2                !
 ! R14   R(5,6)                  1.5078         estimate D2E/DX2                !
 ! R15   R(5,7)                  1.608          estimate D2E/DX2                !
 ! R16   R(5,17)                 1.1008         estimate D2E/DX2                !
 ! R17   R(6,18)                 1.0906         estimate D2E/DX2                !
 ! R18   R(6,19)                 1.0934         estimate D2E/DX2                !
 ! R19   R(6,20)                 1.0987         estimate D2E/DX2                !
 ! R20   R(7,8)                  1.7298         estimate D2E/DX2                !
 ! R21   R(7,21)                 1.0752         estimate D2E/DX2                !
 ! R22   R(8,9)                  1.5338         estimate D2E/DX2                !
 ! R23   R(8,22)                 1.0971         estimate D2E/DX2                !
 ! R24   R(9,23)                 1.0972         estimate D2E/DX2                !
 ! R25   R(9,24)                 1.0979         estimate D2E/DX2                !
 ! R26   R(9,25)                 1.0913         estimate D2E/DX2                !
 ! A1    A(2,1,10)             109.3925         estimate D2E/DX2                !
 ! A2    A(2,1,11)             111.6561         estimate D2E/DX2                !
 ! A3    A(2,1,12)             111.1484         estimate D2E/DX2                !
 ! A4    A(10,1,11)            107.4827         estimate D2E/DX2                !
 ! A5    A(10,1,12)            108.4037         estimate D2E/DX2                !
 ! A6    A(11,1,12)            108.6354         estimate D2E/DX2                !
 ! A7    A(1,2,3)              112.6963         estimate D2E/DX2                !
 ! A8    A(1,2,13)             105.0492         estimate D2E/DX2                !
 ! A9    A(1,2,14)             109.4967         estimate D2E/DX2                !
 ! A10   A(3,2,13)             111.6834         estimate D2E/DX2                !
 ! A11   A(3,2,14)             110.5906         estimate D2E/DX2                !
 ! A12   A(13,2,14)            107.0379         estimate D2E/DX2                !
 ! A13   A(2,3,4)              130.9116         estimate D2E/DX2                !
 ! A14   A(2,3,7)              106.3006         estimate D2E/DX2                !
 ! A15   A(2,3,15)             109.2944         estimate D2E/DX2                !
 ! A16   A(4,3,7)               73.9101         estimate D2E/DX2                !
 ! A17   A(4,3,15)             112.4301         estimate D2E/DX2                !
 ! A18   A(7,3,15)             119.6533         estimate D2E/DX2                !
 ! A19   A(3,4,5)               85.5288         estimate D2E/DX2                !
 ! A20   A(3,4,8)               84.5241         estimate D2E/DX2                !
 ! A21   A(3,4,16)             125.3077         estimate D2E/DX2                !
 ! A22   A(5,4,8)               96.9232         estimate D2E/DX2                !
 ! A23   A(5,4,16)             125.3572         estimate D2E/DX2                !
 ! A24   A(8,4,16)             126.4787         estimate D2E/DX2                !
 ! A25   A(4,5,6)              114.6484         estimate D2E/DX2                !
 ! A26   A(4,5,7)               73.7969         estimate D2E/DX2                !
 ! A27   A(4,5,17)             114.1185         estimate D2E/DX2                !
 ! A28   A(6,5,7)              136.2573         estimate D2E/DX2                !
 ! A29   A(6,5,17)             106.5962         estimate D2E/DX2                !
 ! A30   A(7,5,17)             107.8331         estimate D2E/DX2                !
 ! A31   A(5,6,18)             113.7076         estimate D2E/DX2                !
 ! A32   A(5,6,19)             111.2484         estimate D2E/DX2                !
 ! A33   A(5,6,20)             108.5675         estimate D2E/DX2                !
 ! A34   A(18,6,19)            109.0291         estimate D2E/DX2                !
 ! A35   A(18,6,20)            107.0273         estimate D2E/DX2                !
 ! A36   A(19,6,20)            106.957          estimate D2E/DX2                !
 ! A37   A(3,7,5)               88.7566         estimate D2E/DX2                !
 ! A38   A(3,7,8)               83.1833         estimate D2E/DX2                !
 ! A39   A(3,7,21)             123.3544         estimate D2E/DX2                !
 ! A40   A(5,7,8)               90.6261         estimate D2E/DX2                !
 ! A41   A(5,7,21)             125.608          estimate D2E/DX2                !
 ! A42   A(8,7,21)             131.5559         estimate D2E/DX2                !
 ! A43   A(4,8,7)               70.7387         estimate D2E/DX2                !
 ! A44   A(4,8,9)              100.521          estimate D2E/DX2                !
 ! A45   A(4,8,22)             117.4458         estimate D2E/DX2                !
 ! A46   A(7,8,9)              143.2716         estimate D2E/DX2                !
 ! A47   A(7,8,22)             108.3522         estimate D2E/DX2                !
 ! A48   A(9,8,22)             107.1887         estimate D2E/DX2                !
 ! A49   A(8,9,23)             114.001          estimate D2E/DX2                !
 ! A50   A(8,9,24)             108.9126         estimate D2E/DX2                !
 ! A51   A(8,9,25)             112.6628         estimate D2E/DX2                !
 ! A52   A(23,9,24)            104.6828         estimate D2E/DX2                !
 ! A53   A(23,9,25)            108.0853         estimate D2E/DX2                !
 ! A54   A(24,9,25)            108.0521         estimate D2E/DX2                !
 ! D1    D(10,1,2,3)           175.7545         estimate D2E/DX2                !
 ! D2    D(10,1,2,13)           53.9404         estimate D2E/DX2                !
 ! D3    D(10,1,2,14)          -60.7086         estimate D2E/DX2                !
 ! D4    D(11,1,2,3)            56.9094         estimate D2E/DX2                !
 ! D5    D(11,1,2,13)          -64.9047         estimate D2E/DX2                !
 ! D6    D(11,1,2,14)         -179.5538         estimate D2E/DX2                !
 ! D7    D(12,1,2,3)           -64.5732         estimate D2E/DX2                !
 ! D8    D(12,1,2,13)          173.6127         estimate D2E/DX2                !
 ! D9    D(12,1,2,14)           58.9637         estimate D2E/DX2                !
 ! D10   D(1,2,3,4)           -169.579          estimate D2E/DX2                !
 ! D11   D(1,2,3,7)            -86.9718         estimate D2E/DX2                !
 ! D12   D(1,2,3,15)            43.4586         estimate D2E/DX2                !
 ! D13   D(13,2,3,4)           -51.5986         estimate D2E/DX2                !
 ! D14   D(13,2,3,7)            31.0086         estimate D2E/DX2                !
 ! D15   D(13,2,3,15)          161.439          estimate D2E/DX2                !
 ! D16   D(14,2,3,4)            67.4933         estimate D2E/DX2                !
 ! D17   D(14,2,3,7)           150.1005         estimate D2E/DX2                !
 ! D18   D(14,2,3,15)          -79.4691         estimate D2E/DX2                !
 ! D19   D(2,3,4,5)            142.6434         estimate D2E/DX2                !
 ! D20   D(2,3,4,8)             45.234          estimate D2E/DX2                !
 ! D21   D(2,3,4,16)           -86.3697         estimate D2E/DX2                !
 ! D22   D(7,3,4,5)             44.7931         estimate D2E/DX2                !
 ! D23   D(7,3,4,8)            -52.6163         estimate D2E/DX2                !
 ! D24   D(7,3,4,16)           175.78           estimate D2E/DX2                !
 ! D25   D(15,3,4,5)           -71.1833         estimate D2E/DX2                !
 ! D26   D(15,3,4,8)          -168.5927         estimate D2E/DX2                !
 ! D27   D(15,3,4,16)           59.8036         estimate D2E/DX2                !
 ! D28   D(2,3,7,5)           -172.7726         estimate D2E/DX2                !
 ! D29   D(2,3,7,8)            -81.9932         estimate D2E/DX2                !
 ! D30   D(2,3,7,21)            54.1546         estimate D2E/DX2                !
 ! D31   D(4,3,7,5)            -44.0325         estimate D2E/DX2                !
 ! D32   D(4,3,7,8)             46.7469         estimate D2E/DX2                !
 ! D33   D(4,3,7,21)          -177.1053         estimate D2E/DX2                !
 ! D34   D(15,3,7,5)            62.9898         estimate D2E/DX2                !
 ! D35   D(15,3,7,8)           153.7691         estimate D2E/DX2                !
 ! D36   D(15,3,7,21)          -70.0831         estimate D2E/DX2                !
 ! D37   D(3,4,5,6)             91.5275         estimate D2E/DX2                !
 ! D38   D(3,4,5,7)            -42.4536         estimate D2E/DX2                !
 ! D39   D(3,4,5,17)          -145.1226         estimate D2E/DX2                !
 ! D40   D(8,4,5,6)            175.4474         estimate D2E/DX2                !
 ! D41   D(8,4,5,7)             41.4664         estimate D2E/DX2                !
 ! D42   D(8,4,5,17)           -61.2026         estimate D2E/DX2                !
 ! D43   D(16,4,5,6)           -39.4191         estimate D2E/DX2                !
 ! D44   D(16,4,5,7)          -173.4001         estimate D2E/DX2                !
 ! D45   D(16,4,5,17)           83.9309         estimate D2E/DX2                !
 ! D46   D(3,4,8,7)             46.0399         estimate D2E/DX2                !
 ! D47   D(3,4,8,9)            -96.9591         estimate D2E/DX2                !
 ! D48   D(3,4,8,22)           147.2461         estimate D2E/DX2                !
 ! D49   D(5,4,8,7)            -38.766          estimate D2E/DX2                !
 ! D50   D(5,4,8,9)            178.2351         estimate D2E/DX2                !
 ! D51   D(5,4,8,22)            62.4403         estimate D2E/DX2                !
 ! D52   D(16,4,8,7)           176.6726         estimate D2E/DX2                !
 ! D53   D(16,4,8,9)            33.6737         estimate D2E/DX2                !
 ! D54   D(16,4,8,22)          -82.1211         estimate D2E/DX2                !
 ! D55   D(4,5,6,18)           -47.2037         estimate D2E/DX2                !
 ! D56   D(4,5,6,19)          -170.7648         estimate D2E/DX2                !
 ! D57   D(4,5,6,20)            71.8012         estimate D2E/DX2                !
 ! D58   D(7,5,6,18)            44.8258         estimate D2E/DX2                !
 ! D59   D(7,5,6,19)           -78.7353         estimate D2E/DX2                !
 ! D60   D(7,5,6,20)           163.8306         estimate D2E/DX2                !
 ! D61   D(17,5,6,18)         -174.4967         estimate D2E/DX2                !
 ! D62   D(17,5,6,19)           61.9422         estimate D2E/DX2                !
 ! D63   D(17,5,6,20)          -55.4919         estimate D2E/DX2                !
 ! D64   D(4,5,7,3)             46.2217         estimate D2E/DX2                !
 ! D65   D(4,5,7,8)            -36.9459         estimate D2E/DX2                !
 ! D66   D(4,5,7,21)           177.5886         estimate D2E/DX2                !
 ! D67   D(6,5,7,3)            -62.7136         estimate D2E/DX2                !
 ! D68   D(6,5,7,8)           -145.8811         estimate D2E/DX2                !
 ! D69   D(6,5,7,21)            68.6534         estimate D2E/DX2                !
 ! D70   D(17,5,7,3)           156.9246         estimate D2E/DX2                !
 ! D71   D(17,5,7,8)            73.7571         estimate D2E/DX2                !
 ! D72   D(17,5,7,21)          -71.7084         estimate D2E/DX2                !
 ! D73   D(3,7,8,4)            -50.7228         estimate D2E/DX2                !
 ! D74   D(3,7,8,9)             30.9466         estimate D2E/DX2                !
 ! D75   D(3,7,8,22)          -164.2063         estimate D2E/DX2                !
 ! D76   D(5,7,8,4)             37.95           estimate D2E/DX2                !
 ! D77   D(5,7,8,9)            119.6194         estimate D2E/DX2                !
 ! D78   D(5,7,8,22)           -75.5335         estimate D2E/DX2                !
 ! D79   D(21,7,8,4)           179.9307         estimate D2E/DX2                !
 ! D80   D(21,7,8,9)           -98.3999         estimate D2E/DX2                !
 ! D81   D(21,7,8,22)           66.4473         estimate D2E/DX2                !
 ! D82   D(4,8,9,23)            39.5014         estimate D2E/DX2                !
 ! D83   D(4,8,9,24)           -76.9759         estimate D2E/DX2                !
 ! D84   D(4,8,9,25)           163.1541         estimate D2E/DX2                !
 ! D85   D(7,8,9,23)           -32.3101         estimate D2E/DX2                !
 ! D86   D(7,8,9,24)          -148.7874         estimate D2E/DX2                !
 ! D87   D(7,8,9,25)            91.3426         estimate D2E/DX2                !
 ! D88   D(22,8,9,23)          162.7421         estimate D2E/DX2                !
 ! D89   D(22,8,9,24)           46.2648         estimate D2E/DX2                !
 ! D90   D(22,8,9,25)          -73.6052         estimate D2E/DX2                !
 --------------------------------------------------------------------------------
 Trust Radius=3.00D-01 FncErr=1.00D-07 GrdErr=1.00D-06 EigMax=2.50D+02 EigMin=1.00D-04
 Number of steps in this run=    150 maximum allowed number of steps=    150.
 GradGradGradGradGradGradGradGradGradGradGradGradGradGradGradGradGradGrad

                          Input orientation:                          
 ---------------------------------------------------------------------
 Center     Atomic      Atomic             Coordinates (Angstroms)
 Number     Number       Type             X           Y           Z
 ---------------------------------------------------------------------
      1          6           0        0.963540    0.128940   -0.049600
      2          6           0        2.478460    0.247840   -0.023870
      3          6           0        3.167430   -0.655950   -1.078420
      4          6           0        4.756840   -1.050850   -1.291680
      5          6           0        4.216210   -2.492930   -1.690180
      6          6           0        3.958260   -2.682750   -3.163560
      7          6           0        3.358970   -2.030090   -0.410910
      8          6           0        4.755030   -1.272600    0.274290
      9          6           0        5.314570    0.074460    0.748550
     10          1           0        0.537350    0.729120    0.763200
     11          1           0        0.636790   -0.905610    0.099150
     12          1           0        0.556080    0.490870   -0.995480
     13          1           0        2.768840   -0.027990    0.998850
     14          1           0        2.765000    1.293440   -0.167350
     15          1           0        2.623420   -0.585120   -2.026740
     16          1           0        5.469090   -0.476640   -1.854530
     17          1           0        4.870000   -3.320990   -1.376210
     18          1           0        3.394930   -1.867290   -3.618750
     19          1           0        3.439590   -3.625730   -3.356790
     20          1           0        4.924520   -2.736020   -3.683900
     21          1           0        2.555950   -2.585870    0.038970
     22          1           0        5.411120   -2.055340    0.674920
     23          1           0        4.938650    0.937340    0.184590
     24          1           0        6.400100    0.086430    0.584700
     25          1           0        5.130570    0.256410    1.808680
 ---------------------------------------------------------------------
                    Distance matrix (angstroms):
                    1          2          3          4          5
     1  C    0.000000
     2  C    1.519797   0.000000
     3  C    2.555710   1.550352   0.000000
     4  C    4.162186   2.912894   1.651560   0.000000
     5  C    4.488381   3.648038   2.201973   1.590810   0.000000
     6  C    5.154677   4.542667   3.013493   2.608594   1.507786
     7  C    3.245002   2.472663   1.539649   1.920601   1.607984
     8  C    4.055196   2.753799   2.174984   1.581594   2.374589
     9  C    4.423966   2.944523   2.912306   2.395814   3.707464
    10  H    1.096585   2.149190   3.496756   5.019454   5.471260
    11  H    1.095073   2.176541   2.802345   4.350898   4.305059
    12  H    1.091653   2.167633   2.853283   4.484531   4.773073
    13  H    2.093557   1.098344   2.206413   3.200768   3.924499
    14  H    2.148298   1.093605   2.189091   3.275247   4.331469
    15  H    2.678463   2.174011   1.095570   2.304061   2.507986
    16  H    4.891266   3.580510   2.435598   1.074159   2.379526
    17  H    5.377950   4.503869   3.176454   2.274530   1.100773
    18  H    4.757670   4.270463   2.823540   2.817202   2.187535
    19  H    5.582641   5.199680   3.752950   3.553848   2.159621
    20  H    6.091428   5.318125   3.768631   2.930978   2.129722
    21  H    3.148620   2.835466   2.312371   2.995135   2.398971
    22  H    5.007692   3.793869   3.172797   2.303171   2.685702
    23  H    4.063232   2.563474   2.696477   2.483008   3.975353
    24  H    5.473603   3.971860   3.710425   2.741261   4.074009
    25  H    4.564383   3.223663   3.608555   3.385385   4.542791
                    6          7          8          9         10
     6  C    0.000000
     7  C    2.891746   0.000000
     8  C    3.800287   1.729819   0.000000
     9  C    4.974574   3.098040   1.533812   0.000000
    10  H    6.225988   4.117440   4.694118   4.821890   0.000000
    11  H    4.983540   2.989127   4.138267   4.823265   1.767256
    12  H    5.132959   3.814860   4.727930   5.085102   1.774843
    13  H    5.078201   2.518746   2.453363   2.560056   2.368184
    14  H    5.119690   3.384963   3.277167   2.970706   2.479275
    15  H    2.733900   2.289078   3.211095   3.921679   3.723262
    16  H    2.977094   2.991630   2.382291   2.665260   5.712130
    17  H    2.105526   2.209398   2.633110   4.030053   6.304944
    18  H    1.090648   3.212170   4.166448   5.150604   5.840256
    19  H    1.093420   3.351235   4.522427   5.836161   6.660483
    20  H    1.098749   3.696180   4.223457   5.262846   7.143609
    21  H    3.497436   1.075232   2.572160   3.897543   3.948217
    22  H    4.151912   2.321849   1.097105   2.133258   5.613791
    23  H    5.027557   3.414037   2.219369   1.097237   4.444051
    24  H    5.261216   3.836583   2.156287   1.097891   5.900572
    25  H    5.893738   3.645988   2.198466   1.091255   4.734359
                   11         12         13         14         15
    11  H    0.000000
    12  H    1.776200   0.000000
    13  H    2.474937   3.023719   0.000000
    14  H    3.071827   2.491836   1.762446   0.000000
    15  H    2.927255   2.548558   3.079892   2.646954   0.000000
    16  H    5.229914   5.080523   3.954038   3.645801   2.852939
    17  H    5.092231   5.769327   4.571612   5.213955   3.599347
    18  H    4.728102   4.527862   5.009715   4.722202   2.184876
    19  H    5.215195   5.553090   5.689045   5.901342   3.417671
    20  H    6.003873   6.060007   5.823103   5.767686   3.559159
    21  H    2.551484   3.812597   2.740336   3.890413   2.876580
    22  H    4.944453   5.731041   3.346150   4.350367   4.151119
    23  H    4.680787   4.560572   2.510569   2.230566   3.545159
    24  H    5.868189   6.067381   3.656591   3.903384   4.640464
    25  H    4.946397   5.370684   2.512862   3.252084   4.658800
                   16         17         18         19         20
    16  H    0.000000
    17  H    2.945849   0.000000
    18  H    3.057535   3.052550   0.000000
    19  H    4.036387   2.462039   1.778406   0.000000
    20  H    2.957693   2.381301   1.760279   1.761704   0.000000
    21  H    4.064551   2.810332   3.820885   3.659688   4.415023
    22  H    2.982243   2.470185   4.747208   4.754760   4.438402
    23  H    2.537463   4.535877   4.971360   5.967425   5.334697
    24  H    2.670893   4.218635   5.524225   6.170907   5.325834
    25  H    3.751142   4.796792   6.081081   6.679259   6.258237
                   21         22         23         24         25
    21  H    0.000000
    22  H    2.972859   0.000000
    23  H    4.255758   3.069167   0.000000
    24  H    4.713438   2.360805   1.737807   0.000000
    25  H    4.223636   2.590040   1.771487   1.771645   0.000000
 Stoichiometry    C9H16
 Framework group  C1[X(C9H16)]
 Deg. of freedom    69
 Full point group                 C1      NOp   1
 Largest Abelian subgroup         C1      NOp   1
 Largest concise Abelian subgroup C1      NOp   1
                         Standard orientation:                         
 ---------------------------------------------------------------------
 Center     Atomic      Atomic             Coordinates (Angstroms)
 Number     Number       Type             X           Y           Z
 ---------------------------------------------------------------------
      1          6           0       -2.454038   -1.714232    0.085472
      2          6           0       -1.808597   -0.390204   -0.288878
      3          6           0       -0.265912   -0.488991   -0.407015
      4          6           0        0.884642    0.686035   -0.559297
      5          6           0        1.773596   -0.236497    0.383769
      6          6           0        2.658186   -1.215031   -0.346566
      7          6           0        0.291939   -0.252040    1.008320
      8          6           0        0.077882    1.412882    0.590603
      9          6           0       -0.787626    2.371164   -0.237146
     10          1           0       -3.531225   -1.566685    0.228291
     11          1           0       -2.049163   -2.110512    1.022609
     12          1           0       -2.309264   -2.458851   -0.699568
     13          1           0       -2.111063    0.308433    0.502816
     14          1           0       -2.243173   -0.023516   -1.223038
     15          1           0       -0.002134   -1.404847   -0.947297
     16          1           0        1.208008    1.121874   -1.486279
     17          1           0        2.424670    0.321145    1.074305
     18          1           0        2.144331   -1.767392   -1.134198
     19          1           0        3.118545   -1.925753    0.345179
     20          1           0        3.475656   -0.658108   -0.824929
     21          1           0       -0.018932   -0.817234    1.868576
     22          1           0        0.649098    2.023437    1.300937
     23          1           0       -1.174669    1.933641   -1.165963
     24          1           0       -0.168759    3.216811   -0.564637
     25          1           0       -1.632354    2.769047    0.327620
 ---------------------------------------------------------------------
 Rotational constants (GHZ):           2.0167901           1.3772642           0.9538834
 Standard basis: 6-31G(2df,p) (6D, 7F)
 There are   359 symmetry adapted cartesian basis functions of A   symmetry.
 There are   332 symmetry adapted basis functions of A   symmetry.
   332 basis functions,   508 primitive gaussians,   359 cartesian basis functions
    35 alpha electrons       35 beta electrons
       nuclear repulsion energy       472.7112093255 Hartrees.
 NAtoms=   25 NActive=   25 NUniq=   25 SFac= 1.00D+00 NAtFMM=   60 NAOKFM=F Big=F
 Integral buffers will be    131072 words long.
 Raffenetti 2 integral format.
 Two-electron integral symmetry is turned on.
 One-electron integrals computed using PRISM.
 PrsmSu:  requested number of processors reduced to:  13 ShMem   1 Linda.
 NBasis=   332 RedAO= T EigKep=  3.98D-04  NBF=   332
 NBsUse=   332 1.00D-06 EigRej= -1.00D+00 NBFU=   332
 ExpMin= 1.61D-01 ExpMax= 3.05D+03 ExpMxC= 4.57D+02 IAcc=3 IRadAn=         5 AccDes= 0.00D+00
 Harris functional with IExCor=  402 and IRadAn=       5 diagonalized for initial guess.
 HarFok:  IExCor=  402 AccDes= 0.00D+00 IRadAn=         5 IDoV= 1 UseB2=F ITyADJ=14
 ICtDFT=  3500011 ScaDFX=  1.000000  1.000000  1.000000  1.000000
 FoFCou: FMM=F IPFlag=           0 FMFlag=      100000 FMFlg1=           0
         NFxFlg=           0 DoJE=T BraDBF=F KetDBF=T FulRan=T
         wScrn=  0.000000 ICntrl=       500 IOpCl=  0 I1Cent=   200000004 NGrid=           0
         NMat0=    1 NMatS0=      1 NMatT0=    0 NMatD0=    1 NMtDS0=    0 NMtDT0=    0
 Petite list used in FoFCou.
 Requested convergence on RMS density matrix=1.00D-08 within 128 cycles.
 Requested convergence on MAX density matrix=1.00D-06.
 Requested convergence on             energy=1.00D-06.
 No special actions if energy rises.
 Integral accuracy reduced to 1.0D-05 until final iterations.
 Initial convergence to 1.0D-05 achieved.  Increase integral accuracy.
 SCF Done:  E(RB3LYP) =  -352.462842909     A.U. after   12 cycles
            NFock= 12  Conv=0.57D-08     -V/T= 2.0095

 **********************************************************************

            Population analysis using the SCF density.

 **********************************************************************

 Orbital symmetries:
       Occupied  (A) (A) (A) (A) (A) (A) (A) (A) (A) (A) (A) (A)
                 (A) (A) (A) (A) (A) (A) (A) (A) (A) (A) (A) (A)
                 (A) (A) (A) (A) (A) (A) (A) (A) (A) (A) (A)
       Virtual   (A) (A) (A) (A) (A) (A) (A) (A) (A) (A) (A) (A)
                 (A) (A) (A) (A) (A) (A) (A) (A) (A) (A) (A) (A)
                 (A) (A) (A) (A) (A) (A) (A) (A) (A) (A) (A) (A)
                 (A) (A) (A) (A) (A) (A) (A) (A) (A) (A) (A) (A)
                 (A) (A) (A) (A) (A) (A) (A) (A) (A) (A) (A) (A)
                 (A) (A) (A) (A) (A) (A) (A) (A) (A) (A) (A) (A)
                 (A) (A) (A) (A) (A) (A) (A) (A) (A) (A) (A) (A)
                 (A) (A) (A) (A) (A) (A) (A) (A) (A) (A) (A) (A)
                 (A) (A) (A) (A) (A) (A) (A) (A) (A) (A) (A) (A)
                 (A) (A) (A) (A) (A) (A) (A) (A) (A) (A) (A) (A)
                 (A) (A) (A) (A) (A) (A) (A) (A) (A) (A) (A) (A)
                 (A) (A) (A) (A) (A) (A) (A) (A) (A) (A) (A) (A)
                 (A) (A) (A) (A) (A) (A) (A) (A) (A) (A) (A) (A)
                 (A) (A) (A) (A) (A) (A) (A) (A) (A) (A) (A) (A)
                 (A) (A) (A) (A) (A) (A) (A) (A) (A) (A) (A) (A)
                 (A) (A) (A) (A) (A) (A) (A) (A) (A) (A) (A) (A)
                 (A) (A) (A) (A) (A) (A) (A) (A) (A) (A) (A) (A)
                 (A) (A) (A) (A) (A) (A) (A) (A) (A) (A) (A) (A)
                 (A) (A) (A) (A) (A) (A) (A) (A) (A) (A) (A) (A)
                 (A) (A) (A) (A) (A) (A) (A) (A) (A) (A) (A) (A)
                 (A) (A) (A) (A) (A) (A) (A) (A) (A) (A) (A) (A)
                 (A) (A) (A) (A) (A) (A) (A) (A) (A) (A) (A) (A)
                 (A) (A) (A) (A) (A) (A) (A) (A) (A) (A) (A) (A)
                 (A) (A) (A) (A) (A) (A) (A) (A) (A) (A) (A) (A)
                 (A) (A) (A) (A) (A) (A) (A) (A) (A)
 The electronic state is 1-A.
 Alpha  occ. eigenvalues --  -10.20384 -10.19473 -10.18992 -10.18661 -10.18275
 Alpha  occ. eigenvalues --  -10.17633 -10.17440 -10.16983 -10.16785  -0.87673
 Alpha  occ. eigenvalues --   -0.76394  -0.74519  -0.70976  -0.64255  -0.61187
 Alpha  occ. eigenvalues --   -0.58280  -0.57163  -0.50951  -0.48812  -0.45434
 Alpha  occ. eigenvalues --   -0.44043  -0.41636  -0.41121  -0.39693  -0.39372
 Alpha  occ. eigenvalues --   -0.38478  -0.36145  -0.35187  -0.34779  -0.33093
 Alpha  occ. eigenvalues --   -0.30809  -0.29253  -0.26985  -0.26445  -0.25194
 Alpha virt. eigenvalues --    0.05589   0.09701   0.10306   0.10800   0.12074
 Alpha virt. eigenvalues --    0.12930   0.13690   0.14780   0.15340   0.15932
 Alpha virt. eigenvalues --    0.16979   0.17678   0.18092   0.18894   0.19359
 Alpha virt. eigenvalues --    0.20277   0.20972   0.21237   0.22405   0.23307
 Alpha virt. eigenvalues --    0.24827   0.26057   0.26624   0.28066   0.29875
 Alpha virt. eigenvalues --    0.33129   0.43773   0.45428   0.45849   0.46280
 Alpha virt. eigenvalues --    0.48660   0.50732   0.51385   0.52746   0.53678
 Alpha virt. eigenvalues --    0.54282   0.55060   0.56637   0.58519   0.59606
 Alpha virt. eigenvalues --    0.60889   0.62290   0.63877   0.64742   0.65260
 Alpha virt. eigenvalues --    0.66565   0.67664   0.70375   0.70671   0.72338
 Alpha virt. eigenvalues --    0.73120   0.74131   0.74677   0.74913   0.75051
 Alpha virt. eigenvalues --    0.76041   0.77750   0.78205   0.78737   0.80161
 Alpha virt. eigenvalues --    0.81142   0.81934   0.82564   0.83844   0.84575
 Alpha virt. eigenvalues --    0.86634   0.89325   0.89864   0.91207   0.92864
 Alpha virt. eigenvalues --    0.94156   0.98265   1.02005   1.04026   1.07755
 Alpha virt. eigenvalues --    1.11797   1.12040   1.15143   1.16348   1.18249
 Alpha virt. eigenvalues --    1.20953   1.24462   1.25489   1.28017   1.30309
 Alpha virt. eigenvalues --    1.31588   1.34129   1.36383   1.38324   1.39868
 Alpha virt. eigenvalues --    1.42440   1.44524   1.45376   1.46909   1.49455
 Alpha virt. eigenvalues --    1.51302   1.52280   1.52574   1.54579   1.55444
 Alpha virt. eigenvalues --    1.57483   1.60342   1.61797   1.63899   1.67701
 Alpha virt. eigenvalues --    1.68057   1.69849   1.72416   1.74479   1.78215
 Alpha virt. eigenvalues --    1.78612   1.79369   1.79665   1.82076   1.85844
 Alpha virt. eigenvalues --    1.86367   1.90662   1.93031   1.95921   1.96410
 Alpha virt. eigenvalues --    1.96936   1.98220   1.99772   2.08768   2.10245
 Alpha virt. eigenvalues --    2.18941   2.21409   2.25639   2.27478   2.28659
 Alpha virt. eigenvalues --    2.29504   2.31015   2.33893   2.35602   2.37627
 Alpha virt. eigenvalues --    2.40418   2.41310   2.43148   2.44445   2.45660
 Alpha virt. eigenvalues --    2.48270   2.49331   2.54719   2.56862   2.57227
 Alpha virt. eigenvalues --    2.60326   2.65216   2.67943   2.69575   2.75331
 Alpha virt. eigenvalues --    2.75869   2.77128   2.77896   2.79005   2.79214
 Alpha virt. eigenvalues --    2.80819   2.81733   2.83272   2.85088   2.85934
 Alpha virt. eigenvalues --    2.87809   2.89206   2.90663   2.91769   2.93840
 Alpha virt. eigenvalues --    2.94517   2.96287   2.97457   2.97953   2.98188
 Alpha virt. eigenvalues --    3.00304   3.01421   3.04938   3.07378   3.09558
 Alpha virt. eigenvalues --    3.10275   3.12801   3.15107   3.16708   3.17949
 Alpha virt. eigenvalues --    3.20663   3.22311   3.25731   3.28772   3.29860
 Alpha virt. eigenvalues --    3.31003   3.32248   3.35218   3.39170   3.40100
 Alpha virt. eigenvalues --    3.40248   3.42990   3.45040   3.46954   3.50799
 Alpha virt. eigenvalues --    3.53432   3.56224   3.57813   3.58894   3.61435
 Alpha virt. eigenvalues --    3.62133   3.63690   3.65662   3.66630   3.70381
 Alpha virt. eigenvalues --    3.71888   3.72116   3.76746   3.77830   3.80176
 Alpha virt. eigenvalues --    3.84084   3.85310   3.87537   3.90001   3.92077
 Alpha virt. eigenvalues --    3.93321   3.96562   4.00581   4.03738   4.04473
 Alpha virt. eigenvalues --    4.07121   4.11620   4.14496   4.17803   4.22194
 Alpha virt. eigenvalues --    4.25004   4.27944   4.34743   4.36483   4.41485
 Alpha virt. eigenvalues --    4.42102   4.43222   4.44463   4.45242   4.46095
 Alpha virt. eigenvalues --    4.47983   4.50114   4.51491   4.52478   4.55244
 Alpha virt. eigenvalues --    4.58029   4.58906   4.61342   4.62968   4.63772
 Alpha virt. eigenvalues --    4.64534   4.66871   4.67933   4.69409   4.72281
 Alpha virt. eigenvalues --    4.72472   4.73821   4.74405   4.77524   4.80648
 Alpha virt. eigenvalues --    4.81664   4.83208   4.84971   4.85688   4.86821
 Alpha virt. eigenvalues --    4.88728   4.89184   4.91182   4.95444   4.97074
 Alpha virt. eigenvalues --    5.00756   5.01832   5.04706   5.06369   5.09032
 Alpha virt. eigenvalues --    5.10197   5.13614   5.18975   5.26087   5.32741
 Alpha virt. eigenvalues --    5.37609   5.42805   5.43476   5.49474   5.53462
 Alpha virt. eigenvalues --    5.59838   5.66082   5.71652   5.76792   5.83849
 Alpha virt. eigenvalues --    6.01471   6.15774   6.89204  11.09963  11.42022
 Alpha virt. eigenvalues --   11.60287  11.72714  11.95863  12.15366  12.25503
 Alpha virt. eigenvalues --   12.41876  12.87812
          Condensed to atoms (all electrons):
               1          2          3          4          5          6
     1  C    4.976917   0.401487  -0.025749   0.002450   0.000166  -0.000009
     2  C    0.401487   4.863218   0.406714  -0.009737   0.003632   0.000465
     3  C   -0.025749   0.406714   4.729377   0.330328  -0.028604  -0.008711
     4  C    0.002450  -0.009737   0.330328   4.940013   0.363962  -0.034578
     5  C    0.000166   0.003632  -0.028604   0.363962   4.701804   0.404260
     6  C   -0.000009   0.000465  -0.008711  -0.034578   0.404260   5.026251
     7  C   -0.002662  -0.045097   0.338120  -0.054966   0.349114  -0.012518
     8  C    0.000231  -0.017884  -0.021644   0.334125  -0.016581   0.002870
     9  C    0.000327  -0.002599  -0.016985  -0.045910   0.001461  -0.000227
    10  H    0.372522  -0.021259   0.002444  -0.000092  -0.000002   0.000000
    11  H    0.375891  -0.030019  -0.003507  -0.000058  -0.000196   0.000002
    12  H    0.374417  -0.027025  -0.003348  -0.000017   0.000006  -0.000004
    13  H   -0.043414   0.372178  -0.020606  -0.002553   0.000704   0.000000
    14  H   -0.037116   0.352605  -0.031390  -0.003111  -0.000349  -0.000005
    15  H   -0.005988  -0.054647   0.358145  -0.050542  -0.005217   0.001967
    16  H   -0.000040   0.000228  -0.038253   0.343003  -0.046712   0.001446
    17  H    0.000006  -0.000480   0.007128  -0.029904   0.354301  -0.061079
    18  H    0.000006  -0.000298   0.001969  -0.005257  -0.022151   0.366068
    19  H   -0.000001   0.000005  -0.000006   0.003992  -0.020996   0.365639
    20  H   -0.000000  -0.000009  -0.000211  -0.004255  -0.022134   0.377118
    21  H    0.001041   0.000704  -0.041777   0.011431  -0.036911   0.000322
    22  H   -0.000010   0.000819   0.005585  -0.024834  -0.004473  -0.000150
    23  H    0.000133   0.001061   0.001326  -0.005313   0.000614  -0.000006
    24  H   -0.000019   0.000114   0.000380  -0.005601   0.000080   0.000010
    25  H   -0.000013  -0.000415   0.000797   0.005270  -0.000205   0.000003
               7          8          9         10         11         12
     1  C   -0.002662   0.000231   0.000327   0.372522   0.375891   0.374417
     2  C   -0.045097  -0.017884  -0.002599  -0.021259  -0.030019  -0.027025
     3  C    0.338120  -0.021644  -0.016985   0.002444  -0.003507  -0.003348
     4  C   -0.054966   0.334125  -0.045910  -0.000092  -0.000058  -0.000017
     5  C    0.349114  -0.016581   0.001461  -0.000002  -0.000196   0.000006
     6  C   -0.012518   0.002870  -0.000227   0.000000   0.000002  -0.000004
     7  C    5.019875   0.313508  -0.004715   0.000017   0.002841  -0.000178
     8  C    0.313508   4.837453   0.395542  -0.000023   0.000084  -0.000007
     9  C   -0.004715   0.395542   5.020061   0.000020   0.000002  -0.000001
    10  H    0.000017  -0.000023   0.000020   0.605205  -0.032780  -0.031195
    11  H    0.002841   0.000084   0.000002  -0.032780   0.602881  -0.033269
    12  H   -0.000178  -0.000007  -0.000001  -0.031195  -0.033269   0.603699
    13  H   -0.011336   0.003502  -0.001119  -0.003256  -0.004345   0.005842
    14  H    0.005846   0.000601  -0.001201  -0.002362   0.006143  -0.005026
    15  H   -0.037302   0.007813   0.000504  -0.000007   0.000496   0.004802
    16  H    0.014506  -0.047642   0.003810   0.000000  -0.000001  -0.000004
    17  H   -0.051206  -0.007078  -0.000137  -0.000000   0.000007   0.000000
    18  H   -0.004519   0.000303  -0.000004  -0.000000   0.000007  -0.000003
    19  H   -0.002323  -0.000198   0.000003   0.000000   0.000000   0.000000
    20  H    0.003159   0.000054   0.000010   0.000000  -0.000000   0.000000
    21  H    0.342713  -0.032440   0.000085  -0.000090   0.002316   0.000033
    22  H   -0.047774   0.345742  -0.055756  -0.000001  -0.000003   0.000000
    23  H   -0.002087  -0.024963   0.374627  -0.000003   0.000010  -0.000010
    24  H    0.001940  -0.021082   0.375890  -0.000000   0.000000   0.000000
    25  H   -0.001644  -0.028679   0.359664   0.000002   0.000001   0.000001
              13         14         15         16         17         18
     1  C   -0.043414  -0.037116  -0.005988  -0.000040   0.000006   0.000006
     2  C    0.372178   0.352605  -0.054647   0.000228  -0.000480  -0.000298
     3  C   -0.020606  -0.031390   0.358145  -0.038253   0.007128   0.001969
     4  C   -0.002553  -0.003111  -0.050542   0.343003  -0.029904  -0.005257
     5  C    0.000704  -0.000349  -0.005217  -0.046712   0.354301  -0.022151
     6  C    0.000000  -0.000005   0.001967   0.001446  -0.061079   0.366068
     7  C   -0.011336   0.005846  -0.037302   0.014506  -0.051206  -0.004519
     8  C    0.003502   0.000601   0.007813  -0.047642  -0.007078   0.000303
     9  C   -0.001119  -0.001201   0.000504   0.003810  -0.000137  -0.000004
    10  H   -0.003256  -0.002362  -0.000007   0.000000  -0.000000  -0.000000
    11  H   -0.004345   0.006143   0.000496  -0.000001   0.000007   0.000007
    12  H    0.005842  -0.005026   0.004802  -0.000004   0.000000  -0.000003
    13  H    0.634216  -0.041454   0.006419  -0.000070  -0.000017  -0.000000
    14  H   -0.041454   0.670130   0.001990   0.000480   0.000011   0.000016
    15  H    0.006419   0.001990   0.716351   0.001241  -0.000180   0.004457
    16  H   -0.000070   0.000480   0.001241   0.708807  -0.000249  -0.000071
    17  H   -0.000017   0.000011  -0.000180  -0.000249   0.722354   0.007314
    18  H   -0.000000   0.000016   0.004457  -0.000071   0.007314   0.599968
    19  H    0.000000  -0.000000  -0.000113  -0.000149  -0.001198  -0.031065
    20  H    0.000000  -0.000000  -0.000008   0.002462  -0.005898  -0.033922
    21  H    0.000314  -0.000139  -0.001442  -0.000993   0.001297  -0.000074
    22  H   -0.000728  -0.000035  -0.000644  -0.001264   0.009391   0.000017
    23  H   -0.002907   0.003030  -0.000735   0.000103   0.000031   0.000000
    24  H    0.000362   0.000083   0.000032   0.003142  -0.000021   0.000000
    25  H    0.001610  -0.000111   0.000008  -0.000132   0.000001   0.000000
              19         20         21         22         23         24
     1  C   -0.000001  -0.000000   0.001041  -0.000010   0.000133  -0.000019
     2  C    0.000005  -0.000009   0.000704   0.000819   0.001061   0.000114
     3  C   -0.000006  -0.000211  -0.041777   0.005585   0.001326   0.000380
     4  C    0.003992  -0.004255   0.011431  -0.024834  -0.005313  -0.005601
     5  C   -0.020996  -0.022134  -0.036911  -0.004473   0.000614   0.000080
     6  C    0.365639   0.377118   0.000322  -0.000150  -0.000006   0.000010
     7  C   -0.002323   0.003159   0.342713  -0.047774  -0.002087   0.001940
     8  C   -0.000198   0.000054  -0.032440   0.345742  -0.024963  -0.021082
     9  C    0.000003   0.000010   0.000085  -0.055756   0.374627   0.375890
    10  H    0.000000   0.000000  -0.000090  -0.000001  -0.000003  -0.000000
    11  H    0.000000  -0.000000   0.002316  -0.000003   0.000010   0.000000
    12  H    0.000000   0.000000   0.000033   0.000000  -0.000010   0.000000
    13  H    0.000000   0.000000   0.000314  -0.000728  -0.002907   0.000362
    14  H   -0.000000  -0.000000  -0.000139  -0.000035   0.003030   0.000083
    15  H   -0.000113  -0.000008  -0.001442  -0.000644  -0.000735   0.000032
    16  H   -0.000149   0.002462  -0.000993  -0.001264   0.000103   0.003142
    17  H   -0.001198  -0.005898   0.001297   0.009391   0.000031  -0.000021
    18  H   -0.031065  -0.033922  -0.000074   0.000017   0.000000   0.000000
    19  H    0.607839  -0.034536   0.000418  -0.000007   0.000000   0.000000
    20  H   -0.034536   0.592587  -0.000093  -0.000004   0.000000  -0.000001
    21  H    0.000418  -0.000093   0.680927   0.001973  -0.000021  -0.000034
    22  H   -0.000007  -0.000004   0.001973   0.710923   0.006301  -0.007035
    23  H    0.000000   0.000000  -0.000021   0.006301   0.589923  -0.035623
    24  H    0.000000  -0.000001  -0.000034  -0.007035  -0.035623   0.596987
    25  H   -0.000000   0.000000   0.000059   0.001964  -0.032880  -0.033525
              25
     1  C   -0.000013
     2  C   -0.000415
     3  C    0.000797
     4  C    0.005270
     5  C   -0.000205
     6  C    0.000003
     7  C   -0.001644
     8  C   -0.028679
     9  C    0.359664
    10  H    0.000002
    11  H    0.000001
    12  H    0.000001
    13  H    0.001610
    14  H   -0.000111
    15  H    0.000008
    16  H   -0.000132
    17  H    0.000001
    18  H    0.000000
    19  H   -0.000000
    20  H    0.000000
    21  H    0.000059
    22  H    0.001964
    23  H   -0.032880
    24  H   -0.033525
    25  H    0.625058
 Mulliken charges:
               1
     1  C   -0.390573
     2  C   -0.193761
     3  C    0.058477
     4  C   -0.057847
     5  C    0.024426
     6  C   -0.429133
     7  C   -0.113313
     8  C   -0.023610
     9  C   -0.403351
    10  H    0.110857
    11  H    0.113496
    12  H    0.111283
    13  H    0.106658
    14  H    0.081362
    15  H    0.052599
    16  H    0.056349
    17  H    0.055606
    18  H    0.117237
    19  H    0.112698
    20  H    0.125681
    21  H    0.070380
    22  H    0.060002
    23  H    0.127388
    24  H    0.123921
    25  H    0.103169
 Sum of Mulliken charges =  -0.00000
 Mulliken charges with hydrogens summed into heavy atoms:
               1
     1  C   -0.054937
     2  C   -0.005741
     3  C    0.111076
     4  C   -0.001498
     5  C    0.080032
     6  C   -0.073517
     7  C   -0.042932
     8  C    0.036392
     9  C   -0.048874
 Electronic spatial extent (au):  <R**2>=           1395.7542
 Charge=             -0.0000 electrons
 Dipole moment (field-independent basis, Debye):
    X=              0.1542    Y=              0.0428    Z=             -0.2479  Tot=              0.2950
 Quadrupole moment (field-independent basis, Debye-Ang):
   XX=            -58.0283   YY=            -58.1946   ZZ=            -57.8708
   XY=             -0.2609   XZ=             -0.4871   YZ=             -0.6453
 Traceless Quadrupole moment (field-independent basis, Debye-Ang):
   XX=              0.0029   YY=             -0.1634   ZZ=              0.1605
   XY=             -0.2609   XZ=             -0.4871   YZ=             -0.6453
 Octapole moment (field-independent basis, Debye-Ang**2):
  XXX=              1.9130  YYY=              3.2671  ZZZ=             -0.9896  XYY=              1.5257
  XXY=              0.3147  XXZ=             -0.2540  XZZ=             -0.0553  YZZ=             -1.0675
  YYZ=             -1.2831  XYZ=             -1.0668
 Hexadecapole moment (field-independent basis, Debye-Ang**3):
 XXXX=          -1018.3447 YYYY=           -695.3885 ZZZZ=           -205.6877 XXXY=             -3.0091
 XXXZ=             -4.5179 YYYX=             -0.7334 YYYZ=             -1.5717 ZZZX=             -0.4446
 ZZZY=             -3.4802 XXYY=           -296.5026 XXZZ=           -204.8367 YYZZ=           -146.1548
 XXYZ=             -1.3917 YYXZ=              0.8216 ZZXY=              0.8235
 N-N= 4.727112093255D+02 E-N=-1.759969955568D+03  KE= 3.491557609967D+02
 PrsmSu:  requested number of processors reduced to:  13 ShMem   1 Linda.
 Calling FoFJK, ICntrl=      2127 FMM=F ISym2X=0 I1Cent= 0 IOpClX= 0 NMat=1 NMatS=1 NMatT=0.
 ***** Axes restored to original set *****
 -------------------------------------------------------------------
 Center     Atomic                   Forces (Hartrees/Bohr)
 Number     Number              X              Y              Z
 -------------------------------------------------------------------
      1        6          -0.004350332    0.001177443   -0.003307037
      2        6           0.012543998    0.014170789   -0.004988892
      3        6          -0.003142599   -0.006122065    0.009628381
      4        6          -0.038682337   -0.021312495    0.015313079
      5        6           0.038966961    0.016736424    0.047358355
      6        6          -0.017875928   -0.003640115   -0.001239751
      7        6           0.009473216    0.029407236   -0.029524013
      8        6           0.023115222   -0.035889726   -0.059850140
      9        6          -0.021911768    0.009623860    0.025391409
     10        1          -0.001121583   -0.000501073   -0.001927588
     11        1          -0.000469109   -0.000140771   -0.001127933
     12        1          -0.003655061   -0.000294547   -0.001540312
     13        1           0.005865084    0.001733506   -0.005862528
     14        1          -0.002589916    0.004547560    0.001720113
     15        1          -0.001998843   -0.004709673    0.000954912
     16        1           0.010783601    0.007043499   -0.004405288
     17        1           0.005932741    0.004548690   -0.000273649
     18        1          -0.003084509    0.000316044   -0.001453500
     19        1          -0.002240767   -0.000463203   -0.003255082
     20        1          -0.000979554    0.000577411    0.003479594
     21        1          -0.004394645   -0.006566850    0.012284360
     22        1           0.001837014   -0.002385321   -0.005877738
     23        1          -0.002550824   -0.004244206    0.003448126
     24        1          -0.001902535   -0.008324469    0.000657694
     25        1           0.002432474    0.004712052    0.004397428
 -------------------------------------------------------------------
 Cartesian Forces:  Max     0.059850140 RMS     0.014792488

 GradGradGradGradGradGradGradGradGradGradGradGradGradGradGradGradGradGrad
 Berny optimization.
 FormGI is forming the generalized inverse of G from B-inverse, IUseBI=4.
 Internal  Forces:  Max     0.027528796 RMS     0.006698080
 Search for a local minimum.
 Step number   1 out of a maximum of  150
 All quantities printed in internal units (Hartrees-Bohrs-Radians)
 Mixed Optimization -- RFO/linear search
 Second derivative matrix not updated -- first step.
 ITU=  0
     Eigenvalues ---    0.00230   0.00319   0.00504   0.00663   0.01365
     Eigenvalues ---    0.01799   0.01933   0.02010   0.02187   0.02438
     Eigenvalues ---    0.02470   0.02733   0.03243   0.03534   0.03990
     Eigenvalues ---    0.04058   0.04744   0.04789   0.05014   0.05378
     Eigenvalues ---    0.05530   0.05626   0.05642   0.05793   0.05975
     Eigenvalues ---    0.07225   0.07791   0.08364   0.08496   0.09167
     Eigenvalues ---    0.09828   0.12191   0.14790   0.16000   0.16000
     Eigenvalues ---    0.16000   0.16000   0.16000   0.16000   0.16000
     Eigenvalues ---    0.16000   0.16000   0.16151   0.16438   0.18215
     Eigenvalues ---    0.20952   0.21803   0.21914   0.24230   0.27621
     Eigenvalues ---    0.29074   0.30386   0.31574   0.33597   0.33821
     Eigenvalues ---    0.33866   0.33916   0.33990   0.34004   0.34063
     Eigenvalues ---    0.34177   0.34233   0.34399   0.34420   0.34622
     Eigenvalues ---    0.34668   0.34738   0.36577   0.36709
 RFO step:  Lambda=-5.40995870D-02 EMin= 2.30000000D-03
 Linear search not attempted -- first point.
 Maximum step size (   0.300) exceeded in Quadratic search.
    -- Step size scaled by   0.870
 Iteration  1 RMS(Cart)=  0.10855560 RMS(Int)=  0.00697704
 Iteration  2 RMS(Cart)=  0.00961299 RMS(Int)=  0.00120567
 Iteration  3 RMS(Cart)=  0.00012850 RMS(Int)=  0.00120339
 Iteration  4 RMS(Cart)=  0.00000026 RMS(Int)=  0.00120339
 Variable       Old X    -DE/DX   Delta X   Delta X   Delta X     New X
                                 (Linear)    (Quad)   (Total)
    R1        2.87200   0.00968   0.00000   0.02353   0.02353   2.89553
    R2        2.07224  -0.00127   0.00000  -0.00279  -0.00279   2.06945
    R3        2.06939   0.00012   0.00000   0.00026   0.00026   2.06965
    R4        2.06292   0.00260   0.00000   0.00565   0.00565   2.06858
    R5        2.92974  -0.00229   0.00000  -0.00603  -0.00603   2.92371
    R6        2.07557  -0.00434   0.00000  -0.00962  -0.00962   2.06595
    R7        2.06661   0.00344   0.00000   0.00753   0.00753   2.07414
    R8        3.12100  -0.00467   0.00000  -0.02958  -0.02864   3.09236
    R9        2.90951   0.00187   0.00000   0.01298   0.01402   2.92354
   R10        2.07033  -0.00014   0.00000  -0.00030  -0.00030   2.07002
   R11        3.00620  -0.02663   0.00000  -0.07175  -0.07176   2.93444
   R12        2.98878  -0.01033   0.00000  -0.02836  -0.02998   2.95880
   R13        2.02987   0.01322   0.00000   0.02732   0.02732   2.05719
   R14        2.84930   0.00695   0.00000   0.01636   0.01636   2.86567
   R15        3.03865  -0.02753   0.00000  -0.07490  -0.07440   2.96425
   R16        2.08016   0.00002   0.00000   0.00005   0.00005   2.08021
   R17        2.06103   0.00244   0.00000   0.00528   0.00528   2.06631
   R18        2.06626   0.00204   0.00000   0.00445   0.00445   2.07072
   R19        2.07634  -0.00254   0.00000  -0.00563  -0.00563   2.07071
   R20        3.26888  -0.01899   0.00000  -0.08962  -0.09045   3.17844
   R21        2.03189   0.01182   0.00000   0.02449   0.02449   2.05638
   R22        2.89848   0.00330   0.00000   0.00833   0.00833   2.90682
   R23        2.07323   0.00065   0.00000   0.00144   0.00144   2.07467
   R24        2.07348  -0.00424   0.00000  -0.00936  -0.00936   2.06412
   R25        2.07471  -0.00207   0.00000  -0.00458  -0.00458   2.07013
   R26        2.06217   0.00465   0.00000   0.01009   0.01009   2.07226
    A1        1.90926   0.00196   0.00000   0.00890   0.00885   1.91811
    A2        1.94877  -0.00049   0.00000  -0.00255  -0.00254   1.94623
    A3        1.93990   0.00360   0.00000   0.01422   0.01418   1.95409
    A4        1.87593  -0.00054   0.00000  -0.00146  -0.00145   1.87448
    A5        1.89200  -0.00249   0.00000  -0.00907  -0.00916   1.88284
    A6        1.89605  -0.00227   0.00000  -0.01089  -0.01088   1.88517
    A7        1.96692  -0.01059   0.00000  -0.03364  -0.03359   1.93333
    A8        1.83345   0.00925   0.00000   0.04254   0.04248   1.87594
    A9        1.91108  -0.00072   0.00000  -0.01172  -0.01159   1.89949
   A10        1.94924  -0.00186   0.00000  -0.01286  -0.01247   1.93677
   A11        1.93017   0.00684   0.00000   0.02445   0.02420   1.95437
   A12        1.86816  -0.00259   0.00000  -0.00749  -0.00741   1.86075
   A13        2.28484   0.00221   0.00000  -0.00645  -0.00606   2.27878
   A14        1.85530   0.01574   0.00000   0.09287   0.09352   1.94882
   A15        1.90755  -0.00733   0.00000  -0.02743  -0.02791   1.87963
   A16        1.28997  -0.01007   0.00000  -0.02959  -0.02997   1.26001
   A17        1.96228   0.00334   0.00000   0.00912   0.00815   1.97043
   A18        2.08834  -0.00237   0.00000  -0.02747  -0.02732   2.06102
   A19        1.49276   0.00528   0.00000   0.02530   0.02655   1.51931
   A20        1.47522   0.00959   0.00000   0.06368   0.06307   1.53829
   A21        2.18703  -0.00916   0.00000  -0.03439  -0.03501   2.15202
   A22        1.69163  -0.00797   0.00000  -0.06884  -0.07141   1.62022
   A23        2.18790   0.00026   0.00000   0.00334   0.00384   2.19173
   A24        2.20747   0.00419   0.00000   0.02374   0.02432   2.23179
   A25        2.00099   0.00132   0.00000   0.02987   0.03091   2.03191
   A26        1.28800   0.00265   0.00000   0.00222   0.00222   1.29022
   A27        1.99174  -0.00219   0.00000  -0.01933  -0.01993   1.97181
   A28        2.37814  -0.01408   0.00000  -0.09324  -0.09193   2.28621
   A29        1.86045   0.00625   0.00000   0.03230   0.03146   1.89192
   A30        1.88204   0.00462   0.00000   0.03828   0.03810   1.92014
   A31        1.98457   0.00100   0.00000   0.00357   0.00355   1.98812
   A32        1.94165   0.00459   0.00000   0.01903   0.01905   1.96070
   A33        1.89486  -0.00439   0.00000  -0.01774  -0.01769   1.87717
   A34        1.90292  -0.00335   0.00000  -0.01380  -0.01384   1.88907
   A35        1.86798   0.00164   0.00000   0.00591   0.00591   1.87388
   A36        1.86675   0.00037   0.00000   0.00250   0.00260   1.86935
   A37        1.54909   0.00440   0.00000   0.01573   0.01627   1.56536
   A38        1.45182   0.01046   0.00000   0.06993   0.06907   1.52089
   A39        2.15294  -0.00001   0.00000   0.02647   0.02831   2.18125
   A40        1.58172  -0.00484   0.00000  -0.04272  -0.04628   1.53545
   A41        2.19227   0.00033   0.00000  -0.00240  -0.00539   2.18689
   A42        2.29608  -0.00560   0.00000  -0.03909  -0.04158   2.25451
   A43        1.23462  -0.00344   0.00000  -0.00448  -0.00406   1.23056
   A44        1.75442   0.00710   0.00000   0.06663   0.07273   1.82715
   A45        2.04982  -0.00288   0.00000  -0.03031  -0.03114   2.01868
   A46        2.50056  -0.00716   0.00000  -0.05840  -0.05975   2.44082
   A47        1.89110   0.00262   0.00000   0.01863   0.01799   1.90910
   A48        1.87080   0.00323   0.00000   0.02171   0.01917   1.88996
   A49        1.98969  -0.00227   0.00000  -0.00685  -0.00703   1.98267
   A50        1.90088  -0.01152   0.00000  -0.04916  -0.04905   1.85184
   A51        1.96634   0.00880   0.00000   0.03577   0.03592   2.00226
   A52        1.82706   0.00738   0.00000   0.03026   0.03000   1.85706
   A53        1.88644  -0.00272   0.00000  -0.00720  -0.00729   1.87915
   A54        1.88586   0.00032   0.00000  -0.00326  -0.00281   1.88305
    D1        3.06749  -0.00103   0.00000  -0.00152  -0.00182   3.06568
    D2        0.94144   0.00126   0.00000   0.00560   0.00572   0.94716
    D3       -1.05957  -0.00016   0.00000  -0.00219  -0.00208  -1.06164
    D4        0.99326  -0.00132   0.00000  -0.00389  -0.00417   0.98909
    D5       -1.13280   0.00096   0.00000   0.00323   0.00337  -1.12943
    D6       -3.13380  -0.00046   0.00000  -0.00456  -0.00443  -3.13824
    D7       -1.12701  -0.00060   0.00000   0.00186   0.00161  -1.12540
    D8        3.03011   0.00168   0.00000   0.00898   0.00915   3.03926
    D9        1.02911   0.00026   0.00000   0.00119   0.00135   1.03046
   D10       -2.95971  -0.00319   0.00000  -0.03980  -0.03937  -2.99908
   D11       -1.51794  -0.00307   0.00000  -0.00287  -0.00367  -1.52162
   D12        0.75850   0.00010   0.00000   0.00964   0.00944   0.76794
   D13       -0.90057   0.00021   0.00000  -0.01697  -0.01625  -0.91681
   D14        0.54120   0.00033   0.00000   0.01996   0.01945   0.56065
   D15        2.81764   0.00350   0.00000   0.03247   0.03257   2.85021
   D16        1.17798   0.00029   0.00000  -0.01852  -0.01782   1.16016
   D17        2.61975   0.00040   0.00000   0.01840   0.01788   2.63763
   D18       -1.38700   0.00358   0.00000   0.03091   0.03099  -1.35600
   D19        2.48960   0.00855   0.00000   0.08646   0.08626   2.57586
   D20        0.78948   0.01803   0.00000   0.16441   0.16439   0.95387
   D21       -1.50744   0.00880   0.00000   0.09531   0.09596  -1.41148
   D22        0.78179  -0.00367   0.00000  -0.01386  -0.01429   0.76750
   D23       -0.91833   0.00582   0.00000   0.06410   0.06384  -0.85449
   D24        3.06794  -0.00341   0.00000  -0.00501  -0.00459   3.06335
   D25       -1.24238   0.00252   0.00000   0.02656   0.02631  -1.21607
   D26       -2.94250   0.01200   0.00000   0.10452   0.10444  -2.83806
   D27        1.04377   0.00277   0.00000   0.03541   0.03601   1.07978
   D28       -3.01545   0.00432   0.00000   0.03473   0.03532  -2.98013
   D29       -1.43105  -0.00133   0.00000  -0.01182  -0.01340  -1.44446
   D30        0.94518   0.00001   0.00000   0.00858   0.00968   0.95486
   D31       -0.76851   0.00307   0.00000   0.01115   0.01191  -0.75660
   D32        0.81589  -0.00257   0.00000  -0.03540  -0.03682   0.77907
   D33       -3.09107  -0.00123   0.00000  -0.01500  -0.01373  -3.10480
   D34        1.09938   0.00213   0.00000   0.01021   0.01091   1.11029
   D35        2.68378  -0.00351   0.00000  -0.03635  -0.03781   2.64597
   D36       -1.22318  -0.00217   0.00000  -0.01595  -0.01472  -1.23790
   D37        1.59746  -0.01664   0.00000  -0.10616  -0.10488   1.49257
   D38       -0.74095  -0.00214   0.00000  -0.00546  -0.00480  -0.74576
   D39       -2.53287  -0.00875   0.00000  -0.05277  -0.05160  -2.58447
   D40        3.06214  -0.00553   0.00000  -0.03214  -0.03390   3.02823
   D41        0.72373   0.00898   0.00000   0.06856   0.06618   0.78990
   D42       -1.06819   0.00236   0.00000   0.02125   0.01938  -1.04881
   D43       -0.68799  -0.00921   0.00000  -0.08422  -0.08355  -0.77154
   D44       -3.02640   0.00530   0.00000   0.01648   0.01653  -3.00987
   D45        1.46487  -0.00132   0.00000  -0.03083  -0.03027   1.43460
   D46        0.80355   0.00032   0.00000  -0.02496  -0.02720   0.77635
   D47       -1.69225   0.00983   0.00000   0.05914   0.05664  -1.63562
   D48        2.56993   0.00249   0.00000   0.00218  -0.00045   2.56948
   D49       -0.67659  -0.00713   0.00000  -0.06630  -0.06467  -0.74127
   D50        3.11079   0.00238   0.00000   0.01780   0.01917   3.12996
   D51        1.08979  -0.00496   0.00000  -0.03916  -0.03792   1.05187
   D52        3.08352  -0.00130   0.00000  -0.00229  -0.00133   3.08219
   D53        0.58772   0.00821   0.00000   0.08180   0.08251   0.67023
   D54       -1.43328   0.00087   0.00000   0.02484   0.02543  -1.40786
   D55       -0.82386   0.00144   0.00000   0.00913   0.01040  -0.81346
   D56       -2.98041   0.00153   0.00000   0.00983   0.01106  -2.96935
   D57        1.25317   0.00111   0.00000   0.00660   0.00789   1.26106
   D58        0.78236  -0.00010   0.00000  -0.00202  -0.00292   0.77944
   D59       -1.37419  -0.00001   0.00000  -0.00132  -0.00227  -1.37646
   D60        2.85938  -0.00043   0.00000  -0.00455  -0.00543   2.85395
   D61       -3.04554  -0.00164   0.00000  -0.01300  -0.01335  -3.05889
   D62        1.08109  -0.00155   0.00000  -0.01230  -0.01270   1.06840
   D63       -0.96852  -0.00197   0.00000  -0.01553  -0.01587  -0.98438
   D64        0.80672   0.00054   0.00000  -0.00661  -0.00756   0.79916
   D65       -0.64483  -0.01010   0.00000  -0.07776  -0.07706  -0.72189
   D66        3.09951   0.00484   0.00000   0.04290   0.04381  -3.13987
   D67       -1.09456  -0.00331   0.00000  -0.04729  -0.04859  -1.14315
   D68       -2.54611  -0.01394   0.00000  -0.11844  -0.11810  -2.66420
   D69        1.19823   0.00099   0.00000   0.00222   0.00277   1.20100
   D70        2.73885  -0.00206   0.00000  -0.03396  -0.03537   2.70348
   D71        1.28730  -0.01270   0.00000  -0.10511  -0.10488   1.18242
   D72       -1.25155   0.00224   0.00000   0.01555   0.01599  -1.23556
   D73       -0.88528   0.00264   0.00000   0.04923   0.04972  -0.83556
   D74        0.54012   0.01424   0.00000   0.19230   0.19263   0.73275
   D75       -2.86594   0.00710   0.00000   0.08732   0.08869  -2.77725
   D76        0.66235   0.00780   0.00000   0.07115   0.06921   0.73156
   D77        2.08775   0.01939   0.00000   0.21422   0.21212   2.29987
   D78       -1.31831   0.01225   0.00000   0.10923   0.10818  -1.21013
   D79        3.14038  -0.00511   0.00000  -0.04019  -0.03849   3.10190
   D80       -1.71740   0.00649   0.00000   0.10288   0.10442  -1.61298
   D81        1.15972  -0.00066   0.00000  -0.00211   0.00048   1.16021
   D82        0.68943   0.00105   0.00000   0.02911   0.02594   0.71537
   D83       -1.34348   0.00090   0.00000   0.02825   0.02484  -1.31865
   D84        2.84758   0.00271   0.00000   0.04298   0.03990   2.88748
   D85       -0.56392  -0.00447   0.00000  -0.06755  -0.06528  -0.62920
   D86       -2.59683  -0.00462   0.00000  -0.06841  -0.06639  -2.66322
   D87        1.59423  -0.00281   0.00000  -0.05368  -0.05132   1.54291
   D88        2.84038   0.00266   0.00000   0.03685   0.03791   2.87829
   D89        0.80747   0.00250   0.00000   0.03599   0.03680   0.84427
   D90       -1.28465   0.00432   0.00000   0.05072   0.05186  -1.23279
         Item               Value     Threshold  Converged?
 Maximum Force            0.027529     0.000450     NO 
 RMS     Force            0.006698     0.000300     NO 
 Maximum Displacement     0.509277     0.001800     NO 
 RMS     Displacement     0.111713     0.001200     NO 
 Predicted change in Energy=-3.671703D-02
 GradGradGradGradGradGradGradGradGradGradGradGradGradGradGradGradGradGrad

                          Input orientation:                          
 ---------------------------------------------------------------------
 Center     Atomic      Atomic             Coordinates (Angstroms)
 Number     Number       Type             X           Y           Z
 ---------------------------------------------------------------------
      1          6           0        0.956417    0.156806   -0.126485
      2          6           0        2.478643    0.329705   -0.099704
      3          6           0        3.159937   -0.654051   -1.080406
      4          6           0        4.741889   -1.005777   -1.307428
      5          6           0        4.287555   -2.447171   -1.664174
      6          6           0        3.881372   -2.689436   -3.104982
      7          6           0        3.440867   -2.021731   -0.414108
      8          6           0        4.836418   -1.330609    0.221315
      9          6           0        5.307911   -0.018208    0.870484
     10          1           0        0.494487    0.803688    0.626790
     11          1           0        0.665169   -0.873585    0.103647
     12          1           0        0.531704    0.419048   -1.100700
     13          1           0        2.811337    0.152392    0.926490
     14          1           0        2.720660    1.374794   -0.331902
     15          1           0        2.587467   -0.643194   -2.014259
     16          1           0        5.412282   -0.387606   -1.902006
     17          1           0        5.024157   -3.213267   -1.377333
     18          1           0        3.210075   -1.927411   -3.510317
     19          1           0        3.412517   -3.669699   -3.246350
     20          1           0        4.793622   -2.677938   -3.711926
     21          1           0        2.693960   -2.640268    0.079554
     22          1           0        5.543572   -2.124243    0.495899
     23          1           0        4.830686    0.871713    0.454088
     24          1           0        6.375727    0.067578    0.641441
     25          1           0        5.192877    0.021549    1.960303
 ---------------------------------------------------------------------
                    Distance matrix (angstroms):
                    1          2          3          4          5
     1  C    0.000000
     2  C    1.532249   0.000000
     3  C    2.534355   1.547163   0.000000
     4  C    4.132315   2.892126   1.636406   0.000000
     5  C    4.499074   3.664802   2.197177   1.552838   0.000000
     6  C    5.052514   4.484926   2.960096   2.608908   1.516445
     7  C    3.316812   2.560073   1.547069   1.876923   1.568613
     8  C    4.169866   2.901517   2.227734   1.565728   2.258989
     9  C    4.467671   3.011157   2.970532   2.457432   3.655883
    10  H    1.095107   2.165486   3.484845   5.005576   5.495814
    11  H    1.095213   2.185852   2.770207   4.316046   4.327014
    12  H    1.094644   2.191015   2.838937   4.449554   4.758060
    13  H    2.132957   1.093251   2.190777   3.171558   3.955818
    14  H    2.153659   1.097588   2.206680   3.271718   4.340222
    15  H    2.619927   2.150325   1.095409   2.296217   2.503436
    16  H    4.827380   3.516968   2.412276   1.088617   2.358683
    17  H    5.428492   4.545836   3.180105   2.226561   1.100801
    18  H    4.568726   4.154738   2.743798   2.837003   2.199854
    19  H    5.514356   5.173851   3.721457   3.552904   2.182555
    20  H    5.967856   5.239579   3.699992   2.929234   2.121943
    21  H    3.299262   2.983159   2.346849   2.964674   2.370110
    22  H    5.160672   3.971195   3.213708   2.268402   2.519480
    23  H    3.982226   2.476401   2.733867   2.576003   3.974546
    24  H    5.474175   3.975584   3.718442   2.760363   4.000036
    25  H    4.724466   3.421353   3.719569   3.454975   4.477837
                    6          7          8          9         10
     6  C    0.000000
     7  C    2.807255   0.000000
     8  C    3.717899   1.681956   0.000000
     9  C    4.997480   3.024919   1.538221   0.000000
    10  H    6.131805   4.212792   4.855101   4.889167   0.000000
    11  H    4.892502   3.048083   4.197861   4.782756   1.765235
    12  H    4.990000   3.859021   4.831107   5.185452   1.770185
    13  H    5.047151   2.630650   2.607205   2.503023   2.425242
    14  H    5.055214   3.473016   3.478748   3.174910   2.490201
    15  H    2.655367   2.277968   3.244705   4.014121   3.667312
    16  H    3.014840   2.961534   2.393609   2.798937   5.656739
    17  H    2.136616   2.203263   2.476958   3.916835   6.377331
    18  H    1.093443   3.106231   4.114151   5.218945   5.652342
    19  H    1.095776   3.276919   4.418544   5.820157   6.597523
    20  H    1.095770   3.624383   4.157825   5.323264   7.030557
    21  H    3.399065   1.088192   2.515041   3.785962   4.122861
    22  H    4.006083   2.293467   1.097870   2.152030   5.838079
    23  H    5.123471   3.325263   2.214596   1.092286   4.340170
    24  H    5.278126   3.754037   2.121533   1.095468   5.927146
    25  H    5.892928   3.589200   2.231474   1.096594   4.946197
                   11         12         13         14         15
    11  H    0.000000
    12  H    1.771769   0.000000
    13  H    2.517088   3.062242   0.000000
    14  H    3.077329   2.509189   1.756713   0.000000
    15  H    2.869466   2.487793   3.054682   2.630655   0.000000
    16  H    5.176283   5.011270   3.880323   3.579959   2.838575
    17  H    5.164125   5.783803   4.640241   5.239211   3.598390
    18  H    4.543989   4.299512   4.916282   4.609383   2.067618
    19  H    5.156419   5.442495   5.690553   5.866821   3.370235
    20  H    5.904101   5.879947   5.784040   5.669777   3.448097
    21  H    2.690305   3.927820   2.920621   4.036178   2.895462
    22  H    5.051418   5.842626   3.582399   4.571362   4.151260
    23  H    4.529945   4.593857   2.195076   2.307180   3.663293
    24  H    5.812527   6.108289   3.576775   4.001965   4.680690
    25  H    4.974794   5.590553   2.599543   3.632813   4.798666
                   16         17         18         19         20
    16  H    0.000000
    17  H    2.900049   0.000000
    18  H    3.131674   3.081224   0.000000
    19  H    4.071665   2.509768   1.773761   0.000000
    20  H    2.983986   2.406252   1.763961   1.762896   0.000000
    21  H    4.048499   2.807252   3.696176   3.554953   4.334204
    22  H    2.963629   2.228175   4.640444   4.575397   4.309849
    23  H    2.734103   4.480914   5.116442   6.027343   5.473305
    24  H    2.757633   4.082417   5.589135   6.153273   5.384488
    25  H    3.890113   4.651055   6.136582   6.626026   6.294507
                   21         22         23         24         25
    21  H    0.000000
    22  H    2.925733   0.000000
    23  H    4.127939   3.079887   0.000000
    24  H    4.604731   2.348987   1.751823   0.000000
    25  H    4.106954   2.621429   1.767101   1.772188   0.000000
 Stoichiometry    C9H16
 Framework group  C1[X(C9H16)]
 Deg. of freedom    69
 Full point group                 C1      NOp   1
 Largest Abelian subgroup         C1      NOp   1
 Largest concise Abelian subgroup C1      NOp   1
                         Standard orientation:                         
 ---------------------------------------------------------------------
 Center     Atomic      Atomic             Coordinates (Angstroms)
 Number     Number       Type             X           Y           Z
 ---------------------------------------------------------------------
      1          6           0       -2.496473   -1.658397    0.167306
      2          6           0       -1.841644   -0.364605   -0.327757
      3          6           0       -0.301999   -0.510641   -0.371111
      4          6           0        0.865193    0.602683   -0.646784
      5          6           0        1.762057   -0.215223    0.321704
      6          6           0        2.527768   -1.375036   -0.285027
      7          6           0        0.343775   -0.155451    0.989124
      8          6           0        0.254469    1.455921    0.515329
      9          6           0       -0.716671    2.424642   -0.180795
     10          1           0       -3.577607   -1.514794    0.266236
     11          1           0       -2.113675   -1.951458    1.150704
     12          1           0       -2.329890   -2.491603   -0.522813
     13          1           0       -2.139625    0.436169    0.354274
     14          1           0       -2.257994   -0.110509   -1.311010
     15          1           0       -0.072425   -1.486878   -0.811770
     16          1           0        1.149214    0.936722   -1.643196
     17          1           0        2.470139    0.412029    0.884677
     18          1           0        1.923121   -2.013913   -0.934532
     19          1           0        2.998148   -2.007349    0.476320
     20          1           0        3.333299   -0.954859   -0.897632
     21          1           0        0.078032   -0.607275    1.942747
     22          1           0        0.972117    2.047542    1.098667
     23          1           0       -1.297720    1.961258   -0.981261
     24          1           0       -0.093723    3.191124   -0.654601
     25          1           0       -1.420256    2.930435    0.491263
 ---------------------------------------------------------------------
 Rotational constants (GHZ):           1.9737391           1.4087505           0.9525420
 Standard basis: 6-31G(2df,p) (6D, 7F)
 There are   359 symmetry adapted cartesian basis functions of A   symmetry.
 There are   332 symmetry adapted basis functions of A   symmetry.
   332 basis functions,   508 primitive gaussians,   359 cartesian basis functions
    35 alpha electrons       35 beta electrons
       nuclear repulsion energy       473.4370895541 Hartrees.
 NAtoms=   25 NActive=   25 NUniq=   25 SFac= 1.00D+00 NAtFMM=   60 NAOKFM=F Big=F
 Integral buffers will be    131072 words long.
 Raffenetti 2 integral format.
 Two-electron integral symmetry is turned on.
 One-electron integrals computed using PRISM.
 PrsmSu:  requested number of processors reduced to:  13 ShMem   1 Linda.
 NBasis=   332 RedAO= T EigKep=  3.64D-04  NBF=   332
 NBsUse=   332 1.00D-06 EigRej= -1.00D+00 NBFU=   332
 Initial guess from the checkpoint file:  "CCC1C2CqCrC1C2C.chk"
 B after Tr=     0.000000    0.000000    0.000000
         Rot=    0.999561    0.019607   -0.010741    0.019455 Ang=   3.40 deg.
 ExpMin= 1.61D-01 ExpMax= 3.05D+03 ExpMxC= 4.57D+02 IAcc=2 IRadAn=         4 AccDes= 0.00D+00
 Harris functional with IExCor=  402 and IRadAn=       4 diagonalized for initial guess.
 HarFok:  IExCor=  402 AccDes= 0.00D+00 IRadAn=         4 IDoV= 1 UseB2=F ITyADJ=14
 ICtDFT=  3500011 ScaDFX=  1.000000  1.000000  1.000000  1.000000
 FoFCou: FMM=F IPFlag=           0 FMFlag=      100000 FMFlg1=           0
         NFxFlg=           0 DoJE=T BraDBF=F KetDBF=T FulRan=T
         wScrn=  0.000000 ICntrl=       500 IOpCl=  0 I1Cent=   200000004 NGrid=           0
         NMat0=    1 NMatS0=      1 NMatT0=    0 NMatD0=    1 NMtDS0=    0 NMtDT0=    0
 Petite list used in FoFCou.
 Requested convergence on RMS density matrix=1.00D-08 within 128 cycles.
 Requested convergence on MAX density matrix=1.00D-06.
 Requested convergence on             energy=1.00D-06.
 No special actions if energy rises.
 Integral accuracy reduced to 1.0D-05 until final iterations.
 Initial convergence to 1.0D-05 achieved.  Increase integral accuracy.
 SCF Done:  E(RB3LYP) =  -352.499519578     A.U. after   11 cycles
            NFock= 11  Conv=0.51D-08     -V/T= 2.0094
 PrsmSu:  requested number of processors reduced to:  13 ShMem   1 Linda.
 Calling FoFJK, ICntrl=      2127 FMM=F ISym2X=0 I1Cent= 0 IOpClX= 0 NMat=1 NMatS=1 NMatT=0.
 ***** Axes restored to original set *****
 -------------------------------------------------------------------
 Center     Atomic                   Forces (Hartrees/Bohr)
 Number     Number              X              Y              Z
 -------------------------------------------------------------------
      1        6          -0.000971646    0.000822555    0.000247013
      2        6           0.006547344    0.005076157   -0.006992709
      3        6           0.005531330   -0.005438320    0.010707358
      4        6          -0.017200734    0.001291458    0.001316654
      5        6           0.021223742    0.006930112    0.017760178
      6        6          -0.010719430   -0.004506114    0.001653247
[...]
 .01575460,0.00097365,0.00595812,-0.00337442,-0.00226920,-0.00006985,0.
 00020952,0.00014088,0.00014460,0.00001620,0.00001874,-0.00000379,0.000
 05659,-0.00000598,0.00003092,-0.00002833,0.00003619,-0.00009723,0.0001
 9561,0.00007853,0.00020767,-0.00038476,-0.00013519,0.00021874,-0.00003
 852,0.00010772,-0.00030324,0.00018834,0.00003869,0.02663879,-0.0016793
 5,0.06143913,0.00007181,-0.00003658,-0.00007364,0.00049039,-0.00019052
 ,0.00042182,-0.00018127,0.00104853,0.00047808,-0.00032797,0.00108806,0
 .00054268,-0.01504411,0.00754330,-0.00141192,-0.25064607,0.10440742,-0
 .03637077,0.00000603,0.00016539,0.00055333,-0.00027280,0.00011160,-0.0
 0024321,0.00008692,-0.00011899,-0.00003938,-0.00000209,0.00001290,0.00
 002691,-0.00000564,-0.00000676,0.00000004,0.00002113,-0.00001316,0.000
 01550,-0.00007527,0.00019647,0.00017392,0.00000501,0.00001216,0.000009
 93,0.00164119,0.00056929,0.00129061,0.00004662,-0.00027123,-0.00008124
 ,-0.00024828,-0.00161173,-0.00294963,0.27365335,0.00002903,0.00002849,
 -0.00005054,0.00008065,0.00002491,0.00013087,-0.00062083,-0.00100574,-
 0.00220044,-0.00025202,-0.00002073,0.00080012,-0.01048441,0.00650771,0
 .00171345,0.10515352,-0.10069542,0.01865696,0.00115144,-0.00001638,-0.
 00025582,0.00033706,0.00006161,0.00019029,0.00014558,-0.00010494,0.000
 01251,-0.00001338,-0.00001303,0.00001527,-0.00001746,-0.00002249,0.000
 02009,0.00002534,-0.00001633,0.00000578,-0.00002164,-0.00000611,0.0000
 1157,-0.00001548,0.00001066,0.00000350,0.00039499,-0.00184436,-0.00277
 408,-0.00004490,-0.00005198,-0.00002927,-0.00156181,0.00020921,-0.0023
 3400,-0.11820111,0.10939818,0.00003532,-0.00006719,-0.00003898,0.00052
 274,-0.00001020,0.00040784,-0.00120519,-0.00098090,-0.00155855,0.00045
 434,-0.00036056,0.00092578,-0.02219353,0.01563975,-0.00112369,-0.03546
 521,0.01804903,-0.05326304,0.00019786,0.00116344,0.00064293,0.00003128
 ,-0.00002135,0.00018860,0.00027590,-0.00019747,-0.00005243,0.00001308,
 0.00003979,0.00002498,0.00003727,0.00001372,-0.00005096,0.00001347,-0.
 00004711,0.00000935,-0.00007569,0.00013541,0.00011706,-0.00000639,0.00
 009480,0.00004290,0.00098621,-0.00264092,-0.00124774,0.00015828,-0.000
 22340,-0.00012642,-0.00290370,-0.00236503,-0.00380531,0.03952454,-0.01
 683441,0.05601548,0.00001685,-0.00000334,-0.00006673,0.00027175,0.0000
 1351,0.00014009,-0.00084760,0.00061129,0.00010723,-0.00146383,0.001155
 98,-0.00179958,-0.00367775,-0.01789432,0.00185156,-0.05384868,-0.04236
 305,0.00542639,0.00081097,0.00057933,-0.00009005,0.00015016,-0.0007510
 1,-0.00010010,0.00000484,0.00027175,-0.00029044,0.00001021,-0.00000764
 ,0.00001864,-0.00000573,-0.00000306,0.00000463,0.00001496,-0.00001849,
 0.00001411,-0.00001326,0.00006218,0.00007022,-0.00001943,0.00003348,0.
 00002152,0.00059454,-0.00005903,0.00009773,0.00001956,-0.00013357,-0.0
 0004324,0.00015909,0.00020135,0.00051062,0.00579872,0.02848829,-0.0040
 7964,0.05569032,-0.00005285,-0.00006317,-0.00000469,-0.00010673,0.0000
 9026,-0.00006592,-0.00025747,-0.00010423,0.00035934,-0.00085513,0.0021
 3643,-0.00108186,-0.00126898,-0.01188297,0.00045931,-0.04278366,-0.293
 96653,0.03212886,0.00022355,0.00030478,0.00010356,0.00007969,-0.000618
 84,-0.00028601,-0.00000589,0.00023650,-0.00025129,0.00004227,-0.000010
 57,-0.00001932,0.00001854,0.00002277,-0.00000944,-0.00000916,0.0000160
 0,0.00000266,0.00001517,-0.00005520,-0.00005871,0.00001428,-0.00001793
 ,-0.00001111,-0.00032465,0.00003459,-0.00005632,0.00001101,-0.00010527
 ,-0.00007637,-0.00044974,0.00073735,-0.00022681,-0.00276907,-0.0139084
 1,0.00224260,0.04860805,0.32064531,-0.00001867,-0.00003317,-0.00004858
 ,0.00006338,0.00007540,0.00000635,-0.00069999,-0.00019013,0.00013423,-
 0.00255472,-0.00000393,-0.00334477,-0.00460739,-0.02946216,0.00226073,
 0.00552163,0.03226999,-0.04905234,0.00050072,0.00003504,0.00171142,-0.
 00008087,-0.00114801,-0.00000640,0.00006315,0.00044200,-0.00048933,0.0
 0002796,-0.00000531,0.00000482,0.00001528,0.00000853,-0.00000080,0.000
 00979,-0.00000118,0.00001050,0.00000023,-0.00001717,-0.00000346,-0.000
 01047,0.00002123,-0.00000287,0.00008394,0.00011705,0.00010881,-0.00003
 845,-0.00033009,-0.00029313,0.00038830,0.00073441,0.00083126,0.0012529
 2,0.00366494,-0.00154299,-0.00359025,-0.03320948,0.05355200,-0.0000064
 9,-0.00001903,0.00001177,0.00014714,-0.00011435,0.00021184,-0.00056822
 ,0.00041972,-0.00014290,0.00068731,0.00024996,0.00071413,0.01030185,0.
 00223764,-0.01628417,-0.12774469,-0.01614083,0.11954119,-0.00179465,-0
 .00072255,-0.00210789,0.00048277,0.00001770,-0.00048594,-0.00030635,-0
 .00015741,0.00010753,-0.00000011,0.00002588,0.00001544,0.00001826,0.00
 001302,-0.00003646,0.00000321,-0.00002668,0.00000713,-0.00003974,0.000
 10426,0.00007807,0.00003324,0.00001385,0.00001250,0.00039386,-0.000263
 14,0.00036426,0.00005705,-0.00007327,0.00018793,0.00074875,0.00034731,
 0.00064166,-0.01555153,-0.00473646,0.02314456,-0.00376003,-0.00012509,
 0.00356359,0.13691134,-0.00002622,-0.00000794,0.00001275,-0.00014566,0
 .00003550,-0.00013840,0.00029226,0.00004917,-0.00038444,0.00088248,0.0
 0113711,0.00018213,0.00760779,0.00023380,-0.01120493,-0.01600744,-0.04
 886241,0.02489469,-0.00126459,-0.00059554,-0.00158476,0.00024893,0.000
 05485,-0.00046112,-0.00025742,-0.00015383,0.00011415,0.00000741,-0.000
 00621,-0.00000880,-0.00000433,0.00000028,0.00000991,0.00000858,0.00001
 147,0.00000333,0.00002691,-0.00007033,-0.00002187,0.00000509,-0.000042
 68,-0.00001676,-0.00022711,0.00023652,-0.00007078,-0.00016289,-0.00013
 468,0.00024898,-0.00005027,0.00019290,0.00060262,0.00861601,0.00144640
 ,-0.01336048,-0.01859156,-0.00335249,0.02677145,0.01912059,0.04997684,
 -0.00004281,-0.00002032,-0.00002404,-0.00003295,-0.00003152,0.00007452
 ,-0.00038307,0.00085346,-0.00017477,0.00042219,0.00001170,0.00104366,0
 .01556055,0.00175596,-0.02384231,0.11916894,0.02493567,-0.22037253,-0.
 00424406,-0.00062016,-0.00034568,0.00068472,-0.00043037,-0.00095967,-0
 .00058565,-0.00025988,0.00019757,0.00002914,-0.00001524,-0.00000703,-0
 .00001014,0.00000925,0.00000397,0.00001568,-0.00000194,0.00001923,-0.0
 0000074,0.00001102,0.00002690,0.00003519,-0.00007094,-0.00002173,0.000
 05943,-0.00002583,0.00008342,-0.00012421,-0.00067292,-0.00011377,-0.00
 046769,0.00044803,0.00074749,-0.00286249,-0.00099700,0.00448805,0.0021
 6106,0.00069914,-0.00343595,-0.12931549,-0.02531771,0.24305642,0.00008
 793,-0.00004521,-0.00003257,0.00092786,-0.00068716,-0.00053730,0.00868
 448,0.00538452,-0.00706334,-0.00428418,-0.00240094,0.00214458,-0.00340
 709,-0.00577922,-0.00111118,0.00005102,0.00027410,-0.00018492,-0.10535
 169,-0.07766527,0.06719855,-0.00080911,-0.00597997,0.01385046,0.000352
 60,0.00050785,0.00051708,-0.00002093,-0.00002151,0.00002513,-0.0000694
 6,0.00003392,-0.00002019,0.00001362,-0.00002625,-0.00000649,-0.0001455
 1,-0.00020915,0.00046738,-0.00009244,0.00027449,0.00028634,0.00032691,
 -0.00025042,-0.00008802,0.00250098,-0.00148779,0.00133183,-0.00011290,
 -0.00026353,-0.00001404,0.00017793,0.00004769,0.00012833,0.00018273,0.
 00012018,0.00026795,0.00003632,-0.00001814,0.00007000,0.10113098,-0.00
 015857,-0.00026717,-0.00013331,-0.00063244,0.00059284,0.00071787,-0.01
 183890,-0.00406342,0.00570897,-0.00210143,-0.00589693,0.00326742,0.003
 94276,0.00780818,-0.00362201,0.00031564,0.00074002,0.00075309,-0.07838
 880,-0.16967130,0.10185631,0.00169145,-0.00386890,0.00620410,0.0001650
 0,0.00009219,0.00048943,0.00012567,0.00000572,-0.00003155,0.00023108,0
 .00006408,0.00005681,-0.00003820,0.00009184,-0.00004051,0.00013935,-0.
 00024137,-0.00065940,0.00010008,-0.00021566,-0.00038238,0.00034451,0.0
 0020263,0.00009313,-0.00151959,0.00121449,0.00181098,-0.00004533,0.000
 22775,0.00028798,-0.00017869,-0.00010247,-0.00013366,-0.00014617,-0.00
 009849,0.00025118,-0.00011474,-0.00015917,-0.00016661,0.08851236,0.173
 49733,0.00011396,0.00025012,0.00014038,-0.00018774,-0.00010318,0.00011
 491,0.00435016,-0.00087545,-0.00331029,0.00207432,0.00372392,-0.004862
 20,0.00347910,0.01554573,-0.00211212,0.00024610,0.00060491,0.00076177,
 0.06679609,0.10114493,-0.13881887,-0.00186623,-0.00671258,0.00664124,0
 .00025526,0.00028400,0.00135573,-0.00010483,-0.00001621,0.00000590,-0.
 00011568,-0.00005794,0.00001551,0.00001743,-0.00004472,0.00000803,-0.0
 0013283,0.00020905,0.00015140,-0.00002314,0.00010164,-0.00005161,0.000
 15207,0.00012347,-0.00023670,0.00128370,0.00184417,0.00175178,0.000292
 09,-0.00030092,0.00024092,-0.00014650,0.00001417,-0.00021548,-0.000243
 27,-0.00052195,-0.00027376,-0.00019547,-0.00024515,-0.00026108,-0.0764
 1125,-0.11537983,0.13951295,0.00000010,0.00012644,0.00009136,0.0003192
 5,-0.00043812,-0.00033259,-0.00517082,-0.00133984,-0.00480887,-0.00429
 750,-0.00108138,0.00104586,-0.00138607,0.00124534,0.00285057,0.0008901
 9,-0.00067914,-0.00007391,-0.01769428,0.01445796,-0.00456539,-0.205431
 85,0.11841490,0.00733576,0.00115804,-0.00227857,-0.00160291,-0.0000978
 9,0.00003744,0.00007167,0.00003224,-0.00001910,-0.00001949,0.00005176,
 -0.00002868,0.00004828,-0.00000091,-0.00005380,0.00013800,-0.00003976,
 0.00016480,-0.00002169,-0.00131511,0.00187554,-0.00063017,0.00036361,-
 0.00010221,-0.00037257,0.00138501,-0.00140265,-0.00104361,0.00038203,0
 .00009263,0.00041309,-0.00004344,-0.00008182,-0.00010009,-0.00003440,-
 0.00006064,-0.00012375,-0.00016587,-0.00032743,0.00011611,0.22799802,-
 0.00002576,-0.00004734,-0.00003543,0.00010560,-0.00000634,-0.00012217,
 -0.00077116,-0.00084517,0.00056666,0.01195548,-0.00653165,-0.00081025,
 -0.00578468,-0.00071010,-0.00168179,-0.00023982,0.00048311,0.00033498,
 -0.01237285,0.00779182,-0.00169994,0.11941194,-0.13335182,-0.00276299,
 0.01615209,-0.01551781,-0.00378757,0.00004871,-0.00002029,0.00000678,0
 .00004113,0.00001924,0.00000525,0.00003815,0.00000443,0.00004383,-0.00
 011183,-0.00008467,0.00011126,-0.00002607,0.00013897,-0.00005964,0.000
 33400,0.00111699,-0.00108354,0.00019995,-0.00018729,0.00013188,-0.0005
 7317,0.00040301,-0.00063172,-0.00028678,0.00010314,-0.00009510,0.00001
 713,0.00004239,0.00007386,0.00001040,0.00004144,0.00004469,0.00013558,
 0.00028029,0.00022886,-0.12760847,0.14806327,-0.00004283,0.00015218,0.
 00016702,0.00006696,-0.00021149,-0.00026272,-0.00340295,-0.00021458,-0
 .00488172,-0.02157692,0.00903641,0.00047528,-0.00528932,0.00387241,-0.
 00294323,0.00044479,-0.00000969,0.00033034,0.00246756,-0.00083557,-0.0
 0188516,0.00998222,-0.00519923,-0.04684392,0.01837918,-0.01918536,-0.0
 0209872,-0.00007491,0.00004500,0.00004257,0.00005613,0.00000645,-0.000
 02406,0.00009668,-0.00003905,0.00005923,-0.00022702,0.00006759,0.00026
 094,-0.00001184,0.00008419,-0.00004600,-0.00237591,0.00003785,0.000554
 24,0.00020292,0.00014340,0.00020594,-0.00004755,-0.00130406,-0.0009919
 7,-0.00001694,0.00020589,0.00020571,-0.00003477,-0.00002870,-0.0000191
 1,-0.00000292,0.00000663,-0.00002993,0.00031498,-0.00022944,0.00007315
 ,0.00172752,0.01545543,0.05997860,-0.00047242,0.00004752,-0.00033472,-
 0.00450938,0.00003162,-0.00130170,0.00071709,-0.00035568,0.00019551,0.
 00062957,0.00052365,-0.00025709,0.00007623,-0.00001511,-0.00004672,-0.
 00001893,0.00005419,0.00001345,0.00015951,-0.00046527,0.00043215,0.002
 46680,-0.00420060,0.00229088,-0.14230100,0.13289313,-0.00800625,0.0000
 2806,-0.00000313,-0.00001671,0.00007492,0.00000330,0.00000511,-0.00000
 502,0.00000843,-0.00001640,-0.00393476,-0.00055328,-0.00150593,-0.0003
 5034,0.00001918,-0.00012755,-0.00002428,0.00006034,0.00011805,-0.00009
 603,0.00000487,0.00008897,-0.00010859,-0.00001503,-0.00001148,-0.00002
 806,0.00000482,-0.00002384,-0.00000589,0.00001843,0.00000684,-0.000007
 05,0.00001329,0.00001350,-0.00005053,-0.00000305,-0.00001282,0.0014556
 9,-0.00053376,-0.00066135,0.16051411,-0.00006482,0.00019668,0.00091203
 ,0.00222768,0.00075359,-0.00110339,-0.00045596,-0.00078657,-0.00084027
 ,0.00012118,0.00131375,0.00048262,-0.00000673,0.00005569,0.00006035,-0
 .00012750,0.00016518,-0.00008569,0.00036921,-0.00020584,0.00023894,0.0
 1332914,-0.01436684,0.00329851,0.12965972,-0.22485555,0.00969237,-0.00
 003993,-0.00000149,-0.00002929,0.00012488,0.00004931,-0.00001674,0.000
 37090,-0.00000690,0.00014306,-0.00044349,-0.00000909,0.00148168,0.0002
 0734,0.00018033,0.00003513,-0.00020135,0.00019501,0.00012431,-0.000245
 92,0.00005977,-0.00042885,-0.00022144,0.00023796,0.00012296,-0.0000712
 5,-0.00001894,-0.00007806,0.00000793,0.00000111,0.00002415,-0.00001476
 ,-0.00000104,-0.00002815,-0.00018188,-0.00005425,-0.00009156,-0.001016
 89,-0.00157968,-0.00310222,-0.14586811,0.24097383,-0.00020574,0.000373
 58,-0.00016232,-0.00159594,-0.00088437,0.00021742,-0.00048446,-0.00044
 900,-0.00050518,0.00057236,0.00084772,0.00121358,0.00025619,-0.0001852
 3,0.00018488,-0.00019610,0.00028705,-0.00009374,-0.00000376,-0.0000249
 8,0.00040585,0.01883145,-0.01988087,0.00287570,-0.00913933,0.01190485,
 -0.04805640,0.00002426,-0.00002806,0.00000619,0.00018290,-0.00000441,0
 .00002825,0.00001156,-0.00001738,0.00001504,-0.00039904,0.00019047,0.0
 0016430,-0.00048964,0.00065596,-0.00037661,0.00001193,0.00018488,-0.00
 001472,-0.00001148,0.00009956,-0.00026523,-0.00032959,0.00022207,0.000
 04681,-0.00007062,-0.00002726,-0.00008392,0.00003054,0.00002926,0.0000
 5370,-0.00000587,-0.00000538,-0.00001586,-0.00019346,-0.00003496,-0.00
 013993,-0.00064065,-0.00416760,-0.00366133,0.01144702,-0.01059127,0.05
 002286,0.00016835,-0.00000750,-0.00038841,-0.00067047,-0.00020992,0.00
 078368,0.00023034,0.00030711,0.00050682,-0.00019114,-0.00037147,-0.000
 14745,-0.00035481,-0.00017395,-0.00039268,0.00012251,-0.00003779,-0.00
 010773,0.00222710,0.00040972,-0.00006865,-0.00402562,-0.00003636,0.000
 34707,-0.27999553,-0.07774875,-0.00083695,-0.00001239,0.00001661,0.000
 02585,-0.00004665,-0.00002299,0.00000467,-0.00017318,-0.00000544,-0.00
 007075,-0.00007494,0.00016781,-0.00082153,0.00001411,-0.00001217,0.000
 08360,0.00003106,-0.00007443,-0.00008890,-0.00006453,0.00004585,-0.000
 25623,0.00004029,-0.00005633,-0.00004719,0.00000191,0.00001103,0.00002
 273,-0.00000869,-0.00002930,-0.00001203,-0.00002207,-0.00003083,-0.000
 06170,-0.00001646,-0.00001027,-0.00002647,0.00171720,-0.00007950,-0.00
 008047,-0.01790356,-0.00657691,0.00066233,0.30406685,-0.00000868,0.000
 04892,0.00040425,0.00096004,0.00020479,-0.00040673,0.00041970,-0.00061
 295,0.00003321,0.00014593,0.00005903,0.00000875,-0.00108904,-0.0001715
 8,-0.00025211,0.00040938,0.00003778,-0.00033527,0.00182296,-0.00087523
 ,-0.00263351,-0.02123675,-0.00968247,-0.00123567,-0.07618587,-0.071804
 58,0.00056543,-0.00003501,0.00000503,-0.00000741,0.00006767,0.00001771
 ,-0.00000715,0.00016703,-0.00000710,0.00005204,-0.00002969,-0.00018288
 ,0.00069000,-0.00006452,0.00014092,-0.00013095,-0.00008238,0.00018854,
 -0.00006832,-0.00006378,0.00014678,-0.00023283,0.00012950,-0.00006126,
 -0.00002629,-0.00001726,0.00002540,0.00003146,-0.00000484,-0.00000985,
 0.00002471,-0.00008821,-0.00006392,-0.00017258,-0.00011850,-0.00002698
 ,-0.00002493,-0.00016524,0.00030671,0.00035004,0.02473614,0.00957178,-
 0.00051605,0.08551824,0.07828858,0.00001164,0.00000277,0.00002649,-0.0
 0001375,-0.00003137,-0.00012730,0.00042049,-0.00033441,0.00045064,-0.0
 0035928,-0.00007998,0.00081450,-0.00092086,-0.00045321,-0.00029665,0.0
 0042697,0.00001952,-0.00037594,0.00149635,-0.00146193,-0.00267862,-0.0
 2669280,-0.01027283,-0.00151643,-0.00019356,0.00068607,-0.04520570,-0.
 00002087,0.00001433,0.00000317,0.00000078,-0.00000680,-0.00001545,0.00
 000887,-0.00001175,0.00000061,-0.00018933,0.00006401,0.00003016,-0.000
 02720,0.00004277,0.00008509,0.00001229,0.00011251,-0.00007447,0.000076
 71,0.00023684,-0.00024411,0.00012796,-0.00006101,-0.00000637,-0.000004
 87,0.00002733,0.00004146,0.00000923,-0.00000317,0.00003540,-0.00007737
 ,-0.00006979,-0.00017412,-0.00024535,-0.00017228,-0.00026205,0.0001027
 4,0.00044868,0.00111565,-0.00257407,-0.00068847,-0.00083634,0.00080650
 ,0.00385154,0.04906651,-0.00005030,-0.00011603,0.00013619,0.00014078,0
 .00020435,-0.00043953,0.00023466,0.00025965,0.00000432,0.00008471,-0.0
 0114314,-0.00149626,0.00001731,0.00017946,-0.00045152,-0.00007002,-0.0
 0018452,0.00008773,0.00087665,0.00101839,-0.00011388,-0.00013184,0.002
 17349,-0.00550412,-0.05274414,-0.01893238,0.03816680,-0.00000806,0.000
 00829,-0.00000613,-0.00005988,-0.00001337,-0.00001698,0.00003699,0.000
 00076,0.00001473,-0.00000068,0.00005852,0.00020912,-0.00004883,-0.0002
 4773,0.00009841,-0.00000878,-0.00000499,0.00001525,-0.00006728,-0.0000
 4474,-0.00001572,-0.00001455,-0.00001672,0.00003346,0.00000002,0.00000
 742,-0.00000581,-0.00003036,-0.00003162,-0.00005275,0.00001421,0.00001
 776,0.00003435,0.00005280,-0.00006427,0.00028984,-0.00007524,-0.000036
 30,0.00010677,0.00369386,0.00911896,-0.01826487,-0.00505969,-0.0151868
 3,0.02781877,0.05321766,0.00000563,0.00018973,-0.00002444,0.00007422,-
 0.00033159,0.00036817,0.00021555,-0.00002483,-0.00027096,0.00038059,-0
 .00218992,-0.00225803,-0.00008690,0.00036239,-0.00052406,-0.00014794,-
 0.00038813,0.00019865,0.00001422,0.00138743,0.00085799,0.00287857,0.01
 144870,-0.02025064,-0.01888790,-0.10403341,0.10522640,-0.00000815,-0.0
 0001256,0.00000333,0.00007384,0.00001365,0.00001302,0.00000456,-0.0000
 1099,0.00000538,-0.00001835,-0.00005659,-0.00001393,-0.00000834,0.0002
 9213,-0.00016981,-0.00002058,-0.00002040,0.00003362,-0.00016361,-0.000
 06710,-0.00035475,0.00004015,-0.00002457,-0.00002068,0.00000200,0.0000
 1162,0.00000583,-0.00007420,-0.00007355,-0.00011331,0.00003621,0.00003
 397,0.00006227,-0.00015575,-0.00015126,0.00029948,0.00026893,0.0000873
 6,0.00089591,-0.00640588,-0.01186778,0.02202144,-0.00099246,-0.0055431
 6,0.00814063,0.02297559,0.11096886,0.00000050,0.00003297,0.00009373,-0
 .00019099,-0.00016030,-0.00031784,0.00070379,0.00005391,-0.00000049,0.
 00170528,-0.00399358,-0.00006051,-0.00049921,0.00032257,-0.00095654,-0
 .00014202,-0.00062549,0.00023424,-0.00027320,0.00052654,0.00154562,0.0
 0185482,0.01226829,-0.02362402,0.03794527,0.10617802,-0.23877643,-0.00
 005300,0.00003269,0.00000203,-0.00001341,-0.00001903,-0.00002734,0.000
 02865,-0.00001616,0.00001748,-0.00018380,0.00020617,0.00003904,0.00002
 890,-0.00002116,0.00015350,-0.00015316,-0.00004791,0.00005794,-0.00020
 906,-0.00000735,-0.00032393,0.00004129,-0.00003936,0.00000860,-0.00001
 907,0.00003009,-0.00000062,-0.00012550,-0.00011356,-0.00019573,0.00005
 288,0.00004372,0.00003724,-0.00069451,-0.00051133,-0.00022957,0.000394
 73,-0.00051444,0.00021919,0.00028515,0.00046783,-0.00102301,0.00016388
 ,0.00003837,0.00014388,-0.04064820,-0.11413151,0.26298354\\0.00000150,
 0.00000019,-0.00000211,0.00000034,0.00000041,-0.00000015,-0.00000185,0
 .00000678,-0.00000194,-0.00000161,-0.00000110,0.00000265,0.00000019,-0
 .00000157,-0.00000041,0.00000028,-0.00000083,0.00000060,0.00000144,-0.
 00000736,0.00000096,-0.00000239,0.00000173,0.00000125,0.00000154,-0.00
 000123,0.00000227,0.00000053,-0.00000003,-0.00000076,-0.00000031,-0.00
 000006,-0.00000100,-0.00000053,0.00000042,-0.00000076,0.00000181,0.000
 00118,0.00000063,0.00000080,-0.00000129,-0.00000105,-0.00000036,0.0000
 0024,0.00000111,0.00000056,-0.00000026,-0.00000033,-0.00000029,-0.0000
 0052,0.00000001,0.00000010,-0.00000061,-0.00000063,-0.00000030,-0.0000
 0016,0.00000040,0.00000043,-0.00000063,0.00000031,-0.00000046,0.000000
 69,0.00000048,0.00000092,0.00000075,-0.00000118,-0.00000225,0.00000138
 ,-0.00000018,0.00000039,0.00000038,0.00000077,-0.00000049,0.00000150,-
 0.00000091\\\@


 THE TEST OF A FIRST RATE INTELLIGENCE IS THE ABILITY TO HOLD TWO OPPOSED
 IDEAS IN THE MIND AT THE SAME TIME, AND STILL RETAIN THE ABILITY TO FUNCTION.
 ONE SHOULD, FOR EXAMPLE, BE ABLE TO SEE THAT THINGS ARE HOPELESS AND YET BE
 DETERMINED TO MAKE THEM OTHERWISE.

                                                       -- F. SCOTT FITZGERALD
 Job cpu time:       0 days  2 hours 47 minutes 55.4 seconds.
 Elapsed time:       0 days  0 hours 41 minutes 59.6 seconds.
 File lengths (MBytes):  RWF=    199 Int=      0 D2E=      0 Chk=     10 Scr=      1
 Normal termination of Gaussian 16 at Sun May 28 05:34:18 2023.
### All Done ###
