### Starting Gaussian ###
 Entering Gaussian System, Link 0=g16
 Initial command:
 /cluster/software/gaussian/gaussian-16-A.03/avx2/g16/l1.exe "/local/scratch/ks29c/Gau-2472.inp" -scrdir="/local/scratch/ks29c/"
 Entering Link 1 = /cluster/software/gaussian/gaussian-16-A.03/avx2/g16/l1.exe PID=      2474.
  
 Copyright (c) 1988,1990,1992,1993,1995,1998,2003,2009,2016,
            Gaussian, Inc.  All Rights Reserved.
  
 This is part of the Gaussian(R) 16 program.  It is based on
 the Gaussian(R) 09 system (copyright 2009, Gaussian, Inc.),
 the Gaussian(R) 03 system (copyright 2003, Gaussian, Inc.),
 the Gaussian(R) 98 system (copyright 1998, Gaussian, Inc.),
 the Gaussian(R) 94 system (copyright 1995, Gaussian, Inc.),
 the Gaussian 92(TM) system (copyright 1992, Gaussian, Inc.),
 the Gaussian 90(TM) system (copyright 1990, Gaussian, Inc.),
 the Gaussian 88(TM) system (copyright 1988, Gaussian, Inc.),
 the Gaussian 86(TM) system (copyright 1986, Carnegie Mellon
 University), and the Gaussian 82(TM) system (copyright 1983,
 Carnegie Mellon University). Gaussian is a federally registered
 trademark of Gaussian, Inc.
  
 This software contains proprietary and confidential information,
 including trade secrets, belonging to Gaussian, Inc.
  
 This software is provided under written license and may be
 used, copied, transmitted, or stored only in accord with that
 written license.
  
 The following legend is applicable only to US Government
 contracts under FAR:
  
                    RESTRICTED RIGHTS LEGEND
  
 Use, reproduction and disclosure by the US Government is
 subject to restrictions as set forth in subparagraphs (a)
 and (c) of the Commercial Computer Software - Restricted
 Rights clause in FAR 52.227-19.
  
 Gaussian, Inc.
 340 Quinnipiac St., Bldg. 40, Wallingford CT 06492
  
  
 ---------------------------------------------------------------
 Warning -- This program may not be used in any manner that
 competes with the business of Gaussian, Inc. or will provide
 assistance to any competitor of Gaussian, Inc.  The licensee
 of this program is prohibited from giving any competitor of
 Gaussian, Inc. access to this program.  By using this program,
 the user acknowledges that Gaussian, Inc. is engaged in the
 business of creating and licensing software in the field of
 computational chemistry and represents and warrants to the
 licensee that it is not a competitor of Gaussian, Inc. and that
 it will not use this program in any manner prohibited above.
 ---------------------------------------------------------------
  

 Cite this work as:
 Gaussian 16, Revision A.03,
 M. J. Frisch, G. W. Trucks, H. B. Schlegel, G. E. Scuseria, 
 M. A. Robb, J. R. Cheeseman, G. Scalmani, V. Barone, 
 G. A. Petersson, H. Nakatsuji, X. Li, M. Caricato, A. V. Marenich, 
 J. Bloino, B. G. Janesko, R. Gomperts, B. Mennucci, H. P. Hratchian, 
 J. V. Ortiz, A. F. Izmaylov, J. L. Sonnenberg, D. Williams-Young, 
 F. Ding, F. Lipparini, F. Egidi, J. Goings, B. Peng, A. Petrone, 
 T. Henderson, D. Ranasinghe, V. G. Zakrzewski, J. Gao, N. Rega, 
 G. Zheng, W. Liang, M. Hada, M. Ehara, K. Toyota, R. Fukuda, 
 J. Hasegawa, M. Ishida, T. Nakajima, Y. Honda, O. Kitao, H. Nakai, 
 T. Vreven, K. Throssell, J. A. Montgomery, Jr., J. E. Peralta, 
 F. Ogliaro, M. J. Bearpark, J. J. Heyd, E. N. Brothers, K. N. Kudin, 
 V. N. Staroverov, T. A. Keith, R. Kobayashi, J. Normand, 
 K. Raghavachari, A. P. Rendell, J. C. Burant, S. S. Iyengar, 
 J. Tomasi, M. Cossi, J. M. Millam, M. Klene, C. Adamo, R. Cammi, 
 J. W. Ochterski, R. L. Martin, K. Morokuma, O. Farkas, 
 J. B. Foresman, and D. J. Fox, Gaussian, Inc., Wallingford CT, 2016.
 
 ******************************************
 Gaussian 16:  ES64L-G16RevA.03 25-Dec-2016
                27-May-2023 
 ******************************************
 %chk=CCC1dCC2qC1rCC2C1dCCdCCdCC1.chk
 %NProcShared=20
 Will use up to   20 processors via shared memory.
 -----------------------------
 # opt freq b3lyp/6-31g(2df,p)
 -----------------------------
 1/18=20,19=15,26=3,38=1/1,3;
 2/9=110,12=2,17=6,18=5,40=1/2;
 3/5=1,6=6,7=104,11=2,25=1,30=1,71=1,74=-5/1,2,3;
 4//1;
 5/5=2,38=5/2;
 6/7=2,8=2,9=2,10=2,28=1/1;
 7//1,2,3,16;
 1/18=20,19=15,26=3/3(2);
 2/9=110/2;
 99//99;
 2/9=110/2;
 3/5=1,6=6,7=104,11=2,25=1,30=1,71=1,74=-5/1,2,3;
 4/5=5,16=3,69=1/1;
 5/5=2,38=5/2;
 7//1,2,3,16;
 1/18=20,19=15,26=3/3(-5);
 2/9=110/2;
 6/7=2,8=2,9=2,10=2,19=2,28=1/1;
 99/9=1/99;
 -------------------
 Title Card Required
 -------------------
 Symbolic Z-matrix:
 Charge =  0 Multiplicity = 1
 C                     0.97494  -0.01168   0.00249 
 C                     2.49878   0.03835  -0.00815 
 C                     2.99835  -1.06294   0.88591 
 C                     3.62432  -1.10115   2.06739 
 C                     3.36109  -2.57422   2.20424 
 C                     2.82908  -2.58754   0.82363 
 C                     4.25327  -3.49903   2.77926 
 C                     2.86503  -3.32599   3.50524 
 C                     1.47268  -2.69594   3.62004 
 C                     0.44312  -2.84042   2.74455 
 C                    -0.80553  -2.07928   2.70139 
 C                    -1.0332   -0.83786   3.17015 
 C                    -0.07883   0.00659   3.85893 
 C                     0.9147   -0.46005   4.63259 
 C                     1.14266  -1.92298   4.88776 
 H                     0.56469   0.75233  -0.65937 
 H                     0.5904    0.16843   1.01038 
 H                     0.59713  -0.98939  -0.3211 
 H                     2.85957   1.01011   0.33358 
 H                     2.80932  -0.17954  -1.03182 
 H                     4.02408  -0.36      2.76434 
 H                     1.806    -2.91109   0.6366 
 H                     3.42416  -3.12454   0.07747 
 H                     5.18384  -3.07474   3.15531 
 H                     4.48477  -4.34139   2.12267 
 H                     2.75369  -4.33576   3.88201 
 H                     0.52427  -3.54283   1.92289 
 H                    -1.59859  -2.54063   2.11375 
 H                    -2.00102  -0.37338   2.97743 
 H                    -0.19663   1.08022   3.72275 
 H                     1.60054   0.23653   5.10196 
 H                     0.21369  -2.33937   5.31605 
 H                     1.88918  -2.07677   5.67033 
 

 GradGradGradGradGradGradGradGradGradGradGradGradGradGradGradGradGradGrad
 Berny optimization.
 Initialization pass.
                           ----------------------------
                           !    Initial Parameters    !
                           ! (Angstroms and Degrees)  !
 --------------------------                            --------------------------
 ! Name  Definition              Value          Derivative Info.                !
 --------------------------------------------------------------------------------
 ! R1    R(1,2)                  1.5247         estimate D2E/DX2                !
 ! R2    R(1,16)                 1.0909         estimate D2E/DX2                !
 ! R3    R(1,17)                 1.0937         estimate D2E/DX2                !
 ! R4    R(1,18)                 1.097          estimate D2E/DX2                !
 ! R5    R(2,3)                  1.5039         estimate D2E/DX2                !
 ! R6    R(2,19)                 1.0915         estimate D2E/DX2                !
 ! R7    R(2,20)                 1.0917         estimate D2E/DX2                !
 ! R8    R(3,4)                  1.3376         estimate D2E/DX2                !
 ! R9    R(3,6)                  1.5352         estimate D2E/DX2                !
 ! R10   R(4,5)                  1.5026         estimate D2E/DX2                !
 ! R11   R(4,21)                 1.0931         estimate D2E/DX2                !
 ! R12   R(5,6)                  1.4796         estimate D2E/DX2                !
 ! R13   R(5,7)                  1.4078         estimate D2E/DX2                !
 ! R14   R(5,8)                  1.5824         estimate D2E/DX2                !
 ! R15   R(6,22)                 1.0892         estimate D2E/DX2                !
 ! R16   R(6,23)                 1.0951         estimate D2E/DX2                !
 ! R17   R(7,8)                  1.5761         estimate D2E/DX2                !
 ! R18   R(7,24)                 1.0897         estimate D2E/DX2                !
 ! R19   R(7,25)                 1.0928         estimate D2E/DX2                !
 ! R20   R(8,9)                  1.5326         estimate D2E/DX2                !
 ! R21   R(8,26)                 1.0835         estimate D2E/DX2                !
 ! R22   R(9,10)                 1.3592         estimate D2E/DX2                !
 ! R23   R(9,15)                 1.521          estimate D2E/DX2                !
 ! R24   R(10,11)                1.463          estimate D2E/DX2                !
 ! R25   R(10,27)                1.084          estimate D2E/DX2                !
 ! R26   R(11,12)                1.3464         estimate D2E/DX2                !
 ! R27   R(11,28)                1.0895         estimate D2E/DX2                !
 ! R28   R(12,13)                1.4486         estimate D2E/DX2                !
 ! R29   R(12,29)                1.0907         estimate D2E/DX2                !
 ! R30   R(13,14)                1.3429         estimate D2E/DX2                !
 ! R31   R(13,30)                1.0886         estimate D2E/DX2                !
 ! R32   R(14,15)                1.5024         estimate D2E/DX2                !
 ! R33   R(14,31)                1.0844         estimate D2E/DX2                !
 ! R34   R(15,32)                1.1044         estimate D2E/DX2                !
 ! R35   R(15,33)                1.0924         estimate D2E/DX2                !
 ! A1    A(2,1,16)             110.404          estimate D2E/DX2                !
 ! A2    A(2,1,17)             110.6359         estimate D2E/DX2                !
 ! A3    A(2,1,18)             111.8021         estimate D2E/DX2                !
 ! A4    A(16,1,17)            108.1529         estimate D2E/DX2                !
 ! A5    A(16,1,18)            108.4037         estimate D2E/DX2                !
 ! A6    A(17,1,18)            107.3089         estimate D2E/DX2                !
 ! A7    A(1,2,3)              107.687          estimate D2E/DX2                !
 ! A8    A(1,2,19)             110.9408         estimate D2E/DX2                !
 ! A9    A(1,2,20)             106.5164         estimate D2E/DX2                !
 ! A10   A(3,2,19)             110.8573         estimate D2E/DX2                !
 ! A11   A(3,2,20)             108.4694         estimate D2E/DX2                !
 ! A12   A(19,2,20)            112.1638         estimate D2E/DX2                !
 ! A13   A(2,3,4)              134.5451         estimate D2E/DX2                !
 ! A14   A(2,3,6)              131.7952         estimate D2E/DX2                !
 ! A15   A(4,3,6)               93.386          estimate D2E/DX2                !
 ! A16   A(3,4,5)               91.5166         estimate D2E/DX2                !
 ! A17   A(3,4,21)             135.6392         estimate D2E/DX2                !
 ! A18   A(5,4,21)             132.1197         estimate D2E/DX2                !
 ! A19   A(4,5,6)               89.2456         estimate D2E/DX2                !
 ! A20   A(4,5,7)              124.762          estimate D2E/DX2                !
 ! A21   A(4,5,8)              126.5512         estimate D2E/DX2                !
 ! A22   A(6,5,7)              127.0901         estimate D2E/DX2                !
 ! A23   A(6,5,8)              130.5549         estimate D2E/DX2                !
 ! A24   A(3,6,5)               85.0414         estimate D2E/DX2                !
 ! A25   A(3,6,22)             113.9241         estimate D2E/DX2                !
 ! A26   A(3,6,23)             117.0455         estimate D2E/DX2                !
 ! A27   A(5,6,22)             120.0414         estimate D2E/DX2                !
 ! A28   A(5,6,23)             116.4103         estimate D2E/DX2                !
 ! A29   A(22,6,23)            104.3445         estimate D2E/DX2                !
 ! A30   A(5,7,24)             115.2379         estimate D2E/DX2                !
 ! A31   A(5,7,25)             113.2785         estimate D2E/DX2                !
 ! A32   A(8,7,24)             123.3997         estimate D2E/DX2                !
 ! A33   A(8,7,25)             123.2264         estimate D2E/DX2                !
 ! A34   A(24,7,25)            109.0607         estimate D2E/DX2                !
 ! A35   A(5,8,9)               98.6898         estimate D2E/DX2                !
 ! A36   A(5,8,26)             139.542          estimate D2E/DX2                !
 ! A37   A(7,8,9)              151.6227         estimate D2E/DX2                !
 ! A38   A(7,8,26)              98.5319         estimate D2E/DX2                !
 ! A39   A(9,8,26)             105.2912         estimate D2E/DX2                !
 ! A40   A(8,9,10)             126.6006         estimate D2E/DX2                !
 ! A41   A(8,9,15)             117.9351         estimate D2E/DX2                !
 ! A42   A(10,9,15)            115.2476         estimate D2E/DX2                !
 ! A43   A(9,10,11)            127.6049         estimate D2E/DX2                !
 ! A44   A(9,10,27)            120.0273         estimate D2E/DX2                !
 ! A45   A(11,10,27)           112.25           estimate D2E/DX2                !
 ! A46   A(10,11,12)           127.8624         estimate D2E/DX2                !
 ! A47   A(10,11,28)           114.6363         estimate D2E/DX2                !
 ! A48   A(12,11,28)           117.0731         estimate D2E/DX2                !
 ! A49   A(11,12,13)           126.2748         estimate D2E/DX2                !
 ! A50   A(11,12,29)           118.7641         estimate D2E/DX2                !
 ! A51   A(13,12,29)           114.859          estimate D2E/DX2                !
 ! A52   A(12,13,14)           123.9727         estimate D2E/DX2                !
 ! A53   A(12,13,30)           116.3692         estimate D2E/DX2                !
 ! A54   A(14,13,30)           119.6581         estimate D2E/DX2                !
 ! A55   A(13,14,15)           123.261          estimate D2E/DX2                !
 ! A56   A(13,14,31)           119.6084         estimate D2E/DX2                !
 ! A57   A(15,14,31)           117.13           estimate D2E/DX2                !
 ! A58   A(9,15,14)            112.718          estimate D2E/DX2                !
 ! A59   A(9,15,32)            108.3075         estimate D2E/DX2                !
 ! A60   A(9,15,33)            112.1638         estimate D2E/DX2                !
 ! A61   A(14,15,32)           107.7789         estimate D2E/DX2                !
 ! A62   A(14,15,33)           111.2499         estimate D2E/DX2                !
 ! A63   A(32,15,33)           104.118          estimate D2E/DX2                !
 ! D1    D(16,1,2,3)          -178.2356         estimate D2E/DX2                !
 ! D2    D(16,1,2,19)           60.2866         estimate D2E/DX2                !
 ! D3    D(16,1,2,20)          -62.0433         estimate D2E/DX2                !
 ! D4    D(17,1,2,3)            62.0759         estimate D2E/DX2                !
 ! D5    D(17,1,2,19)          -59.4018         estimate D2E/DX2                !
 ! D6    D(17,1,2,20)          178.2682         estimate D2E/DX2                !
 ! D7    D(18,1,2,3)           -57.4657         estimate D2E/DX2                !
 ! D8    D(18,1,2,19)         -178.9435         estimate D2E/DX2                !
 ! D9    D(18,1,2,20)           58.7265         estimate D2E/DX2                !
 ! D10   D(1,2,3,4)           -111.3764         estimate D2E/DX2                !
 ! D11   D(1,2,3,6)             60.9422         estimate D2E/DX2                !
 ! D12   D(19,2,3,4)            10.1534         estimate D2E/DX2                !
 ! D13   D(19,2,3,6)          -177.528          estimate D2E/DX2                !
 ! D14   D(20,2,3,4)           133.719          estimate D2E/DX2                !
 ! D15   D(20,2,3,6)           -53.9623         estimate D2E/DX2                !
 ! D16   D(2,3,4,5)            167.3866         estimate D2E/DX2                !
 ! D17   D(2,3,4,21)            -3.2437         estimate D2E/DX2                !
 ! D18   D(6,3,4,5)             -6.8843         estimate D2E/DX2                !
 ! D19   D(6,3,4,21)          -177.5146         estimate D2E/DX2                !
 ! D20   D(2,3,6,5)           -167.5082         estimate D2E/DX2                !
 ! D21   D(2,3,6,22)           -46.7612         estimate D2E/DX2                !
 ! D22   D(2,3,6,23)            75.2988         estimate D2E/DX2                !
 ! D23   D(4,3,6,5)              7.0159         estimate D2E/DX2                !
 ! D24   D(4,3,6,22)           127.7628         estimate D2E/DX2                !
 ! D25   D(4,3,6,23)          -110.1772         estimate D2E/DX2                !
 ! D26   D(3,4,5,6)              7.1324         estimate D2E/DX2                !
 ! D27   D(3,4,5,7)            143.602          estimate D2E/DX2                !
 ! D28   D(3,4,5,8)           -135.9657         estimate D2E/DX2                !
 ! D29   D(21,4,5,6)           178.3049         estimate D2E/DX2                !
 ! D30   D(21,4,5,7)           -45.2255         estimate D2E/DX2                !
 ! D31   D(21,4,5,8)            35.2067         estimate D2E/DX2                !
 ! D32   D(4,5,6,3)             -6.2316         estimate D2E/DX2                !
 ! D33   D(4,5,6,22)          -121.0688         estimate D2E/DX2                !
 ! D34   D(4,5,6,23)           111.5759         estimate D2E/DX2                !
 ! D35   D(7,5,6,3)           -141.0517         estimate D2E/DX2                !
 ! D36   D(7,5,6,22)           104.1111         estimate D2E/DX2                !
 ! D37   D(7,5,6,23)           -23.2442         estimate D2E/DX2                !
 ! D38   D(8,5,6,3)            134.3591         estimate D2E/DX2                !
 ! D39   D(8,5,6,22)            19.5219         estimate D2E/DX2                !
 ! D40   D(8,5,6,23)          -107.8334         estimate D2E/DX2                !
 ! D41   D(4,5,7,24)             1.048          estimate D2E/DX2                !
 ! D42   D(4,5,7,25)          -125.5232         estimate D2E/DX2                !
 ! D43   D(6,5,7,24)           121.3537         estimate D2E/DX2                !
 ! D44   D(6,5,7,25)            -5.2175         estimate D2E/DX2                !
 ! D45   D(4,5,8,9)             65.6814         estimate D2E/DX2                !
 ! D46   D(4,5,8,26)          -168.136          estimate D2E/DX2                !
 ! D47   D(6,5,8,9)            -62.1128         estimate D2E/DX2                !
 ! D48   D(6,5,8,26)            64.0699         estimate D2E/DX2                !
 ! D49   D(24,7,8,9)           105.4344         estimate D2E/DX2                !
 ! D50   D(24,7,8,26)         -107.5502         estimate D2E/DX2                !
 ! D51   D(25,7,8,9)          -100.4685         estimate D2E/DX2                !
 ! D52   D(25,7,8,26)           46.5469         estimate D2E/DX2                !
 ! D53   D(5,8,9,10)            65.2924         estimate D2E/DX2                !
 ! D54   D(5,8,9,15)          -120.3345         estimate D2E/DX2                !
 ! D55   D(7,8,9,10)            64.2504         estimate D2E/DX2                !
 ! D56   D(7,8,9,15)          -121.3765         estimate D2E/DX2                !
 ! D57   D(26,8,9,10)          -81.8217         estimate D2E/DX2                !
 ! D58   D(26,8,9,15)           92.5513         estimate D2E/DX2                !
 ! D59   D(8,9,10,11)         -168.5002         estimate D2E/DX2                !
 ! D60   D(8,9,10,27)            7.2311         estimate D2E/DX2                !
 ! D61   D(15,9,10,11)          16.9957         estimate D2E/DX2                !
 ! D62   D(15,9,10,27)        -167.273          estimate D2E/DX2                !
 ! D63   D(8,9,15,14)          115.0077         estimate D2E/DX2                !
 ! D64   D(8,9,15,32)         -125.8356         estimate D2E/DX2                !
 ! D65   D(8,9,15,33)          -11.4923         estimate D2E/DX2                !
 ! D66   D(10,9,15,14)         -69.9851         estimate D2E/DX2                !
 ! D67   D(10,9,15,32)          49.1717         estimate D2E/DX2                !
 ! D68   D(10,9,15,33)         163.5149         estimate D2E/DX2                !
 ! D69   D(9,10,11,12)          24.5942         estimate D2E/DX2                !
 ! D70   D(9,10,11,28)        -163.2072         estimate D2E/DX2                !
 ! D71   D(27,10,11,12)       -151.4131         estimate D2E/DX2                !
 ! D72   D(27,10,11,28)         20.7855         estimate D2E/DX2                !
 ! D73   D(10,11,12,13)         -1.7072         estimate D2E/DX2                !
 ! D74   D(10,11,12,29)        174.4185         estimate D2E/DX2                !
 ! D75   D(28,11,12,13)       -173.7423         estimate D2E/DX2                !
 ! D76   D(28,11,12,29)          2.3835         estimate D2E/DX2                !
 ! D77   D(11,12,13,14)        -30.5881         estimate D2E/DX2                !
 ! D78   D(11,12,13,30)        149.3367         estimate D2E/DX2                !
 ! D79   D(29,12,13,14)        153.1547         estimate D2E/DX2                !
 ! D80   D(29,12,13,30)        -26.9205         estimate D2E/DX2                !
 ! D81   D(12,13,14,15)         -0.7485         estimate D2E/DX2                !
 ! D82   D(12,13,14,31)        178.9436         estimate D2E/DX2                !
 ! D83   D(30,13,14,15)        179.329          estimate D2E/DX2                !
 ! D84   D(30,13,14,31)         -0.9789         estimate D2E/DX2                !
 ! D85   D(13,14,15,9)          62.6074         estimate D2E/DX2                !
 ! D86   D(13,14,15,32)        -56.8561         estimate D2E/DX2                !
 ! D87   D(13,14,15,33)       -170.4053         estimate D2E/DX2                !
 ! D88   D(31,14,15,9)        -117.0918         estimate D2E/DX2                !
 ! D89   D(31,14,15,32)        123.4447         estimate D2E/DX2                !
 ! D90   D(31,14,15,33)          9.8955         estimate D2E/DX2                !
 --------------------------------------------------------------------------------
 Trust Radius=3.00D-01 FncErr=1.00D-07 GrdErr=1.00D-06 EigMax=2.50D+02 EigMin=1.00D-04
 Number of steps in this run=    198 maximum allowed number of steps=    198.
 GradGradGradGradGradGradGradGradGradGradGradGradGradGradGradGradGradGrad

                          Input orientation:                          
 ---------------------------------------------------------------------
 Center     Atomic      Atomic             Coordinates (Angstroms)
 Number     Number       Type             X           Y           Z
 ---------------------------------------------------------------------
      1          6           0        0.974940   -0.011680    0.002490
      2          6           0        2.498780    0.038350   -0.008150
      3          6           0        2.998350   -1.062940    0.885910
      4          6           0        3.624320   -1.101150    2.067390
      5          6           0        3.361090   -2.574220    2.204240
      6          6           0        2.829080   -2.587540    0.823630
      7          6           0        4.253270   -3.499030    2.779260
      8          6           0        2.865030   -3.325990    3.505240
      9          6           0        1.472680   -2.695940    3.620040
     10          6           0        0.443120   -2.840420    2.744550
     11          6           0       -0.805530   -2.079280    2.701390
     12          6           0       -1.033200   -0.837860    3.170150
     13          6           0       -0.078830    0.006590    3.858930
     14          6           0        0.914700   -0.460050    4.632590
     15          6           0        1.142660   -1.922980    4.887760
     16          1           0        0.564690    0.752330   -0.659370
     17          1           0        0.590400    0.168430    1.010380
     18          1           0        0.597130   -0.989390   -0.321100
     19          1           0        2.859570    1.010110    0.333580
     20          1           0        2.809320   -0.179540   -1.031820
     21          1           0        4.024080   -0.360000    2.764340
     22          1           0        1.806000   -2.911090    0.636600
     23          1           0        3.424160   -3.124540    0.077470
     24          1           0        5.183840   -3.074740    3.155310
     25          1           0        4.484770   -4.341390    2.122670
     26          1           0        2.753690   -4.335760    3.882010
     27          1           0        0.524270   -3.542830    1.922890
     28          1           0       -1.598590   -2.540630    2.113750
     29          1           0       -2.001020   -0.373380    2.977430
     30          1           0       -0.196630    1.080220    3.722750
     31          1           0        1.600540    0.236530    5.101960
     32          1           0        0.213690   -2.339370    5.316050
     33          1           0        1.889180   -2.076770    5.670330
 ---------------------------------------------------------------------
                    Distance matrix (angstroms):
                    1          2          3          4          5
     1  C    0.000000
     2  C    1.524698   0.000000
     3  C    2.445356   1.503913   0.000000
     4  C    3.531285   2.621673   1.337607   0.000000
     5  C    4.136185   3.530406   2.038024   1.502649   0.000000
     6  C    3.278286   2.774212   1.535232   2.094923   1.479627
     7  C    5.533490   4.833316   3.330786   2.579179   1.407802
     8  C    5.179416   4.878200   3.464110   2.755694   1.582351
     9  C    4.532071   4.657573   3.531264   3.095744   2.363345
    10  C    3.975361   4.482233   3.625352   3.688311   2.979488
    11  C    3.837852   4.769112   4.335714   4.580640   4.225263
    12  C    3.840478   4.831585   4.639160   4.793526   4.822625
    13  C    3.997861   4.647514   4.410417   4.260284   4.607779
    14  C    4.652149   4.928913   4.329282   3.785935   4.043689
    15  C    5.248529   5.445715   4.494225   3.845586   3.542150
    16  H    1.090906   2.162073   3.406728   4.497993   5.204426
    17  H    1.093688   2.167081   2.707395   3.454530   4.077273
    18  H    1.096981   2.184138   2.688520   3.857623   4.065526
    19  H    2.169218   1.091451   2.149852   2.836963   4.074103
    20  H    2.112563   1.091701   2.119862   3.334470   4.063376
    21  H    4.128728   3.189345   2.252720   1.093092   2.378243
    22  H    3.082099   3.097554   2.213484   2.937572   2.233670
    23  H    3.961590   3.296594   2.255013   2.844987   2.197722
    24  H    6.085840   5.187326   3.738166   2.740571   2.116004
    25  H    5.963259   5.259912   3.806213   3.352996   2.095758
    26  H    6.075549   5.859280   4.443852   3.809665   2.507363
    27  H    4.044757   4.522439   3.653252   3.948796   3.010799
    28  H    4.180438   5.286023   4.982270   5.417845   4.960619
    29  H    4.223439   5.415848   5.462934   5.744760   5.847542
    30  H    4.050328   4.719146   4.780031   4.700878   5.321482
    31  H    5.143693   5.192238   4.627912   3.885060   4.404161
    32  H    5.850774   6.262771   5.386070   4.870254   4.432228
    33  H    6.101216   6.090195   5.014856   4.116275   3.798389
                    6          7          8          9         10
     6  C    0.000000
     7  C    2.585270   0.000000
     8  C    2.781660   1.576135   0.000000
     9  C    3.109900   3.013892   1.532573   0.000000
    10  C    3.073546   3.866809   2.584584   1.359173   0.000000
    11  C    4.122463   5.254827   3.958974   2.532672   1.462985
    12  C    4.846106   5.931390   4.636731   3.151872   2.524065
    13  C    4.939483   5.676456   4.460661   3.125367   3.101571
    14  C    4.764372   4.880193   3.645314   2.517102   3.074613
    15  C    4.450034   4.074997   2.616554   1.521018   2.434009
    16  H    4.299010   6.595746   6.266437   5.570311   4.950687
    17  H    3.555550   5.476844   4.858934   3.974086   3.475948
    18  H    2.974238   5.410904   5.024336   4.383091   3.584444
    19  H    3.631000   5.315646   5.372264   5.143840   5.145735
    20  H    3.039992   5.256266   5.521609   5.455151   5.190391
    21  H    3.186897   3.147421   3.269469   3.563493   4.356162
    22  H    1.089200   3.305419   3.085901   3.009702   2.511153
    23  H    1.095100   2.850848   3.478910   4.067158   4.010067
    24  H    3.349476   1.089677   2.358486   3.759278   4.764248
    25  H    2.739490   1.092828   2.359257   3.744637   4.355982
    26  H    3.523584   2.040812   1.083507   2.097290   2.978018
    27  H    2.726371   3.826321   2.833727   2.120618   1.084016
    28  H    4.612036   5.967051   4.740985   3.424285   2.157861
    29  H    5.733343   6.994648   5.716199   4.227745   3.480566
    30  H    5.568867   6.454558   5.369894   4.129955   4.091158
    31  H    5.271507   5.136762   4.103657   3.288133   4.045321
    32  H    5.204199   4.909004   3.358877   2.142113   2.629886
    33  H    4.963346   3.996252   2.683365   2.181865   3.351782
                   11         12         13         14         15
    11  C    0.000000
    12  C    1.346363   0.000000
    13  C    2.493761   1.448563   0.000000
    14  C    3.051333   2.464911   1.342909   0.000000
    15  C    2.932591   2.976917   2.504749   1.502412   0.000000
    16  H    4.603284   4.443780   4.624422   5.440332   6.185627
    17  H    3.140117   2.883280   2.930580   3.690605   4.439939
    18  H    3.505818   3.856133   4.349891   4.992003   5.319907
    19  H    5.346383   5.158952   4.697802   4.942204   5.682548
    20  H    5.532902   5.731919   5.682912   5.979449   6.392086
    21  H    5.126892   5.095990   4.262204   3.628858   3.905688
    22  H    3.431524   4.333384   4.738022   4.771787   4.414606
    23  H    5.086040   5.887413   6.031115   5.843459   5.457827
    24  H    6.088476   6.607226   6.138841   5.219628   4.545225
    25  H    5.782675   6.619662   6.538041   5.840368   4.966299
    26  H    4.376484   5.204093   5.184564   4.355041   3.070579
    27  H    2.125184   3.361284   4.087831   4.122917   3.434643
    28  H    1.089545   2.082084   3.441461   4.121892   3.948553
    29  H    2.101307   1.090669   2.148542   3.353877   3.991659
    30  H    3.375852   2.164312   1.088624   2.106014   3.488575
    31  H    4.112771   3.438428   2.101970   1.084393   2.217886
    32  H    2.818316   2.900716   2.777102   2.119051   1.104445
    33  H    4.009498   4.040557   3.390372   2.154135   1.092410
                   16         17         18         19         20
    16  H    0.000000
    17  H    1.769086   0.000000
    18  H    1.774561   1.764492   0.000000
    19  H    2.513737   2.513089   3.089537   0.000000
    20  H    2.458753   3.035666   2.460643   1.811659   0.000000
    21  H    4.992639   3.891757   4.654037   3.023554   3.989867
    22  H    4.079342   3.331792   2.464039   4.071565   3.354347
    23  H    4.873358   4.443441   3.565084   4.180871   3.206490
    24  H    7.108783   6.018186   6.121439   5.481824   5.617169
    25  H    7.003767   6.061500   5.685214   5.872024   5.484427
    26  H    7.162717   5.763142   5.789221   6.417234   6.436069
    27  H    5.011796   3.822368   3.400126   5.358059   5.026279
    28  H    4.818045   3.653506   3.627124   5.970925   5.907540
    29  H    4.590905   3.298227   4.243837   5.703448   6.265064
    30  H    4.459831   2.967782   4.611514   4.564181   5.764431
    31  H    5.876390   4.214979   5.649716   4.992097   6.265582
    32  H    6.737021   4.996976   5.809211   6.560846   7.190105
    33  H    7.058554   5.333187   6.224871   6.241105   7.026020
                   21         22         23         24         25
    21  H    0.000000
    22  H    3.994398   0.000000
    23  H    3.901520   1.725291   0.000000
    24  H    2.977871   4.216691   3.545709   0.000000
    25  H    4.058995   3.380824   2.605467   1.777483   0.000000
    26  H    4.320850   3.668854   4.048593   2.832648   2.468187
    27  H    4.804905   1.922620   3.462644   4.842475   4.045142
    28  H    6.065710   3.729671   5.451184   6.882694   6.344295
    29  H    6.028882   5.139344   6.738785   7.677969   7.651221
    30  H    4.561488   5.428205   6.639141   6.821667   7.339592
    31  H    3.419629   5.467098   6.314102   5.252999   6.176755
    32  H    4.994817   4.975899   6.194056   5.469183   5.696304
    33  H    3.993729   5.103082   5.893562   4.263338   4.944844
                   26         27         28         29         30
    26  H    0.000000
    27  H    3.072003   0.000000
    28  H    5.029073   2.355285   0.000000
    29  H    6.255077   4.187429   2.367460   0.000000
    30  H    6.169489   5.013161   4.202967   2.433984   0.000000
    31  H    4.870715   5.054543   5.184250   4.225737   2.417406
    32  H    3.534635   3.613628   3.685049   3.773487   3.794807
    33  H    3.008073   4.249190   5.002896   5.028609   4.255615
                   31         32         33
    31  H    0.000000
    32  H    2.933334   0.000000
    33  H    2.399524   1.732553   0.000000
 Stoichiometry    C15H18
 Framework group  C1[X(C15H18)]
 Deg. of freedom    93
 Full point group                 C1      NOp   1
 Largest Abelian subgroup         C1      NOp   1
 Largest concise Abelian subgroup C1      NOp   1
                         Standard orientation:                         
 ---------------------------------------------------------------------
 Center     Atomic      Atomic             Coordinates (Angstroms)
 Number     Number       Type             X           Y           Z
 ---------------------------------------------------------------------
      1          6           0       -0.441223    2.990845    0.249681
      2          6           0       -1.670311    2.547814   -0.536305
      3          6           0       -1.810072    1.060175   -0.365571
      4          6           0       -1.675106    0.005758   -1.177472
      5          6           0       -1.690284   -0.943494   -0.012721
      6          6           0       -2.021406    0.188662    0.880518
      7          6           0       -2.286905   -2.218570   -0.024116
      8          6           0       -0.728342   -2.180435    0.207464
      9          6           0        0.591688   -1.420153    0.375607
     10          6           0        0.914016   -0.569580    1.385549
     11          6           0        2.057886    0.339767    1.456057
     12          6           0        2.755675    0.870700    0.434346
     13          6           0        2.535779    0.620269   -0.975358
     14          6           0        2.060722   -0.535583   -1.467020
     15          6           0        1.715067   -1.717182   -0.605865
     16          1           0       -0.315597    4.072341    0.181420
     17          1           0        0.461292    2.517265   -0.146980
     18          1           0       -0.514732    2.716925    1.309366
     19          1           0       -1.574277    2.810565   -1.591295
     20          1           0       -2.529383    3.031918   -0.067850
     21          1           0       -1.462837   -0.140535   -2.239729
     22          1           0       -1.362713    0.438561    1.711200
     23          1           0       -3.023989    0.184473    1.321033
     24          1           0       -2.746035   -2.508272   -0.968927
     25          1           0       -3.008840   -2.364826    0.783158
     26          1           0       -0.639116   -3.052268    0.844592
     27          1           0        0.251869   -0.463060    2.237198
     28          1           0        2.281738    0.711395    2.455503
     29          1           0        3.528866    1.607942    0.653910
     30          1           0        2.777471    1.435790   -1.654780
     31          1           0        1.907107   -0.640489   -2.535340
     32          1           0        2.616744   -1.989385   -0.029079
     33          1           0        1.509320   -2.602296   -1.212165
 ---------------------------------------------------------------------
 Rotational constants (GHZ):           0.7671621           0.6131504           0.4382762
 Standard basis: 6-31G(2df,p) (6D, 7F)
 There are   555 symmetry adapted cartesian basis functions of A   symmetry.
 There are   510 symmetry adapted basis functions of A   symmetry.
   510 basis functions,   786 primitive gaussians,   555 cartesian basis functions
    54 alpha electrons       54 beta electrons
       nuclear repulsion energy       980.6216154129 Hartrees.
 NAtoms=   33 NActive=   33 NUniq=   33 SFac= 1.00D+00 NAtFMM=   60 NAOKFM=F Big=F
 Integral buffers will be    131072 words long.
 Raffenetti 2 integral format.
 Two-electron integral symmetry is turned on.
 One-electron integrals computed using PRISM.
 PrsmSu:  requested number of processors reduced to:  12 ShMem   1 Linda.
 NBasis=   510 RedAO= T EigKep=  2.57D-04  NBF=   510
 NBsUse=   510 1.00D-06 EigRej= -1.00D+00 NBFU=   510
 ExpMin= 1.61D-01 ExpMax= 3.05D+03 ExpMxC= 4.57D+02 IAcc=3 IRadAn=         5 AccDes= 0.00D+00
 Harris functional with IExCor=  402 and IRadAn=       5 diagonalized for initial guess.
 HarFok:  IExCor=  402 AccDes= 0.00D+00 IRadAn=         5 IDoV= 1 UseB2=F ITyADJ=14
 ICtDFT=  3500011 ScaDFX=  1.000000  1.000000  1.000000  1.000000
 FoFCou: FMM=F IPFlag=           0 FMFlag=      100000 FMFlg1=           0
         NFxFlg=           0 DoJE=T BraDBF=F KetDBF=T FulRan=T
         wScrn=  0.000000 ICntrl=       500 IOpCl=  0 I1Cent=   200000004 NGrid=           0
         NMat0=    1 NMatS0=      1 NMatT0=    0 NMatD0=    1 NMtDS0=    0 NMtDT0=    0
 Petite list used in FoFCou.
 Requested convergence on RMS density matrix=1.00D-08 within 128 cycles.
 Requested convergence on MAX density matrix=1.00D-06.
 Requested convergence on             energy=1.00D-06.
 No special actions if energy rises.
 Integral accuracy reduced to 1.0D-05 until final iterations.
 Initial convergence to 1.0D-05 achieved.  Increase integral accuracy.
 SCF Done:  E(RB3LYP) =  -582.176506331     A.U. after   15 cycles
            NFock= 15  Conv=0.66D-08     -V/T= 2.0082

 **********************************************************************

            Population analysis using the SCF density.

 **********************************************************************

 Orbital symmetries:
       Occupied  (A) (A) (A) (A) (A) (A) (A) (A) (A) (A) (A) (A)
                 (A) (A) (A) (A) (A) (A) (A) (A) (A) (A) (A) (A)
                 (A) (A) (A) (A) (A) (A) (A) (A) (A) (A) (A) (A)
                 (A) (A) (A) (A) (A) (A) (A) (A) (A) (A) (A) (A)
                 (A) (A) (A) (A) (A) (A)
       Virtual   (A) (A) (A) (A) (A) (A) (A) (A) (A) (A) (A) (A)
                 (A) (A) (A) (A) (A) (A) (A) (A) (A) (A) (A) (A)
                 (A) (A) (A) (A) (A) (A) (A) (A) (A) (A) (A) (A)
                 (A) (A) (A) (A) (A) (A) (A) (A) (A) (A) (A) (A)
                 (A) (A) (A) (A) (A) (A) (A) (A) (A) (A) (A) (A)
                 (A) (A) (A) (A) (A) (A) (A) (A) (A) (A) (A) (A)
                 (A) (A) (A) (A) (A) (A) (A) (A) (A) (A) (A) (A)
                 (A) (A) (A) (A) (A) (A) (A) (A) (A) (A) (A) (A)
                 (A) (A) (A) (A) (A) (A) (A) (A) (A) (A) (A) (A)
                 (A) (A) (A) (A) (A) (A) (A) (A) (A) (A) (A) (A)
                 (A) (A) (A) (A) (A) (A) (A) (A) (A) (A) (A) (A)
                 (A) (A) (A) (A) (A) (A) (A) (A) (A) (A) (A) (A)
                 (A) (A) (A) (A) (A) (A) (A) (A) (A) (A) (A) (A)
                 (A) (A) (A) (A) (A) (A) (A) (A) (A) (A) (A) (A)
                 (A) (A) (A) (A) (A) (A) (A) (A) (A) (A) (A) (A)
                 (A) (A) (A) (A) (A) (A) (A) (A) (A) (A) (A) (A)
                 (A) (A) (A) (A) (A) (A) (A) (A) (A) (A) (A) (A)
                 (A) (A) (A) (A) (A) (A) (A) (A) (A) (A) (A) (A)
                 (A) (A) (A) (A) (A) (A) (A) (A) (A) (A) (A) (A)
                 (A) (A) (A) (A) (A) (A) (A) (A) (A) (A) (A) (A)
                 (A) (A) (A) (A) (A) (A) (A) (A) (A) (A) (A) (A)
                 (A) (A) (A) (A) (A) (A) (A) (A) (A) (A) (A) (A)
                 (A) (A) (A) (A) (A) (A) (A) (A) (A) (A) (A) (A)
                 (A) (A) (A) (A) (A) (A) (A) (A) (A) (A) (A) (A)
                 (A) (A) (A) (A) (A) (A) (A) (A) (A) (A) (A) (A)
                 (A) (A) (A) (A) (A) (A) (A) (A) (A) (A) (A) (A)
                 (A) (A) (A) (A) (A) (A) (A) (A) (A) (A) (A) (A)
                 (A) (A) (A) (A) (A) (A) (A) (A) (A) (A) (A) (A)
                 (A) (A) (A) (A) (A) (A) (A) (A) (A) (A) (A) (A)
                 (A) (A) (A) (A) (A) (A) (A) (A) (A) (A) (A) (A)
                 (A) (A) (A) (A) (A) (A) (A) (A) (A) (A) (A) (A)
                 (A) (A) (A) (A) (A) (A) (A) (A) (A) (A) (A) (A)
                 (A) (A) (A) (A) (A) (A) (A) (A) (A) (A) (A) (A)
                 (A) (A) (A) (A) (A) (A) (A) (A) (A) (A) (A) (A)
                 (A) (A) (A) (A) (A) (A) (A) (A) (A) (A) (A) (A)
                 (A) (A) (A) (A) (A) (A) (A) (A) (A) (A) (A) (A)
                 (A) (A) (A) (A) (A) (A) (A) (A) (A) (A) (A) (A)
                 (A) (A) (A) (A) (A) (A) (A) (A) (A) (A) (A) (A)
 The electronic state is 1-A.
 Alpha  occ. eigenvalues --  -10.21038 -10.20891 -10.20749 -10.19343 -10.18789
 Alpha  occ. eigenvalues --  -10.17995 -10.17882 -10.17792 -10.17600 -10.17541
 Alpha  occ. eigenvalues --  -10.17151 -10.17150 -10.17071 -10.16861 -10.16658
 Alpha  occ. eigenvalues --   -0.89639  -0.83116  -0.81609  -0.76453  -0.75656
 Alpha  occ. eigenvalues --   -0.75056  -0.66379  -0.65199  -0.63742  -0.63252
 Alpha  occ. eigenvalues --   -0.58605  -0.55576  -0.51422  -0.51158  -0.49731
 Alpha  occ. eigenvalues --   -0.49449  -0.47904  -0.46345  -0.44923  -0.43767
 Alpha  occ. eigenvalues --   -0.42922  -0.42103  -0.41266  -0.40675  -0.37217
 Alpha  occ. eigenvalues --   -0.37019  -0.36513  -0.36012  -0.34686  -0.33918
 Alpha  occ. eigenvalues --   -0.33389  -0.33237  -0.31591  -0.30619  -0.29698
 Alpha  occ. eigenvalues --   -0.25002  -0.23190  -0.19986  -0.16674
 Alpha virt. eigenvalues --   -0.03460  -0.01499   0.02971   0.03406   0.08889
 Alpha virt. eigenvalues --    0.10262   0.10662   0.11832   0.12877   0.13388
 Alpha virt. eigenvalues --    0.13791   0.14469   0.15306   0.15691   0.15801
 Alpha virt. eigenvalues --    0.16206   0.17287   0.17504   0.18862   0.19102
 Alpha virt. eigenvalues --    0.19441   0.20432   0.21312   0.22426   0.23807
 Alpha virt. eigenvalues --    0.24448   0.25568   0.26411   0.28272   0.29102
 Alpha virt. eigenvalues --    0.30288   0.31375   0.32505   0.33951   0.35231
 Alpha virt. eigenvalues --    0.36698   0.37804   0.40608   0.42532   0.43551
 Alpha virt. eigenvalues --    0.44214   0.44834   0.45842   0.46962   0.47645
 Alpha virt. eigenvalues --    0.48171   0.48462   0.49888   0.50655   0.51064
 Alpha virt. eigenvalues --    0.51855   0.52747   0.53277   0.53933   0.55610
 Alpha virt. eigenvalues --    0.56168   0.56644   0.57443   0.58069   0.58374
 Alpha virt. eigenvalues --    0.59365   0.60302   0.62616   0.63238   0.64048
 Alpha virt. eigenvalues --    0.64494   0.65594   0.66051   0.67447   0.69337
 Alpha virt. eigenvalues --    0.70358   0.71556   0.71629   0.72172   0.72944
 Alpha virt. eigenvalues --    0.73311   0.74194   0.74414   0.74928   0.75454
 Alpha virt. eigenvalues --    0.76851   0.77583   0.78096   0.78410   0.78972
 Alpha virt. eigenvalues --    0.79228   0.79718   0.80315   0.81205   0.81425
 Alpha virt. eigenvalues --    0.82245   0.82440   0.83599   0.84304   0.84747
 Alpha virt. eigenvalues --    0.85316   0.86491   0.87770   0.88176   0.88719
 Alpha virt. eigenvalues --    0.90361   0.90874   0.92128   0.93688   0.95857
 Alpha virt. eigenvalues --    0.97586   0.98999   0.99639   1.02016   1.03637
 Alpha virt. eigenvalues --    1.05021   1.05670   1.07126   1.08736   1.10930
 Alpha virt. eigenvalues --    1.11527   1.11780   1.13562   1.15545   1.16869
 Alpha virt. eigenvalues --    1.17021   1.20029   1.22584   1.23778   1.25369
 Alpha virt. eigenvalues --    1.26286   1.28073   1.28529   1.30545   1.31077
 Alpha virt. eigenvalues --    1.32214   1.33359   1.35861   1.36571   1.38133
 Alpha virt. eigenvalues --    1.39047   1.39912   1.41183   1.42018   1.43255
 Alpha virt. eigenvalues --    1.45262   1.46724   1.47980   1.48788   1.49087
 Alpha virt. eigenvalues --    1.50228   1.51702   1.51814   1.52445   1.53379
 Alpha virt. eigenvalues --    1.54892   1.56230   1.56532   1.58290   1.60538
 Alpha virt. eigenvalues --    1.61429   1.62731   1.64268   1.64977   1.67097
 Alpha virt. eigenvalues --    1.68695   1.69917   1.70262   1.73673   1.74593
 Alpha virt. eigenvalues --    1.76059   1.77990   1.80222   1.80840   1.81794
 Alpha virt. eigenvalues --    1.83053   1.84429   1.85937   1.86562   1.88195
 Alpha virt. eigenvalues --    1.90302   1.91515   1.92217   1.92654   1.94235
 Alpha virt. eigenvalues --    1.95595   1.96674   1.97916   2.00267   2.01728
 Alpha virt. eigenvalues --    2.03648   2.06536   2.06912   2.10890   2.12200
 Alpha virt. eigenvalues --    2.13342   2.16727   2.18891   2.19391   2.21869
 Alpha virt. eigenvalues --    2.24947   2.26109   2.27668   2.29539   2.30813
 Alpha virt. eigenvalues --    2.31287   2.33616   2.34634   2.35651   2.36984
 Alpha virt. eigenvalues --    2.38776   2.39467   2.41145   2.43725   2.45847
 Alpha virt. eigenvalues --    2.46901   2.47540   2.48829   2.49929   2.53590
 Alpha virt. eigenvalues --    2.55550   2.58605   2.60199   2.61180   2.62724
 Alpha virt. eigenvalues --    2.65211   2.65891   2.68458   2.70680   2.71963
 Alpha virt. eigenvalues --    2.73349   2.75421   2.76018   2.77345   2.79801
 Alpha virt. eigenvalues --    2.80133   2.81121   2.81957   2.82896   2.83849
 Alpha virt. eigenvalues --    2.85355   2.86020   2.86677   2.88726   2.88814
 Alpha virt. eigenvalues --    2.89355   2.91392   2.92726   2.93299   2.94581
 Alpha virt. eigenvalues --    2.95216   2.96688   2.97909   2.98830   2.99169
 Alpha virt. eigenvalues --    3.00458   3.01974   3.02962   3.03711   3.04643
 Alpha virt. eigenvalues --    3.07187   3.07763   3.08930   3.10284   3.10956
 Alpha virt. eigenvalues --    3.12376   3.13389   3.14436   3.15371   3.16676
 Alpha virt. eigenvalues --    3.17535   3.18429   3.18673   3.20835   3.21882
 Alpha virt. eigenvalues --    3.23009   3.23573   3.23784   3.24619   3.27269
 Alpha virt. eigenvalues --    3.28505   3.29187   3.30712   3.31640   3.32338
 Alpha virt. eigenvalues --    3.33844   3.34234   3.35124   3.37318   3.38229
 Alpha virt. eigenvalues --    3.38415   3.40614   3.41018   3.41567   3.43409
 Alpha virt. eigenvalues --    3.44014   3.45508   3.47040   3.48166   3.50812
 Alpha virt. eigenvalues --    3.51397   3.53409   3.54221   3.54797   3.55573
 Alpha virt. eigenvalues --    3.57423   3.59884   3.60001   3.61253   3.62462
 Alpha virt. eigenvalues --    3.63572   3.64744   3.65965   3.66873   3.67617
 Alpha virt. eigenvalues --    3.69839   3.71712   3.72866   3.73808   3.74137
 Alpha virt. eigenvalues --    3.76790   3.77895   3.79602   3.81226   3.83110
 Alpha virt. eigenvalues --    3.84639   3.85989   3.88046   3.90431   3.92424
 Alpha virt. eigenvalues --    3.94120   3.95954   3.98850   4.00520   4.01010
 Alpha virt. eigenvalues --    4.04180   4.04898   4.08524   4.10836   4.12572
 Alpha virt. eigenvalues --    4.13341   4.15312   4.18434   4.19893   4.21695
 Alpha virt. eigenvalues --    4.22576   4.25028   4.27754   4.32011   4.33752
 Alpha virt. eigenvalues --    4.36355   4.37172   4.38422   4.39473   4.40416
 Alpha virt. eigenvalues --    4.42263   4.43866   4.44082   4.45973   4.48208
 Alpha virt. eigenvalues --    4.48516   4.50346   4.51960   4.53009   4.53617
 Alpha virt. eigenvalues --    4.54962   4.56499   4.58118   4.58406   4.60521
 Alpha virt. eigenvalues --    4.60848   4.61849   4.62910   4.63058   4.63359
 Alpha virt. eigenvalues --    4.64894   4.65716   4.66326   4.67732   4.67892
 Alpha virt. eigenvalues --    4.69021   4.69468   4.71479   4.72254   4.73553
 Alpha virt. eigenvalues --    4.74197   4.75370   4.75595   4.76423   4.77745
 Alpha virt. eigenvalues --    4.79517   4.81473   4.83012   4.84871   4.85406
 Alpha virt. eigenvalues --    4.86329   4.87946   4.90072   4.92093   4.93083
 Alpha virt. eigenvalues --    4.93830   4.94654   4.95582   4.97675   4.98509
 Alpha virt. eigenvalues --    4.99156   5.03191   5.03592   5.05017   5.07515
 Alpha virt. eigenvalues --    5.10967   5.11819   5.13448   5.16541   5.17743
 Alpha virt. eigenvalues --    5.19835   5.21432   5.23889   5.25771   5.31373
 Alpha virt. eigenvalues --    5.31871   5.34661   5.37892   5.41041   5.43557
 Alpha virt. eigenvalues --    5.43838   5.46551   5.50493   5.52123   5.57132
 Alpha virt. eigenvalues --    5.58045   5.59493   5.65246   5.65828   5.68109
 Alpha virt. eigenvalues --    5.70232   5.78325   5.80357   5.83891   5.85073
 Alpha virt. eigenvalues --    5.93717   5.99363   6.14843   6.40593   6.87881
 Alpha virt. eigenvalues --    7.20911  10.17268  10.50032  10.65092  10.96483
 Alpha virt. eigenvalues --   11.17323  11.52210  11.67872  11.80876  11.98315
 Alpha virt. eigenvalues --   12.05070  12.18926  12.35466  12.36824  12.55715
 Alpha virt. eigenvalues --   13.13403
          Condensed to atoms (all electrons):
               1          2          3          4          5          6
     1  C    4.977662   0.386168  -0.036368  -0.001187  -0.000060  -0.003724
     2  C    0.386168   5.034174   0.398070  -0.067179   0.007976  -0.070211
     3  C   -0.036368   0.398070   4.447887   0.649463   0.041451   0.264425
     4  C   -0.001187  -0.067179   0.649463   5.033049   0.395704  -0.019439
     5  C   -0.000060   0.007976   0.041451   0.395704   4.380450   0.255321
     6  C   -0.003724  -0.070211   0.264425  -0.019439   0.255321   5.480746
     7  C   -0.000009  -0.000977  -0.015746  -0.035045   0.301112  -0.064525
     8  C    0.000022  -0.000179   0.004953  -0.018434   0.285818  -0.090704
     9  C    0.000225  -0.000153  -0.004477   0.006766  -0.019900   0.025951
    10  C    0.000636  -0.000686  -0.002221   0.003055  -0.012320  -0.005202
    11  C   -0.000345   0.000105   0.000125  -0.000566   0.001821  -0.000336
    12  C   -0.001368   0.000140  -0.000108  -0.000111   0.000091  -0.000028
    13  C   -0.001959   0.000086   0.000093   0.000537  -0.000255   0.000044
    14  C   -0.000183  -0.000052  -0.000285   0.002379  -0.001085  -0.000058
    15  C    0.000014   0.000018  -0.000267  -0.000243   0.000637   0.000379
    16  H    0.363636  -0.022753   0.002778  -0.000056  -0.000005   0.000091
    17  H    0.376080  -0.030538  -0.000955   0.002675  -0.000265  -0.000056
    18  H    0.384207  -0.029882  -0.005483  -0.000158   0.000121   0.002455
    19  H   -0.032867   0.354809  -0.013059  -0.006342  -0.000346   0.005139
    20  H   -0.038715   0.346924  -0.016821   0.003792  -0.000007  -0.003717
    21  H    0.000041  -0.005558  -0.053914   0.356313  -0.053264   0.023730
    22  H    0.001592  -0.000942  -0.008637  -0.008834  -0.002311   0.323184
    23  H   -0.000083   0.001359   0.002260  -0.011733   0.002429   0.313525
    24  H    0.000000   0.000009   0.000396  -0.006633  -0.020470   0.000559
    25  H   -0.000000   0.000029   0.000992   0.003883  -0.001049  -0.007985
    26  H   -0.000000   0.000001   0.000042   0.002422  -0.025754  -0.004135
    27  H    0.000005   0.000042  -0.000943   0.000835  -0.001396  -0.003920
    28  H   -0.000034  -0.000001   0.000004   0.000000  -0.000026   0.000009
    29  H   -0.000034   0.000000  -0.000001  -0.000000   0.000000   0.000000
    30  H   -0.000065  -0.000001  -0.000004   0.000015  -0.000003   0.000000
    31  H    0.000004  -0.000006  -0.000068   0.000063  -0.000079   0.000010
    32  H   -0.000001  -0.000000  -0.000009   0.000030  -0.000072   0.000028
    33  H    0.000000   0.000000   0.000021   0.000063  -0.000067   0.000018
               7          8          9         10         11         12
     1  C   -0.000009   0.000022   0.000225   0.000636  -0.000345  -0.001368
     2  C   -0.000977  -0.000179  -0.000153  -0.000686   0.000105   0.000140
     3  C   -0.015746   0.004953  -0.004477  -0.002221   0.000125  -0.000108
     4  C   -0.035045  -0.018434   0.006766   0.003055  -0.000566  -0.000111
     5  C    0.301112   0.285818  -0.019900  -0.012320   0.001821   0.000091
     6  C   -0.064525  -0.090704   0.025951  -0.005202  -0.000336  -0.000028
     7  C    5.282304   0.273949  -0.022644  -0.000593  -0.000052  -0.000003
     8  C    0.273949   5.425787   0.284523  -0.042215   0.007498   0.000216
     9  C   -0.022644   0.284523   4.731262   0.607260   0.015885  -0.026088
    10  C   -0.000593  -0.042215   0.607260   4.923800   0.373448   0.016269
    11  C   -0.000052   0.007498   0.015885   0.373448   4.842295   0.588937
    12  C   -0.000003   0.000216  -0.026088   0.016269   0.588937   4.843209
    13  C    0.000004  -0.000005  -0.007454  -0.024063   0.022709   0.400333
    14  C   -0.000002   0.002920  -0.000986  -0.006495  -0.029581   0.017794
    15  C    0.000055  -0.074842   0.355674  -0.014381  -0.018574  -0.019976
    16  H    0.000000  -0.000001   0.000000   0.000026   0.000027   0.000054
    17  H    0.000007  -0.000013   0.000125  -0.000293   0.000685   0.002023
    18  H    0.000005   0.000014   0.000021   0.000112   0.000612   0.000243
    19  H    0.000010   0.000003  -0.000000  -0.000003  -0.000000  -0.000001
    20  H    0.000039  -0.000006   0.000001   0.000007  -0.000003  -0.000002
    21  H    0.000557  -0.001094   0.001344   0.000010  -0.000014  -0.000007
    22  H    0.005574  -0.005476  -0.001987   0.008463   0.000101  -0.000007
    23  H   -0.005895   0.004727   0.000078   0.000185  -0.000004  -0.000000
    24  H    0.341200  -0.029101  -0.002428   0.000067   0.000003   0.000000
    25  H    0.356224  -0.015071   0.002055  -0.000047  -0.000002   0.000000
    26  H   -0.037321   0.334498  -0.054059  -0.001894   0.000073   0.000010
    27  H   -0.000190  -0.005338  -0.052207   0.356167  -0.055290   0.006155
    28  H    0.000001  -0.000165   0.005488  -0.051572   0.368092  -0.050162
    29  H   -0.000000   0.000005   0.000240   0.006286  -0.045095   0.369385
    30  H   -0.000000  -0.000003  -0.000152   0.000009   0.005300  -0.056601
    31  H   -0.000009  -0.000407   0.002530  -0.000088   0.000171   0.006989
    32  H   -0.000052   0.002739  -0.030107  -0.008906   0.004841   0.010913
    33  H    0.000371  -0.001290  -0.019164   0.004532   0.000324   0.000120
              13         14         15         16         17         18
     1  C   -0.001959  -0.000183   0.000014   0.363636   0.376080   0.384207
     2  C    0.000086  -0.000052   0.000018  -0.022753  -0.030538  -0.029882
     3  C    0.000093  -0.000285  -0.000267   0.002778  -0.000955  -0.005483
     4  C    0.000537   0.002379  -0.000243  -0.000056   0.002675  -0.000158
     5  C   -0.000255  -0.001085   0.000637  -0.000005  -0.000265   0.000121
     6  C    0.000044  -0.000058   0.000379   0.000091  -0.000056   0.002455
     7  C    0.000004  -0.000002   0.000055   0.000000   0.000007   0.000005
     8  C   -0.000005   0.002920  -0.074842  -0.000001  -0.000013   0.000014
     9  C   -0.007454  -0.000986   0.355674   0.000000   0.000125   0.000021
    10  C   -0.024063  -0.006495  -0.014381   0.000026  -0.000293   0.000112
    11  C    0.022709  -0.029581  -0.018574   0.000027   0.000685   0.000612
    12  C    0.400333   0.017794  -0.019976   0.000054   0.002023   0.000243
    13  C    4.764893   0.639120  -0.001851   0.000006   0.006173  -0.000036
    14  C    0.639120   4.799554   0.384720   0.000002   0.000813  -0.000000
    15  C   -0.001851   0.384720   5.082990  -0.000000  -0.000071  -0.000001
    16  H    0.000006   0.000002  -0.000000   0.615015  -0.029058  -0.031056
    17  H    0.006173   0.000813  -0.000071  -0.029058   0.556025  -0.032493
    18  H   -0.000036  -0.000000  -0.000001  -0.031056  -0.032493   0.588437
    19  H    0.000004   0.000007  -0.000000  -0.001831  -0.004137   0.005083
    20  H   -0.000000   0.000000  -0.000000  -0.002732   0.005837  -0.004590
    21  H    0.000134   0.000580   0.000096   0.000003   0.000047   0.000003
    22  H   -0.000026  -0.000000  -0.000135  -0.000094  -0.000037   0.002611
    23  H   -0.000001   0.000001  -0.000001   0.000001   0.000022  -0.000016
    24  H   -0.000001   0.000000   0.000222  -0.000000  -0.000000  -0.000000
    25  H    0.000000  -0.000000  -0.000052   0.000000   0.000000   0.000000
    26  H   -0.000019   0.000184   0.005176   0.000000  -0.000000   0.000000
    27  H   -0.000396   0.000157   0.008880   0.000000  -0.000123  -0.000078
    28  H    0.006122   0.000321  -0.000597   0.000002   0.000046   0.000081
    29  H   -0.058810   0.005761  -0.000192  -0.000001   0.000120  -0.000000
    30  H    0.372892  -0.052945   0.007455  -0.000002   0.000722  -0.000005
    31  H   -0.041446   0.364110  -0.060426   0.000000  -0.000002   0.000000
    32  H   -0.018723  -0.027083   0.330819   0.000000   0.000008  -0.000000
    33  H    0.005318  -0.023787   0.347808   0.000000  -0.000001  -0.000000
              19         20         21         22         23         24
     1  C   -0.032867  -0.038715   0.000041   0.001592  -0.000083   0.000000
     2  C    0.354809   0.346924  -0.005558  -0.000942   0.001359   0.000009
     3  C   -0.013059  -0.016821  -0.053914  -0.008637   0.002260   0.000396
     4  C   -0.006342   0.003792   0.356313  -0.008834  -0.011733  -0.006633
     5  C   -0.000346  -0.000007  -0.053264  -0.002311   0.002429  -0.020470
     6  C    0.005139  -0.003717   0.023730   0.323184   0.313525   0.000559
     7  C    0.000010   0.000039   0.000557   0.005574  -0.005895   0.341200
     8  C    0.000003  -0.000006  -0.001094  -0.005476   0.004727  -0.029101
     9  C   -0.000000   0.000001   0.001344  -0.001987   0.000078  -0.002428
    10  C   -0.000003   0.000007   0.000010   0.008463   0.000185   0.000067
    11  C   -0.000000  -0.000003  -0.000014   0.000101  -0.000004   0.000003
    12  C   -0.000001  -0.000002  -0.000007  -0.000007  -0.000000   0.000000
    13  C    0.000004  -0.000000   0.000134  -0.000026  -0.000001  -0.000001
    14  C    0.000007   0.000000   0.000580  -0.000000   0.000001   0.000000
    15  C   -0.000000  -0.000000   0.000096  -0.000135  -0.000001   0.000222
    16  H   -0.001831  -0.002732   0.000003  -0.000094   0.000001  -0.000000
    17  H   -0.004137   0.005837   0.000047  -0.000037   0.000022  -0.000000
    18  H    0.005083  -0.004590   0.000003   0.002611  -0.000016  -0.000000
    19  H    0.620494  -0.036062   0.002387  -0.000073  -0.000065  -0.000000
    20  H   -0.036062   0.641078  -0.000033  -0.000264   0.001191  -0.000000
    21  H    0.002387  -0.000033   0.628335  -0.000582  -0.000536   0.000800
    22  H   -0.000073  -0.000264  -0.000582   0.633233  -0.055332  -0.000220
    23  H   -0.000065   0.001191  -0.000536  -0.055332   0.651452   0.000459
    24  H   -0.000000  -0.000000   0.000800  -0.000220   0.000459   0.668955
    25  H   -0.000000  -0.000001  -0.000190   0.000534   0.002248  -0.062656
    26  H    0.000000   0.000000  -0.000107   0.000031   0.000262   0.006238
    27  H   -0.000001  -0.000001  -0.000004   0.002657   0.000614   0.000021
    28  H   -0.000000   0.000000   0.000000   0.000109  -0.000000  -0.000000
    29  H    0.000000  -0.000000  -0.000000   0.000001  -0.000000   0.000000
    30  H    0.000003   0.000000   0.000002  -0.000000  -0.000000  -0.000000
    31  H    0.000000   0.000000   0.000395   0.000001   0.000000   0.000002
    32  H    0.000000   0.000000   0.000013   0.000012   0.000000  -0.000005
    33  H   -0.000000   0.000000   0.000014  -0.000000  -0.000000  -0.000082
              25         26         27         28         29         30
     1  C   -0.000000  -0.000000   0.000005  -0.000034  -0.000034  -0.000065
     2  C    0.000029   0.000001   0.000042  -0.000001   0.000000  -0.000001
     3  C    0.000992   0.000042  -0.000943   0.000004  -0.000001  -0.000004
     4  C    0.003883   0.002422   0.000835   0.000000  -0.000000   0.000015
     5  C   -0.001049  -0.025754  -0.001396  -0.000026   0.000000  -0.000003
     6  C   -0.007985  -0.004135  -0.003920   0.000009   0.000000   0.000000
     7  C    0.356224  -0.037321  -0.000190   0.000001  -0.000000  -0.000000
     8  C   -0.015071   0.334498  -0.005338  -0.000165   0.000005  -0.000003
     9  C    0.002055  -0.054059  -0.052207   0.005488   0.000240  -0.000152
    10  C   -0.000047  -0.001894   0.356167  -0.051572   0.006286   0.000009
    11  C   -0.000002   0.000073  -0.055290   0.368092  -0.045095   0.005300
    12  C    0.000000   0.000010   0.006155  -0.050162   0.369385  -0.056601
    13  C    0.000000  -0.000019  -0.000396   0.006122  -0.058810   0.372892
    14  C   -0.000000   0.000184   0.000157   0.000321   0.005761  -0.052945
    15  C   -0.000052   0.005176   0.008880  -0.000597  -0.000192   0.007455
    16  H    0.000000   0.000000   0.000000   0.000002  -0.000001  -0.000002
    17  H    0.000000  -0.000000  -0.000123   0.000046   0.000120   0.000722
    18  H    0.000000   0.000000  -0.000078   0.000081  -0.000000  -0.000005
    19  H   -0.000000   0.000000  -0.000001  -0.000000   0.000000   0.000003
    20  H   -0.000001   0.000000  -0.000001   0.000000  -0.000000   0.000000
    21  H   -0.000190  -0.000107  -0.000004   0.000000  -0.000000   0.000002
    22  H    0.000534   0.000031   0.002657   0.000109   0.000001  -0.000000
    23  H    0.002248   0.000262   0.000614  -0.000000  -0.000000  -0.000000
    24  H   -0.062656   0.006238   0.000021  -0.000000   0.000000  -0.000000
    25  H    0.597153  -0.009767  -0.000063  -0.000000   0.000000   0.000000
    26  H   -0.009767   0.648805   0.001520   0.000003   0.000000  -0.000000
    27  H   -0.000063   0.001520   0.666889  -0.008264  -0.000212   0.000006
    28  H   -0.000000   0.000003  -0.008264   0.659184  -0.011689  -0.000220
    29  H    0.000000   0.000000  -0.000212  -0.011689   0.655561  -0.006080
    30  H    0.000000  -0.000000   0.000006  -0.000220  -0.006080   0.655801
    31  H   -0.000000   0.000015   0.000011   0.000011  -0.000220  -0.010351
    32  H    0.000001  -0.000577   0.000049   0.000311   0.000176  -0.000044
    33  H    0.000004  -0.000498  -0.000238   0.000002   0.000004  -0.000146
              31         32         33
     1  C    0.000004  -0.000001   0.000000
     2  C   -0.000006  -0.000000   0.000000
     3  C   -0.000068  -0.000009   0.000021
     4  C    0.000063   0.000030   0.000063
     5  C   -0.000079  -0.000072  -0.000067
     6  C    0.000010   0.000028   0.000018
     7  C   -0.000009  -0.000052   0.000371
     8  C   -0.000407   0.002739  -0.001290
     9  C    0.002530  -0.030107  -0.019164
    10  C   -0.000088  -0.008906   0.004532
    11  C    0.000171   0.004841   0.000324
    12  C    0.006989   0.010913   0.000120
    13  C   -0.041446  -0.018723   0.005318
    14  C    0.364110  -0.027083  -0.023787
    15  C   -0.060426   0.330819   0.347808
    16  H    0.000000   0.000000   0.000000
    17  H   -0.000002   0.000008  -0.000001
    18  H    0.000000  -0.000000  -0.000000
    19  H    0.000000   0.000000  -0.000000
    20  H    0.000000   0.000000   0.000000
    21  H    0.000395   0.000013   0.000014
    22  H    0.000001   0.000012  -0.000000
    23  H    0.000000   0.000000  -0.000000
    24  H    0.000002  -0.000005  -0.000082
    25  H   -0.000000   0.000001   0.000004
    26  H    0.000015  -0.000577  -0.000498
    27  H    0.000011   0.000049  -0.000238
    28  H    0.000011   0.000311   0.000002
    29  H   -0.000220   0.000176   0.000004
    30  H   -0.010351  -0.000044  -0.000146
    31  H    0.656140   0.006168  -0.008572
    32  H    0.006168   0.660162  -0.037141
    33  H   -0.008572  -0.037141   0.634069
 Mulliken charges:
               1
     1  C   -0.373291
     2  C   -0.300793
     3  C    0.346408
     4  C   -0.285084
     5  C    0.465801
     6  C   -0.421575
     7  C   -0.378350
     8  C   -0.343328
     9  C    0.202379
    10  C   -0.129354
    11  C   -0.083188
    12  C   -0.108419
    13  C   -0.063423
    14  C   -0.075879
    15  C   -0.333333
    16  H    0.105947
    17  H    0.146632
    18  H    0.119794
    19  H    0.106847
    20  H    0.104086
    21  H    0.100501
    22  H    0.106855
    23  H    0.092855
    24  H    0.102667
    25  H    0.133761
    26  H    0.134853
    27  H    0.084657
    28  H    0.082944
    29  H    0.084794
    30  H    0.084416
    31  H    0.085053
    32  H    0.106447
    33  H    0.098320
 Sum of Mulliken charges =  -0.00000
 Mulliken charges with hydrogens summed into heavy atoms:
               1
     1  C   -0.000918
     2  C   -0.089860
     3  C    0.346408
     4  C   -0.184583
     5  C    0.465801
     6  C   -0.221865
     7  C   -0.141923
     8  C   -0.208475
     9  C    0.202379
    10  C   -0.044697
    11  C   -0.000244
    12  C   -0.023625
    13  C    0.020993
    14  C    0.009175
    15  C   -0.128566
 Electronic spatial extent (au):  <R**2>=           2908.0699
 Charge=             -0.0000 electrons
 Dipole moment (field-independent basis, Debye):
    X=             -1.3107    Y=              1.0368    Z=              0.1320  Tot=              1.6764
 Quadrupole moment (field-independent basis, Debye-Ang):
   XX=            -89.4495   YY=            -89.1773   ZZ=            -86.7948
   XY=              2.0371   XZ=             -1.5443   YZ=             -0.4926
 Traceless Quadrupole moment (field-independent basis, Debye-Ang):
   XX=             -0.9756   YY=             -0.7035   ZZ=              1.6791
   XY=              2.0371   XZ=             -1.5443   YZ=             -0.4926
 Octapole moment (field-independent basis, Debye-Ang**2):
  XXX=            -15.3919  YYY=             11.4997  ZZZ=             -4.1881  XYY=             -1.6576
  XXY=              3.6703  XXZ=              5.7618  XZZ=             -0.4602  YZZ=              3.7685
  YYZ=              0.3962  XYZ=              2.6204
 Hexadecapole moment (field-independent basis, Debye-Ang**3):
 XXXX=          -1938.8843 YYYY=          -1522.0535 ZZZZ=           -556.2850 XXXY=             47.7301
 XXXZ=            -12.5152 YYYX=             -9.8032 YYYZ=            -18.2179 ZZZX=              2.2436
 ZZZY=              7.3343 XXYY=           -551.0063 XXZZ=           -415.2585 YYZZ=           -351.0485
 XXYZ=             -0.1274 YYXZ=            -10.1541 ZZXY=              6.8449
 N-N= 9.806216154129D+02 E-N=-3.308956116074D+03  KE= 5.774420911993D+02
 PrsmSu:  requested number of processors reduced to:  13 ShMem   1 Linda.
 Calling FoFJK, ICntrl=      2127 FMM=F ISym2X=0 I1Cent= 0 IOpClX= 0 NMat=1 NMatS=1 NMatT=0.
 ***** Axes restored to original set *****
 -------------------------------------------------------------------
 Center     Atomic                   Forces (Hartrees/Bohr)
 Number     Number              X              Y              Z
 -------------------------------------------------------------------
      1        6          -0.010245702    0.004184704    0.003113998
      2        6           0.004499247   -0.022270785    0.002624455
      3        6           0.004584639    0.009671466   -0.013058423
      4        6          -0.022987498    0.002869200    0.027582871
      5        6           0.020726147   -0.027711510   -0.033210802
      6        6          -0.019657468    0.008872062   -0.040975961
      7        6           0.048531123    0.039179432    0.014307386
      8        6          -0.023755107   -0.006060097    0.006160625
      9        6           0.010010901    0.026330173    0.039751958
     10        6           0.001236486    0.001809203   -0.008564582
     11        6           0.007553819   -0.019121053    0.002412471
     12        6          -0.001460165    0.015263673    0.006016617
     13        6          -0.003602900   -0.003748486   -0.001094774
     14        6           0.008561034   -0.000181763   -0.001830912
     15        6          -0.013889192    0.000026380    0.018025185
     16        1          -0.001921304    0.001081232   -0.002269889
     17        1          -0.000577779   -0.000379515   -0.000854569
     18        1           0.001357983    0.002489747   -0.000357913
     19        1           0.002732095    0.000763576   -0.002867828
     20        1           0.006564554    0.006941668   -0.003828285
     21        1          -0.002502928   -0.003780298   -0.005028367
     22        1          -0.001956508   -0.001133251    0.006086821
     23        1           0.006520383    0.003677727   -0.001299956
     24        1           0.003509676   -0.001216963    0.008843707
     25        1          -0.016975592   -0.015877052    0.018019985
     26        1          -0.016587878   -0.020689457   -0.030223422
     27        1           0.003539958   -0.001810952    0.000439567
     28        1           0.000327543   -0.000934843    0.001947814
     29        1           0.001391577   -0.002124535   -0.003637841
     30        1          -0.001252238   -0.000456017    0.003209057
     31        1           0.002506986    0.002472819   -0.001765763
     32        1          -0.000956892    0.000749638   -0.002588752
     33        1           0.004175000    0.001113874   -0.005084478
 -------------------------------------------------------------------
 Cartesian Forces:  Max     0.048531123 RMS     0.013548487

 GradGradGradGradGradGradGradGradGradGradGradGradGradGradGradGradGradGrad
 Berny optimization.
 FormGI is forming the generalized inverse of G from B-inverse, IUseBI=4.
 Internal  Forces:  Max     0.038156487 RMS     0.008588413
 Search for a local minimum.
 Step number   1 out of a maximum of  198
 All quantities printed in internal units (Hartrees-Bohrs-Radians)
 Mixed Optimization -- RFO/linear search
 Second derivative matrix not updated -- first step.
 ITU=  0
     Eigenvalues ---    0.00335   0.00349   0.00439   0.00714   0.00945
     Eigenvalues ---    0.00965   0.01014   0.01181   0.01264   0.01534
     Eigenvalues ---    0.01708   0.01741   0.01820   0.01995   0.02145
     Eigenvalues ---    0.02217   0.02534   0.02565   0.02747   0.03411
     Eigenvalues ---    0.03857   0.04598   0.04798   0.05089   0.05216
     Eigenvalues ---    0.05515   0.05633   0.05648   0.05829   0.06669
     Eigenvalues ---    0.06976   0.07441   0.08486   0.09389   0.10053
     Eigenvalues ---    0.10386   0.11332   0.11962   0.12217   0.12978
     Eigenvalues ---    0.15029   0.15564   0.15881   0.15969   0.15977
     Eigenvalues ---    0.16000   0.16000   0.16000   0.16000   0.16000
     Eigenvalues ---    0.18326   0.19971   0.21952   0.22063   0.22214
     Eigenvalues ---    0.22435   0.22951   0.24589   0.24622   0.24880
     Eigenvalues ---    0.27184   0.29187   0.29331   0.29919   0.30933
     Eigenvalues ---    0.31085   0.31970   0.32006   0.33195   0.34018
     Eigenvalues ---    0.34230   0.34390   0.34458   0.34488   0.34536
     Eigenvalues ---    0.34617   0.34645   0.34708   0.34735   0.34850
     Eigenvalues ---    0.34865   0.34905   0.34972   0.35402   0.35469
     Eigenvalues ---    0.35513   0.35574   0.37330   0.39614   0.50892
     Eigenvalues ---    0.52564   0.53804   0.55518
 RFO step:  Lambda=-7.14866458D-02 EMin= 3.35066745D-03
 Linear search not attempted -- first point.
 Maximum step size (   0.300) exceeded in Quadratic search.
    -- Step size scaled by   0.791
 Iteration  1 RMS(Cart)=  0.23333856 RMS(Int)=  0.00686631
 Iteration  2 RMS(Cart)=  0.02143154 RMS(Int)=  0.00158201
 Iteration  3 RMS(Cart)=  0.00015983 RMS(Int)=  0.00158080
 Iteration  4 RMS(Cart)=  0.00000149 RMS(Int)=  0.00158080
 Iteration  5 RMS(Cart)=  0.00000001 RMS(Int)=  0.00158080
 Variable       Old X    -DE/DX   Delta X   Delta X   Delta X     New X
                                 (Linear)    (Quad)   (Total)
    R1        2.88126   0.01113   0.00000   0.02377   0.02377   2.90503
    R2        2.06151   0.00286   0.00000   0.00540   0.00540   2.06691
    R3        2.06677  -0.00065   0.00000  -0.00124  -0.00124   2.06554
    R4        2.07299  -0.00258   0.00000  -0.00496  -0.00496   2.06803
    R5        2.84198  -0.00343   0.00000  -0.00694  -0.00694   2.83504
    R6        2.06254   0.00068   0.00000   0.00130   0.00130   2.06384
    R7        2.06302   0.00407   0.00000   0.00772   0.00772   2.07073
    R8        2.52771   0.01383   0.00000   0.01640   0.01639   2.54411
    R9        2.90117  -0.00123   0.00000  -0.00210  -0.00201   2.89916
   R10        2.83959  -0.00098   0.00000  -0.00346  -0.00346   2.83614
   R11        2.06564  -0.00668   0.00000  -0.01272  -0.01272   2.05293
   R12        2.79609   0.03773   0.00000   0.07306   0.07296   2.86905
   R13        2.66036   0.01627   0.00000   0.02745   0.02935   2.68971
   R14        2.99021   0.03306   0.00000   0.08790   0.08753   3.07774
   R15        2.05829   0.00113   0.00000   0.00213   0.00213   2.06042
   R16        2.06944   0.00263   0.00000   0.00502   0.00502   2.07446
   R17        2.97846   0.00381   0.00000  -0.00085  -0.00218   2.97628
   R18        2.05919   0.00557   0.00000   0.01051   0.01051   2.06970
   R19        2.06515  -0.00219   0.00000  -0.00415  -0.00415   2.06099
   R20        2.89614  -0.00496   0.00000  -0.01081  -0.01081   2.88533
   R21        2.04753   0.01048   0.00000   0.01941   0.01941   2.06694
   R22        2.56846  -0.00835   0.00000  -0.01189  -0.01187   2.55660
   R23        2.87431   0.00694   0.00000   0.01523   0.01523   2.88954
   R24        2.76464  -0.01029   0.00000  -0.01992  -0.01991   2.74473
   R25        2.04849   0.00110   0.00000   0.00205   0.00205   2.05054
   R26        2.54426   0.01263   0.00000   0.01602   0.01600   2.56026
   R27        2.05894  -0.00089   0.00000  -0.00168  -0.00168   2.05726
   R28        2.73739  -0.00050   0.00000   0.00060   0.00057   2.73796
   R29        2.06107  -0.00150   0.00000  -0.00283  -0.00283   2.05824
   R30        2.53773   0.00186   0.00000   0.00295   0.00294   2.54067
   R31        2.05720  -0.00071   0.00000  -0.00134  -0.00134   2.05586
   R32        2.83915  -0.00096   0.00000  -0.00254  -0.00252   2.83663
   R33        2.04921   0.00241   0.00000   0.00448   0.00448   2.05368
   R34        2.08710  -0.00048   0.00000  -0.00094  -0.00094   2.08615
   R35        2.06436  -0.00095   0.00000  -0.00180  -0.00180   2.06256
    A1        1.92691   0.00118   0.00000   0.00384   0.00383   1.93074
    A2        1.93096   0.00151   0.00000   0.00617   0.00616   1.93712
    A3        1.95131  -0.00143   0.00000  -0.00574  -0.00574   1.94558
    A4        1.88762  -0.00064   0.00000  -0.00055  -0.00058   1.88705
    A5        1.89200  -0.00075   0.00000  -0.00448  -0.00448   1.88752
    A6        1.87289   0.00008   0.00000   0.00061   0.00062   1.87351
    A7        1.87949   0.01195   0.00000   0.03740   0.03713   1.91662
    A8        1.93628  -0.00313   0.00000  -0.00933  -0.00914   1.92714
    A9        1.85906   0.00097   0.00000   0.01339   0.01296   1.87202
   A10        1.93482  -0.00485   0.00000  -0.01719  -0.01716   1.91767
   A11        1.89315  -0.00130   0.00000   0.00434   0.00363   1.89677
   A12        1.95763  -0.00277   0.00000  -0.02471  -0.02474   1.93289
   A13        2.34826   0.00049   0.00000   0.00091   0.00128   2.34954
   A14        2.30026  -0.00051   0.00000  -0.00239  -0.00216   2.29810
   A15        1.62989   0.00004   0.00000   0.00156   0.00096   1.63085
   A16        1.59727   0.00923   0.00000   0.02536   0.02437   1.62164
   A17        2.36735  -0.00488   0.00000  -0.01188  -0.01205   2.35530
   A18        2.30592  -0.00329   0.00000  -0.00475  -0.00498   2.30094
   A19        1.55763  -0.00849   0.00000  -0.01795  -0.01831   1.53932
   A20        2.17751   0.00150   0.00000   0.00755   0.01341   2.19092
   A21        2.20874  -0.00593   0.00000  -0.04368  -0.04278   2.16595
   A22        2.21814   0.01179   0.00000   0.03647   0.02981   2.24795
   A23        2.27861   0.01440   0.00000   0.05302   0.05341   2.33202
   A24        1.48425   0.00082   0.00000   0.00423   0.00307   1.48732
   A25        1.98835   0.00258   0.00000   0.02110   0.02047   2.00882
   A26        2.04283  -0.00432   0.00000  -0.02950  -0.02849   2.01434
   A27        2.09512   0.00142   0.00000   0.00507   0.00483   2.09995
   A28        2.03174  -0.00558   0.00000  -0.02684  -0.02652   2.00522
   A29        1.82115   0.00400   0.00000   0.02020   0.02027   1.84143
   A30        2.01128   0.01822   0.00000   0.09695   0.10054   2.11182
   A31        1.97708  -0.01690   0.00000  -0.03904  -0.04083   1.93625
   A32        2.15373  -0.00741   0.00000  -0.03105  -0.03644   2.11729
   A33        2.15071  -0.00855   0.00000  -0.05152  -0.05172   2.09898
   A34        1.90347   0.00881   0.00000   0.03181   0.02770   1.93116
   A35        1.72246   0.03796   0.00000   0.09945   0.10152   1.82398
   A36        2.43547  -0.03090   0.00000  -0.13117  -0.13315   2.30232
   A37        2.64632   0.03816   0.00000   0.09712   0.09048   2.73679
   A38        1.71971  -0.01655   0.00000  -0.03345  -0.02972   1.68999
   A39        1.83768  -0.01432   0.00000  -0.02919  -0.03125   1.80643
   A40        2.20960  -0.01411   0.00000  -0.03536  -0.03540   2.17420
   A41        2.05836   0.00598   0.00000   0.01391   0.01380   2.07216
   A42        2.01145   0.00786   0.00000   0.01925   0.01907   2.03052
   A43        2.22713  -0.00421   0.00000  -0.01524  -0.01541   2.21172
   A44        2.09487  -0.00175   0.00000  -0.00508  -0.00518   2.08970
   A45        1.95913   0.00619   0.00000   0.02204   0.02195   1.98108
   A46        2.23162  -0.00011   0.00000  -0.00269  -0.00280   2.22882
   A47        2.00078  -0.00056   0.00000  -0.00096  -0.00091   1.99987
   A48        2.04331   0.00060   0.00000   0.00324   0.00330   2.04661
   A49        2.20391  -0.00074   0.00000  -0.00002  -0.00019   2.20373
   A50        2.07283  -0.00286   0.00000  -0.01110  -0.01104   2.06178
   A51        2.00467   0.00348   0.00000   0.01052   0.01058   2.01524
   A52        2.16373   0.00180   0.00000   0.00459   0.00442   2.16815
   A53        2.03103  -0.00004   0.00000   0.00065   0.00073   2.03176
   A54        2.08843  -0.00176   0.00000  -0.00524  -0.00515   2.08328
   A55        2.15131  -0.00492   0.00000  -0.01683  -0.01697   2.13434
   A56        2.08756   0.00103   0.00000   0.00355   0.00361   2.09117
   A57        2.04430   0.00390   0.00000   0.01331   0.01337   2.05767
   A58        1.96730  -0.00344   0.00000  -0.01675  -0.01696   1.95034
   A59        1.89032   0.00114   0.00000   0.00953   0.00961   1.89993
   A60        1.95763  -0.00202   0.00000  -0.01496  -0.01504   1.94259
   A61        1.88110   0.00120   0.00000   0.00387   0.00390   1.88500
   A62        1.94168   0.00104   0.00000   0.00391   0.00365   1.94533
   A63        1.81720   0.00275   0.00000   0.01840   0.01840   1.83560
    D1       -3.11080  -0.00105   0.00000  -0.00738  -0.00753  -3.11833
    D2        1.05220  -0.00087   0.00000  -0.00462  -0.00463   1.04757
    D3       -1.08286   0.00376   0.00000   0.02259   0.02278  -1.06009
    D4        1.08343  -0.00198   0.00000  -0.01314  -0.01331   1.07012
    D5       -1.03676  -0.00180   0.00000  -0.01038  -0.01041  -1.04717
    D6        3.11137   0.00283   0.00000   0.01682   0.01699   3.12836
    D7       -1.00297  -0.00216   0.00000  -0.01427  -0.01443  -1.01740
    D8       -3.12315  -0.00197   0.00000  -0.01152  -0.01153  -3.13468
    D9        1.02497   0.00265   0.00000   0.01569   0.01587   1.04084
   D10       -1.94389   0.00170   0.00000   0.00986   0.01002  -1.93387
[...]
 10825,0.22440594,0.00002322,0.00001385,-0.00000722,-0.00000673,-0.0000
 0425,0.00001007,-0.00000180,-0.00001434,-0.00001245,-0.00004157,-0.000
 00578,0.00005040,-0.00008586,-0.00010687,0.00002481,0.00004124,0.00004
 218,0.00001923,-0.00007188,-0.00000642,0.00008374,-0.00000394,-0.00119
 788,-0.00025997,0.00240598,0.00270028,-0.00382581,0.01413096,-0.005773
 39,0.00834082,0.08106510,-0.07245105,0.05523113,-0.00340482,0.00346621
 ,-0.00894310,0.00366326,0.00816923,-0.00175482,-0.00169130,-0.00050438
 ,-0.00029141,0.00064208,0.00110039,-0.00011736,-0.00000701,-0.00000149
 ,-0.00001074,-0.00000711,0.00000113,0.00000219,-0.00000041,-0.00000236
 ,0.00000317,-0.00000111,0.00000439,-0.00000670,-0.00000090,0.00000171,
 -0.00001291,0.00000744,0.00000862,0.00000112,-0.00000162,-0.00001310,0
 .00000036,0.00000850,-0.00000580,-0.00001705,0.00004001,0.00005526,-0.
 00002246,0.00003790,0.00002020,-0.00000590,0.00028324,-0.00002397,-0.0
 0016793,-0.00106902,-0.00073265,-0.00104648,-0.09291302,0.06949424,0.0
 0001036,-0.00000227,-0.00000378,-0.00000180,0.00000265,0.00000024,-0.0
 0000599,-0.00000273,-0.00001687,0.00002793,0.00002027,0.00001119,-0.00
 004889,-0.00000222,0.00001933,0.00000933,-0.00000356,0.00001115,0.0000
 1485,-0.00000994,-0.00002851,-0.00007840,-0.00071380,0.00023146,0.0025
 6246,-0.00138175,-0.00120564,0.01350109,-0.00699620,0.01015555,-0.1091
 6799,0.04967248,-0.13166875,-0.02710511,0.01166649,-0.01660350,0.00130
 205,-0.00337506,-0.00373353,0.00039410,-0.00041970,-0.00026174,0.00005
 156,-0.00010876,-0.00009411,-0.00000321,-0.00000074,0.00000329,-0.0000
 0431,0.00000025,-0.00000291,-0.00000150,0.00000082,0.00000032,0.000002
 21,0.00000109,-0.00000133,-0.00000312,-0.00000025,0.00000155,-0.000003
 59,0.00001000,0.00000227,0.00000323,-0.00000009,0.00000175,-0.00000357
 ,0.00000098,-0.00000347,-0.00000083,0.00001642,-0.00000141,0.00000253,
 0.00000446,0.00000474,0.00020519,-0.00011037,-0.00008529,-0.00037851,0
 .00028964,0.00093236,0.11977865,-0.04985894,0.14232925,-0.00000646,-0.
 00000635,0.00000229,-0.00000875,0.00000451,-0.00000584,0.00001205,0.00
 000160,0.00002921,0.00000904,0.00004111,-0.00000128,-0.00002097,0.0000
 1412,-0.00000964,0.00000897,-0.00001906,-0.00000439,-0.00006636,0.0000
 8987,0.00006140,-0.00045823,-0.00056575,-0.00031236,-0.00086860,0.0000
 1168,-0.00078805,0.00401337,0.00343954,-0.00171496,0.00241069,0.000867
 31,0.00015392,-0.20976905,0.11833710,0.06929074,-0.01312808,0.01354826
 ,0.01002959,-0.00297903,-0.00025766,-0.00276958,0.00054025,0.00035161,
 0.00006435,0.00000149,-0.00000080,0.00000820,0.00000146,0.00000224,-0.
 00000249,0.00000110,-0.00000163,-0.00000396,0.00000200,-0.00000809,0.0
 0000540,-0.00000194,-0.00000355,0.00000944,0.00000581,-0.00001621,-0.0
 0000272,-0.00000054,-0.00000219,0.00000381,-0.00000381,-0.00000353,0.0
 0000461,0.00004514,0.00004820,-0.00002517,-0.00004034,-0.00001911,0.00
 004374,0.00009034,-0.00002252,-0.00001965,0.00057054,-0.00003855,-0.00
 025386,-0.00068421,-0.00354328,0.00051373,0.21981771,0.00000181,0.0000
 1689,-0.00000473,-0.00002127,-0.00002324,0.00000333,0.00002151,0.00001
 231,0.00007722,0.00008035,0.00002912,-0.00002475,-0.00005553,-0.000018
 59,-0.00005759,0.00001991,0.00000871,-0.00000185,-0.00013901,0.0001770
 7,0.00010274,-0.00068897,-0.00069135,-0.00053255,-0.00137647,-0.000335
 47,0.00022305,0.00266765,0.00804815,-0.00350782,0.00772594,-0.00115241
 ,0.00178238,0.11827739,-0.12208641,-0.06354323,0.00749067,-0.00408161,
 -0.00228510,0.00109130,0.00392910,0.00161656,0.00053100,0.00102766,-0.
 00047870,-0.00000153,-0.00000068,-0.00001261,0.00000200,-0.00000062,0.
 00000505,0.00000110,-0.00000298,0.00000204,-0.00000371,0.00000048,-0.0
 0000095,0.00000515,0.00000210,-0.00000891,-0.00000843,-0.00004551,-0.0
 0000079,-0.00000748,-0.00001374,0.00000497,0.00001177,-0.00001198,-0.0
 0000240,0.00003033,0.00003073,-0.00001336,-0.00005677,-0.00003923,0.00
 005645,0.00015100,-0.00003585,-0.00002850,0.00120273,-0.00036559,-0.00
 056145,-0.00342184,-0.00406898,0.00085473,-0.13336905,0.12013806,0.000
 00550,0.00001418,-0.00000400,0.00000252,-0.00001763,0.00000724,0.00000
 218,0.00001015,0.00002966,0.00004049,-0.00003399,-0.00001462,-0.000127
 58,-0.00002501,0.00003758,0.00000377,0.00001803,-0.00000043,0.00009809
 ,-0.00017968,0.00000619,0.00040200,0.00023666,0.00034051,0.00018875,0.
 00053043,-0.00052978,-0.00299365,-0.00194703,-0.00328410,0.02583486,-0
 .01875432,-0.01304708,0.06925751,-0.05784332,-0.08599398,-0.01709473,0
 .01303152,0.00851782,-0.00296218,-0.00084085,-0.00245529,-0.00033617,-
 0.00049526,0.00003773,-0.00000110,-0.00000002,-0.00001261,0.00000011,-
 0.00000312,0.00000501,-0.00000076,0.00000050,0.00000398,-0.00000308,0.
 00000789,-0.00000481,0.00000368,0.00000502,-0.00001421,-0.00001395,-0.
 00001727,-0.00000422,-0.00000332,-0.00000405,0.00000505,0.00001135,-0.
 00000341,-0.00000523,-0.00000756,0.00000132,0.00000560,0.00007517,0.00
 003905,-0.00003666,0.00000520,-0.00001713,-0.00003888,0.00077741,-0.00
 038953,-0.00054028,0.00105635,0.00135136,0.00067174,-0.07465671,0.0642
 0560,0.09627276,-0.00000302,0.00000215,0.00000264,0.00000443,-0.000001
 48,0.00000191,-0.00000742,-0.00000657,0.00002385,-0.00000517,0.0000029
 4,0.00000144,0.00006432,0.00003116,0.00004072,-0.00000534,-0.00001489,
 -0.00000396,0.00011431,-0.00003419,-0.00009640,0.00007731,0.00020191,0
 .00024145,0.00086559,0.00004980,-0.00103166,-0.00138698,0.00071332,0.0
 0069040,-0.00292147,0.00142194,-0.00367056,0.00194630,-0.01606197,-0.0
 1712157,-0.05872212,-0.01349852,-0.03088163,0.00779566,0.01347285,0.01
 497929,-0.00006673,0.00471623,-0.00284774,0.00000065,0.00000068,-0.000
 00314,0.00000179,0.00000033,0.00000147,0.00000080,-0.00000158,-0.00000
 012,-0.00000118,-0.00000172,0.00000122,0.00000270,0.00000110,-0.000003
 57,-0.00000683,-0.00001467,0.00000336,-0.00000283,-0.00000410,-0.00000
 153,0.00000296,-0.00000416,0.00000075,-0.00002782,-0.00002060,0.000011
 85,0.00002471,0.00000498,-0.00002780,0.00000446,-0.00007587,-0.0000196
 4,0.00007913,-0.00025793,-0.00005991,0.00060516,0.00084088,-0.00133447
 ,0.00070776,-0.00064521,0.00084258,0.05169970,0.00000320,0.00000873,-0
 .00000115,-0.00000507,-0.00000917,0.00000418,-0.00000290,-0.00000295,0
 .00000443,0.00001964,-0.00001038,0.00000907,0.00006068,0.00002474,-0.0
 0002287,0.00000886,0.00001373,0.00000597,-0.00000052,-0.00004980,-0.00
 008684,0.00016783,0.00032101,-0.00001079,0.00059462,-0.00055289,0.0005
 1708,-0.00108686,0.00091608,0.00035332,0.00136220,0.00024625,-0.001569
 73,0.00483529,0.00445519,0.00861707,-0.01763629,-0.15384619,-0.1401824
 2,-0.00162851,-0.01651462,-0.02140535,0.00598475,0.00063189,-0.0021783
 6,-0.00000133,0.00000110,-0.00001018,0.00000129,-0.00000066,0.00000311
 ,-0.00000010,-0.00000095,0.00000269,-0.00000332,0.00000402,-0.00000318
 ,0.00000503,0.00000251,-0.00001027,-0.00001273,-0.00000451,0.00000017,
 -0.00000270,-0.00000486,0.00000113,0.00000958,-0.00000372,-0.00000884,
 -0.00002184,-0.00001155,0.00001368,0.00001354,0.00000122,-0.00000996,-
 0.00003676,0.00002871,0.00005300,-0.00021139,-0.00017477,-0.00009041,0
 .00006578,-0.00006864,0.00017906,-0.00046406,-0.00017298,0.00007616,0.
 01010354,0.16597737,0.00000036,0.00000804,-0.00000362,-0.00000914,-0.0
 0001252,0.00000191,0.00001410,0.00001906,-0.00000398,0.00004711,-0.000
 03978,-0.00000521,-0.00012236,-0.00005280,-0.00001757,0.00000303,0.000
 03381,0.00000436,-0.00004893,-0.00007812,0.00006417,0.00002868,-0.0001
 9125,0.00002851,-0.00076041,0.00064737,0.00028173,0.00114530,-0.001193
 66,-0.00004827,-0.00465428,0.00068579,0.00269788,-0.00369223,-0.012448
 21,-0.01729857,-0.02485847,-0.14255931,-0.20252428,-0.00465053,0.00088
 708,0.00022347,-0.00136321,-0.00210445,0.00389970,-0.00000071,0.000000
 58,-0.00000806,0.00000224,-0.00000128,0.00000272,0.00000002,0.00000140
 ,0.00000360,-0.00000450,0.00000681,-0.00000500,0.00000421,0.00000114,-
 0.00000721,-0.00001343,-0.00000167,-0.00001307,-0.00000197,0.00000191,
 0.00000561,0.00000624,0.00000009,-0.00000458,0.00001302,0.00000753,0.0
 0000221,0.00002901,0.00002146,-0.00000295,0.00006377,0.00001508,-0.000
 07213,0.00017252,0.00019274,0.00001100,0.00024494,0.00036627,-0.000884
 66,0.00026673,0.00152057,0.00031621,0.03633061,0.15269783,0.21558409,0
 .00000438,0.00001646,-0.00000500,-0.00001462,-0.00001624,0.00000142,0.
 00001234,0.00001077,0.00001309,0.00005063,-0.00000744,-0.00001307,-0.0
 0012726,-0.00008574,0.00000284,0.00001422,0.00003826,0.00000982,0.0000
 1858,-0.00006869,0.00011491,-0.00046077,-0.00028013,-0.00021570,-0.000
 37589,0.00090132,-0.00127811,0.00225972,-0.00110260,-0.00057328,-0.001
 68211,0.00059760,0.00186184,0.00138701,0.00518231,-0.00281139,-0.01068
 465,-0.00124260,-0.01470277,-0.22499153,0.01891897,-0.13892446,0.00079
 082,0.00357733,0.00127180,-0.00000221,-0.00000032,-0.00001272,0.000001
 32,-0.00000191,0.00000411,0.00000014,-0.00000182,0.00000379,-0.0000042
 1,0.00000539,-0.00000449,0.00000563,0.00000293,-0.00001161,-0.00000898
 ,-0.00001574,-0.00000351,-0.00000405,-0.00000589,0.00000517,0.00001195
 ,-0.00000324,-0.00000681,0.00000196,0.00003416,-0.00001044,0.00004006,
 0.00001760,-0.00001704,0.00011501,-0.00002000,-0.00012392,0.00019607,0
 .00025886,-0.00001533,-0.00040198,-0.00062505,-0.00010408,-0.00029982,
 0.00018976,-0.00044653,-0.00115105,-0.00210746,0.00215061,0.23450565,0
 .00000510,0.00001071,-0.00000325,-0.00001208,-0.00001167,0.00000235,0.
 00000746,-0.00000120,0.00000754,0.00001604,0.00001576,0.00000317,-0.00
 001546,-0.00010300,-0.00008672,0.00002302,0.00003088,0.00000480,-0.000
 03698,0.00003792,0.00011942,-0.00022936,0.00004016,-0.00043151,-0.0008
 4564,-0.00082143,-0.00058017,0.00155535,-0.00007848,-0.00084489,-0.000
 88099,0.00021392,0.00085390,0.00436098,0.00033413,-0.00670972,0.022825
 45,-0.00029423,0.01665219,0.01525760,-0.04697608,-0.00123168,-0.015943
 87,0.00188852,-0.01218196,-0.00000187,-0.00000021,-0.00000872,-0.00000
 046,-0.00000144,0.00000221,-0.00000045,-0.00000121,0.00000213,-0.00000
 145,0.00000353,-0.00000300,0.00000224,0.00000248,-0.00000641,0.0000070
 3,-0.00001710,0.00000330,-0.00000276,-0.00000685,0.00000015,0.00000998
 ,-0.00000135,-0.00000668,-0.00006734,0.00000975,0.00005776,0.00002482,
 -0.00003130,-0.00003988,-0.00001741,0.00000170,-0.00001449,0.00006273,
 0.00033461,0.00005180,-0.00037156,-0.00039816,0.00020186,0.00127023,-0
 .00050965,0.00112145,-0.00237046,-0.00136129,0.00221509,-0.02317439,0.
 04879391,-0.00001039,-0.00000430,-0.00000154,-0.00001529,-0.00000429,-
 0.00000406,0.00001387,0.00000275,0.00001801,0.00002191,0.00002109,0.00
 003075,-0.00006087,0.00002491,-0.00005567,0.00008859,-0.00000131,0.000
 01465,0.00002060,-0.00026081,0.00002305,0.00016379,0.00049135,-0.00031
 471,0.00033792,-0.00261081,0.00175032,-0.00221818,0.00155899,0.0001611
 0,0.00235582,-0.00126969,-0.00194628,-0.00300233,-0.00388109,0.0078820
 7,-0.00019272,-0.00269574,0.00411932,-0.14002677,0.00282960,-0.1491128
 8,-0.01571970,-0.00090681,-0.00837887,0.00000281,-0.00000022,0.0000045
 7,0.00000510,0.00000009,-0.00000021,0.00000010,0.00000018,-0.00000163,
 -0.00000054,-0.00000409,0.00000422,0.00000116,-0.00000259,0.00000563,-
 0.00002238,-0.00001541,-0.00000631,-0.00000034,0.00000652,0.00002157,0
 .00000542,-0.00000055,-0.00001677,0.00014557,0.00020827,-0.00008594,0.
 00004690,0.00004393,0.00002423,-0.00006676,0.00002036,0.00013512,-0.00
 021668,-0.00019278,-0.00003894,0.00044742,0.00081497,0.00002242,0.0000
 1828,0.00062270,-0.00050854,0.00273544,0.00317416,-0.00155686,0.154013
 49,0.00271662,0.14883177,-0.00001410,-0.00002216,0.00000788,0.00001916
 ,0.00001270,-0.00000910,-0.00000137,-0.00000217,0.00005562,-0.00003095
 ,0.00004691,-0.00003745,0.00006520,0.00026163,0.00027041,-0.00008346,-
 0.00010976,-0.00006084,0.00028523,0.00011933,-0.00016580,-0.00014996,-
 0.00154625,0.00061805,-0.00290353,-0.00182234,0.00473165,-0.00001792,0
 .00347515,-0.00073926,0.00091577,-0.00272828,-0.00252788,0.00100123,-0
 .00150131,0.00342244,-0.00018654,0.00373912,-0.00073077,-0.00290258,-0
 .00444023,-0.00467723,-0.26286428,-0.07931314,0.01706182,0.00000588,0.
 00000183,0.00001665,0.00000387,-0.00000089,-0.00000448,-0.00000238,0.0
 0000391,-0.00000426,0.00000443,-0.00000667,0.00000936,-0.00000376,-0.0
 0000421,0.00001562,-0.00000261,-0.00002588,0.00001027,0.00000740,0.000
 01892,0.00001496,-0.00001259,0.00000064,0.00003039,-0.00000800,0.00002
 902,-0.00002026,0.00000479,-0.00000820,0.00000021,-0.00012943,-0.00001
 789,-0.00004517,-0.00001523,-0.00003162,0.00010907,0.00002551,0.000220
 33,-0.00010059,0.00003640,0.00020915,0.00001760,-0.00003069,-0.0000776
 3,-0.00010122,-0.00010783,-0.00142837,0.00054996,0.28441686,0.00000091
 ,-0.00000126,0.00000035,0.00000781,0.00000298,-0.00000347,-0.00002134,
 0.00002238,-0.00001710,0.00003495,0.00002465,-0.00003493,-0.00006763,0
 .00029416,0.00007313,-0.00010712,-0.00001375,-0.00003515,-0.00024465,-
 0.00010638,-0.00016143,0.00018707,-0.00108349,0.00049229,-0.01024300,-
 0.00399058,0.00494987,-0.00131933,0.00097477,0.00102863,0.00048589,-0.
 00031265,-0.00004758,0.00014995,-0.00011618,0.00055834,-0.00197736,0.0
 0113978,-0.00136514,-0.02102244,-0.01095176,-0.00396441,-0.08044531,-0
 .07908113,0.00790834,-0.00000040,-0.00000008,0.00000099,-0.00000101,0.
 00000033,-0.00000082,0.00000007,0.00000050,-0.00000007,0.00000062,0.00
 000082,-0.00000012,-0.00000042,0.00000025,0.00000027,0.00000809,0.0000
 2466,-0.00002026,0.00000429,0.00000185,-0.00000785,-0.00000904,0.00000
 033,0.00003157,-0.00003663,-0.00002651,0.00000893,-0.00006351,-0.00000
 831,0.00003121,0.00004102,0.00007650,0.00001759,0.00012325,0.00037142,
 -0.00010571,0.00021614,0.00029045,0.00004217,0.00021610,0.00022605,-0.
 00009479,0.00042943,0.00077490,-0.00026994,-0.00067176,-0.00238644,-0.
 00101181,0.09226908,0.08392061,0.00001908,0.00002395,-0.00000992,-0.00
 004514,-0.00001028,0.00001447,0.00006686,-0.00004038,-0.00008842,-0.00
 001711,-0.00014850,0.00012748,0.00008778,-0.00094612,-0.00107993,0.000
 37634,0.00026123,0.00006585,-0.00062709,-0.00007832,0.00052303,0.00021
 937,0.00284838,-0.00308477,0.02817413,0.01278216,-0.00893575,0.0021774
 8,-0.00135998,0.00022888,0.00023519,0.00003046,0.00074156,-0.00038387,
 0.00025508,0.00079849,-0.00149190,0.00125440,0.00022820,-0.02210180,-0
 .01200404,-0.00224586,0.01696558,0.00812434,-0.04114944,-0.00000674,-0
 .00000239,-0.00001939,-0.00000459,0.00000014,0.00000471,0.00000181,-0.
 00000188,0.00000673,-0.00000746,0.00001487,-0.00001687,0.00000239,0.00
 000218,-0.00001649,-0.00002637,0.00001829,0.00001329,-0.00001097,-0.00
 002431,0.00000258,0.00003502,0.00000221,-0.00011359,0.00013628,0.00004
 939,0.00001622,0.00005234,-0.00000199,-0.00001178,0.00005813,-0.000234
 36,-0.00002532,-0.00037062,-0.00094413,-0.00002331,-0.00004477,0.00002
 132,0.00010668,0.00000346,-0.00005294,0.00012782,0.00043346,0.00073671
 ,-0.00043676,-0.00036692,-0.00255804,-0.00203847,-0.01909783,-0.005963
 34,0.05629151,0.00000248,0.00001055,0.00000155,0.00001097,-0.00000516,
 0.00000784,0.00000140,-0.00001052,0.00000737,-0.00008371,-0.00005998,0
 .00001671,0.00036779,0.00002910,0.00002508,0.00001636,0.00000369,0.000
 00757,0.00007502,-0.00004326,-0.00034886,0.00016138,-0.00068063,0.0011
 8798,0.00213707,-0.00471834,0.00081402,0.00010234,0.00014262,0.0011571
 2,0.00006563,0.00013679,0.00015275,0.00013076,0.00003429,-0.00037500,0
 .00020123,-0.00043410,-0.00083371,0.00306236,-0.00649023,0.00036230,-0
 .16270282,0.12930160,-0.02579739,-0.00000175,-0.00000013,-0.00000728,-
 0.00000039,0.00000046,0.00000215,0.00000175,-0.00000309,0.00000110,-0.
 00000256,0.00000029,-0.00000236,0.00000326,0.00000428,-0.00001216,-0.0
 0000286,-0.00000622,0.00000503,-0.00000887,-0.00000638,-0.00001546,0.0
 0000568,-0.00000735,-0.00000587,-0.00005603,-0.00006639,0.00003993,0.0
 0003185,0.00000904,-0.00001662,0.00031036,-0.00018861,-0.00033509,0.00
 046171,0.00019650,0.00018427,0.00002706,0.00006628,-0.00003333,0.00006
 206,0.00008478,0.00002217,0.00034094,0.00006366,-0.00024110,0.00090148
 ,-0.00002713,0.00057881,-0.01732449,0.02205631,-0.00444149,0.17170251,
 0.00001777,0.00000834,-0.00000751,-0.00000557,-0.00000176,0.00000014,-
 0.00001041,0.00002543,-0.00012343,0.00006460,-0.00007873,-0.00005102,-
 0.00000937,0.00018420,-0.00019955,-0.00004212,0.00007339,-0.00000851,-
 0.00072038,-0.00006619,-0.00021295,0.00118891,0.00107829,-0.00118213,0
 .00827740,-0.01016022,0.00182065,-0.00130768,-0.00005662,0.00235937,-0
 .00011637,0.00030302,-0.00002939,-0.00051761,0.00015861,-0.00028630,-0
 .00205324,-0.00223105,-0.00357732,0.01639998,-0.01799021,0.00411493,0.
 12446465,-0.19159709,0.02924504,-0.00000507,-0.00000115,-0.00000721,-0
 .00000708,-0.00000164,0.00000004,-0.00000150,0.00000246,0.00000471,-0.
 00000064,0.00001236,-0.00000969,-0.00000186,0.00000182,-0.00000583,0.0
 0001647,0.00007718,-0.00001860,0.00000317,-0.00000307,-0.00002364,-0.0
 0000681,0.00001075,0.00000331,-0.00002014,-0.00012171,0.00004105,-0.00
 014160,-0.00004809,0.00011452,-0.00032109,0.00028343,0.00046750,0.0007
 0963,-0.00004782,0.00031699,0.00006151,0.00001137,0.00002303,0.0000978
 8,0.00001045,0.00001710,0.00102067,-0.00061753,-0.00037665,-0.00032071
 ,0.00128311,0.00032581,-0.00732071,0.00993112,-0.00205412,-0.13939270,
 0.20956755,-0.00002502,-0.00001657,0.00001506,0.00003825,0.00001383,0.
 00000236,-0.00000714,-0.00003377,0.00013166,-0.00013380,0.00005523,-0.
 00000017,0.00017450,-0.00016957,0.00035422,-0.00001664,-0.00010668,-0.
 00003511,0.00062143,0.00016127,-0.00005986,-0.00144761,0.00071292,0.00
 141597,-0.02160552,0.02350490,-0.00549950,0.00189706,0.00151932,-0.005
 51993,0.00080056,-0.00006143,-0.00054138,-0.00056808,-0.00030644,-0.00
 020882,-0.00155583,-0.00284405,-0.00278927,0.01762599,-0.01909634,0.00
 280812,-0.02479562,0.02920129,-0.05202035,0.00000831,0.00000158,0.0000
 1391,0.00000773,0.00000247,-0.00000025,0.00000247,-0.00000190,-0.00000
 734,0.00000134,-0.00001573,0.00001311,0.00000037,-0.00000162,0.0000066
 8,-0.00002153,-0.00010161,0.00002029,-0.00000438,0.00000103,0.00000703
 ,-0.00000302,-0.00001005,0.00001512,-0.00004880,-0.00005918,-0.0000054
 3,0.00006155,0.00004135,-0.00006595,0.00003187,-0.00056897,-0.00050530
 ,-0.00124806,0.00098472,-0.00066456,-0.00007981,0.00004032,0.00009021,
 0.00006176,0.00004085,0.00010983,0.00076128,-0.00085845,-0.00023436,0.
 00019430,0.00069140,0.00101886,0.00138015,-0.00203976,-0.00000146,0.02
 789196,-0.03068034,0.06213663\\-0.00000208,-0.00000117,-0.00000289,-0.
 00000005,0.00000548,0.00000075,-0.00000073,-0.00000733,-0.00000636,0.0
 0000287,-0.00000058,0.00001135,-0.00001621,0.00001256,-0.00003770,0.00
 001989,0.00000322,0.00000555,0.00002222,-0.00001403,0.00003317,-0.0000
 0918,0.00000555,0.00000219,0.00000002,0.00000480,0.00000110,-0.0000028
 5,0.00000129,0.00000241,0.00000312,-0.00000006,0.00000060,-0.00000306,
 0.00000125,0.00000154,0.00000564,-0.00000204,-0.00000001,-0.00000458,0
 .00000334,0.00000474,0.00000577,-0.00000338,-0.00000167,-0.00000024,-0
 .00000037,0.00000019,-0.00000013,-0.00000050,0.00000044,-0.00000035,-0
 .00000040,-0.00000007,0.00000072,-0.00000173,-0.00000037,0.00000056,-0
 .00000298,-0.00000041,-0.00000275,-0.00000184,-0.00000378,-0.00000739,
 0.00000370,-0.00000178,-0.00000437,-0.00000685,-0.00000081,-0.00000857
 ,0.00000117,-0.00000056,-0.00000224,0.00000265,-0.00000734,0.00000184,
 -0.00000556,0.00000318,0.00000189,-0.00000057,-0.00000176,0.00000156,0
 .00000138,-0.00000099,-0.00000014,-0.00000014,-0.00000119,0.00000066,0
 .00000128,-0.00000048,0.00000206,-0.00000003,-0.00000151,-0.00000181,0
 .00000094,0.00000129,-0.00000208,0.00000094,0.00000119\\\@


 I CLAIM NOT TO HAVE CONTROLLED EVENTS,
 BUT CONFESS PLAINLY THAT EVENTS HAVE CONTROLLED ME.

                                         A. LINCOLN
 Job cpu time:       0 days  9 hours 11 minutes  8.5 seconds.
 Elapsed time:       0 days  2 hours 17 minutes 48.4 seconds.
 File lengths (MBytes):  RWF=    620 Int=      0 D2E=      0 Chk=     22 Scr=      1
 Normal termination of Gaussian 16 at Sun May 28 02:39:17 2023.
### All Done ###
