### Starting Gaussian ###
 Entering Gaussian System, Link 0=g16
 Initial command:
 /cluster/software/gaussian/gaussian-16-A.03/avx2/g16/l1.exe "/local/scratch/cz9n3/Gau-1293.inp" -scrdir="/local/scratch/cz9n3/"
 Entering Link 1 = /cluster/software/gaussian/gaussian-16-A.03/avx2/g16/l1.exe PID=      1294.
  
 Copyright (c) 1988,1990,1992,1993,1995,1998,2003,2009,2016,
            Gaussian, Inc.  All Rights Reserved.
  
 This is part of the Gaussian(R) 16 program.  It is based on
 the Gaussian(R) 09 system (copyright 2009, Gaussian, Inc.),
 the Gaussian(R) 03 system (copyright 2003, Gaussian, Inc.),
 the Gaussian(R) 98 system (copyright 1998, Gaussian, Inc.),
 the Gaussian(R) 94 system (copyright 1995, Gaussian, Inc.),
 the Gaussian 92(TM) system (copyright 1992, Gaussian, Inc.),
 the Gaussian 90(TM) system (copyright 1990, Gaussian, Inc.),
 the Gaussian 88(TM) system (copyright 1988, Gaussian, Inc.),
 the Gaussian 86(TM) system (copyright 1986, Carnegie Mellon
 University), and the Gaussian 82(TM) system (copyright 1983,
 Carnegie Mellon University). Gaussian is a federally registered
 trademark of Gaussian, Inc.
  
 This software contains proprietary and confidential information,
 including trade secrets, belonging to Gaussian, Inc.
  
 This software is provided under written license and may be
 used, copied, transmitted, or stored only in accord with that
 written license.
  
 The following legend is applicable only to US Government
 contracts under FAR:
  
                    RESTRICTED RIGHTS LEGEND
  
 Use, reproduction and disclosure by the US Government is
 subject to restrictions as set forth in subparagraphs (a)
 and (c) of the Commercial Computer Software - Restricted
 Rights clause in FAR 52.227-19.
  
 Gaussian, Inc.
 340 Quinnipiac St., Bldg. 40, Wallingford CT 06492
  
  
 ---------------------------------------------------------------
 Warning -- This program may not be used in any manner that
 competes with the business of Gaussian, Inc. or will provide
 assistance to any competitor of Gaussian, Inc.  The licensee
 of this program is prohibited from giving any competitor of
 Gaussian, Inc. access to this program.  By using this program,
 the user acknowledges that Gaussian, Inc. is engaged in the
 business of creating and licensing software in the field of
 computational chemistry and represents and warrants to the
 licensee that it is not a competitor of Gaussian, Inc. and that
 it will not use this program in any manner prohibited above.
 ---------------------------------------------------------------
  

 Cite this work as:
 Gaussian 16, Revision A.03,
 M. J. Frisch, G. W. Trucks, H. B. Schlegel, G. E. Scuseria, 
 M. A. Robb, J. R. Cheeseman, G. Scalmani, V. Barone, 
 G. A. Petersson, H. Nakatsuji, X. Li, M. Caricato, A. V. Marenich, 
 J. Bloino, B. G. Janesko, R. Gomperts, B. Mennucci, H. P. Hratchian, 
 J. V. Ortiz, A. F. Izmaylov, J. L. Sonnenberg, D. Williams-Young, 
 F. Ding, F. Lipparini, F. Egidi, J. Goings, B. Peng, A. Petrone, 
 T. Henderson, D. Ranasinghe, V. G. Zakrzewski, J. Gao, N. Rega, 
 G. Zheng, W. Liang, M. Hada, M. Ehara, K. Toyota, R. Fukuda, 
 J. Hasegawa, M. Ishida, T. Nakajima, Y. Honda, O. Kitao, H. Nakai, 
 T. Vreven, K. Throssell, J. A. Montgomery, Jr., J. E. Peralta, 
 F. Ogliaro, M. J. Bearpark, J. J. Heyd, E. N. Brothers, K. N. Kudin, 
 V. N. Staroverov, T. A. Keith, R. Kobayashi, J. Normand, 
 K. Raghavachari, A. P. Rendell, J. C. Burant, S. S. Iyengar, 
 J. Tomasi, M. Cossi, J. M. Millam, M. Klene, C. Adamo, R. Cammi, 
 J. W. Ochterski, R. L. Martin, K. Morokuma, O. Farkas, 
 J. B. Foresman, and D. J. Fox, Gaussian, Inc., Wallingford CT, 2016.
 
 ******************************************
 Gaussian 16:  ES64L-G16RevA.03 25-Dec-2016
                29-May-2023 
 ******************************************
 %chk=CCC12CCCqOrCqS1rCqCrC2.chk
 %NProcShared=20
 Will use up to   20 processors via shared memory.
 -----------------------------
 # opt freq b3lyp/6-31g(2df,p)
 -----------------------------
 1/18=20,19=15,26=3,38=1/1,3;
 2/9=110,12=2,17=6,18=5,40=1/2;
 3/5=1,6=6,7=104,11=2,25=1,30=1,71=1,74=-5/1,2,3;
 4//1;
 5/5=2,38=5/2;
 6/7=2,8=2,9=2,10=2,28=1/1;
 7//1,2,3,16;
 1/18=20,19=15,26=3/3(2);
 2/9=110/2;
 99//99;
 2/9=110/2;
 3/5=1,6=6,7=104,11=2,25=1,30=1,71=1,74=-5/1,2,3;
 4/5=5,16=3,69=1/1;
 5/5=2,38=5/2;
 7//1,2,3,16;
 1/18=20,19=15,26=3/3(-5);
 2/9=110/2;
 6/7=2,8=2,9=2,10=2,19=2,28=1/1;
 99/9=1/99;
 -------------------
 Title Card Required
 -------------------
 Symbolic Z-matrix:
 Charge =  0 Multiplicity = 1
 C                     0.94301   0.08903   0.14397 
 C                     2.47543  -0.07028   0.08491 
 C                     2.84046  -1.45504  -0.47972 
 C                     2.68843  -2.55769   0.66535 
 C                     3.14265  -4.01571   0.34091 
 C                     2.49665  -4.28712  -0.99844 
 O                     2.49971  -5.70881  -1.22684 
 C                     3.43158  -3.5737   -1.99512 
 S                     4.44826  -2.03752  -0.93511 
 C                     3.10903  -2.46907  -2.9433 
 C                     4.62238  -2.33942  -3.56688 
 C                     2.29602  -1.53663  -1.97075 
 H                     0.64936   1.02432   0.62936 
 H                     0.4795   -0.73586   0.69453 
 H                     0.50131   0.09626  -0.85947 
 H                     2.88218   0.06806   1.09228 
 H                     2.88158   0.73655  -0.53727 
 H                     1.65551  -2.61879   1.01193 
 H                     3.28774  -2.22927   1.53288 
 H                     2.96427  -4.73085   1.1417 
 H                     4.24053  -4.13042   0.2201 
 H                     1.45469  -3.9701   -1.00103 
 H                     3.38119  -6.01769  -1.24565 
 H                     3.83113  -4.32649  -2.68439 
 H                     2.4717   -2.66361  -3.8103 
 H                     5.39142  -2.86656  -2.94352 
 H                     5.01177  -1.3312   -3.69821 
 H                     4.73061  -2.96828  -4.4558 
 H                     1.26368  -1.92504  -1.92583 
 H                     2.1963   -0.54184  -2.43065 
 

 GradGradGradGradGradGradGradGradGradGradGradGradGradGradGradGradGradGrad
 Berny optimization.
 Initialization pass.
                           ----------------------------
                           !    Initial Parameters    !
                           ! (Angstroms and Degrees)  !
 --------------------------                            --------------------------
 ! Name  Definition              Value          Derivative Info.                !
 --------------------------------------------------------------------------------
 ! R1    R(1,2)                  1.5418         estimate D2E/DX2                !
 ! R2    R(1,13)                 1.0939         estimate D2E/DX2                !
 ! R3    R(1,14)                 1.0947         estimate D2E/DX2                !
 ! R4    R(1,15)                 1.0964         estimate D2E/DX2                !
 ! R5    R(2,3)                  1.5394         estimate D2E/DX2                !
 ! R6    R(2,16)                 1.0952         estimate D2E/DX2                !
 ! R7    R(2,17)                 1.0968         estimate D2E/DX2                !
 ! R8    R(3,4)                  1.5969         estimate D2E/DX2                !
 ! R9    R(3,9)                  1.7697         estimate D2E/DX2                !
 ! R10   R(3,12)                 1.5894         estimate D2E/DX2                !
 ! R11   R(4,5)                  1.5612         estimate D2E/DX2                !
 ! R12   R(4,18)                 1.0912         estimate D2E/DX2                !
 ! R13   R(4,19)                 1.1044         estimate D2E/DX2                !
 ! R14   R(5,6)                  1.5116         estimate D2E/DX2                !
 ! R15   R(5,20)                 1.0884         estimate D2E/DX2                !
 ! R16   R(5,21)                 1.1104         estimate D2E/DX2                !
 ! R17   R(6,7)                  1.4399         estimate D2E/DX2                !
 ! R18   R(6,8)                  1.5416         estimate D2E/DX2                !
 ! R19   R(6,22)                 1.0891         estimate D2E/DX2                !
 ! R20   R(7,23)                 0.9342         estimate D2E/DX2                !
 ! R21   R(8,9)                  2.1253         estimate D2E/DX2                !
 ! R22   R(8,10)                 1.4911         estimate D2E/DX2                !
 ! R23   R(8,24)                 1.0961         estimate D2E/DX2                !
 ! R24   R(10,11)                1.6419         estimate D2E/DX2                !
 ! R25   R(10,12)                1.5736         estimate D2E/DX2                !
 ! R26   R(10,25)                1.0935         estimate D2E/DX2                !
 ! R27   R(11,26)                1.1216         estimate D2E/DX2                !
 ! R28   R(11,27)                1.0888         estimate D2E/DX2                !
 ! R29   R(11,28)                1.0942         estimate D2E/DX2                !
 ! R30   R(12,29)                1.1039         estimate D2E/DX2                !
 ! R31   R(12,30)                1.1005         estimate D2E/DX2                !
 ! A1    A(2,1,13)             111.8484         estimate D2E/DX2                !
 ! A2    A(2,1,14)             111.2375         estimate D2E/DX2                !
 ! A3    A(2,1,15)             111.4717         estimate D2E/DX2                !
 ! A4    A(13,1,14)            107.9053         estimate D2E/DX2                !
 ! A5    A(13,1,15)            106.9973         estimate D2E/DX2                !
 ! A6    A(14,1,15)            107.1386         estimate D2E/DX2                !
 ! A7    A(1,2,3)              110.0407         estimate D2E/DX2                !
 ! A8    A(1,2,16)             108.7148         estimate D2E/DX2                !
 ! A9    A(1,2,17)             108.286          estimate D2E/DX2                !
 ! A10   A(3,2,16)             111.2817         estimate D2E/DX2                !
 ! A11   A(3,2,17)             111.4599         estimate D2E/DX2                !
 ! A12   A(16,2,17)            106.9376         estimate D2E/DX2                !
 ! A13   A(2,3,4)              109.6063         estimate D2E/DX2                !
 ! A14   A(2,3,9)              127.2954         estimate D2E/DX2                !
 ! A15   A(2,3,12)             108.0015         estimate D2E/DX2                !
 ! A16   A(4,3,9)               92.5071         estimate D2E/DX2                !
 ! A17   A(4,3,12)             127.2008         estimate D2E/DX2                !
 ! A18   A(9,3,12)              93.033          estimate D2E/DX2                !
 ! A19   A(3,4,5)              117.9134         estimate D2E/DX2                !
 ! A20   A(3,4,18)             110.8865         estimate D2E/DX2                !
 ! A21   A(3,4,19)             107.8347         estimate D2E/DX2                !
 ! A22   A(5,4,18)             106.8044         estimate D2E/DX2                !
 ! A23   A(5,4,19)             106.4444         estimate D2E/DX2                !
 ! A24   A(18,4,19)            106.3099         estimate D2E/DX2                !
 ! A25   A(4,5,6)              103.1489         estimate D2E/DX2                !
 ! A26   A(4,5,20)             114.3974         estimate D2E/DX2                !
 ! A27   A(4,5,21)             113.9995         estimate D2E/DX2                !
 ! A28   A(6,5,20)             117.6406         estimate D2E/DX2                !
 ! A29   A(6,5,21)             107.9139         estimate D2E/DX2                !
 ! A30   A(20,5,21)            100.033          estimate D2E/DX2                !
 ! A31   A(5,6,7)              108.4768         estimate D2E/DX2                !
 ! A32   A(5,6,8)              103.3316         estimate D2E/DX2                !
 ! A33   A(5,6,22)             111.0208         estimate D2E/DX2                !
 ! A34   A(7,6,8)              110.6762         estimate D2E/DX2                !
 ! A35   A(7,6,22)             106.801          estimate D2E/DX2                !
 ! A36   A(8,6,22)             116.3576         estimate D2E/DX2                !
 ! A37   A(6,7,23)             109.3684         estimate D2E/DX2                !
 ! A38   A(6,8,9)              107.5871         estimate D2E/DX2                !
 ! A39   A(6,8,10)             128.5201         estimate D2E/DX2                !
 ! A40   A(6,8,24)             108.0474         estimate D2E/DX2                !
 ! A41   A(9,8,10)              83.4062         estimate D2E/DX2                !
 ! A42   A(9,8,24)             129.4694         estimate D2E/DX2                !
 ! A43   A(10,8,24)            100.8225         estimate D2E/DX2                !
 ! A44   A(3,9,8)               86.0803         estimate D2E/DX2                !
 ! A45   A(8,10,11)             95.7751         estimate D2E/DX2                !
 ! A46   A(8,10,12)             99.0749         estimate D2E/DX2                !
 ! A47   A(8,10,25)            119.8991         estimate D2E/DX2                !
 ! A48   A(11,10,12)           131.6154         estimate D2E/DX2                !
 ! A49   A(11,10,25)           104.485          estimate D2E/DX2                !
 ! A50   A(12,10,25)           107.1165         estimate D2E/DX2                !
 ! A51   A(10,11,26)           112.5694         estimate D2E/DX2                !
 ! A52   A(10,11,27)           116.6524         estimate D2E/DX2                !
 ! A53   A(10,11,28)           110.7512         estimate D2E/DX2                !
 ! A54   A(26,11,27)           104.8951         estimate D2E/DX2                !
 ! A55   A(26,11,28)            96.5216         estimate D2E/DX2                !
 ! A56   A(27,11,28)           113.5049         estimate D2E/DX2                !
 ! A57   A(3,12,10)            115.6721         estimate D2E/DX2                !
 ! A58   A(3,12,29)            107.471          estimate D2E/DX2                !
 ! A59   A(3,12,30)            112.1279         estimate D2E/DX2                !
 ! A60   A(10,12,29)           107.4466         estimate D2E/DX2                !
 ! A61   A(10,12,30)           108.9153         estimate D2E/DX2                !
 ! A62   A(29,12,30)           104.4967         estimate D2E/DX2                !
 ! D1    D(13,1,2,3)           174.5481         estimate D2E/DX2                !
 ! D2    D(13,1,2,16)           52.4419         estimate D2E/DX2                !
 ! D3    D(13,1,2,17)          -63.4004         estimate D2E/DX2                !
 ! D4    D(14,1,2,3)            53.8048         estimate D2E/DX2                !
 ! D5    D(14,1,2,16)          -68.3014         estimate D2E/DX2                !
 ! D6    D(14,1,2,17)          175.8563         estimate D2E/DX2                !
 ! D7    D(15,1,2,3)           -65.7065         estimate D2E/DX2                !
 ! D8    D(15,1,2,16)          172.1873         estimate D2E/DX2                !
 ! D9    D(15,1,2,17)           56.345          estimate D2E/DX2                !
 ! D10   D(1,2,3,4)            -79.2062         estimate D2E/DX2                !
 ! D11   D(1,2,3,9)            171.5442         estimate D2E/DX2                !
 ! D12   D(1,2,3,12)            63.0361         estimate D2E/DX2                !
 ! D13   D(16,2,3,4)            41.3656         estimate D2E/DX2                !
 ! D14   D(16,2,3,9)           -67.8839         estimate D2E/DX2                !
 ! D15   D(16,2,3,12)         -176.392          estimate D2E/DX2                !
 ! D16   D(17,2,3,4)           160.6444         estimate D2E/DX2                !
 ! D17   D(17,2,3,9)            51.3949         estimate D2E/DX2                !
 ! D18   D(17,2,3,12)          -57.1132         estimate D2E/DX2                !
 ! D19   D(2,3,4,5)           -174.2537         estimate D2E/DX2                !
 ! D20   D(2,3,4,18)            62.2188         estimate D2E/DX2                !
 ! D21   D(2,3,4,19)           -53.7913         estimate D2E/DX2                !
 ! D22   D(9,3,4,5)            -42.9973         estimate D2E/DX2                !
 ! D23   D(9,3,4,18)          -166.5248         estimate D2E/DX2                !
 ! D24   D(9,3,4,19)            77.4652         estimate D2E/DX2                !
 ! D25   D(12,3,4,5)            52.7262         estimate D2E/DX2                !
 ! D26   D(12,3,4,18)          -70.8013         estimate D2E/DX2                !
 ! D27   D(12,3,4,19)          173.1886         estimate D2E/DX2                !
 ! D28   D(2,3,9,8)           -163.5375         estimate D2E/DX2                !
 ! D29   D(4,3,9,8)             79.3616         estimate D2E/DX2                !
 ! D30   D(12,3,9,8)           -48.1092         estimate D2E/DX2                !
 ! D31   D(2,3,12,10)          150.8161         estimate D2E/DX2                !
 ! D32   D(2,3,12,29)          -89.182          estimate D2E/DX2                !
 ! D33   D(2,3,12,30)           25.1032         estimate D2E/DX2                !
 ! D34   D(4,3,12,10)          -75.5841         estimate D2E/DX2                !
 ! D35   D(4,3,12,29)           44.4178         estimate D2E/DX2                !
 ! D36   D(4,3,12,30)          158.7029         estimate D2E/DX2                !
 ! D37   D(9,3,12,10)           19.8795         estimate D2E/DX2                !
 ! D38   D(9,3,12,29)          139.8814         estimate D2E/DX2                !
 ! D39   D(9,3,12,30)         -105.8335         estimate D2E/DX2                !
 ! D40   D(3,4,5,6)            -47.8743         estimate D2E/DX2                !
 ! D41   D(3,4,5,20)          -176.8569         estimate D2E/DX2                !
 ! D42   D(3,4,5,21)            68.8544         estimate D2E/DX2                !
 ! D43   D(18,4,5,6)            77.678          estimate D2E/DX2                !
 ! D44   D(18,4,5,20)          -51.3045         estimate D2E/DX2                !
 ! D45   D(18,4,5,21)         -165.5933         estimate D2E/DX2                !
 ! D46   D(19,4,5,6)          -169.0554         estimate D2E/DX2                !
 ! D47   D(19,4,5,20)           61.9621         estimate D2E/DX2                !
 ! D48   D(19,4,5,21)          -52.3267         estimate D2E/DX2                !
 ! D49   D(4,5,6,7)           -163.0706         estimate D2E/DX2                !
 ! D50   D(4,5,6,8)             79.4281         estimate D2E/DX2                !
 ! D51   D(4,5,6,22)           -46.0127         estimate D2E/DX2                !
 ! D52   D(20,5,6,7)           -36.117          estimate D2E/DX2                !
 ! D53   D(20,5,6,8)          -153.6184         estimate D2E/DX2                !
 ! D54   D(20,5,6,22)           80.9409         estimate D2E/DX2                !
 ! D55   D(21,5,6,7)            75.967          estimate D2E/DX2                !
 ! D56   D(21,5,6,8)           -41.5343         estimate D2E/DX2                !
 ! D57   D(21,5,6,22)         -166.975          estimate D2E/DX2                !
 ! D58   D(5,6,7,23)           -61.1941         estimate D2E/DX2                !
 ! D59   D(8,6,7,23)            51.5092         estimate D2E/DX2                !
 ! D60   D(22,6,7,23)          179.073          estimate D2E/DX2                !
 ! D61   D(5,6,8,9)            -24.2365         estimate D2E/DX2                !
 ! D62   D(5,6,8,10)          -119.8805         estimate D2E/DX2                !
 ! D63   D(5,6,8,24)           119.3372         estimate D2E/DX2                !
 ! D64   D(7,6,8,9)           -140.1843         estimate D2E/DX2                !
 ! D65   D(7,6,8,10)           124.1717         estimate D2E/DX2                !
 ! D66   D(7,6,8,24)             3.3894         estimate D2E/DX2                !
 ! D67   D(22,6,8,9)            97.6897         estimate D2E/DX2                !
 ! D68   D(22,6,8,10)            2.0456         estimate D2E/DX2                !
 ! D69   D(22,6,8,24)         -118.7366         estimate D2E/DX2                !
 ! D70   D(6,8,9,3)            -55.0797         estimate D2E/DX2                !
 ! D71   D(10,8,9,3)            73.3122         estimate D2E/DX2                !
 ! D72   D(24,8,9,3)           171.9198         estimate D2E/DX2                !
 ! D73   D(6,8,10,11)          179.7747         estimate D2E/DX2                !
 ! D74   D(6,8,10,12)           45.9758         estimate D2E/DX2                !
 ! D75   D(6,8,10,25)          -69.8508         estimate D2E/DX2                !
 ! D76   D(9,8,10,11)           72.512          estimate D2E/DX2                !
 ! D77   D(9,8,10,12)          -61.287          estimate D2E/DX2                !
 ! D78   D(9,8,10,25)         -177.1135         estimate D2E/DX2                !
 ! D79   D(24,8,10,11)         -56.4931         estimate D2E/DX2                !
 ! D80   D(24,8,10,12)         169.708          estimate D2E/DX2                !
 ! D81   D(24,8,10,25)          53.8814         estimate D2E/DX2                !
 ! D82   D(8,10,11,26)         -14.7177         estimate D2E/DX2                !
 ! D83   D(8,10,11,27)        -136.0549         estimate D2E/DX2                !
 ! D84   D(8,10,11,28)          92.0809         estimate D2E/DX2                !
 ! D85   D(12,10,11,26)         92.8535         estimate D2E/DX2                !
 ! D86   D(12,10,11,27)        -28.4838         estimate D2E/DX2                !
 ! D87   D(12,10,11,28)       -160.348          estimate D2E/DX2                !
 ! D88   D(25,10,11,26)       -137.6463         estimate D2E/DX2                !
 ! D89   D(25,10,11,27)        101.0165         estimate D2E/DX2                !
 ! D90   D(25,10,11,28)        -30.8477         estimate D2E/DX2                !
 ! D91   D(8,10,12,3)           38.041          estimate D2E/DX2                !
 ! D92   D(8,10,12,29)         -81.9741         estimate D2E/DX2                !
 ! D93   D(8,10,12,30)         165.3779         estimate D2E/DX2                !
 ! D94   D(11,10,12,3)         -68.111          estimate D2E/DX2                !
 ! D95   D(11,10,12,29)        171.8738         estimate D2E/DX2                !
 ! D96   D(11,10,12,30)         59.2259         estimate D2E/DX2                !
 ! D97   D(25,10,12,3)         163.3071         estimate D2E/DX2                !
 ! D98   D(25,10,12,29)         43.292          estimate D2E/DX2                !
 ! D99   D(25,10,12,30)        -69.356          estimate D2E/DX2                !
 --------------------------------------------------------------------------------
 Trust Radius=3.00D-01 FncErr=1.00D-07 GrdErr=1.00D-06 EigMax=2.50D+02 EigMin=1.00D-04
 Number of steps in this run=    180 maximum allowed number of steps=    180.
 GradGradGradGradGradGradGradGradGradGradGradGradGradGradGradGradGradGrad

                          Input orientation:                          
 ---------------------------------------------------------------------
 Center     Atomic      Atomic             Coordinates (Angstroms)
 Number     Number       Type             X           Y           Z
 ---------------------------------------------------------------------
      1          6           0        0.943010    0.089030    0.143970
      2          6           0        2.475430   -0.070280    0.084910
      3          6           0        2.840460   -1.455040   -0.479720
      4          6           0        2.688430   -2.557690    0.665350
      5          6           0        3.142650   -4.015710    0.340910
      6          6           0        2.496650   -4.287120   -0.998440
      7          8           0        2.499710   -5.708810   -1.226840
      8          6           0        3.431580   -3.573700   -1.995120
      9         16           0        4.448260   -2.037520   -0.935110
     10          6           0        3.109030   -2.469070   -2.943300
     11          6           0        4.622380   -2.339420   -3.566880
     12          6           0        2.296020   -1.536630   -1.970750
     13          1           0        0.649360    1.024320    0.629360
     14          1           0        0.479500   -0.735860    0.694530
     15          1           0        0.501310    0.096260   -0.859470
     16          1           0        2.882180    0.068060    1.092280
     17          1           0        2.881580    0.736550   -0.537270
     18          1           0        1.655510   -2.618790    1.011930
     19          1           0        3.287740   -2.229270    1.532880
     20          1           0        2.964270   -4.730850    1.141700
     21          1           0        4.240530   -4.130420    0.220100
     22          1           0        1.454690   -3.970100   -1.001030
     23          1           0        3.381190   -6.017690   -1.245650
     24          1           0        3.831130   -4.326490   -2.684390
     25          1           0        2.471700   -2.663610   -3.810300
     26          1           0        5.391420   -2.866560   -2.943520
     27          1           0        5.011770   -1.331200   -3.698210
     28          1           0        4.730610   -2.968280   -4.455800
     29          1           0        1.263680   -1.925040   -1.925830
     30          1           0        2.196300   -0.541840   -2.430650
 ---------------------------------------------------------------------
                    Distance matrix (angstroms):
                    1          2          3          4          5
     1  C    0.000000
     2  C    1.541810   0.000000
     3  C    2.524571   1.539355   0.000000
     4  C    3.213013   2.563101   1.596914   0.000000
     5  C    4.661126   4.009630   2.705879   1.561217   0.000000
     6  C    4.782216   4.353830   2.899647   2.407469   1.511568
     7  O    6.157709   5.789153   4.332304   3.680429   2.395370
     8  C    4.917751   4.185057   2.671063   2.943238   2.394972
     9  S    4.239505   2.966906   1.769656   2.434964   2.691854
    10  C    4.557055   3.914805   2.677613   3.634159   3.630325
    11  C    5.762425   4.805618   3.672591   4.658280   4.502263
    12  C    2.990894   2.531424   1.589416   2.854045   3.493765
    13  H    1.093893   2.197523   3.489728   4.121880   5.630417
    14  H    1.094715   2.190518   2.733169   2.863440   4.239673
    15  H    1.096377   2.194707   2.832378   3.761917   5.032483
    16  H    2.158729   1.095161   2.189237   2.667278   4.160478
    17  H    2.154396   1.096832   2.192731   3.512210   4.839766
    18  H    2.931433   2.833115   2.232362   1.091226   2.147845
    19  H    3.577897   2.723546   2.202283   1.104373   2.152490
    20  H    5.320921   4.803820   3.657221   2.241790   1.088352
    21  H    5.355669   4.429288   3.099613   2.254050   1.110448
    22  H    4.248456   4.174898   2.918501   2.508752   2.156871
    23  H    6.720699   6.161370   4.657984   4.012909   2.565540
    24  H    5.986458   5.255689   3.753295   3.956662   3.118177
    25  H    5.054718   4.679534   3.562217   4.482146   4.417114
    26  H    6.168992   5.049116   3.817080   4.519458   4.143066
    27  H    5.773578   4.725985   3.884405   5.093412   5.197566
    28  H    6.697085   5.839716   4.655295   5.528586   5.160151
    29  H    2.905749   2.991914   2.190518   3.023966   3.611030
    30  H    2.932132   2.574553   2.248334   3.727071   4.543665
                    6          7          8          9         10
     6  C    0.000000
     7  O    1.439923   0.000000
     8  C    1.541568   2.453025   0.000000
     9  S    2.978841   4.166572   2.125349   0.000000
    10  C    2.731812   3.716641   1.491071   2.452060   0.000000
    11  C    3.861237   4.618907   2.326345   2.654746   1.641916
    12  C    2.924181   4.242874   2.332326   2.440405   1.573621
    13  H    5.854367   7.225255   5.980839   5.123873   5.569349
    14  H    4.421141   5.701153   4.899217   4.483425   4.811679
    15  H    4.818165   6.150398   4.831645   4.487444   4.209925
    16  H    4.846374   6.236732   4.805860   3.316080   4.772253
    17  H    5.059457   6.493381   4.583239   3.210643   4.014563
    18  H    2.744527   3.908067   3.620584   3.453736   4.216513
    19  H    3.356807   4.510459   3.778223   2.733962   4.486160
    20  H    2.235121   2.604266   3.375946   3.710713   4.671598
    21  H    2.133193   2.759602   2.423125   2.399561   3.747996
    22  H    1.089123   2.041120   2.247986   3.563800   2.960126
    23  H    1.959183   0.934220   2.556821   4.132412   3.943195
    24  H    2.150538   2.409967   1.096096   2.946220   2.009595
    25  H    3.246993   3.993531   2.245999   3.544784   1.093492
    26  H    3.765770   4.403108   2.289210   2.368664   2.316744
    27  H    4.727795   5.619749   3.228982   2.907087   2.342020
    28  H    4.322413   4.786815   2.847623   3.652574   2.272969
    29  H    2.821292   4.041444   2.724458   3.337024   2.176357
    30  H    4.021015   5.314019   3.302693   3.089502   2.193194
                   11         12         13         14         15
    11  C    0.000000
    12  C    2.933267   0.000000
    13  H    6.686409   4.003814   0.000000
    14  H    6.155849   3.323356   1.769557   0.000000
    15  H    5.499620   2.668756   1.760633   1.762900   0.000000
    16  H    5.525579   3.507245   2.472694   2.564637   3.078744
    17  H    4.655160   2.750471   2.535082   3.074949   2.485854
    18  H    5.463137   3.236928   3.798809   2.242581   3.493682
    19  H    5.272661   3.706573   4.285236   3.289273   4.346909
    20  H    5.535250   4.509650   6.224410   4.725885   5.776837
    21  H    4.206508   3.912632   6.295660   5.088562   5.745612
    22  H    4.390554   2.751358   5.315163   3.779713   4.179026
    23  H    4.523089   4.667254   7.782574   6.331021   6.769286
    24  H    2.313723   3.263306   7.052359   5.961807   5.829130
    25  H    2.188556   2.164461   6.052465   5.289478   4.495188
    26  H    1.121551   3.506636   7.098701   6.473195   6.085618
    27  H    1.088751   3.225154   6.580802   6.339721   5.517276
    28  H    1.094238   3.761957   7.645673   7.041416   6.341291
    29  H    3.761067   1.103905   3.950330   2.982511   2.409146
    30  H    3.226171   1.100481   3.769555   3.570966   2.397659
                   16         17         18         19         20
    16  H    0.000000
    17  H    1.761338   0.000000
    18  H    2.954715   3.893787   0.000000
    19  H    2.374096   3.639584   1.757068   0.000000
    20  H    4.799866   5.719986   2.488070   2.552559   0.000000
    21  H    4.498116   5.109574   3.097475   2.499114   1.684845
    22  H    4.767223   4.940004   2.432771   3.579282   2.729261
    23  H    6.538446   6.809638   4.430255   4.699052   2.743942
    24  H    5.871611   5.580873   4.616529   4.741199   3.943846
    25  H    5.627238   4.737279   4.891020   5.422559   5.388730
    26  H    5.585335   5.007169   5.446467   4.986959   5.104474
    27  H    5.426037   4.336455   5.925183   5.580601   6.258962
    28  H    6.589176   5.700838   6.282870   6.204216   6.128508
    29  H    3.962446   3.410243   3.043888   4.018961   4.491583
    30  H    3.640528   2.385116   4.056788   4.443898   5.558711
                   21         22         23         24         25
    21  H    0.000000
    22  H    3.045942   0.000000
    23  H    2.539424   2.822032   0.000000
    24  H    2.939747   2.933970   2.265519   0.000000
    25  H    4.639441   3.260862   4.319080   2.425055   0.000000
    26  H    3.595884   4.526468   4.105290   2.152452   3.052419
    27  H    4.876843   5.185691   5.535073   3.375426   2.870511
    28  H    4.843014   4.865258   4.628704   2.406593   2.369002
    29  H    4.281396   2.252556   4.657926   3.596411   2.357122
    30  H    4.907470   3.787712   5.726528   4.130451   2.545818
                   26         27         28         29         30
    26  H    0.000000
    27  H    1.752433   0.000000
    28  H    1.653483   1.825657   0.000000
    29  H    4.354353   4.188336   4.416866   0.000000
    30  H    3.984489   3.186953   4.051120   1.742947   0.000000
 Stoichiometry    C10H18OS
 Framework group  C1[X(C10H18OS)]
 Deg. of freedom    84
 Full point group                 C1      NOp   1
 Largest Abelian subgroup         C1      NOp   1
 Largest concise Abelian subgroup C1      NOp   1
                         Standard orientation:                         
 ---------------------------------------------------------------------
 Center     Atomic      Atomic             Coordinates (Angstroms)
 Number     Number       Type             X           Y           Z
 ---------------------------------------------------------------------
      1          6           0       -3.340237   -0.500377   -0.935706
      2          6           0       -2.684450    0.108919    0.319635
      3          6           0       -1.152666   -0.011112    0.225592
      4          6           0       -0.706624   -1.494688    0.613128
      5          6           0        0.822007   -1.795141    0.715174
      6          6           0        1.376063   -1.194966   -0.556695
      7          8           0        2.689614   -1.739405   -0.783738
      8          6           0        1.459107    0.309912   -0.232847
      9         16           0        0.048011    0.714898    1.304002
     10          6           0        0.780067    1.446306   -0.919000
     11          6           0        1.404480    2.618843    0.045963
     12          6           0       -0.668989    0.841960   -1.025235
     13          1           0       -4.431193   -0.517526   -0.857464
     14          1           0       -2.998626   -1.526889   -1.102966
     15          1           0       -3.092498    0.073396   -1.836513
     16          1           0       -3.070192   -0.409031    1.204117
     17          1           0       -3.000761    1.156128    0.399275
     18          1           0       -1.125107   -2.221604   -0.084897
     19          1           0       -1.138228   -1.730215    1.602009
     20          1           0        1.062511   -2.834734    0.929445
     21          1           0        1.323368   -1.299761    1.573271
     22          1           0        0.767646   -1.471669   -1.416610
     23          1           0        3.247607   -1.510039   -0.070434
     24          1           0        2.508021    0.617423   -0.314351
     25          1           0        1.084069    1.733023   -1.929495
     26          1           0        1.859841    2.206783    0.984435
     27          1           0        0.715525    3.390819    0.384749
     28          1           0        2.331601    3.016705   -0.377724
     29          1           0       -0.686611    0.177328   -1.906462
     30          1           0       -1.374620    1.648793   -1.274560
 ---------------------------------------------------------------------
 Rotational constants (GHZ):           1.0880195           0.7389391           0.5808808
 Standard basis: 6-31G(2df,p) (6D, 7F)
 There are   466 symmetry adapted cartesian basis functions of A   symmetry.
 There are   430 symmetry adapted basis functions of A   symmetry.
   430 basis functions,   678 primitive gaussians,   466 cartesian basis functions
    51 alpha electrons       51 beta electrons
       nuclear repulsion energy       912.5031161531 Hartrees.
 NAtoms=   30 NActive=   30 NUniq=   30 SFac= 1.00D+00 NAtFMM=   60 NAOKFM=F Big=F
 Integral buffers will be    131072 words long.
 Raffenetti 2 integral format.
 Two-electron integral symmetry is turned on.
 One-electron integrals computed using PRISM.
 PrsmSu:  requested number of processors reduced to:  12 ShMem   1 Linda.
 NBasis=   430 RedAO= T EigKep=  4.47D-04  NBF=   430
 NBsUse=   430 1.00D-06 EigRej= -1.00D+00 NBFU=   430
 ExpMin= 1.17D-01 ExpMax= 2.19D+04 ExpMxC= 3.30D+03 IAcc=3 IRadAn=         5 AccDes= 0.00D+00
 Harris functional with IExCor=  402 and IRadAn=       5 diagonalized for initial guess.
 HarFok:  IExCor=  402 AccDes= 0.00D+00 IRadAn=         5 IDoV= 1 UseB2=F ITyADJ=14
 ICtDFT=  3500011 ScaDFX=  1.000000  1.000000  1.000000  1.000000
 FoFCou: FMM=F IPFlag=           0 FMFlag=      100000 FMFlg1=           0
         NFxFlg=           0 DoJE=T BraDBF=F KetDBF=T FulRan=T
         wScrn=  0.000000 ICntrl=       500 IOpCl=  0 I1Cent=   200000004 NGrid=           0
         NMat0=    1 NMatS0=      1 NMatT0=    0 NMatD0=    1 NMtDS0=    0 NMtDT0=    0
 Petite list used in FoFCou.
 Requested convergence on RMS density matrix=1.00D-08 within 128 cycles.
 Requested convergence on MAX density matrix=1.00D-06.
 Requested convergence on             energy=1.00D-06.
 No special actions if energy rises.
 Integral accuracy reduced to 1.0D-05 until final iterations.
 Initial convergence to 1.0D-05 achieved.  Increase integral accuracy.
 SCF Done:  E(RB3LYP) =  -865.182622392     A.U. after   14 cycles
            NFock= 14  Conv=0.40D-08     -V/T= 2.0056

 **********************************************************************

            Population analysis using the SCF density.

 **********************************************************************

 Orbital symmetries:
       Occupied  (A) (A) (A) (A) (A) (A) (A) (A) (A) (A) (A) (A)
                 (A) (A) (A) (A) (A) (A) (A) (A) (A) (A) (A) (A)
                 (A) (A) (A) (A) (A) (A) (A) (A) (A) (A) (A) (A)
                 (A) (A) (A) (A) (A) (A) (A) (A) (A) (A) (A) (A)
                 (A) (A) (A)
       Virtual   (A) (A) (A) (A) (A) (A) (A) (A) (A) (A) (A) (A)
                 (A) (A) (A) (A) (A) (A) (A) (A) (A) (A) (A) (A)
                 (A) (A) (A) (A) (A) (A) (A) (A) (A) (A) (A) (A)
                 (A) (A) (A) (A) (A) (A) (A) (A) (A) (A) (A) (A)
                 (A) (A) (A) (A) (A) (A) (A) (A) (A) (A) (A) (A)
                 (A) (A) (A) (A) (A) (A) (A) (A) (A) (A) (A) (A)
                 (A) (A) (A) (A) (A) (A) (A) (A) (A) (A) (A) (A)
                 (A) (A) (A) (A) (A) (A) (A) (A) (A) (A) (A) (A)
                 (A) (A) (A) (A) (A) (A) (A) (A) (A) (A) (A) (A)
                 (A) (A) (A) (A) (A) (A) (A) (A) (A) (A) (A) (A)
                 (A) (A) (A) (A) (A) (A) (A) (A) (A) (A) (A) (A)
                 (A) (A) (A) (A) (A) (A) (A) (A) (A) (A) (A) (A)
                 (A) (A) (A) (A) (A) (A) (A) (A) (A) (A) (A) (A)
                 (A) (A) (A) (A) (A) (A) (A) (A) (A) (A) (A) (A)
                 (A) (A) (A) (A) (A) (A) (A) (A) (A) (A) (A) (A)
                 (A) (A) (A) (A) (A) (A) (A) (A) (A) (A) (A) (A)
                 (A) (A) (A) (A) (A) (A) (A) (A) (A) (A) (A) (A)
                 (A) (A) (A) (A) (A) (A) (A) (A) (A) (A) (A) (A)
                 (A) (A) (A) (A) (A) (A) (A) (A) (A) (A) (A) (A)
                 (A) (A) (A) (A) (A) (A) (A) (A) (A) (A) (A) (A)
                 (A) (A) (A) (A) (A) (A) (A) (A) (A) (A) (A) (A)
                 (A) (A) (A) (A) (A) (A) (A) (A) (A) (A) (A) (A)
                 (A) (A) (A) (A) (A) (A) (A) (A) (A) (A) (A) (A)
                 (A) (A) (A) (A) (A) (A) (A) (A) (A) (A) (A) (A)
                 (A) (A) (A) (A) (A) (A) (A) (A) (A) (A) (A) (A)
                 (A) (A) (A) (A) (A) (A) (A) (A) (A) (A) (A) (A)
                 (A) (A) (A) (A) (A) (A) (A) (A) (A) (A) (A) (A)
                 (A) (A) (A) (A) (A) (A) (A) (A) (A) (A) (A) (A)
                 (A) (A) (A) (A) (A) (A) (A) (A) (A) (A) (A) (A)
                 (A) (A) (A) (A) (A) (A) (A) (A) (A) (A) (A) (A)
                 (A) (A) (A) (A) (A) (A) (A) (A) (A) (A) (A) (A)
                 (A) (A) (A) (A) (A) (A) (A)
 The electronic state is 1-A.
 Alpha  occ. eigenvalues --  -88.84294 -19.12876 -10.23495 -10.22345 -10.22046
 Alpha  occ. eigenvalues --  -10.20121 -10.19483 -10.19405 -10.19022 -10.18161
 Alpha  occ. eigenvalues --  -10.17753 -10.17390  -7.90842  -5.87268  -5.87050
 Alpha  occ. eigenvalues --   -5.86273  -1.01734  -0.86999  -0.79804  -0.77913
 Alpha  occ. eigenvalues --   -0.73412  -0.69593  -0.67770  -0.63637  -0.63546
 Alpha  occ. eigenvalues --   -0.60371  -0.56323  -0.51341  -0.50229  -0.49034
 Alpha  occ. eigenvalues --   -0.45821  -0.44713  -0.44436  -0.42542  -0.42208
 Alpha  occ. eigenvalues --   -0.40597  -0.39651  -0.38922  -0.37342  -0.36398
 Alpha  occ. eigenvalues --   -0.35943  -0.35575  -0.34614  -0.33973  -0.32513
 Alpha  occ. eigenvalues --   -0.31535  -0.30052  -0.28634  -0.25856  -0.25283
 Alpha  occ. eigenvalues --   -0.18611
 Alpha virt. eigenvalues --   -0.02646   0.05505   0.08598   0.08916   0.08964
 Alpha virt. eigenvalues --    0.10963   0.11478   0.11924   0.12449   0.13283
 Alpha virt. eigenvalues --    0.14410   0.15090   0.15200   0.15975   0.16797
 Alpha virt. eigenvalues --    0.17705   0.18002   0.18878   0.19885   0.20535
 Alpha virt. eigenvalues --    0.21030   0.21270   0.22447   0.23556   0.24610
 Alpha virt. eigenvalues --    0.25374   0.26620   0.26874   0.28339   0.28799
 Alpha virt. eigenvalues --    0.31387   0.32932   0.35934   0.39010   0.42197
 Alpha virt. eigenvalues --    0.42552   0.43850   0.45321   0.46465   0.48089
 Alpha virt. eigenvalues --    0.49236   0.50386   0.51621   0.51941   0.53321
 Alpha virt. eigenvalues --    0.53977   0.54462   0.54705   0.56878   0.57863
 Alpha virt. eigenvalues --    0.58626   0.59856   0.60706   0.61099   0.61611
 Alpha virt. eigenvalues --    0.63055   0.64023   0.65215   0.66762   0.67786
 Alpha virt. eigenvalues --    0.68521   0.69206   0.70342   0.72030   0.73088
 Alpha virt. eigenvalues --    0.73715   0.74081   0.74988   0.75577   0.75667
 Alpha virt. eigenvalues --    0.76700   0.77034   0.78187   0.79415   0.79981
 Alpha virt. eigenvalues --    0.80294   0.81514   0.82648   0.83461   0.84460
 Alpha virt. eigenvalues --    0.85120   0.85885   0.86840   0.88025   0.88174
 Alpha virt. eigenvalues --    0.89332   0.91434   0.92710   0.93713   0.95405
 Alpha virt. eigenvalues --    0.96320   0.99041   1.00024   1.02256   1.02364
 Alpha virt. eigenvalues --    1.06561   1.08580   1.09218   1.11286   1.12603
 Alpha virt. eigenvalues --    1.13770   1.16760   1.18122   1.19265   1.20204
 Alpha virt. eigenvalues --    1.23777   1.26307   1.27054   1.29811   1.31333
 Alpha virt. eigenvalues --    1.31874   1.33751   1.35404   1.38862   1.40156
 Alpha virt. eigenvalues --    1.41205   1.42504   1.42919   1.44659   1.45205
 Alpha virt. eigenvalues --    1.46721   1.47718   1.49011   1.50656   1.51328
 Alpha virt. eigenvalues --    1.52143   1.53904   1.56104   1.57128   1.58092
 Alpha virt. eigenvalues --    1.58785   1.59138   1.61239   1.62941   1.64469
 Alpha virt. eigenvalues --    1.65451   1.66320   1.67786   1.68822   1.69549
 Alpha virt. eigenvalues --    1.71424   1.72735   1.74097   1.76224   1.78188
 Alpha virt. eigenvalues --    1.79368   1.80415   1.84038   1.84213   1.87122
 Alpha virt. eigenvalues --    1.88728   1.90219   1.91442   1.92297   1.94985
 Alpha virt. eigenvalues --    1.96930   1.98788   1.99976   2.01799   2.03797
 Alpha virt. eigenvalues --    2.05558   2.07480   2.09126   2.10521   2.13134
 Alpha virt. eigenvalues --    2.15345   2.17484   2.21645   2.24057   2.25627
 Alpha virt. eigenvalues --    2.27609   2.28174   2.29433   2.31205   2.34727
 Alpha virt. eigenvalues --    2.36425   2.37862   2.39155   2.40929   2.41600
 Alpha virt. eigenvalues --    2.43203   2.43741   2.46965   2.47253   2.47995
 Alpha virt. eigenvalues --    2.51242   2.51714   2.53318   2.55395   2.56513
 Alpha virt. eigenvalues --    2.59110   2.60115   2.61654   2.62395   2.63618
 Alpha virt. eigenvalues --    2.68182   2.70189   2.71873   2.72182   2.74603
 Alpha virt. eigenvalues --    2.75905   2.76929   2.78469   2.79815   2.81150
 Alpha virt. eigenvalues --    2.81952   2.83389   2.84485   2.85802   2.86780
 Alpha virt. eigenvalues --    2.89032   2.89556   2.90524   2.91401   2.93551
 Alpha virt. eigenvalues --    2.94166   2.95719   2.96315   2.98138   2.99422
 Alpha virt. eigenvalues --    3.00534   3.02119   3.02958   3.03796   3.05620
 Alpha virt. eigenvalues --    3.07928   3.08769   3.11297   3.11960   3.14649
 Alpha virt. eigenvalues --    3.15455   3.18288   3.18576   3.20146   3.22887
 Alpha virt. eigenvalues --    3.25988   3.27910   3.28631   3.29820   3.31133
 Alpha virt. eigenvalues --    3.33466   3.34425   3.36378   3.38271   3.41158
 Alpha virt. eigenvalues --    3.42373   3.43638   3.44472   3.46800   3.48392
 Alpha virt. eigenvalues --    3.49418   3.49811   3.52458   3.54533   3.56085
 Alpha virt. eigenvalues --    3.58522   3.59666   3.61234   3.62970   3.63636
 Alpha virt. eigenvalues --    3.65460   3.66256   3.68178   3.72365   3.73276
 Alpha virt. eigenvalues --    3.74808   3.77582   3.79217   3.80669   3.82577
 Alpha virt. eigenvalues --    3.83050   3.86750   3.90244   3.94400   3.95193
 Alpha virt. eigenvalues --    3.97786   4.01933   4.04000   4.04816   4.06675
 Alpha virt. eigenvalues --    4.13588   4.13921   4.18657   4.20269   4.21719
 Alpha virt. eigenvalues --    4.24264   4.28844   4.29156   4.34370   4.36065
 Alpha virt. eigenvalues --    4.36667   4.39132   4.40876   4.42094   4.42935
 Alpha virt. eigenvalues --    4.45083   4.47280   4.49559   4.50410   4.54317
 Alpha virt. eigenvalues --    4.54508   4.55059   4.56018   4.57493   4.59310
 Alpha virt. eigenvalues --    4.60283   4.62649   4.62699   4.64821   4.67496
 Alpha virt. eigenvalues --    4.68138   4.69141   4.69939   4.70820   4.71516
 Alpha virt. eigenvalues --    4.72314   4.75517   4.75744   4.77393   4.78185
 Alpha virt. eigenvalues --    4.79006   4.80293   4.81067   4.82264   4.84124
 Alpha virt. eigenvalues --    4.86003   4.87056   4.88173   4.90167   4.90646
 Alpha virt. eigenvalues --    4.92772   4.93333   4.95485   4.96865   4.97247
 Alpha virt. eigenvalues --    5.02474   5.04875   5.07217   5.08517   5.11220
 Alpha virt. eigenvalues --    5.13101   5.15040   5.17245   5.18915   5.25841
 Alpha virt. eigenvalues --    5.28966   5.29357   5.32416   5.36022   5.37319
 Alpha virt. eigenvalues --    5.39899   5.47207   5.49514   5.53396   5.53916
 Alpha virt. eigenvalues --    5.57728   5.60448   5.65093   5.66294   5.82274
 Alpha virt. eigenvalues --    5.90090   5.95716   5.97526   6.09554   6.17261
 Alpha virt. eigenvalues --    6.51990   7.10126   7.23799  11.28796  11.36568
 Alpha virt. eigenvalues --   11.61386  11.83444  11.95399  12.27367  12.41934
 Alpha virt. eigenvalues --   12.58837  12.77896  13.00968  13.41738
          Condensed to atoms (all electrons):
               1          2          3          4          5          6
     1  C    4.957877   0.397709  -0.023481  -0.003722   0.000117   0.000027
     2  C    0.397709   4.947256   0.411119  -0.049689   0.003188  -0.000191
     3  C   -0.023481   0.411119   4.510955   0.371849  -0.017806  -0.005925
     4  C   -0.003722  -0.049689   0.371849   5.138937   0.338059  -0.015584
     5  C    0.000117   0.003188  -0.017806   0.338059   5.058538   0.369124
     6  C    0.000027  -0.000191  -0.005925  -0.015584   0.369124   4.659740
     7  O   -0.000000  -0.000001   0.000009   0.003592  -0.048311   0.380873
     8  C   -0.000028   0.001014   0.003185  -0.014371  -0.030109   0.370491
     9  S    0.002775  -0.024120   0.291570  -0.135317  -0.058318  -0.030882
    10  C    0.000436   0.003051  -0.018084  -0.001859   0.004689  -0.027876
    11  C    0.000002  -0.000019  -0.001218  -0.000091  -0.000223   0.004486
    12  C   -0.009456  -0.043420   0.358743  -0.024795  -0.002628  -0.000416
    13  H    0.377094  -0.022987   0.002129   0.000100  -0.000000   0.000000
    14  H    0.379633  -0.031577  -0.004148   0.001149  -0.000209   0.000008
    15  H    0.380144  -0.029114  -0.005493   0.000044  -0.000005  -0.000011
    16  H   -0.037348   0.358660  -0.020943  -0.006720   0.000137   0.000005
    17  H   -0.037785   0.354277  -0.018863   0.004967  -0.000135   0.000006
    18  H    0.000020  -0.001564  -0.033605   0.323281  -0.034177  -0.006161
    19  H   -0.000034  -0.007136  -0.018476   0.353773  -0.024467   0.002517
    20  H   -0.000002  -0.000052   0.003081  -0.026362   0.346510  -0.020733
    21  H   -0.000003  -0.000003  -0.004670  -0.014989   0.365217  -0.026034
    22  H   -0.000029   0.000009  -0.004223  -0.004321  -0.049203   0.360645
    23  H   -0.000000  -0.000000  -0.000026  -0.000084  -0.000209  -0.080826
    24  H    0.000001  -0.000037  -0.000137   0.000333   0.001700  -0.043283
    25  H   -0.000015  -0.000001   0.004149  -0.000110   0.000101  -0.000332
    26  H   -0.000000   0.000007   0.001186  -0.000085  -0.000107   0.000508
    27  H   -0.000001  -0.000012   0.000274   0.000012   0.000010  -0.000195
    28  H   -0.000000   0.000000  -0.000070   0.000012   0.000005  -0.000023
    29  H    0.000885   0.000393  -0.026286  -0.004340  -0.000413   0.001484
    30  H   -0.002370  -0.007780  -0.024474   0.003282  -0.000054   0.000018
               7          8          9         10         11         12
     1  C   -0.000000  -0.000028   0.002775   0.000436   0.000002  -0.009456
     2  C   -0.000001   0.001014  -0.024120   0.003051  -0.000019  -0.043420
     3  C    0.000009   0.003185   0.291570  -0.018084  -0.001218   0.358743
     4  C    0.003592  -0.014371  -0.135317  -0.001859  -0.000091  -0.024795
     5  C   -0.048311  -0.030109  -0.058318   0.004689  -0.000223  -0.002628
     6  C    0.380873   0.370491  -0.030882  -0.027876   0.004486  -0.000416
     7  O    7.843744  -0.043513   0.001424   0.003698  -0.000111  -0.000247
     8  C   -0.043513   5.028790   0.226328   0.326065  -0.028696  -0.034411
     9  S    0.001424   0.226328  16.278166  -0.081622  -0.088785  -0.159671
    10  C    0.003698   0.326065  -0.081622   4.864047   0.377941   0.400612
    11  C   -0.000111  -0.028696  -0.088785   0.377941   5.088542  -0.004949
    12  C   -0.000247  -0.034411  -0.159671   0.400612  -0.004949   5.145813
    13  H    0.000000  -0.000000  -0.000132  -0.000007   0.000000   0.000048
    14  H   -0.000000   0.000008   0.000174  -0.000023  -0.000000  -0.000520
    15  H    0.000000   0.000022   0.000248  -0.000046  -0.000002   0.003670
    16  H   -0.000000   0.000006  -0.001039  -0.000129  -0.000002   0.005300
    17  H   -0.000000   0.000028   0.000078  -0.000163  -0.000026  -0.004008
    18  H    0.000149   0.000359   0.014826   0.000304   0.000007  -0.001989
    19  H   -0.000081   0.000411  -0.006987  -0.000060  -0.000001   0.003981
    20  H    0.000613   0.004800   0.004648  -0.000253   0.000005   0.000091
    21  H    0.000546  -0.019019  -0.007673   0.000704   0.000008   0.000279
    22  H   -0.013076  -0.047182   0.005720  -0.003386  -0.000023  -0.003054
    23  H    0.327488   0.000376   0.000172   0.000059  -0.000032  -0.000013
    24  H    0.002378   0.338897  -0.009094  -0.048119  -0.016304   0.006757
    25  H    0.000095  -0.037310   0.017203   0.343568  -0.057732  -0.050368
    26  H   -0.000017  -0.010495  -0.030883  -0.024174   0.398904   0.000864
    27  H    0.000000   0.001258   0.001519  -0.016145   0.371298  -0.003216
    28  H   -0.000000  -0.001666   0.010029  -0.026325   0.336856   0.001741
    29  H    0.000062  -0.009291   0.014236  -0.025495   0.002462   0.323781
    30  H   -0.000002   0.005867   0.004846  -0.038230  -0.003968   0.352644
              13         14         15         16         17         18
     1  C    0.377094   0.379633   0.380144  -0.037348  -0.037785   0.000020
     2  C   -0.022987  -0.031577  -0.029114   0.358660   0.354277  -0.001564
     3  C    0.002129  -0.004148  -0.005493  -0.020943  -0.018863  -0.033605
     4  C    0.000100   0.001149   0.000044  -0.006720   0.004967   0.323281
     5  C   -0.000000  -0.000209  -0.000005   0.000137  -0.000135  -0.034177
     6  C    0.000000   0.000008  -0.000011   0.000005   0.000006  -0.006161
     7  O    0.000000  -0.000000   0.000000  -0.000000  -0.000000   0.000149
     8  C   -0.000000   0.000008   0.000022   0.000006   0.000028   0.000359
     9  S   -0.000132   0.000174   0.000248  -0.001039   0.000078   0.014826
    10  C   -0.000007  -0.000023  -0.000046  -0.000129  -0.000163   0.000304
    11  C    0.000000  -0.000000  -0.000002  -0.000002  -0.000026   0.000007
    12  C    0.000048  -0.000520   0.003670   0.005300  -0.004008  -0.001989
    13  H    0.591137  -0.030221  -0.031118  -0.002913  -0.001063  -0.000116
    14  H   -0.030221   0.585125  -0.033308  -0.002686   0.005293   0.005080
    15  H   -0.031118  -0.033308   0.586513   0.005126  -0.005434   0.000116
    16  H   -0.002913  -0.002686   0.005126   0.629361  -0.037246   0.000007
    17  H   -0.001063   0.005293  -0.005434  -0.037246   0.626534  -0.000247
    18  H   -0.000116   0.005080   0.000116   0.000007  -0.000247   0.680605
    19  H   -0.000041   0.000148   0.000004   0.006218   0.000167  -0.039337
    20  H   -0.000000   0.000004  -0.000000  -0.000000   0.000001  -0.001834
    21  H    0.000000   0.000003   0.000000  -0.000001  -0.000000   0.004949
    22  H    0.000000   0.000055  -0.000019  -0.000014  -0.000001   0.004782
    23  H   -0.000000   0.000000  -0.000000  -0.000000   0.000000   0.000022
    24  H   -0.000000  -0.000000  -0.000000  -0.000000   0.000001  -0.000022
    25  H    0.000000  -0.000000   0.000022   0.000001   0.000003  -0.000017
    26  H   -0.000000   0.000000  -0.000000   0.000000  -0.000004   0.000003
    27  H    0.000000   0.000000   0.000000   0.000001   0.000015  -0.000000
    28  H    0.000000  -0.000000   0.000000  -0.000000   0.000001  -0.000000
    29  H   -0.000003   0.000706   0.001029  -0.000321   0.000039   0.000851
    30  H   -0.000056   0.000175   0.002880   0.000191   0.005186  -0.000092
              19         20         21         22         23         24
     1  C   -0.000034  -0.000002  -0.000003  -0.000029  -0.000000   0.000001
     2  C   -0.007136  -0.000052  -0.000003   0.000009  -0.000000  -0.000037
     3  C   -0.018476   0.003081  -0.004670  -0.004223  -0.000026  -0.000137
     4  C    0.353773  -0.026362  -0.014989  -0.004321  -0.000084   0.000333
     5  C   -0.024467   0.346510   0.365217  -0.049203  -0.000209   0.001700
     6  C    0.002517  -0.020733  -0.026034   0.360645  -0.080826  -0.043283
     7  O   -0.000081   0.000613   0.000546  -0.013076   0.327488   0.002378
     8  C    0.000411   0.004800  -0.019019  -0.047182   0.000376   0.338897
     9  S   -0.006987   0.004648  -0.007673   0.005720   0.000172  -0.009094
    10  C   -0.000060  -0.000253   0.000704  -0.003386   0.000059  -0.048119
    11  C   -0.000001   0.000005   0.000008  -0.000023  -0.000032  -0.016304
    12  C    0.003981   0.000091   0.000279  -0.003054  -0.000013   0.006757
    13  H   -0.000041  -0.000000   0.000000   0.000000  -0.000000  -0.000000
    14  H    0.000148   0.000004   0.000003   0.000055   0.000000  -0.000000
    15  H    0.000004  -0.000000   0.000000  -0.000019  -0.000000  -0.000000
    16  H    0.006218  -0.000000  -0.000001  -0.000014  -0.000000  -0.000000
    17  H    0.000167   0.000001  -0.000000  -0.000001   0.000000   0.000001
    18  H   -0.039337  -0.001834   0.004949   0.004782   0.000022  -0.000022
    19  H    0.617506   0.000586  -0.004102  -0.000076   0.000010   0.000017
    20  H    0.000586   0.652451  -0.049473  -0.001516  -0.000143  -0.000338
    21  H   -0.004102  -0.049473   0.614295   0.006195   0.003859   0.001685
    22  H   -0.000076  -0.001516   0.006195   0.630352   0.006843   0.004787
    23  H    0.000010  -0.000143   0.003859   0.006843   0.465258   0.005446
    24  H    0.000017  -0.000338   0.001685   0.004787   0.005446   0.652125
    25  H    0.000002   0.000001  -0.000014   0.000678   0.000015  -0.001957
    26  H    0.000001   0.000007   0.000068  -0.000002   0.000014  -0.000154
    27  H    0.000000  -0.000000   0.000004   0.000003   0.000000   0.000461
    28  H   -0.000000  -0.000000   0.000000   0.000007   0.000001   0.005830
    29  H   -0.000138  -0.000045   0.000018   0.006562   0.000004  -0.000230
    30  H   -0.000074   0.000002  -0.000005  -0.000112  -0.000000  -0.000329
              25         26         27         28         29         30
     1  C   -0.000015  -0.000000  -0.000001  -0.000000   0.000885  -0.002370
     2  C   -0.000001   0.000007  -0.000012   0.000000   0.000393  -0.007780
     3  C    0.004149   0.001186   0.000274  -0.000070  -0.026286  -0.024474
     4  C   -0.000110  -0.000085   0.000012   0.000012  -0.004340   0.003282
     5  C    0.000101  -0.000107   0.000010   0.000005  -0.000413  -0.000054
     6  C   -0.000332   0.000508  -0.000195  -0.000023   0.001484   0.000018
     7  O    0.000095  -0.000017   0.000000  -0.000000   0.000062  -0.000002
     8  C   -0.037310  -0.010495   0.001258  -0.001666  -0.009291   0.005867
     9  S    0.017203  -0.030883   0.001519   0.010029   0.014236   0.004846
    10  C    0.343568  -0.024174  -0.016145  -0.026325  -0.025495  -0.038230
    11  C   -0.057732   0.398904   0.371298   0.336856   0.002462  -0.003968
    12  C   -0.050368   0.000864  -0.003216   0.001741   0.323781   0.352644
    13  H    0.000000  -0.000000   0.000000   0.000000  -0.000003  -0.000056
    14  H   -0.000000   0.000000   0.000000  -0.000000   0.000706   0.000175
    15  H    0.000022  -0.000000   0.000000   0.000000   0.001029   0.002880
    16  H    0.000001   0.000000   0.000001  -0.000000  -0.000321   0.000191
    17  H    0.000003  -0.000004   0.000015   0.000001   0.000039   0.005186
    18  H   -0.000017   0.000003  -0.000000  -0.000000   0.000851  -0.000092
    19  H    0.000002   0.000001   0.000000  -0.000000  -0.000138  -0.000074
    20  H    0.000001   0.000007  -0.000000  -0.000000  -0.000045   0.000002
    21  H   -0.000014   0.000068   0.000004   0.000000   0.000018  -0.000005
    22  H    0.000678  -0.000002   0.000003   0.000007   0.006562  -0.000112
    23  H    0.000015   0.000014   0.000000   0.000001   0.000004  -0.000000
    24  H   -0.001957  -0.000154   0.000461   0.005830  -0.000230  -0.000329
    25  H    0.704004   0.002824   0.003171  -0.000418  -0.000392   0.003690
    26  H    0.002824   0.605211  -0.033147  -0.051230  -0.000101  -0.000132
    27  H    0.003171  -0.033147   0.574934  -0.026770  -0.000048   0.001222
    28  H   -0.000418  -0.051230  -0.026770   0.659349  -0.000021   0.000043
    29  H   -0.000392  -0.000101  -0.000048  -0.000021   0.647081  -0.038142
    30  H    0.003690  -0.000132   0.001222   0.000043  -0.038142   0.632370
 Mulliken charges:
               1
     1  C   -0.382447
     2  C   -0.258981
     3  C    0.269678
     4  C   -0.236952
     5  C   -0.221018
     6  C    0.108539
     7  O   -0.459313
     8  C   -0.031814
     9  S   -0.239440
    10  C   -0.013178
    11  C   -0.378327
    12  C   -0.261164
    13  H    0.118148
    14  H    0.125132
    15  H    0.124733
    16  H    0.104349
    17  H    0.108381
    18  H    0.083801
    19  H    0.115669
    20  H    0.087951
    21  H    0.128154
    22  H    0.099599
    23  H    0.271763
    24  H    0.099586
    25  H    0.069139
    26  H    0.140935
    27  H    0.125351
    28  H    0.092648
    29  H    0.105672
    30  H    0.103404
 Sum of Mulliken charges =  -0.00000
 Mulliken charges with hydrogens summed into heavy atoms:
               1
     1  C   -0.014433
     2  C   -0.046251
     3  C    0.269678
     4  C   -0.037482
     5  C   -0.004913
     6  C    0.208138
     7  O   -0.187550
     8  C    0.067772
     9  S   -0.239440
    10  C    0.055961
    11  C   -0.019393
    12  C   -0.052088
 Electronic spatial extent (au):  <R**2>=           2298.3702
 Charge=             -0.0000 electrons
 Dipole moment (field-independent basis, Debye):
    X=             -0.6988    Y=              0.1364    Z=             -0.4578  Tot=              0.8465
 Quadrupole moment (field-independent basis, Debye-Ang):
   XX=            -77.3873   YY=            -85.3425   ZZ=            -85.9098
   XY=              2.9092   XZ=              4.1818   YZ=             -4.2222
 Traceless Quadrupole moment (field-independent basis, Debye-Ang):
   XX=              5.4926   YY=             -2.4627   ZZ=             -3.0299
   XY=              2.9092   XZ=              4.1818   YZ=             -4.2222
 Octapole moment (field-independent basis, Debye-Ang**2):
  XXX=             15.1178  YYY=             -4.3401  ZZZ=             -7.5973  XYY=             -4.2102
  XXY=              5.5390  XXZ=             15.1777  XZZ=             -0.6082  YZZ=             -3.5280
  YYZ=              4.7819  XYZ=             -7.4939
 Hexadecapole moment (field-independent basis, Debye-Ang**3):
 XXXX=          -1485.7436 YYYY=          -1030.4085 ZZZZ=           -496.9879 XXXY=            -15.7778
 XXXZ=             29.8727 YYYX=            -12.7127 YYYZ=             -3.0237 ZZZX=             -7.0188
 ZZZY=             -0.8688 XXYY=           -446.2983 XXZZ=           -355.3617 YYZZ=           -250.2581
 XXYZ=            -25.6580 YYXZ=             16.7990 ZZXY=              0.3256
 N-N= 9.125031161531D+02 E-N=-3.855636872623D+03  KE= 8.604035678073D+02
 PrsmSu:  requested number of processors reduced to:  13 ShMem   1 Linda.
 Calling FoFJK, ICntrl=      2127 FMM=F ISym2X=0 I1Cent= 0 IOpClX= 0 NMat=1 NMatS=1 NMatT=0.
 ***** Axes restored to original set *****
 -------------------------------------------------------------------
 Center     Atomic                   Forces (Hartrees/Bohr)
 Number     Number              X              Y              Z
 -------------------------------------------------------------------
      1        6          -0.002052707   -0.001768401   -0.002069825
      2        6           0.005462704    0.001996217    0.000686056
      3        6           0.006515288   -0.021080078   -0.005481663
      4        6          -0.017068062   -0.008046623    0.016079531
      5        6           0.001700536    0.015601462    0.007240381
      6        6           0.026999956   -0.029775528    0.005710911
      7        8          -0.041430339    0.013562231   -0.011702732
      8        6          -0.010959894    0.007505886   -0.001287282
      9       16           0.066826204   -0.001736087    0.003133120
     10        6           0.007433090    0.003049804    0.003245530
     11        6          -0.000483895   -0.000482770    0.001419939
     12        6          -0.022774427    0.010360690   -0.015878703
     13        1           0.002492982   -0.000012907    0.000932878
     14        1          -0.000370229    0.001463453    0.000939538
     15        1           0.000995806    0.000271174    0.001647566
     16        1           0.001999191   -0.001660991   -0.000512300
     17        1           0.002459317   -0.002507021   -0.000456102
     18        1          -0.007083362   -0.002388044    0.003202023
     19        1          -0.003936788    0.007191208   -0.008209700
     20        1          -0.021217068    0.000397117    0.002181782
     21        1          -0.011495697    0.007838183    0.001573472
     22        1          -0.002030669   -0.001934066   -0.004841650
     23        1           0.030162525   -0.006642615    0.000867654
     24        1           0.023743130   -0.007304124    0.022889380
     25        1          -0.006138497   -0.009633246    0.000912291
     26        1          -0.016028565    0.014213556   -0.002331377
     27        1          -0.004557187    0.001402560   -0.007141766
     28        1          -0.013572167    0.009290448   -0.015179725
     29        1           0.001737889   -0.001424815   -0.008462696
     30        1           0.002670937    0.002253325    0.010893470
 -------------------------------------------------------------------
 Cartesian Forces:  Max     0.066826204 RMS     0.012980519

 GradGradGradGradGradGradGradGradGradGradGradGradGradGradGradGradGradGrad
 Berny optimization.
 FormGI is forming the generalized inverse of G from B-inverse, IUseBI=4.
 Internal  Forces:  Max     0.043836331 RMS     0.010396698
 Search for a local minimum.
 Step number   1 out of a maximum of  180
 All quantities printed in internal units (Hartrees-Bohrs-Radians)
 Mixed Optimization -- RFO/linear search
 Second derivative matrix not updated -- first step.
 ITU=  0
     Eigenvalues ---    0.00230   0.00230   0.00245   0.00414   0.00592
     Eigenvalues ---    0.01024   0.01164   0.01998   0.02237   0.02821
     Eigenvalues ---    0.02969   0.03168   0.03265   0.03682   0.03734
     Eigenvalues ---    0.04297   0.04455   0.04626   0.04775   0.04825
     Eigenvalues ---    0.05032   0.05150   0.05298   0.05374   0.05542
     Eigenvalues ---    0.05566   0.05589   0.06619   0.06724   0.07026
     Eigenvalues ---    0.07416   0.07817   0.07860   0.08486   0.08833
     Eigenvalues ---    0.09146   0.09316   0.10043   0.11231   0.11840
     Eigenvalues ---    0.11994   0.12658   0.13196   0.14361   0.16000
     Eigenvalues ---    0.16000   0.16000   0.16000   0.16000   0.16000
     Eigenvalues ---    0.16000   0.17975   0.18121   0.21107   0.21854
     Eigenvalues ---    0.22733   0.23335   0.24468   0.25075   0.26111
     Eigenvalues ---    0.27554   0.28359   0.28576   0.29419   0.30649
     Eigenvalues ---    0.31407   0.32553   0.33203   0.33254   0.33629
     Eigenvalues ---    0.34035   0.34086   0.34118   0.34223   0.34273
     Eigenvalues ---    0.34327   0.34367   0.34412   0.34671   0.34914
     Eigenvalues ---    0.34957   0.35004   0.39596   0.61409
 RFO step:  Lambda=-1.01449010D-01 EMin= 2.30000000D-03
 Linear search not attempted -- first point.
 Maximum step size (   0.300) exceeded in Quadratic search.
    -- Step size scaled by   0.732
 Iteration  1 RMS(Cart)=  0.12189352 RMS(Int)=  0.00559051
 Iteration  2 RMS(Cart)=  0.00948452 RMS(Int)=  0.00127276
 Iteration  3 RMS(Cart)=  0.00004340 RMS(Int)=  0.00127256
 Iteration  4 RMS(Cart)=  0.00000009 RMS(Int)=  0.00127256
 Variable       Old X    -DE/DX   Delta X   Delta X   Delta X     New X
                                 (Linear)    (Quad)   (Total)
    R1        2.91360  -0.00101   0.00000  -0.00191  -0.00191   2.91169
    R2        2.06716  -0.00027   0.00000  -0.00044  -0.00044   2.06672
    R3        2.06871  -0.00047   0.00000  -0.00078  -0.00078   2.06793
    R4        2.07185  -0.00191   0.00000  -0.00316  -0.00316   2.06870
    R5        2.90896  -0.00417   0.00000  -0.00789  -0.00789   2.90107
    R6        2.06955   0.00006   0.00000   0.00010   0.00010   2.06966
    R7        2.07271  -0.00068   0.00000  -0.00112  -0.00112   2.07159
    R8        3.01773   0.00281   0.00000   0.00301   0.00359   3.02132
    R9        3.34417   0.04384   0.00000   0.08535   0.08525   3.42941
   R10        3.00356   0.00693   0.00000   0.01490   0.01479   3.01835
   R11        2.95027  -0.01949   0.00000  -0.03584  -0.03480   2.91548
   R12        2.06212   0.00786   0.00000   0.01284   0.01284   2.07496
   R13        2.08696  -0.00645   0.00000  -0.01089  -0.01089   2.07607
   R14        2.85645   0.00111   0.00000   0.00731   0.00876   2.86521
   R15        2.05669   0.00482   0.00000   0.00782   0.00782   2.06451
   R16        2.09844  -0.01235   0.00000  -0.02117  -0.02117   2.07727
   R17        2.72106  -0.00514   0.00000  -0.00756  -0.00756   2.71350
   R18        2.91314   0.01237   0.00000   0.02581   0.02477   2.93792
   R19        2.05814   0.00139   0.00000   0.00226   0.00226   2.06041
   R20        1.76542   0.03064   0.00000   0.03135   0.03135   1.79677
   R21        4.01633   0.01804   0.00000   0.03738   0.03530   4.05163
   R22        2.81771   0.03880   0.00000   0.07196   0.07238   2.89009
   R23        2.07132  -0.00072   0.00000  -0.00120  -0.00120   2.07013
   R24        3.10277  -0.02117   0.00000  -0.04961  -0.04961   3.05316
   R25        2.97371  -0.01226   0.00000  -0.02471  -0.02403   2.94969
   R26        2.06640   0.00457   0.00000   0.00751   0.00751   2.07391
   R27        2.11942  -0.01897   0.00000  -0.03342  -0.03342   2.08600
   R28        2.05744   0.00053   0.00000   0.00086   0.00086   2.05831
   R29        2.06781   0.00565   0.00000   0.00930   0.00930   2.07711
   R30        2.08608  -0.00147   0.00000  -0.00248  -0.00248   2.08360
   R31        2.07961  -0.00276   0.00000  -0.00461  -0.00461   2.07500
    A1        1.95212  -0.00418   0.00000  -0.01273  -0.01272   1.93940
    A2        1.94146   0.00183   0.00000   0.00539   0.00538   1.94684
    A3        1.94555   0.00047   0.00000   0.00209   0.00207   1.94762
    A4        1.88330   0.00031   0.00000  -0.00053  -0.00052   1.88278
    A5        1.86745   0.00163   0.00000   0.00407   0.00406   1.87152
    A6        1.86992   0.00008   0.00000   0.00217   0.00215   1.87207
    A7        1.92057   0.00852   0.00000   0.02039   0.02042   1.94099
    A8        1.89743  -0.00174   0.00000  -0.00157  -0.00149   1.89594
    A9        1.88995  -0.00011   0.00000   0.00461   0.00469   1.89464
   A10        1.94223  -0.00370   0.00000  -0.01122  -0.01130   1.93094
   A11        1.94534  -0.00457   0.00000  -0.01343  -0.01356   1.93178
   A12        1.86641   0.00149   0.00000   0.00119   0.00107   1.86748
   A13        1.91299  -0.00425   0.00000  -0.01740  -0.01713   1.89586
   A14        2.22172  -0.01312   0.00000  -0.05543  -0.05721   2.16451
   A15        1.88498   0.00836   0.00000   0.01330   0.01382   1.89880
   A16        1.61455   0.01430   0.00000   0.06284   0.06544   1.67999
   A17        2.22007  -0.01440   0.00000  -0.05122  -0.05556   2.16452
   A18        1.62373   0.00659   0.00000   0.04482   0.04732   1.67105
   A19        2.05798  -0.00011   0.00000  -0.00776  -0.01071   2.04727
   A20        1.93533  -0.00476   0.00000  -0.00991  -0.00852   1.92682
   A21        1.88207   0.00000   0.00000  -0.00426  -0.00387   1.87820
   A22        1.86409   0.00312   0.00000   0.01265   0.01281   1.87690
   A23        1.85781   0.00176   0.00000   0.00986   0.01146   1.86927
   A24        1.85546   0.00026   0.00000   0.00086   0.00032   1.85578
   A25        1.80029   0.01148   0.00000   0.03756   0.03603   1.83632
   A26        1.99661  -0.00526   0.00000  -0.01168  -0.01049   1.98612
   A27        1.98967  -0.00794   0.00000  -0.03570  -0.03579   1.95387
   A28        2.05322  -0.00203   0.00000  -0.00987  -0.00983   2.04339
   A29        1.88345  -0.00697   0.00000  -0.01980  -0.01845   1.86500
   A30        1.74591   0.00891   0.00000   0.03266   0.03220   1.77810
   A31        1.89328   0.00832   0.00000   0.02931   0.02973   1.92301
   A32        1.80348   0.01050   0.00000   0.05381   0.05192   1.85540
   A33        1.93768  -0.00476   0.00000  -0.01603  -0.01505   1.92263
   A34        1.93166  -0.00390   0.00000  -0.00576  -0.00654   1.92513
   A35        1.86403  -0.00179   0.00000  -0.01415  -0.01490   1.84913
   A36        2.03082  -0.00712   0.00000  -0.04127  -0.04153   1.98930
   A37        1.90884  -0.00688   0.00000  -0.01927  -0.01927   1.88957
   A38        1.87775   0.00538   0.00000   0.01776   0.01976   1.89751
   A39        2.24310  -0.03054   0.00000  -0.09929  -0.10097   2.14213
   A40        1.88578  -0.00080   0.00000  -0.01557  -0.01426   1.87153
   A41        1.45571   0.01488   0.00000   0.06411   0.06652   1.52223
   A42        2.25967  -0.01248   0.00000  -0.04980  -0.05403   2.20563
   A43        1.75968   0.01830   0.00000   0.07176   0.07309   1.83277
   A44        1.50238  -0.01009   0.00000  -0.02894  -0.03131   1.47107
   A45        1.67159   0.02133   0.00000   0.08731   0.08973   1.76132
   A46        1.72918  -0.00616   0.00000  -0.00727  -0.00862   1.72056
   A47        2.09263  -0.00265   0.00000  -0.01858  -0.01697   2.07567
   A48        2.29712  -0.01351   0.00000  -0.04301  -0.04294   2.25418
   A49        1.82361  -0.00937   0.00000  -0.04025  -0.04160   1.78201
   A50        1.86954   0.01053   0.00000   0.02476   0.02322   1.89276
   A51        1.96471  -0.00335   0.00000  -0.00109  -0.00094   1.96377
   A52        2.03597  -0.00140   0.00000  -0.01024  -0.01085   2.02512
   A53        1.93297  -0.01084   0.00000  -0.03254  -0.03317   1.89980
   A54        1.83077   0.00422   0.00000   0.01519   0.01529   1.84605
   A55        1.68462   0.01533   0.00000   0.05732   0.05754   1.74216
   A56        1.98103  -0.00018   0.00000  -0.01322  -0.01435   1.96668
   A57        2.01886   0.01469   0.00000   0.02269   0.02015   2.03901
   A58        1.87572  -0.01223   0.00000  -0.01932  -0.01925   1.85648
   A59        1.95700   0.00159   0.00000  -0.00099   0.00037   1.95737
   A60        1.87530   0.00404   0.00000   0.00502   0.00519   1.88049
   A61        1.90093  -0.01185   0.00000  -0.01272  -0.01126   1.88967
   A62        1.82381   0.00288   0.00000   0.00379   0.00341   1.82722
    D1        3.04644  -0.00013   0.00000  -0.00093  -0.00096   3.04548
    D2        0.91528   0.00021   0.00000   0.00113   0.00111   0.91639
    D3       -1.10655  -0.00057   0.00000  -0.00192  -0.00188  -1.10843
    D4        0.93907   0.00107   0.00000   0.00477   0.00476   0.94383
    D5       -1.19208   0.00141   0.00000   0.00683   0.00682  -1.18526
    D6        3.06927   0.00064   0.00000   0.00378   0.00383   3.07310
    D7       -1.14680  -0.00057   0.00000  -0.00299  -0.00302  -1.14982
    D8        3.00524  -0.00023   0.00000  -0.00093  -0.00096   3.00428
    D9        0.98341  -0.00101   0.00000  -0.00398  -0.00395   0.97946
   D10       -1.38241   0.00899   0.00000   0.04274   0.04441  -1.33800
   D11        2.99401   0.00120   0.00000   0.00585   0.00544   2.99945
   D12        1.10019  -0.00776   0.00000  -0.03554  -0.03684   1.06334
   D13        0.72197   0.01007   0.00000   0.04705   0.04867   0.77064
   D14       -1.18480   0.00228   0.00000   0.01016   0.00970  -1.17509
   D15       -3.07862  -0.00668   0.00000  -0.03123  -0.03258  -3.11120
   D16        2.80377   0.00643   0.00000   0.03209   0.03385   2.83762
   D17        0.89701  -0.00136   0.00000  -0.00480  -0.00512   0.89189
   D18       -0.99681  -0.01032   0.00000  -0.04619  -0.04740  -1.04422
   D19       -3.04130   0.00416   0.00000   0.02399   0.02407  -3.01723
   D20        1.08592   0.00415   0.00000   0.02146   0.02240   1.10832
   D21       -0.93884   0.00642   0.00000   0.02830   0.02881  -0.91003
   D22       -0.75044  -0.00484   0.00000  -0.01260  -0.01334  -0.76379
   D23       -2.90641  -0.00485   0.00000  -0.01512  -0.01502  -2.92142
   D24        1.35202  -0.00258   0.00000  -0.00828  -0.00861   1.34341
   D25        0.92025   0.01272   0.00000   0.08600   0.08350   1.00375
   D26       -1.23572   0.01270   0.00000   0.08347   0.08183  -1.15389
   D27        3.02271   0.01498   0.00000   0.09031   0.08824   3.11095
   D28       -2.85427  -0.00348   0.00000   0.00017   0.00030  -2.85397
   D29        1.38512  -0.00462   0.00000  -0.00751  -0.00651   1.37861
   D30       -0.83966   0.00781   0.00000   0.03341   0.03283  -0.80683
   D31        2.63224  -0.01350   0.00000  -0.04799  -0.04682   2.58542
   D32       -1.55652  -0.00792   0.00000  -0.04125  -0.04166  -1.59818
   D33        0.43813  -0.01081   0.00000  -0.04858  -0.04858   0.38955
   D34       -1.31919  -0.02633   0.00000  -0.11981  -0.11757  -1.43676
   D35        0.77524  -0.02074   0.00000  -0.11306  -0.11242   0.66282
   D36        2.76989  -0.02363   0.00000  -0.12039  -0.11934   2.65055
   D37        0.34696  -0.00504   0.00000  -0.01256  -0.01153   0.33543
   D38        2.44139   0.00054   0.00000  -0.00581  -0.00638   2.43501
   D39       -1.84714  -0.00235   0.00000  -0.01314  -0.01330  -1.86044
   D40       -0.83556   0.01098   0.00000   0.04806   0.04764  -0.78793
   D41       -3.08673   0.00824   0.00000   0.03953   0.03938  -3.04735
   D42        1.20174   0.00585   0.00000   0.03016   0.02960   1.23133
   D43        1.35574   0.00714   0.00000   0.03977   0.03909   1.39483
   D44       -0.89543   0.00439   0.00000   0.03123   0.03083  -0.86460
   D45       -2.89015   0.00201   0.00000   0.02186   0.02105  -2.86910
   D46       -2.95057   0.00964   0.00000   0.05094   0.05077  -2.89980
   D47        1.08144   0.00690   0.00000   0.04241   0.04252   1.12396
   D48       -0.91327   0.00452   0.00000   0.03304   0.03273  -0.88054
   D49       -2.84612  -0.00367   0.00000  -0.02263  -0.02273  -2.86885
   D50        1.38628  -0.00813   0.00000  -0.05589  -0.05789   1.32839
   D51       -0.80307  -0.00355   0.00000  -0.03132  -0.03185  -0.83492
   D52       -0.63036  -0.00247   0.00000  -0.01362  -0.01334  -0.64370
   D53       -2.68115  -0.00693   0.00000  -0.04688  -0.04850  -2.72965
   D54        1.41269  -0.00235   0.00000  -0.02231  -0.02246   1.39023
   D55        1.32587   0.00277   0.00000   0.00822   0.00885   1.33473
   D56       -0.72491  -0.00169   0.00000  -0.02503  -0.02631  -0.75122
   D57       -2.91426   0.00289   0.00000  -0.00047  -0.00026  -2.91453
   D58       -1.06804  -0.00524   0.00000  -0.02626  -0.02570  -1.09374
   D59        0.89901   0.00978   0.00000   0.05080   0.05033   0.94934
   D60        3.12541  -0.00309   0.00000  -0.01518  -0.01528   3.11014
   D61       -0.42301   0.01403   0.00000   0.06134   0.06220  -0.36081
   D62       -2.09231   0.00177   0.00000   0.00020   0.00315  -2.08916
   D63        2.08283   0.00062   0.00000  -0.00790  -0.00847   2.07435
   D64       -2.44668   0.00052   0.00000   0.00116   0.00130  -2.44538
   D65        2.16720  -0.01174   0.00000  -0.05997  -0.05775   2.10946
   D66        0.05916  -0.01290   0.00000  -0.06807  -0.06937  -0.01021
   D67        1.70501   0.01152   0.00000   0.05622   0.05545   1.76046
   D68        0.03570  -0.00073   0.00000  -0.00492  -0.00359   0.03211
   D69       -2.07234  -0.00189   0.00000  -0.01302  -0.01521  -2.08756
   D70       -0.96132   0.00983   0.00000   0.01620   0.01631  -0.94501
   D71        1.27954  -0.01715   0.00000  -0.06658  -0.06519   1.21435
   D72        3.00057   0.01858   0.00000   0.07827   0.07488   3.07544
   D73        3.13766   0.00836   0.00000   0.06092   0.05995  -3.08558
   D74        0.80243   0.01762   0.00000   0.08061   0.07739   0.87982
   D75       -1.21913   0.01017   0.00000   0.06358   0.06248  -1.15664
   D76        1.26557  -0.00657   0.00000  -0.00049   0.00288   1.26846
   D77       -1.06966   0.00269   0.00000   0.01920   0.02032  -1.04934
   D78       -3.09121  -0.00475   0.00000   0.00217   0.00542  -3.08580
   D79       -0.98599   0.00376   0.00000   0.04000   0.03804  -0.94795
   D80        2.96196   0.01302   0.00000   0.05970   0.05548   3.01744
   D81        0.94041   0.00557   0.00000   0.04267   0.04057   0.98098
   D82       -0.25687  -0.00364   0.00000  -0.02635  -0.02497  -0.28184
   D83       -2.37461  -0.00550   0.00000  -0.03815  -0.03651  -2.41111
   D84        1.60711   0.00709   0.00000   0.02412   0.02513   1.63225
   D85        1.62060   0.00310   0.00000   0.03101   0.02914   1.64973
   D86       -0.49714   0.00124   0.00000   0.01921   0.01760  -0.47954
   D87       -2.79860   0.01383   0.00000   0.08148   0.07923  -2.71936
   D88       -2.40238  -0.00607   0.00000  -0.02743  -0.02683  -2.42921
   D89        1.76307  -0.00793   0.00000  -0.03923  -0.03837   1.72470
   D90       -0.53839   0.00466   0.00000   0.02304   0.02327  -0.51512
   D91        0.66394  -0.00955   0.00000  -0.04008  -0.04159   0.62235
   D92       -1.43072  -0.00627   0.00000  -0.03356  -0.03372  -1.46444
   D93        2.88639  -0.00592   0.00000  -0.03435  -0.03481   2.85158
   D94       -1.18876  -0.02777   0.00000  -0.13730  -0.13853  -1.32729
   D95        2.99976  -0.02448   0.00000  -0.13078  -0.13066   2.86911
   D96        1.03369  -0.02413   0.00000  -0.13157  -0.13174   0.90194
   D97        2.85025  -0.01119   0.00000  -0.05432  -0.05546   2.79479
   D98        0.75559  -0.00791   0.00000  -0.04780  -0.04758   0.70800
   D99       -1.21049  -0.00756   0.00000  -0.04859  -0.04867  -1.25916
         Item               Value     Threshold  Converged?
 Maximum Force            0.043836     0.000450     NO 
 RMS     Force            0.010397     0.000300     NO 
 Maximum Displacement     0.490864     0.001800     NO 
 RMS     Displacement     0.122031     0.001200     NO 
 Predicted change in Energy=-6.302435D-02
 GradGradGradGradGradGradGradGradGradGradGradGradGradGradGradGradGradGrad

[...]
 1098,0.00003174,0.00001621,-0.00002114,0.00004222,0.00001818,0.0000057
 2,0.00006064,0.00005284,0.00001080,0.00004102,-0.00001108,-0.00001834,
 0.00008211,-0.00002495,-0.00045345,0.00044013,0.00119880,-0.00015567,-
 0.00001163,0.00035162,0.00048596,0.00024867,-0.00063042,0.00021616,0.0
 0000319,0.00037762,-0.09004525,0.09973298,-0.00022408,-0.00026362,-0.0
 0023229,0.00143076,-0.00019527,0.00028963,-0.00169191,-0.00192031,-0.0
 0301778,-0.00075299,0.00008996,0.00033970,0.00182971,0.00286909,0.0000
 5805,0.01367355,-0.00452015,-0.00931261,-0.00200481,-0.00175474,0.0019
 4464,0.10664555,-0.05798703,-0.11383143,0.00971399,-0.00740825,-0.0083
 1499,-0.01379372,0.00990185,0.00885773,-0.00094588,0.00073122,0.001102
 73,-0.00229963,0.00140711,-0.00173627,0.00015292,-0.00009313,0.0000226
 1,0.00001537,0.00001963,-0.00000776,0.00005927,-0.00006385,0.00005659,
 0.00000231,0.00009813,0.00012606,-0.00003181,0.00000875,0.00001045,0.0
 0008573,0.00003980,0.00002378,-0.00007496,-0.00001748,0.00003558,0.000
 35276,-0.00030467,-0.00086165,-0.00015737,-0.00003417,-0.00000213,0.00
 012583,0.00037473,0.00006912,0.00026262,0.00024739,-0.00102819,-0.1115
 6600,0.05792565,0.12512125,-0.00004793,-0.00007493,-0.00003882,0.00017
 960,0.00000905,0.00011715,-0.00082704,0.00054168,0.00037714,-0.0001340
 3,-0.00019732,0.00026095,0.00029255,0.00036867,-0.00012087,-0.00059887
 ,-0.00288554,0.00027399,0.00065312,0.00039182,0.00071752,-0.01599740,-
 0.00861312,-0.00734944,-0.00150212,0.00090761,-0.00217440,-0.20313396,
 -0.11225497,-0.04616552,-0.01391548,-0.00969294,-0.00199805,0.00767720
 ,0.00846460,0.00316657,0.00003172,-0.00001886,-0.00000648,0.00002519,0
 .00000261,0.00000114,0.00003891,-0.00000395,-0.00000440,-0.00006805,0.
 00001405,0.00014575,-0.00003589,-0.00000990,-0.00001333,0.00018278,0.0
 0004026,-0.00001558,0.00007570,0.00009670,0.00007460,0.00011415,-0.000
 00148,-0.00009913,-0.00000658,0.00001087,0.00024178,0.00136703,0.00125
 064,0.00026820,0.00006754,-0.00035988,0.00027017,-0.00071722,0.0004582
 8,-0.00044391,0.22367624,-0.00006026,0.00005872,0.00003566,-0.00017847
 ,0.00010656,-0.00069544,0.00004651,-0.00137200,-0.00018994,-0.00047498
 ,0.00019839,-0.00019584,0.00003962,0.00005905,-0.00005556,0.00126204,-
 0.00020398,0.00199475,0.00005504,0.00060900,-0.00000981,0.01307218,0.0
 0737962,0.00474875,0.00165702,-0.00034999,0.00171474,-0.11147104,-0.12
 470893,-0.03324761,-0.00756795,-0.00473347,-0.00134486,-0.01854957,-0.
 01689082,-0.00520529,0.00000767,-0.00000014,-0.00001461,0.00003125,0.0
 0000364,-0.00004609,-0.00007944,0.00003143,0.00003948,0.00012790,-0.00
 018099,-0.00027075,0.00011658,0.00013328,0.00006031,0.00022794,-0.0000
 4073,-0.00006992,0.00013636,0.00005764,0.00001635,0.00001212,0.0000066
 0,-0.00001336,0.00004923,0.00000389,0.00000067,0.00038350,-0.00032623,
 0.00039228,-0.00005066,-0.00015583,0.00009057,0.00041319,-0.00048910,0
 .00000373,0.11969763,0.14159538,-0.00008861,-0.00002332,-0.00002625,0.
 00019597,0.00008677,-0.00052503,-0.00118706,-0.00062130,0.00004168,-0.
 00033829,-0.00004931,-0.00019608,0.00015125,0.00008417,-0.00026418,-0.
 00202322,-0.00079322,-0.00039647,0.00061014,-0.00006032,0.00035650,-0.
 01537459,-0.00793429,-0.00576755,-0.00170885,-0.00001554,-0.00311632,-
 0.04549852,-0.03309750,-0.05973913,0.02580954,0.01727486,0.00422803,-0
 .01189381,-0.00941521,-0.00274311,0.00004740,-0.00002411,-0.00001322,0
 .00004443,0.00000006,-0.00003083,-0.00001150,-0.00000115,0.00003345,0.
 00008135,-0.00011709,-0.00010594,0.00002842,0.00012647,0.00002249,0.00
 045503,-0.00007898,-0.00006835,0.00015503,0.00008094,0.00007825,0.0000
 3038,0.00006570,-0.00001306,0.00001916,-0.00005338,0.00018945,0.000480
 34,0.00105354,0.00013586,0.00007369,-0.00018226,0.00008062,-0.00053734
 ,0.00021899,-0.00049284,0.04825020,0.03294855,0.07107229,0.00000300,0.
 00001080,0.00000203,-0.00001863,-0.00004753,0.00008516,0.00018326,0.00
 028291,-0.00005981,-0.00007194,0.00001856,-0.00016301,0.00007726,0.000
 05809,-0.00008319,-0.00004604,-0.00016940,-0.00018225,0.00005298,-0.00
 005685,0.00013112,0.00028111,0.00062184,-0.00078833,0.00038895,0.00032
 164,0.00009755,-0.01413325,-0.00842676,-0.00191917,-0.22915997,-0.1100
 5506,-0.04465110,0.00033531,-0.00123522,-0.00071141,0.00000023,0.00000
 236,0.00000439,0.00001235,0.00000163,-0.00001082,-0.00001291,-0.000006
 26,0.00000041,0.00000998,0.00002806,-0.00000442,0.00002493,0.00003036,
 0.00001278,0.00005271,-0.00001858,-0.00000644,0.00004051,0.00004419,-0
 .00001135,0.00002021,0.00001159,-0.00000647,0.00002155,0.00000282,0.00
 005037,0.00010976,0.00015567,0.00002402,0.00001059,-0.00002742,0.00000
 349,0.00028288,-0.00022382,0.00022105,-0.00037699,-0.00045057,0.003110
 52,0.24969792,-0.00000649,-0.00001691,-0.00001757,0.00007709,-0.000024
 43,0.00007751,-0.00026483,0.00031194,-0.00014058,0.00005171,-0.0000352
 7,-0.00000033,0.00006572,0.00009412,-0.00004930,-0.00007830,-0.0003039
 2,-0.00028531,0.00010010,0.00001795,0.00006245,-0.00072903,0.00047046,
 -0.00070498,0.00026375,0.00005844,0.00017020,-0.00816590,-0.00615545,-
 0.00076093,-0.11009349,-0.11476768,-0.02786179,0.00136323,0.00053322,-
 0.00002197,0.00000811,-0.00000359,0.00000259,0.00000004,-0.00000128,0.
 00000329,0.00001514,-0.00000863,0.00000269,-0.00000947,0.00002400,0.00
 004014,-0.00001505,-0.00000078,-0.00000942,0.00005806,0.00000190,-0.00
 001747,0.00001765,0.00000704,0.00000859,0.00003632,-0.00000733,-0.0000
 2681,0.00001542,-0.00000471,0.00003820,0.00013463,0.00010114,0.0000373
 9,-0.00000468,-0.00003095,0.00004985,0.00016197,-0.00046576,0.00003296
 ,-0.00063760,0.00057706,0.00201101,0.12324759,0.12200300,0.00002370,0.
 00000835,0.00001772,-0.00006634,-0.00000723,-0.00000793,0.00037102,-0.
 00003676,0.00003878,0.00001992,-0.00003550,-0.00008923,-0.00001652,-0.
 00009496,0.00011093,0.00018925,0.00016991,0.00032854,-0.00012936,-0.00
 007709,-0.00011793,0.00039479,-0.00029084,0.00158337,-0.00011137,-0.00
 013556,0.00023595,0.02597633,0.01503666,0.00401167,-0.04630945,-0.0286
 0379,-0.05734810,-0.00031896,0.00159431,0.00150434,-0.00001432,0.00001
 020,0.00000240,-0.00001141,0.00000120,0.00000091,-0.00001054,0.0000034
 9,-0.00000918,-0.00000288,-0.00000148,-0.00000892,-0.00000170,-0.00002
 516,-0.00000602,-0.00013170,-0.00001171,0.00005266,-0.00003081,-0.0000
 0460,-0.00004474,-0.00003459,-0.00001199,0.00000586,-0.00002253,0.0000
 2209,-0.00006172,-0.00015910,-0.00017156,-0.00009918,-0.00001734,0.000
 09488,-0.00001036,-0.00042605,0.00002084,0.00017708,0.00316051,0.00169
 036,-0.00494213,0.04668156,0.02865968,0.06220868,-0.00001337,-0.000008
 35,-0.00000975,0.00000472,0.00003736,-0.00003746,-0.00015179,-0.000177
 53,-0.00021529,0.00005847,0.00002069,0.00009784,0.00001837,0.00005900,
 -0.00007970,0.00060373,-0.00025322,0.00016707,-0.00001345,-0.00029572,
 0.00011062,-0.00150293,-0.00051519,0.00273786,0.00033522,0.00016119,0.
 00028283,0.00959681,-0.00974544,0.01025295,-0.14061504,0.09099132,-0.0
 8739153,0.00101109,-0.00020759,-0.00021696,0.00000357,-0.00000666,-0.0
 0000732,0.00000097,-0.00000101,0.00000677,0.00000886,0.00000864,0.0000
 0262,0.00000017,-0.00002293,-0.00000750,-0.00001128,0.00000285,-0.0000
 0079,0.00000825,0.00001703,0.00000396,-0.00000927,-0.00001025,0.000008
 41,0.00000732,-0.00000396,-0.00000041,0.00001336,0.00000397,0.00000013
 ,0.00000528,-0.00001642,-0.00003986,-0.00002564,-0.00000828,0.00000266
 ,0.00016785,-0.00030808,-0.00002247,0.00081057,0.00016673,-0.00087659,
 -0.01565649,0.01667232,-0.01416619,0.15037077,0.00000970,0.00001796,0.
 00000774,-0.00004615,-0.00001069,-0.00001451,0.00007301,0.00010658,0.0
 0004666,0.00002240,-0.00001674,-0.00000362,-0.00003745,-0.00007874,-0.
 00001868,0.00034048,0.00032567,0.00015598,-0.00000430,-0.00022519,0.00
 015477,-0.00112775,-0.00015110,0.00094295,-0.00000058,0.00005634,0.000
 28388,0.00514481,-0.00542030,0.00413527,0.09049574,-0.13401473,0.08338
 503,-0.00034767,0.00044989,-0.00071451,-0.00000806,0.00001068,0.000007
 28,-0.00000198,-0.00000560,0.00000400,0.00000582,-0.00000281,-0.000001
 04,0.00000187,-0.00000412,0.00000193,-0.00000312,-0.00000230,0.0000009
 8,-0.00000855,0.00000194,0.00000056,-0.00000515,0.00001780,0.00001178,
 -0.00002078,0.00001580,0.00005040,0.00000806,0.00001012,0.00000970,0.0
 0002378,-0.00001837,-0.00003105,-0.00001005,0.00002289,-0.00004838,-0.
 00042971,0.00028902,-0.00003273,-0.00000666,-0.00011461,-0.00020980,-0
 .01010791,0.01014494,-0.01005355,-0.09939471,0.14298764,-0.00003161,-0
 .00001029,-0.00007668,0.00012323,-0.00004755,0.00004953,-0.00054503,0.
 00003462,0.00001188,0.00003120,-0.00000908,0.00012713,0.00009888,0.000
 20646,0.00009969,-0.00149191,-0.00061422,-0.00046264,-0.00003591,0.000
 88418,-0.00041801,0.00452256,0.00217578,-0.00366965,0.00011452,-0.0000
 6926,0.00009507,-0.01756273,0.01514021,-0.01684367,-0.08627008,0.08236
 542,-0.12638737,-0.00039933,0.00089296,0.00148938,0.00002183,-0.000019
 28,0.00000902,-0.00000140,0.00000018,0.00001070,0.00002655,-0.00002163
 ,0.00001835,0.00000474,0.00002345,0.00004963,-0.00002187,-0.00000275,-
 0.00002310,0.00005292,0.00001629,-0.00001628,-0.00000167,-0.00006945,0
 .00000568,0.00008478,-0.00004534,-0.00010500,-0.00000609,-0.00002303,0
 .00000736,0.00003189,0.00003046,0.00006794,0.00004750,-0.00004734,0.00
 010945,0.00009793,-0.00015034,0.00008852,0.00016305,-0.00019791,0.0011
 2655,-0.00353687,0.00353948,-0.00409284,0.09361230,-0.09338912,0.13875
 885,0.00003403,-0.00000111,-0.00002461,0.00013666,-0.00021179,0.000292
 54,-0.00065233,0.00102639,0.00004542,0.00009723,0.00001919,-0.00002108
 ,-0.00006995,0.00003309,-0.00001714,0.00015646,0.00011579,0.00005084,-
 0.00004401,-0.00010285,0.00000501,0.00000311,-0.00019605,-0.00072093,0
 .00003606,0.00001240,-0.00043238,-0.00482450,0.01315850,0.00806091,-0.
 06183550,0.04905921,0.03180134,0.00004871,-0.00194346,0.00327158,-0.00
 000386,0.00000869,0.00001890,-0.00000392,-0.00000608,0.00000179,0.0000
 0877,-0.00002965,-0.00000509,0.00001370,0.00013129,0.00009780,0.000002
 28,0.00002164,-0.00000726,0.00001313,-0.00000570,-0.00002853,-0.000019
 67,-0.00002506,0.00001806,0.00000289,-0.00002407,0.00001294,0.00002197
 ,-0.00001577,-0.00000681,-0.00007673,-0.00004985,0.00000524,-0.0000065
 5,0.00001541,-0.00002790,0.00024514,-0.00005726,-0.00025719,0.00026153
 ,0.00031952,-0.00059829,0.00770306,-0.02237340,-0.01428836,-0.00487406
 ,0.01571686,0.01084041,0.06359701,0.00001484,0.00000198,0.00002230,-0.
 00002566,-0.00006010,0.00016429,0.00020123,0.00068272,0.00045213,-0.00
 002692,-0.00001822,-0.00018869,-0.00000747,-0.00004055,0.00000260,-0.0
 0015190,0.00007236,-0.00002220,-0.00006182,0.00014770,-0.00004635,0.00
 001773,0.00069087,-0.00006165,-0.00005690,0.00012397,-0.00016989,-0.00
 267766,0.00732466,0.00627622,0.05003794,-0.22176956,-0.11331302,-0.000
 86261,-0.00039550,0.00153424,-0.00000404,-0.00000559,-0.00001234,0.000
 00320,0.00000559,-0.00000557,-0.00001737,0.00000693,-0.00000511,0.0000
 1288,0.00003290,0.00001335,0.00002144,0.00001163,0.00000622,-0.0000234
 3,-0.00001027,0.00000805,0.00002452,0.00004008,-0.00004339,0.00001027,
 0.00001398,0.00000949,-0.00000137,0.00000304,0.00001075,-0.00002993,-0
 .00000845,-0.00001820,0.00002012,-0.00002285,-0.00000783,-0.00025437,0
 .00023055,-0.00017116,0.00056562,0.00083264,-0.00057237,0.00481213,-0.
 01278993,-0.00716142,0.00303176,-0.01484268,-0.00974961,-0.05475627,0.
 23898463,-0.00004456,0.00001575,0.00003758,-0.00021304,0.00029748,-0.0
 0038684,0.00110701,-0.00143455,0.00011319,-0.00010019,-0.00001795,0.00
 003898,-0.00001777,-0.00013814,-0.00000699,-0.00002346,0.00006353,0.00
 006345,-0.00010720,0.00013024,0.00009603,0.00099107,-0.00167748,0.0010
 0702,-0.00021665,0.00020323,0.00001807,0.00565620,-0.02258266,-0.01508
 835,0.03149431,-0.11150410,-0.11949642,0.00211648,0.00240388,-0.003907
 46,-0.00000125,-0.00001113,-0.00002648,0.00001215,0.00000671,0.0000007
 9,-0.00001563,0.00005186,-0.00000028,-0.00001737,-0.00015564,-0.000143
 33,0.00000632,-0.00001021,0.00001753,-0.00005758,0.00000153,0.00002971
 ,0.00000786,0.00004717,-0.00004361,-0.00001884,0.00004874,0.00004271,-
 0.00000658,0.00003373,0.00002047,0.00009174,0.00004524,-0.00004177,0.0
 0002738,-0.00003207,-0.00003075,-0.00083583,0.00058551,-0.00015004,-0.
 00019512,0.00028711,0.00133005,0.00160354,-0.00483159,-0.00388045,-0.0
 0371300,0.01517880,0.01022324,-0.03787953,0.12302008,0.13082347,-0.000
 38975,0.00098760,-0.00033955,-0.00039971,0.00041868,-0.00021599,-0.007
 39644,0.00066468,-0.00034519,-0.00000977,-0.00136043,0.00080173,0.0001
 8410,0.00034684,0.00016655,-0.00034252,-0.00022173,0.00027673,0.000189
 09,0.00023313,-0.00020358,-0.00049103,-0.00061917,-0.00000059,-0.00060
 366,0.00165837,-0.00186148,-0.00612123,-0.00147034,-0.00202044,-0.0001
 3645,0.00094236,0.00009619,-0.29248031,0.03811203,-0.02953096,0.000267
 28,-0.00013608,0.00040555,0.00004541,-0.00001748,-0.00003664,0.0003499
 5,-0.00038558,0.00078490,0.00014385,-0.00013392,-0.00018380,0.00010663
 ,0.00013057,0.00002298,0.00113447,0.00024497,0.00027738,0.00035614,-0.
 00000679,0.00011930,0.00006838,0.00004175,0.00000684,0.00018940,-0.000
 20925,0.00007971,0.00006818,0.00009655,-0.00002585,-0.00005063,-0.0001
 5108,0.00009637,-0.00008604,0.00027215,-0.00016767,0.00151274,0.000107
 81,0.00008761,0.00024268,0.00001196,-0.00017047,-0.00007004,-0.0001156
 0,0.00030121,-0.00000218,0.00001624,0.00040815,0.31878010,-0.00005202,
 0.00001898,-0.00043856,-0.00042290,-0.00001149,0.00009872,0.00282315,-
 0.00128228,0.00083442,0.00111568,0.00012489,0.00030195,-0.00002454,-0.
 00010340,-0.00010451,0.00068049,0.00025396,-0.00016780,-0.00027519,-0.
 00032659,0.00029289,0.00253429,-0.00255391,-0.00122790,0.00067510,-0.0
 0053284,-0.00087617,0.02372079,-0.00484435,0.00282300,0.00000497,-0.00
 137709,0.00005548,0.03588224,-0.05133995,0.00606550,0.00000340,-0.0000
 4326,0.00011404,0.00001451,-0.00001794,0.00009295,0.00012988,-0.000653
 16,-0.00049895,0.00020479,0.00003615,-0.00003860,0.00005100,0.00011190
 ,-0.00002681,-0.00052814,-0.00041641,0.00052567,-0.00015927,-0.0000126
 8,-0.00015527,-0.00002287,0.00002473,0.00008809,-0.00001248,0.00006462
 ,0.00001565,-0.00005455,-0.00007552,-0.00003794,0.00001999,0.00004079,
 -0.00011496,0.00061295,-0.00074436,0.00067429,0.00000239,0.00101232,0.
 00053209,0.00013782,0.00003929,0.00001533,-0.00008900,0.00020907,-0.00
 011988,0.00015704,0.00015634,-0.00040590,-0.04195071,0.05796317,0.0001
 7768,-0.00032044,-0.00016246,-0.00013712,0.00040255,0.00049075,-0.0284
 4454,0.00483693,-0.00434333,-0.00163880,-0.00086092,0.00100967,0.00008
 703,0.00003668,0.00015648,0.00013690,0.00015570,0.00007008,0.00012370,
 -0.00013228,0.00009011,0.00046326,-0.00235916,-0.00170122,-0.00431357,
 0.00255362,-0.00383422,0.01582572,-0.00240375,0.00158897,0.00034588,-0
 .00119163,0.00008605,-0.02839045,0.00652318,-0.05013202,0.00015673,0.0
 0002293,0.00016566,0.00011282,-0.00000840,-0.00011905,0.00020429,-0.00
 076727,-0.00028823,0.00027172,-0.00016311,-0.00007596,-0.00003145,0.00
 005363,-0.00007154,0.00093397,0.00061122,-0.00000652,0.00010890,-0.000
 15492,0.00023140,0.00002858,0.00002839,0.00000062,0.00001907,-0.000196
 85,0.00006902,0.00007648,0.00009986,-0.00003068,-0.00006330,-0.0001764
 3,0.00003354,0.00033852,-0.00023776,0.00046169,-0.00002551,0.00020781,
 0.00091105,-0.00021322,-0.00008309,0.00014511,-0.00012662,0.00017744,-
 0.00019381,-0.00015116,-0.00004832,-0.00065992,0.03338166,-0.00466644,
 0.05434130,0.00006281,-0.00016224,0.00031453,0.00039205,0.00006168,0.0
 0015283,0.00193016,0.00597512,-0.00324518,-0.00049565,-0.00056202,-0.0
 0092794,0.00021052,0.00012776,0.00020771,-0.00008190,-0.00000630,-0.00
 007692,0.00001919,-0.00002258,-0.00006369,-0.00013933,0.00045211,0.001
 08315,0.00058997,0.00049547,-0.00119699,0.00336223,0.00844760,-0.00276
 698,0.00169796,0.00096776,0.00061169,-0.11199180,-0.10365128,0.0414801
 4,0.00002191,0.00007802,-0.00009990,0.00002288,0.00005414,-0.00022018,
 -0.00039759,0.00011518,-0.00005237,0.00000918,0.00024597,0.00000205,0.
 00012125,0.00002991,0.00019290,0.00080543,0.00020864,0.00012825,0.0004
 8651,0.00013643,0.00017849,0.00002810,0.00006035,0.00005778,0.00010175
 ,-0.00017098,-0.00001542,-0.00002622,-0.00002684,0.00002564,-0.0000160
 0,0.00001699,0.00000780,-0.00016017,0.00003552,-0.00013700,0.00039501,
 0.00095312,0.00050621,-0.00007501,0.00007746,-0.00037707,-0.00008203,-
 0.00016634,-0.00027099,0.00003152,0.00016780,-0.00005860,-0.01505866,-
 0.02517881,0.01074284,0.11823594,-0.00002810,0.00021612,0.00005324,0.0
 0038377,0.00043129,-0.00119269,-0.00288756,-0.00404427,0.00209284,0.00
 077350,0.00124867,0.00029781,-0.00011520,0.00011115,-0.00006327,-0.000
 15992,0.00009962,-0.00003861,0.00017753,-0.00018875,0.00017038,-0.0005
 6807,-0.00107720,-0.00216804,0.00026209,0.00067899,-0.00001835,-0.0117
 8350,-0.02209477,0.00469726,-0.00125073,0.00119758,0.00226859,-0.10206
 656,-0.21322869,0.06922634,-0.00002864,0.00001170,0.00001731,0.0000039
 7,-0.00001387,-0.00007868,-0.00010874,0.00000823,0.00005742,0.00022810
 ,0.00013354,-0.00013061,0.00007747,0.00058998,0.00026682,0.00001693,0.
 00007218,-0.00016812,-0.00009907,-0.00019647,0.00019658,0.00005563,-0.
 00003133,0.00001761,0.00001616,-0.00000749,0.00007961,0.00015568,0.000
 16144,0.00008908,-0.00001163,-0.00004544,-0.00000957,0.00035716,-0.000
 19072,0.00034225,0.00193470,-0.00309840,-0.00123399,0.00103732,0.00023
 210,-0.00060413,-0.00010850,0.00024164,-0.00072340,0.00000334,0.000601
 14,0.00038085,0.00249249,0.00427902,-0.00193915,0.11124037,0.23390302,
 0.00008039,-0.00022460,-0.00015622,0.00114520,0.00162982,0.00102485,0.
 01653386,0.02573677,-0.01386353,-0.00219185,-0.00005207,-0.00559906,0.
 00076210,-0.00007344,-0.00023201,0.00012267,-0.00017504,-0.00025912,-0
 .00013783,-0.00000240,0.00025608,-0.00078662,-0.00019299,-0.00133603,0
 .00079606,-0.00051763,0.00119282,-0.00709037,-0.01599803,0.00284887,-0
 .00058607,-0.00144018,0.00080676,0.03903370,0.06876160,-0.07156125,0.0
 0003851,-0.00008025,0.00007186,-0.00021668,0.00006077,0.00014547,0.000
 26911,-0.00009628,-0.00004736,-0.00028156,-0.00004401,0.00051371,-0.00
 071278,-0.00085786,-0.00021849,-0.00028131,-0.00016911,0.00004818,0.00
 083142,0.00140149,-0.00086874,-0.00014005,0.00031136,0.00004561,-0.000
 08805,0.00003800,-0.00002007,0.00007871,0.00007097,0.00008882,0.000078
 36,0.00003093,-0.00004150,0.00008587,-0.00002225,0.00020276,0.00116185
 ,-0.00267413,-0.00116576,0.00031989,0.00007514,0.00029473,-0.00037457,
 -0.00003817,-0.00005894,-0.00005652,0.00007739,0.00000043,-0.00221066,
 -0.00365039,0.00176748,-0.04618278,-0.07188539,0.08611966\\0.00000192,
 0.00000179,-0.00000137,-0.00001009,-0.00000300,0.00001086,0.00002013,0
 .00002371,0.00000867,0.00001842,-0.00000346,0.00000769,-0.00000274,0.0
 0000013,0.00000590,-0.00001747,-0.00001935,0.00001497,0.00000342,0.000
 01446,-0.00002112,0.00006437,0.00001061,0.00001127,-0.00003535,-0.0000
 2100,0.00002547,-0.00002055,0.00000460,-0.00003051,-0.00000713,0.00001
 128,0.00000566,0.00000425,-0.00002113,-0.00001241,-0.00000051,0.000001
 04,-0.00000072,0.00000053,0.00000069,-0.00000085,-0.00000196,0.0000012
 4,0.00000225,0.00000040,0.00000428,0.00000161,-0.00000184,0.00000171,-
 0.00000053,-0.00000441,0.00000117,-0.00000613,0.00000148,0.00000707,-0
 .00000073,0.00000031,0.00000531,0.00000052,0.00000086,0.00000529,0.000
 00196,0.00000344,0.00000770,0.00000045,-0.00000440,0.00000150,-0.00000
 130,0.00000100,-0.00000394,0.00000055,-0.00000775,-0.00000365,0.000003
 46,-0.00000249,-0.00001021,-0.00001749,0.00000286,0.00000070,-0.000000
 83,0.00000233,-0.00000043,-0.00000738,-0.00000509,-0.00001249,0.000002
 28,-0.00000392,-0.00000563,-0.00000220\\\@


 Age does not diminish the extreme disappointment of
 having a scoop of ice cream fall from the cone.
 -- Jim Fiebig
 Job cpu time:       0 days  6 hours 35 minutes  8.4 seconds.
 Elapsed time:       0 days  1 hours 38 minutes 48.0 seconds.
 File lengths (MBytes):  RWF=    419 Int=      0 D2E=      0 Chk=     16 Scr=      1
 Normal termination of Gaussian 16 at Mon May 29 11:02:58 2023.
### All Done ###
