### Starting Gaussian ###
 Entering Gaussian System, Link 0=g16
 Initial command:
 /cluster/software/gaussian/gaussian-16-A.03/avx2/g16/l1.exe "/local/scratch/yxie/Gau-8552.inp" -scrdir="/local/scratch/yxie/"
 Entering Link 1 = /cluster/software/gaussian/gaussian-16-A.03/avx2/g16/l1.exe PID=      8553.
  
 Copyright (c) 1988,1990,1992,1993,1995,1998,2003,2009,2016,
            Gaussian, Inc.  All Rights Reserved.
  
 This is part of the Gaussian(R) 16 program.  It is based on
 the Gaussian(R) 09 system (copyright 2009, Gaussian, Inc.),
 the Gaussian(R) 03 system (copyright 2003, Gaussian, Inc.),
 the Gaussian(R) 98 system (copyright 1998, Gaussian, Inc.),
 the Gaussian(R) 94 system (copyright 1995, Gaussian, Inc.),
 the Gaussian 92(TM) system (copyright 1992, Gaussian, Inc.),
 the Gaussian 90(TM) system (copyright 1990, Gaussian, Inc.),
 the Gaussian 88(TM) system (copyright 1988, Gaussian, Inc.),
 the Gaussian 86(TM) system (copyright 1986, Carnegie Mellon
 University), and the Gaussian 82(TM) system (copyright 1983,
 Carnegie Mellon University). Gaussian is a federally registered
 trademark of Gaussian, Inc.
  
 This software contains proprietary and confidential information,
 including trade secrets, belonging to Gaussian, Inc.
  
 This software is provided under written license and may be
 used, copied, transmitted, or stored only in accord with that
 written license.
  
 The following legend is applicable only to US Government
 contracts under FAR:
  
                    RESTRICTED RIGHTS LEGEND
  
 Use, reproduction and disclosure by the US Government is
 subject to restrictions as set forth in subparagraphs (a)
 and (c) of the Commercial Computer Software - Restricted
 Rights clause in FAR 52.227-19.
  
 Gaussian, Inc.
 340 Quinnipiac St., Bldg. 40, Wallingford CT 06492
  
  
 ---------------------------------------------------------------
 Warning -- This program may not be used in any manner that
 competes with the business of Gaussian, Inc. or will provide
 assistance to any competitor of Gaussian, Inc.  The licensee
 of this program is prohibited from giving any competitor of
 Gaussian, Inc. access to this program.  By using this program,
 the user acknowledges that Gaussian, Inc. is engaged in the
 business of creating and licensing software in the field of
 computational chemistry and represents and warrants to the
 licensee that it is not a competitor of Gaussian, Inc. and that
 it will not use this program in any manner prohibited above.
 ---------------------------------------------------------------
  

 Cite this work as:
 Gaussian 16, Revision A.03,
 M. J. Frisch, G. W. Trucks, H. B. Schlegel, G. E. Scuseria, 
 M. A. Robb, J. R. Cheeseman, G. Scalmani, V. Barone, 
 G. A. Petersson, H. Nakatsuji, X. Li, M. Caricato, A. V. Marenich, 
 J. Bloino, B. G. Janesko, R. Gomperts, B. Mennucci, H. P. Hratchian, 
 J. V. Ortiz, A. F. Izmaylov, J. L. Sonnenberg, D. Williams-Young, 
 F. Ding, F. Lipparini, F. Egidi, J. Goings, B. Peng, A. Petrone, 
 T. Henderson, D. Ranasinghe, V. G. Zakrzewski, J. Gao, N. Rega, 
 G. Zheng, W. Liang, M. Hada, M. Ehara, K. Toyota, R. Fukuda, 
 J. Hasegawa, M. Ishida, T. Nakajima, Y. Honda, O. Kitao, H. Nakai, 
 T. Vreven, K. Throssell, J. A. Montgomery, Jr., J. E. Peralta, 
 F. Ogliaro, M. J. Bearpark, J. J. Heyd, E. N. Brothers, K. N. Kudin, 
 V. N. Staroverov, T. A. Keith, R. Kobayashi, J. Normand, 
 K. Raghavachari, A. P. Rendell, J. C. Burant, S. S. Iyengar, 
 J. Tomasi, M. Cossi, J. M. Millam, M. Klene, C. Adamo, R. Cammi, 
 J. W. Ochterski, R. L. Martin, K. Morokuma, O. Farkas, 
 J. B. Foresman, and D. J. Fox, Gaussian, Inc., Wallingford CT, 2016.
 
 ******************************************
 Gaussian 16:  ES64L-G16RevA.03 25-Dec-2016
                28-May-2023 
 ******************************************
 %chk=CCC1CCCOCOOC1C1CONN1.chk
 %NProcShared=20
 Will use up to   20 processors via shared memory.
 -----------------------------
 # opt freq b3lyp/6-31g(2df,p)
 -----------------------------
 1/18=20,19=15,26=3,38=1/1,3;
 2/9=110,12=2,17=6,18=5,40=1/2;
 3/5=1,6=6,7=104,11=2,25=1,30=1,71=1,74=-5/1,2,3;
 4//1;
 5/5=2,38=5/2;
 6/7=2,8=2,9=2,10=2,28=1/1;
 7//1,2,3,16;
 1/18=20,19=15,26=3/3(2);
 2/9=110/2;
 99//99;
 2/9=110/2;
 3/5=1,6=6,7=104,11=2,25=1,30=1,71=1,74=-5/1,2,3;
 4/5=5,16=3,69=1/1;
 5/5=2,38=5/2;
 7//1,2,3,16;
 1/18=20,19=15,26=3/3(-5);
 2/9=110/2;
 6/7=2,8=2,9=2,10=2,19=2,28=1/1;
 99/9=1/99;
 -------------------
 Title Card Required
 -------------------
 Symbolic Z-matrix:
 Charge =  0 Multiplicity = 1
 C                     0.64458  -0.39444  -0.45793 
 C                     2.12608  -0.22948  -0.20082 
 C                     2.87207  -1.10337   0.84692 
 C                     4.36676  -0.80109   0.64152 
 C                     4.86853   0.48542   1.2927 
 C                     4.01906   1.79859   1.2232 
 O                     3.20124   2.19682   2.34919 
 C                     1.82576   1.86026   2.69494 
 O                     1.18923   0.88605   1.91265 
 O                     1.14083  -0.39706   2.62398 
 C                     2.35288  -1.15614   2.36031 
 C                     3.23208  -1.03555   3.68997 
 C                     4.52326  -1.80507   3.81801 
 O                     5.49161  -0.96916   4.48249 
 N                     4.88466   0.32315   4.66004 
 N                     3.58431   0.32847   4.11471 
 H                     0.33651   0.45187  -1.08712 
 H                     0.02103  -0.34184   0.43463 
 H                     0.42553  -1.32491  -0.97312 
 H                     2.22769   0.80766   0.07178 
 H                     2.64664  -0.28388  -1.16486 
 H                     2.74728  -2.13299   0.46824 
 H                     4.61432  -0.76689  -0.43001 
 H                     4.96582  -1.65815   0.97747 
 H                     5.87771   0.68164   0.90358 
 H                     5.09983   0.2178    2.30241 
 H                     3.58713   1.98867   0.24005 
 H                     4.80286   2.56642   1.25497 
 H                     1.22051   2.77097   2.73449 
 H                     1.77187   1.55304   3.74908 
 H                     1.99753  -2.19923   2.429 
 H                     2.55742  -1.36813   4.49087 
 H                     4.96554  -2.10718   2.8765 
 H                     4.39244  -2.69317   4.43866 
 H                     5.49924   0.95525   4.10633 
 H                     3.57875   0.91176   3.30149 
 

 GradGradGradGradGradGradGradGradGradGradGradGradGradGradGradGradGradGrad
 Berny optimization.
 Initialization pass.
                           ----------------------------
                           !    Initial Parameters    !
                           ! (Angstroms and Degrees)  !
 --------------------------                            --------------------------
 ! Name  Definition              Value          Derivative Info.                !
 --------------------------------------------------------------------------------
 ! R1    R(1,2)                  1.5127         estimate D2E/DX2                !
 ! R2    R(1,17)                 1.0986         estimate D2E/DX2                !
 ! R3    R(1,18)                 1.0901         estimate D2E/DX2                !
 ! R4    R(1,19)                 1.0859         estimate D2E/DX2                !
 ! R5    R(2,3)                  1.555          estimate D2E/DX2                !
 ! R6    R(2,20)                 1.0772         estimate D2E/DX2                !
 ! R7    R(2,21)                 1.097          estimate D2E/DX2                !
 ! R8    R(3,4)                  1.5387         estimate D2E/DX2                !
 ! R9    R(3,11)                 1.6008         estimate D2E/DX2                !
 ! R10   R(3,22)                 1.1041         estimate D2E/DX2                !
 ! R11   R(4,5)                  1.5267         estimate D2E/DX2                !
 ! R12   R(4,23)                 1.1003         estimate D2E/DX2                !
 ! R13   R(4,24)                 1.0983         estimate D2E/DX2                !
 ! R14   R(5,6)                  1.5655         estimate D2E/DX2                !
 ! R15   R(5,25)                 1.0993         estimate D2E/DX2                !
 ! R16   R(5,26)                 1.0699         estimate D2E/DX2                !
 ! R17   R(6,7)                  1.4475         estimate D2E/DX2                !
 ! R18   R(6,27)                 1.0905         estimate D2E/DX2                !
 ! R19   R(6,28)                 1.0977         estimate D2E/DX2                !
 ! R20   R(7,8)                  1.4577         estimate D2E/DX2                !
 ! R21   R(8,9)                  1.4022         estimate D2E/DX2                !
 ! R22   R(8,29)                 1.0942         estimate D2E/DX2                !
 ! R23   R(8,30)                 1.0993         estimate D2E/DX2                !
 ! R24   R(9,10)                 1.4679         estimate D2E/DX2                !
 ! R25   R(10,11)                1.4542         estimate D2E/DX2                !
 ! R26   R(11,12)                1.5986         estimate D2E/DX2                !
 ! R27   R(11,31)                1.1041         estimate D2E/DX2                !
 ! R28   R(12,13)                1.5085         estimate D2E/DX2                !
 ! R29   R(12,16)                1.4714         estimate D2E/DX2                !
 ! R30   R(12,32)                1.0987         estimate D2E/DX2                !
 ! R31   R(13,14)                1.4415         estimate D2E/DX2                !
 ! R32   R(13,33)                1.0832         estimate D2E/DX2                !
 ! R33   R(13,34)                1.0913         estimate D2E/DX2                !
 ! R34   R(14,15)                1.4387         estimate D2E/DX2                !
 ! R35   R(15,16)                1.4101         estimate D2E/DX2                !
 ! R36   R(15,35)                1.0411         estimate D2E/DX2                !
 ! R37   R(16,36)                1.0008         estimate D2E/DX2                !
 ! A1    A(2,1,17)             106.7363         estimate D2E/DX2                !
 ! A2    A(2,1,18)             114.5701         estimate D2E/DX2                !
 ! A3    A(2,1,19)             111.8174         estimate D2E/DX2                !
 ! A4    A(17,1,18)            105.745          estimate D2E/DX2                !
 ! A5    A(17,1,19)            109.3774         estimate D2E/DX2                !
 ! A6    A(18,1,19)            108.3264         estimate D2E/DX2                !
 ! A7    A(1,2,3)              121.5404         estimate D2E/DX2                !
 ! A8    A(1,2,20)             103.9102         estimate D2E/DX2                !
 ! A9    A(1,2,21)             108.0585         estimate D2E/DX2                !
 ! A10   A(3,2,20)             108.9861         estimate D2E/DX2                !
 ! A11   A(3,2,21)             109.6713         estimate D2E/DX2                !
 ! A12   A(20,2,21)            103.0258         estimate D2E/DX2                !
 ! A13   A(2,3,4)              105.4067         estimate D2E/DX2                !
 ! A14   A(2,3,11)             119.995          estimate D2E/DX2                !
 ! A15   A(2,3,22)             103.8134         estimate D2E/DX2                !
 ! A16   A(4,3,11)             116.5971         estimate D2E/DX2                !
 ! A17   A(4,3,22)             104.3118         estimate D2E/DX2                !
 ! A18   A(11,3,22)            104.8825         estimate D2E/DX2                !
 ! A19   A(3,4,5)              115.3315         estimate D2E/DX2                !
 ! A20   A(3,4,23)             110.7728         estimate D2E/DX2                !
 ! A21   A(3,4,24)             109.6152         estimate D2E/DX2                !
 ! A22   A(5,4,23)             108.3749         estimate D2E/DX2                !
 ! A23   A(5,4,24)             110.355          estimate D2E/DX2                !
 ! A24   A(23,4,24)            101.5029         estimate D2E/DX2                !
 ! A25   A(4,5,6)              120.6344         estimate D2E/DX2                !
 ! A26   A(4,5,25)             107.5273         estimate D2E/DX2                !
 ! A27   A(4,5,26)             105.2364         estimate D2E/DX2                !
 ! A28   A(6,5,25)             109.4331         estimate D2E/DX2                !
 ! A29   A(6,5,26)             111.6557         estimate D2E/DX2                !
 ! A30   A(25,5,26)            100.3844         estimate D2E/DX2                !
 ! A31   A(5,6,7)              120.1857         estimate D2E/DX2                !
 ! A32   A(5,6,27)             113.6494         estimate D2E/DX2                !
 ! A33   A(5,6,28)             101.4206         estimate D2E/DX2                !
 ! A34   A(7,6,27)             115.4394         estimate D2E/DX2                !
 ! A35   A(7,6,28)             100.8635         estimate D2E/DX2                !
 ! A36   A(27,6,28)            100.7768         estimate D2E/DX2                !
 ! A37   A(6,7,8)              130.8532         estimate D2E/DX2                !
 ! A38   A(7,8,9)              117.1574         estimate D2E/DX2                !
 ! A39   A(7,8,29)             109.777          estimate D2E/DX2                !
 ! A40   A(7,8,30)             109.7692         estimate D2E/DX2                !
 ! A41   A(9,8,29)             110.3236         estimate D2E/DX2                !
 ! A42   A(9,8,30)             108.5753         estimate D2E/DX2                !
 ! A43   A(29,8,30)             99.8357         estimate D2E/DX2                !
 ! A44   A(8,9,10)             110.6048         estimate D2E/DX2                !
 ! A45   A(9,10,11)            109.9334         estimate D2E/DX2                !
 ! A46   A(3,11,10)            115.1198         estimate D2E/DX2                !
 ! A47   A(3,11,12)            127.2625         estimate D2E/DX2                !
 ! A48   A(3,11,31)            101.2062         estimate D2E/DX2                !
 ! A49   A(10,11,12)           105.5575         estimate D2E/DX2                !
 ! A50   A(10,11,31)           102.334          estimate D2E/DX2                !
 ! A51   A(12,11,31)           101.334          estimate D2E/DX2                !
 ! A52   A(11,12,13)           120.1889         estimate D2E/DX2                !
 ! A53   A(11,12,16)           116.2115         estimate D2E/DX2                !
 ! A54   A(11,12,32)           104.2266         estimate D2E/DX2                !
 ! A55   A(13,12,16)           104.0925         estimate D2E/DX2                !
 ! A56   A(13,12,32)           108.0161         estimate D2E/DX2                !
 ! A57   A(16,12,32)           102.5433         estimate D2E/DX2                !
 ! A58   A(12,13,14)           108.5593         estimate D2E/DX2                !
 ! A59   A(12,13,33)           114.7067         estimate D2E/DX2                !
 ! A60   A(12,13,34)           111.148          estimate D2E/DX2                !
 ! A61   A(14,13,33)           106.7448         estimate D2E/DX2                !
 ! A62   A(14,13,34)           106.8737         estimate D2E/DX2                !
 ! A63   A(33,13,34)           108.4388         estimate D2E/DX2                !
 ! A64   A(13,14,15)           107.1191         estimate D2E/DX2                !
 ! A65   A(14,15,16)           110.1633         estimate D2E/DX2                !
 ! A66   A(14,15,35)           103.3377         estimate D2E/DX2                !
 ! A67   A(16,15,35)           109.6582         estimate D2E/DX2                !
 ! A68   A(12,16,15)           109.2017         estimate D2E/DX2                !
 ! A69   A(12,16,36)           107.7223         estimate D2E/DX2                !
 ! A70   A(15,16,36)           108.7582         estimate D2E/DX2                !
 ! D1    D(17,1,2,3)           169.5711         estimate D2E/DX2                !
 ! D2    D(17,1,2,20)           46.5278         estimate D2E/DX2                !
 ! D3    D(17,1,2,21)          -62.4367         estimate D2E/DX2                !
 ! D4    D(18,1,2,3)            52.888          estimate D2E/DX2                !
 ! D5    D(18,1,2,20)          -70.1554         estimate D2E/DX2                !
 ! D6    D(18,1,2,21)         -179.1198         estimate D2E/DX2                !
 ! D7    D(19,1,2,3)           -70.8531         estimate D2E/DX2                !
 ! D8    D(19,1,2,20)          166.1036         estimate D2E/DX2                !
 ! D9    D(19,1,2,21)           57.1391         estimate D2E/DX2                !
 ! D10   D(1,2,3,4)            170.8256         estimate D2E/DX2                !
 ! D11   D(1,2,3,11)           -55.1243         estimate D2E/DX2                !
 ! D12   D(1,2,3,22)            61.4472         estimate D2E/DX2                !
 ! D13   D(20,2,3,4)           -68.5458         estimate D2E/DX2                !
 ! D14   D(20,2,3,11)           65.5043         estimate D2E/DX2                !
 ! D15   D(20,2,3,22)         -177.9242         estimate D2E/DX2                !
 ! D16   D(21,2,3,4)            43.5481         estimate D2E/DX2                !
 ! D17   D(21,2,3,11)          177.5983         estimate D2E/DX2                !
 ! D18   D(21,2,3,22)          -65.8303         estimate D2E/DX2                !
 ! D19   D(2,3,4,5)             80.6092         estimate D2E/DX2                !
 ! D20   D(2,3,4,23)           -42.9346         estimate D2E/DX2                !
 ! D21   D(2,3,4,24)          -154.1335         estimate D2E/DX2                !
 ! D22   D(11,3,4,5)           -55.2728         estimate D2E/DX2                !
 ! D23   D(11,3,4,23)         -178.8166         estimate D2E/DX2                !
 ! D24   D(11,3,4,24)           69.9846         estimate D2E/DX2                !
 ! D25   D(22,3,4,5)          -170.3709         estimate D2E/DX2                !
 ! D26   D(22,3,4,23)           66.0852         estimate D2E/DX2                !
 ! D27   D(22,3,4,24)          -45.1136         estimate D2E/DX2                !
 ! D28   D(2,3,11,10)            2.7472         estimate D2E/DX2                !
 ! D29   D(2,3,11,12)         -134.0459         estimate D2E/DX2                !
 ! D30   D(2,3,11,31)          112.2223         estimate D2E/DX2                !
 ! D31   D(4,3,11,10)          131.9507         estimate D2E/DX2                !
 ! D32   D(4,3,11,12)           -4.8424         estimate D2E/DX2                !
 ! D33   D(4,3,11,31)         -118.5742         estimate D2E/DX2                !
 ! D34   D(22,3,11,10)        -113.2708         estimate D2E/DX2                !
 ! D35   D(22,3,11,12)         109.9361         estimate D2E/DX2                !
 ! D36   D(22,3,11,31)          -3.7957         estimate D2E/DX2                !
 ! D37   D(3,4,5,6)            -42.3896         estimate D2E/DX2                !
 ! D38   D(3,4,5,25)          -168.7263         estimate D2E/DX2                !
 ! D39   D(3,4,5,26)            84.8978         estimate D2E/DX2                !
 ! D40   D(23,4,5,6)            82.4103         estimate D2E/DX2                !
 ! D41   D(23,4,5,25)          -43.9265         estimate D2E/DX2                !
 ! D42   D(23,4,5,26)         -150.3023         estimate D2E/DX2                !
 ! D43   D(24,4,5,6)          -167.2636         estimate D2E/DX2                !
 ! D44   D(24,4,5,25)           66.3997         estimate D2E/DX2                !
 ! D45   D(24,4,5,26)          -39.9761         estimate D2E/DX2                !
 ! D46   D(4,5,6,7)             99.4187         estimate D2E/DX2                !
 ! D47   D(4,5,6,27)           -43.4476         estimate D2E/DX2                !
 ! D48   D(4,5,6,28)          -150.7078         estimate D2E/DX2                !
 ! D49   D(25,5,6,7)          -135.1246         estimate D2E/DX2                !
 ! D50   D(25,5,6,27)           82.0092         estimate D2E/DX2                !
 ! D51   D(25,5,6,28)          -25.2511         estimate D2E/DX2                !
 ! D52   D(26,5,6,7)           -24.8978         estimate D2E/DX2                !
 ! D53   D(26,5,6,27)         -167.764          estimate D2E/DX2                !
 ! D54   D(26,5,6,28)           84.9757         estimate D2E/DX2                !
 ! D55   D(5,6,7,8)            -88.1527         estimate D2E/DX2                !
 ! D56   D(27,6,7,8)            54.0875         estimate D2E/DX2                !
 ! D57   D(28,6,7,8)           161.6728         estimate D2E/DX2                !
 ! D58   D(6,7,8,9)              7.5225         estimate D2E/DX2                !
 ! D59   D(6,7,8,29)          -119.2958         estimate D2E/DX2                !
 ! D60   D(6,7,8,30)           131.9122         estimate D2E/DX2                !
 ! D61   D(7,8,9,10)           102.9934         estimate D2E/DX2                !
 ! D62   D(29,8,9,10)         -130.4562         estimate D2E/DX2                !
 ! D63   D(30,8,9,10)          -21.996          estimate D2E/DX2                !
 ! D64   D(8,9,10,11)          -87.7517         estimate D2E/DX2                !
 ! D65   D(9,10,11,3)          -41.0036         estimate D2E/DX2                !
 ! D66   D(9,10,11,12)         104.5523         estimate D2E/DX2                !
 ! D67   D(9,10,11,31)        -149.8014         estimate D2E/DX2                !
 ! D68   D(3,11,12,13)         -45.1694         estimate D2E/DX2                !
 ! D69   D(3,11,12,16)          81.7281         estimate D2E/DX2                !
 ! D70   D(3,11,12,32)        -166.2757         estimate D2E/DX2                !
 ! D71   D(10,11,12,13)        174.8808         estimate D2E/DX2                !
 ! D72   D(10,11,12,16)        -58.2217         estimate D2E/DX2                !
 ! D73   D(10,11,12,32)         53.7745         estimate D2E/DX2                !
 ! D74   D(31,11,12,13)         68.5044         estimate D2E/DX2                !
 ! D75   D(31,11,12,16)       -164.5982         estimate D2E/DX2                !
 ! D76   D(31,11,12,32)        -52.6019         estimate D2E/DX2                !
 ! D77   D(11,12,13,14)        140.9715         estimate D2E/DX2                !
 ! D78   D(11,12,13,33)         21.6958         estimate D2E/DX2                !
 ! D79   D(11,12,13,34)       -101.7592         estimate D2E/DX2                !
 ! D80   D(16,12,13,14)          8.6808         estimate D2E/DX2                !
 ! D81   D(16,12,13,33)       -110.5949         estimate D2E/DX2                !
 ! D82   D(16,12,13,34)        125.9501         estimate D2E/DX2                !
 ! D83   D(32,12,13,14)        -99.8074         estimate D2E/DX2                !
 ! D84   D(32,12,13,33)        140.9169         estimate D2E/DX2                !
 ! D85   D(32,12,13,34)         17.462          estimate D2E/DX2                !
 ! D86   D(11,12,16,15)       -143.7543         estimate D2E/DX2                !
 ! D87   D(11,12,16,36)        -25.799          estimate D2E/DX2                !
 ! D88   D(13,12,16,15)         -9.2091         estimate D2E/DX2                !
 ! D89   D(13,12,16,36)        108.7461         estimate D2E/DX2                !
 ! D90   D(32,12,16,15)        103.2815         estimate D2E/DX2                !
 ! D91   D(32,12,16,36)       -138.7633         estimate D2E/DX2                !
 ! D92   D(12,13,14,15)         -5.0452         estimate D2E/DX2                !
 ! D93   D(33,13,14,15)        119.1104         estimate D2E/DX2                !
 ! D94   D(34,13,14,15)       -125.0142         estimate D2E/DX2                !
 ! D95   D(13,14,15,16)         -0.8415         estimate D2E/DX2                !
 ! D96   D(13,14,15,35)       -117.9298         estimate D2E/DX2                !
 ! D97   D(14,15,16,12)          6.5655         estimate D2E/DX2                !
 ! D98   D(14,15,16,36)       -110.7374         estimate D2E/DX2                !
 ! D99   D(35,15,16,12)        119.653          estimate D2E/DX2                !
 ! D100  D(35,15,16,36)          2.3501         estimate D2E/DX2                !
 --------------------------------------------------------------------------------
 Trust Radius=3.00D-01 FncErr=1.00D-07 GrdErr=1.00D-06 EigMax=2.50D+02 EigMin=1.00D-04
 Number of steps in this run=    216 maximum allowed number of steps=    216.
 GradGradGradGradGradGradGradGradGradGradGradGradGradGradGradGradGradGrad

                          Input orientation:                          
 ---------------------------------------------------------------------
 Center     Atomic      Atomic             Coordinates (Angstroms)
 Number     Number       Type             X           Y           Z
 ---------------------------------------------------------------------
      1          6           0        0.644580   -0.394440   -0.457930
      2          6           0        2.126080   -0.229480   -0.200820
      3          6           0        2.872070   -1.103370    0.846920
      4          6           0        4.366760   -0.801090    0.641520
      5          6           0        4.868530    0.485420    1.292700
      6          6           0        4.019060    1.798590    1.223200
      7          8           0        3.201240    2.196820    2.349190
      8          6           0        1.825760    1.860260    2.694940
      9          8           0        1.189230    0.886050    1.912650
     10          8           0        1.140830   -0.397060    2.623980
     11          6           0        2.352880   -1.156140    2.360310
     12          6           0        3.232080   -1.035550    3.689970
     13          6           0        4.523260   -1.805070    3.818010
     14          8           0        5.491610   -0.969160    4.482490
     15          7           0        4.884660    0.323150    4.660040
     16          7           0        3.584310    0.328470    4.114710
     17          1           0        0.336510    0.451870   -1.087120
     18          1           0        0.021030   -0.341840    0.434630
     19          1           0        0.425530   -1.324910   -0.973120
     20          1           0        2.227690    0.807660    0.071780
     21          1           0        2.646640   -0.283880   -1.164860
     22          1           0        2.747280   -2.132990    0.468240
     23          1           0        4.614320   -0.766890   -0.430010
     24          1           0        4.965820   -1.658150    0.977470
     25          1           0        5.877710    0.681640    0.903580
     26          1           0        5.099830    0.217800    2.302410
     27          1           0        3.587130    1.988670    0.240050
     28          1           0        4.802860    2.566420    1.254970
     29          1           0        1.220510    2.770970    2.734490
     30          1           0        1.771870    1.553040    3.749080
     31          1           0        1.997530   -2.199230    2.429000
     32          1           0        2.557420   -1.368130    4.490870
     33          1           0        4.965540   -2.107180    2.876500
     34          1           0        4.392440   -2.693170    4.438660
     35          1           0        5.499240    0.955250    4.106330
     36          1           0        3.578750    0.911760    3.301490
 ---------------------------------------------------------------------
                    Distance matrix (angstroms):
                    1          2          3          4          5
     1  C    0.000000
     2  C    1.512666   0.000000
     3  C    2.677112   1.554974   0.000000
     4  C    3.902407   2.461081   1.538720   0.000000
     5  C    4.656244   3.203547   2.590140   1.526734   0.000000
     6  C    4.361501   3.118377   3.143015   2.686556   1.565517
     7  O    4.596853   3.680415   3.640937   3.641708   2.612454
     8  C    4.052092   3.583662   3.645963   4.213787   3.621452
     9  O    2.748808   2.566876   2.815231   3.815614   3.752611
    10  O    3.121609   2.996380   2.579536   3.807888   4.055468
    11  C    3.382448   2.733043   1.600841   2.671332   3.187947
    12  C    4.930644   4.124467   2.866555   3.261214   3.276923
    13  C    5.942870   4.937606   3.470762   3.335050   3.426769
    14  O    6.944908   5.814405   4.483009   4.005819   3.560729
    15  N    6.684821   5.616327   4.541515   4.204835   3.371286
    16  N    5.483945   4.589286   3.638118   3.735128   3.104448
    17  H    1.098648   2.110054   3.548006   4.560814   5.118972
    18  H    1.090066   2.201740   2.979654   4.374824   4.991883
    19  H    1.085900   2.165245   3.057316   4.291240   5.305797
    20  H    2.057152   1.077170   2.160579   2.736476   2.927203
    21  H    2.126080   1.096957   2.183951   2.547416   3.401208
    22  H    2.881266   2.111133   1.104123   2.103972   3.469223
    23  H    3.987272   2.555910   2.186139   1.100287   2.144909
    24  H    4.725511   3.390220   2.169934   1.098311   2.168808
    25  H    5.513375   4.015541   3.496190   2.133104   1.099255
    26  H    5.276700   3.912724   2.971003   2.081846   1.069876
    27  H    3.850323   2.692438   3.231147   2.924340   2.238262
    28  H    5.384423   4.135400   4.166751   3.450598   2.082378
    29  H    4.532445   4.294043   4.615309   5.199906   4.539884
    30  H    4.770995   4.347937   4.085277   4.683195   4.094254
    31  H    3.663619   3.288220   2.113932   3.280721   4.091597
    32  H    5.394224   4.847116   3.667080   4.291007   4.359492
    33  H    5.720367   4.588920   3.083739   2.656980   3.039639
    34  H    6.580821   5.721095   4.211839   4.242511   4.497462
    35  H    6.798666   5.597619   4.665157   4.046251   2.921481
    36  H    4.944568   3.959653   3.253469   3.260407   2.424982
                    6          7          8          9         10
     6  C    0.000000
     7  O    1.447505   0.000000
     8  C    2.642042   1.457656   0.000000
     9  O    3.052214   2.440670   1.402224   0.000000
    10  O    3.881658   3.324005   2.360012   1.467891   0.000000
    11  C    3.577653   3.458638   3.080341   2.392702   1.454232
    12  C    3.838833   3.499551   3.369501   3.320339   2.432556
    13  C    4.469186   4.463216   4.687477   4.689166   3.853444
    14  O    4.522368   4.451988   4.963810   5.343815   4.765569
    15  N    3.839018   3.418270   3.947302   4.639096   4.322095
    16  N    3.272780   2.598949   2.730316   3.300965   2.952840
    17  H    4.551089   4.802057   4.301791   3.148692   3.890999
    18  H    4.602991   4.497118   3.635285   2.248766   2.459727
    19  H    5.243427   5.580761   5.055751   3.714734   3.783079
    20  H    2.348769   2.839747   2.854905   2.115029   3.024292
    21  H    3.452977   4.337050   4.491017   3.600534   4.078674
    22  H    4.200561   4.742500   4.664058   3.691672   3.200211
    23  H    3.109522   4.301665   4.944016   4.466711   4.639910
    24  H    3.592463   4.456024   5.018853   4.648672   4.351079
    25  H    2.191875   3.398389   4.584366   4.800193   5.153776
    26  H    2.198103   2.742873   3.683923   3.986385   4.019346
    27  H    1.090540   2.154231   3.024136   3.124626   4.166439
    28  H    1.097686   1.974616   3.381612   4.039122   4.905799
    29  H    3.325869   2.097950   1.094205   2.056532   3.170958
    30  H    3.389724   2.101724   1.099318   2.038828   2.338151
    31  H    4.639300   4.558568   4.071816   3.230932   2.004936
    32  H    4.779349   4.208345   3.766058   3.687884   2.536727
    33  H    4.345603   4.681370   5.062782   4.914158   4.197223
    34  H    5.536651   5.449481   5.510184   5.426979   4.374717
    35  H    3.348820   3.147990   4.038009   4.836652   4.798108
    36  H    2.302092   1.643401   2.083394   2.763936   2.848769
                   11         12         13         14         15
    11  C    0.000000
    12  C    1.598603   0.000000
    13  C    2.693798   1.508543   0.000000
    14  O    3.793446   2.395406   1.441520   0.000000
    15  N    3.726522   2.349068   2.317098   1.438742   0.000000
    16  N    2.607375   1.471401   2.349819   2.336001   1.410079
    17  H    4.305371   5.780773   6.832493   7.721071   7.330217
    18  H    3.131909   4.624858   5.818795   6.834175   6.476974
    19  H    3.854208   5.450217   6.322727   7.453550   7.371054
    20  H    3.018204   4.183004   5.111775   5.767549   5.324131
    21  H    3.643344   4.947436   5.537573   6.360505   6.269504
    22  H    2.165575   3.437870   3.805601   5.000005   5.307749
    23  H    3.612688   4.353964   4.373989   4.994317   5.212473
    24  H    2.998619   3.278893   2.878561   3.610585   4.182518
    25  H    4.233666   4.208571   4.063516   3.960153   3.902007
    26  H    3.071937   2.642858   2.592582   2.512989   2.369771
    27  H    3.988572   4.601512   5.298170   5.511270   4.898352
    28  H    4.591474   4.622852   5.075163   4.836485   4.078413
    29  H    4.104201   4.410096   5.746505   5.940233   4.808904
    30  H    3.099340   2.972626   4.341866   4.553663   3.468709
    31  H    1.104096   2.113838   2.909299   4.235385   4.435703
    32  H    2.150828   1.098734   2.123248   2.961202   2.881856
    33  H    2.827883   2.194313   1.083200   2.037411   3.015636
    34  H    3.292690   2.157470   1.091349   2.045069   3.064225
    35  H    4.172066   3.045760   2.941944   1.960844   1.041083
    36  H    2.581625   2.015717   2.922338   2.931152   1.974214
                   16         17         18         19         20
    16  N    0.000000
    17  H    6.133716   0.000000
    18  H    5.166166   1.745058   0.000000
    19  H    6.212694   1.782657   1.764031   0.000000
    20  H    4.291308   2.246374   2.514430   2.981183   0.000000
    21  H    5.397041   2.425711   3.074989   2.460455   1.701839
    22  H    4.478409   3.861665   3.262175   2.849743   3.012404
    23  H    4.786984   4.496313   4.693249   4.260554   2.902930
    24  H    3.962008   5.490467   5.145707   4.952785   3.794450
    25  H    3.961789   5.892417   5.963902   6.105286   3.745720
    26  H    2.365054   5.850891   5.440221   5.912540   3.684133
    27  H    4.215360   3.832710   4.264529   4.737859   1.808639
    28  H    3.830326   5.468545   5.656574   6.266407   3.335367
    29  H    3.668564   4.556795   4.051875   5.581630   3.458182
    30  H    2.217701   5.163493   4.200189   5.691608   3.779669
    31  H    3.427646   4.706423   3.366595   3.848381   3.827643
    32  H    2.018527   6.273660   4.892814   5.865323   4.936714
    33  H    3.061593   6.609610   5.790279   6.003600   4.884523
    34  H    3.144571   7.541624   6.377322   6.848056   6.000966
    35  H    2.014914   7.340238   6.721206   7.532760   5.196385
    36  H    1.000792   5.475721   4.737908   5.763487   3.502460
                   21         22         23         24         25
    21  H    0.000000
    22  H    2.469079   0.000000
    23  H    2.155242   2.481717   0.000000
    24  H    3.443369   2.325233   1.702615   0.000000
    25  H    3.956070   4.232169   2.339414   2.512294   0.000000
    26  H    4.276890   3.798011   2.944733   2.300568   1.666424
    27  H    2.832451   4.212541   3.016158   3.967855   2.719440
    28  H    4.316141   5.189297   3.739741   4.236809   2.197993
    29  H    5.154696   5.613888   5.835106   6.060658   5.422826
    30  H    5.318487   5.030125   5.561150   5.309885   5.070910
    31  H    4.123802   2.100260   4.131964   3.348201   5.067752
    32  H    5.759413   4.099099   5.367251   4.269483   5.300428
    33  H    5.003430   3.274303   3.585072   1.951395   3.535815
    34  H    6.344441   4.334119   5.240585   3.657850   5.108049
    35  H    6.120312   5.508739   4.932264   4.111467   3.236620
    36  H    4.716637   4.241362   4.220706   3.732220   3.329887
                   26         27         28         29         30
    26  H    0.000000
    27  H    3.110879   0.000000
    28  H    2.588694   1.685781   0.000000
    29  H    4.664171   3.526346   3.881244   0.000000
    30  H    3.866657   3.974699   4.053939   1.678316   0.000000
    31  H    3.934758   4.985663   5.653286   5.039839   3.984101
    32  H    3.710577   5.513427   5.567202   4.690879   3.114575
    33  H    2.398571   5.062299   4.949582   6.151566   4.935396
    34  H    3.679363   6.340069   6.161787   6.543864   5.037182
    35  H    1.989344   4.435340   3.348293   4.846268   3.791869
    36  H    1.947672   3.245338   2.902514   3.056051   1.968856
                   31         32         33         34         35
    31  H    0.000000
    32  H    2.292490   0.000000
    33  H    3.002967   2.991894   0.000000
    34  H    3.165170   2.264013   1.764135   0.000000
    35  H    5.002615   3.768325   3.343022   3.827064   0.000000
    36  H    3.597187   2.766882   3.349299   3.866622   2.082772
                   36
    36  H    0.000000
 Stoichiometry    C10H20N2O4
 Framework group  C1[X(C10H20N2O4)]
 Deg. of freedom   102
 Full point group                 C1      NOp   1
 Largest Abelian subgroup         C1      NOp   1
 Largest concise Abelian subgroup C1      NOp   1
                         Standard orientation:                         
 ---------------------------------------------------------------------
 Center     Atomic      Atomic             Coordinates (Angstroms)
 Number     Number       Type             X           Y           Z
 ---------------------------------------------------------------------
      1          6           0        3.573386   -0.752278   -0.452854
      2          6           0        2.432181   -0.848131    0.535388
      3          6           0        1.052222   -1.438880    0.129588
      4          6           0        0.264247   -1.577126    1.443987
      5          6           0       -0.386174   -0.293392    1.953787
      6          6           0        0.388817    1.066078    1.908246
      7          8           0        0.136634    2.012250    0.842209
      8          6           0        0.737631    2.142068   -0.479423
      9          8           0        1.613624    1.125745   -0.886802
     10          8           0        0.952737    0.225066   -1.839015
     11          6           0        0.258633   -0.832310   -1.121404
     12          6           0       -1.292338   -0.451360   -1.191390
     13          6           0       -2.331329   -1.397331   -0.642449
     14          8           0       -3.354545   -0.623608    0.015094
     15          7           0       -2.925083    0.749412   -0.003782
     16          7           0       -1.666309    0.856388   -0.630175
     17          1           0        4.351218   -0.137680    0.020722
     18          1           0        3.323894   -0.246493   -1.385689
     19          1           0        3.982485   -1.729102   -0.692916
     20          1           0        2.294229    0.166138    0.870832
     21          1           0        2.802156   -1.357486    1.433716
     22          1           0        1.285317   -2.478664   -0.159555
     23          1           0        0.904385   -1.982191    2.241971
     24          1           0       -0.487220   -2.371540    1.341560
     25          1           0       -0.732688   -0.482649    2.979687
     26          1           0       -1.323643   -0.230767    1.442060
     27          1           0        1.428115    0.988122    2.229274
     28          1           0       -0.050929    1.595700    2.763255
     29          1           0        1.220319    3.119658   -0.572242
     30          1           0       -0.051098    2.249324   -1.237645
     31          1           0        0.307910   -1.673342   -1.835032
     32          1           0       -1.488969   -0.315827   -2.263856
     33          1           0       -1.958284   -2.105595    0.087292
     34          1           0       -2.820549   -1.953139   -1.444187
     35          1           0       -2.835161    0.986830    1.005872
     36          1           0       -0.983009    1.098447    0.059821
 ---------------------------------------------------------------------
 Rotational constants (GHZ):           0.8018262           0.4536663           0.4365540
 Standard basis: 6-31G(2df,p) (6D, 7F)
 There are   596 symmetry adapted cartesian basis functions of A   symmetry.
 There are   548 symmetry adapted basis functions of A   symmetry.
   548 basis functions,   844 primitive gaussians,   596 cartesian basis functions
    63 alpha electrons       63 beta electrons
       nuclear repulsion energy      1353.1413627412 Hartrees.
 NAtoms=   36 NActive=   36 NUniq=   36 SFac= 1.00D+00 NAtFMM=   60 NAOKFM=F Big=F
 Integral buffers will be    131072 words long.
 Raffenetti 2 integral format.
 Two-electron integral symmetry is turned on.
 One-electron integrals computed using PRISM.
 PrsmSu:  requested number of processors reduced to:  12 ShMem   1 Linda.
 NBasis=   548 RedAO= T EigKep=  2.10D-04  NBF=   548
 NBsUse=   548 1.00D-06 EigRej= -1.00D+00 NBFU=   548
 ExpMin= 1.61D-01 ExpMax= 5.48D+03 ExpMxC= 8.25D+02 IAcc=3 IRadAn=         5 AccDes= 0.00D+00
 Harris functional with IExCor=  402 and IRadAn=       5 diagonalized for initial guess.
 HarFok:  IExCor=  402 AccDes= 0.00D+00 IRadAn=         5 IDoV= 1 UseB2=F ITyADJ=14
 ICtDFT=  3500011 ScaDFX=  1.000000  1.000000  1.000000  1.000000
 FoFCou: FMM=F IPFlag=           0 FMFlag=      100000 FMFlg1=           0
         NFxFlg=           0 DoJE=T BraDBF=F KetDBF=T FulRan=T
         wScrn=  0.000000 ICntrl=       500 IOpCl=  0 I1Cent=   200000004 NGrid=           0
         NMat0=    1 NMatS0=      1 NMatT0=    0 NMatD0=    1 NMtDS0=    0 NMtDT0=    0
 Petite list used in FoFCou.
 Requested convergence on RMS density matrix=1.00D-08 within 128 cycles.
 Requested convergence on MAX density matrix=1.00D-06.
 Requested convergence on             energy=1.00D-06.
 No special actions if energy rises.
 Integral accuracy reduced to 1.0D-05 until final iterations.
 Initial convergence to 1.0D-05 achieved.  Increase integral accuracy.
 SCF Done:  E(RB3LYP) =  -803.232601203     A.U. after   13 cycles
            NFock= 13  Conv=0.49D-08     -V/T= 2.0068

 **********************************************************************

            Population analysis using the SCF density.

 **********************************************************************

 Orbital symmetries:
       Occupied  (A) (A) (A) (A) (A) (A) (A) (A) (A) (A) (A) (A)
                 (A) (A) (A) (A) (A) (A) (A) (A) (A) (A) (A) (A)
                 (A) (A) (A) (A) (A) (A) (A) (A) (A) (A) (A) (A)
                 (A) (A) (A) (A) (A) (A) (A) (A) (A) (A) (A) (A)
                 (A) (A) (A) (A) (A) (A) (A) (A) (A) (A) (A) (A)
                 (A) (A) (A)
       Virtual   (A) (A) (A) (A) (A) (A) (A) (A) (A) (A) (A) (A)
                 (A) (A) (A) (A) (A) (A) (A) (A) (A) (A) (A) (A)
                 (A) (A) (A) (A) (A) (A) (A) (A) (A) (A) (A) (A)
                 (A) (A) (A) (A) (A) (A) (A) (A) (A) (A) (A) (A)
                 (A) (A) (A) (A) (A) (A) (A) (A) (A) (A) (A) (A)
                 (A) (A) (A) (A) (A) (A) (A) (A) (A) (A) (A) (A)
                 (A) (A) (A) (A) (A) (A) (A) (A) (A) (A) (A) (A)
                 (A) (A) (A) (A) (A) (A) (A) (A) (A) (A) (A) (A)
                 (A) (A) (A) (A) (A) (A) (A) (A) (A) (A) (A) (A)
                 (A) (A) (A) (A) (A) (A) (A) (A) (A) (A) (A) (A)
                 (A) (A) (A) (A) (A) (A) (A) (A) (A) (A) (A) (A)
                 (A) (A) (A) (A) (A) (A) (A) (A) (A) (A) (A) (A)
                 (A) (A) (A) (A) (A) (A) (A) (A) (A) (A) (A) (A)
                 (A) (A) (A) (A) (A) (A) (A) (A) (A) (A) (A) (A)
                 (A) (A) (A) (A) (A) (A) (A) (A) (A) (A) (A) (A)
                 (A) (A) (A) (A) (A) (A) (A) (A) (A) (A) (A) (A)
                 (A) (A) (A) (A) (A) (A) (A) (A) (A) (A) (A) (A)
                 (A) (A) (A) (A) (A) (A) (A) (A) (A) (A) (A) (A)
                 (A) (A) (A) (A) (A) (A) (A) (A) (A) (A) (A) (A)
                 (A) (A) (A) (A) (A) (A) (A) (A) (A) (A) (A) (A)
                 (A) (A) (A) (A) (A) (A) (A) (A) (A) (A) (A) (A)
                 (A) (A) (A) (A) (A) (A) (A) (A) (A) (A) (A) (A)
                 (A) (A) (A) (A) (A) (A) (A) (A) (A) (A) (A) (A)
                 (A) (A) (A) (A) (A) (A) (A) (A) (A) (A) (A) (A)
                 (A) (A) (A) (A) (A) (A) (A) (A) (A) (A) (A) (A)
                 (A) (A) (A) (A) (A) (A) (A) (A) (A) (A) (A) (A)
                 (A) (A) (A) (A) (A) (A) (A) (A) (A) (A) (A) (A)
                 (A) (A) (A) (A) (A) (A) (A) (A) (A) (A) (A) (A)
                 (A) (A) (A) (A) (A) (A) (A) (A) (A) (A) (A) (A)
                 (A) (A) (A) (A) (A) (A) (A) (A) (A) (A) (A) (A)
                 (A) (A) (A) (A) (A) (A) (A) (A) (A) (A) (A) (A)
                 (A) (A) (A) (A) (A) (A) (A) (A) (A) (A) (A) (A)
                 (A) (A) (A) (A) (A) (A) (A) (A) (A) (A) (A) (A)
                 (A) (A) (A) (A) (A) (A) (A) (A) (A) (A) (A) (A)
                 (A) (A) (A) (A) (A) (A) (A) (A) (A) (A) (A) (A)
                 (A) (A) (A) (A) (A) (A) (A) (A) (A) (A) (A) (A)
                 (A) (A) (A) (A) (A) (A) (A) (A) (A) (A) (A) (A)
                 (A) (A) (A) (A) (A) (A) (A) (A) (A) (A) (A) (A)
                 (A) (A) (A) (A) (A) (A) (A) (A) (A) (A) (A) (A)
                 (A) (A) (A) (A) (A) (A) (A) (A) (A) (A) (A) (A)
                 (A) (A) (A) (A) (A)
 The electronic state is 1-A.
 Alpha  occ. eigenvalues --  -19.21339 -19.20858 -19.16850 -19.15575 -14.37684
 Alpha  occ. eigenvalues --  -14.32567 -10.28881 -10.26257 -10.25484 -10.23004
 Alpha  occ. eigenvalues --  -10.22706 -10.20927 -10.19636 -10.19229 -10.17455
 Alpha  occ. eigenvalues --  -10.16102  -1.12989  -1.07437  -1.04049  -0.94347
 Alpha  occ. eigenvalues --   -0.91620  -0.82773  -0.80865  -0.77511  -0.74153
 Alpha  occ. eigenvalues --   -0.70167  -0.68236  -0.66010  -0.63024  -0.61677
 Alpha  occ. eigenvalues --   -0.59538  -0.56819  -0.55546  -0.52673  -0.50767
 Alpha  occ. eigenvalues --   -0.50266  -0.48875  -0.47856  -0.46787  -0.46039
 Alpha  occ. eigenvalues --   -0.44969  -0.43740  -0.43599  -0.42474  -0.41702
 Alpha  occ. eigenvalues --   -0.40838  -0.39963  -0.38976  -0.37472  -0.37236
 Alpha  occ. eigenvalues --   -0.36328  -0.35085  -0.34052  -0.33493  -0.33458
 Alpha  occ. eigenvalues --   -0.32693  -0.31598  -0.31289  -0.28806  -0.28232
 Alpha  occ. eigenvalues --   -0.27285  -0.24927  -0.17635
 Alpha virt. eigenvalues --   -0.00862   0.05506   0.07373   0.07661   0.08810
 Alpha virt. eigenvalues --    0.09453   0.10067   0.10604   0.11047   0.11658
 Alpha virt. eigenvalues --    0.12508   0.13497   0.14224   0.14676   0.15856
 Alpha virt. eigenvalues --    0.16569   0.17620   0.17660   0.17892   0.18887
 Alpha virt. eigenvalues --    0.19154   0.19692   0.20218   0.20878   0.22001
 Alpha virt. eigenvalues --    0.22677   0.23533   0.23944   0.24349   0.25914
 Alpha virt. eigenvalues --    0.26433   0.28415   0.29051   0.30834   0.31584
 Alpha virt. eigenvalues --    0.32721   0.35113   0.40767   0.42117   0.42980
 Alpha virt. eigenvalues --    0.43840   0.45334   0.45583   0.46157   0.47557
 Alpha virt. eigenvalues --    0.48991   0.49853   0.50687   0.51303   0.52286
 Alpha virt. eigenvalues --    0.52450   0.54211   0.55659   0.56086   0.57135
 Alpha virt. eigenvalues --    0.57696   0.57866   0.59230   0.60633   0.62117
 Alpha virt. eigenvalues --    0.63368   0.64214   0.64388   0.65364   0.65939
 Alpha virt. eigenvalues --    0.67429   0.68708   0.69513   0.69547   0.70231
 Alpha virt. eigenvalues --    0.71177   0.71675   0.71976   0.72956   0.74139
 Alpha virt. eigenvalues --    0.74604   0.75467   0.76041   0.76822   0.77353
 Alpha virt. eigenvalues --    0.78069   0.78558   0.79630   0.79762   0.80933
 Alpha virt. eigenvalues --    0.81649   0.82088   0.83256   0.83588   0.84821
 Alpha virt. eigenvalues --    0.85070   0.86599   0.86932   0.88017   0.88458
 Alpha virt. eigenvalues --    0.88977   0.89703   0.90748   0.91257   0.94116
 Alpha virt. eigenvalues --    0.95460   0.95838   0.96768   0.98088   0.98696
 Alpha virt. eigenvalues --    0.99666   1.00875   1.01451   1.02987   1.03909
 Alpha virt. eigenvalues --    1.05023   1.08161   1.09263   1.10756   1.12069
 Alpha virt. eigenvalues --    1.13223   1.13793   1.15871   1.17319   1.18378
 Alpha virt. eigenvalues --    1.20118   1.21591   1.22692   1.24713   1.25774
 Alpha virt. eigenvalues --    1.27232   1.27690   1.30030   1.30096   1.30964
 Alpha virt. eigenvalues --    1.32399   1.34014   1.35937   1.37069   1.37903
 Alpha virt. eigenvalues --    1.38381   1.39378   1.39873   1.41242   1.42374
 Alpha virt. eigenvalues --    1.43444   1.44598   1.44856   1.45398   1.46324
 Alpha virt. eigenvalues --    1.47184   1.47876   1.49968   1.50183   1.51157
 Alpha virt. eigenvalues --    1.51955   1.53045   1.54424   1.55115   1.55627
 Alpha virt. eigenvalues --    1.58003   1.59116   1.59931   1.60249   1.61111
 Alpha virt. eigenvalues --    1.61656   1.62507   1.63106   1.64582   1.66539
 Alpha virt. eigenvalues --    1.67014   1.69375   1.70107   1.71763   1.73638
 Alpha virt. eigenvalues --    1.75260   1.75305   1.77352   1.78404   1.80718
 Alpha virt. eigenvalues --    1.81511   1.83971   1.84209   1.85142   1.86331
 Alpha virt. eigenvalues --    1.86950   1.89100   1.90756   1.91438   1.93079
 Alpha virt. eigenvalues --    1.94808   1.96056   1.97421   1.99138   2.00211
 Alpha virt. eigenvalues --    2.01402   2.02149   2.05156   2.05603   2.08203
 Alpha virt. eigenvalues --    2.09295   2.12053   2.13108   2.13947   2.16426
 Alpha virt. eigenvalues --    2.20647   2.20932   2.22126   2.26086   2.26526
 Alpha virt. eigenvalues --    2.29014   2.31047   2.32666   2.33746   2.34137
 Alpha virt. eigenvalues --    2.36239   2.37970   2.39536   2.41212   2.43955
 Alpha virt. eigenvalues --    2.44076   2.47344   2.48112   2.48613   2.50242
 Alpha virt. eigenvalues --    2.52651   2.54476   2.55894   2.56478   2.57918
 Alpha virt. eigenvalues --    2.61005   2.61870   2.64547   2.65208   2.67173
 Alpha virt. eigenvalues --    2.67838   2.69209   2.72029   2.72765   2.74013
 Alpha virt. eigenvalues --    2.75696   2.76578   2.77790   2.78461   2.79335
 Alpha virt. eigenvalues --    2.80572   2.81810   2.83175   2.84483   2.84564
 Alpha virt. eigenvalues --    2.87121   2.88404   2.88853   2.90896   2.91736
 Alpha virt. eigenvalues --    2.92969   2.93142   2.93374   2.96125   2.97184
 Alpha virt. eigenvalues --    2.98160   2.99609   3.02004   3.03489   3.04065
 Alpha virt. eigenvalues --    3.06353   3.07004   3.08906   3.09421   3.11668
 Alpha virt. eigenvalues --    3.12126   3.13685   3.16363   3.20405   3.21808
 Alpha virt. eigenvalues --    3.23462   3.24226   3.26577   3.27370   3.29517
 Alpha virt. eigenvalues --    3.32225   3.33128   3.34279   3.35387   3.36630
 Alpha virt. eigenvalues --    3.38149   3.39560   3.40765   3.41549   3.41988
 Alpha virt. eigenvalues --    3.43612   3.44464   3.45220   3.46494   3.47495
 Alpha virt. eigenvalues --    3.48388   3.49216   3.50997   3.51380   3.53278
 Alpha virt. eigenvalues --    3.56452   3.57459   3.58092   3.59835   3.61575
 Alpha virt. eigenvalues --    3.62836   3.63564   3.65038   3.66351   3.68219
 Alpha virt. eigenvalues --    3.69495   3.70174   3.73015   3.74093   3.75796
 Alpha virt. eigenvalues --    3.75940   3.77795   3.79894   3.80970   3.82747
 Alpha virt. eigenvalues --    3.84563   3.86886   3.87711   3.89125   3.91252
 Alpha virt. eigenvalues --    3.93170   3.93915   3.95653   3.96950   3.99155
 Alpha virt. eigenvalues --    4.04150   4.05555   4.06015   4.09074   4.12462
 Alpha virt. eigenvalues --    4.13519   4.15152   4.19755   4.20453   4.23243
 Alpha virt. eigenvalues --    4.24075   4.25225   4.29101   4.29606   4.30321
 Alpha virt. eigenvalues --    4.32709   4.33347   4.33941   4.34982   4.36157
 Alpha virt. eigenvalues --    4.36537   4.38039   4.39272   4.40488   4.42244
 Alpha virt. eigenvalues --    4.42849   4.43535   4.44816   4.45454   4.46861
 Alpha virt. eigenvalues --    4.48262   4.48586   4.49609   4.50681   4.51548
 Alpha virt. eigenvalues --    4.52171   4.53118   4.53665   4.54486   4.55550
 Alpha virt. eigenvalues --    4.56541   4.57781   4.58554   4.58631   4.59590
 Alpha virt. eigenvalues --    4.60583   4.60956   4.62701   4.63899   4.65237
 Alpha virt. eigenvalues --    4.65643   4.66862   4.67342   4.68514   4.69353
 Alpha virt. eigenvalues --    4.69510   4.70401   4.71911   4.73002   4.74881
 Alpha virt. eigenvalues --    4.75670   4.76622   4.77064   4.78402   4.79856
 Alpha virt. eigenvalues --    4.80353   4.81480   4.82872   4.84361   4.84954
 Alpha virt. eigenvalues --    4.86360   4.87178   4.88825   4.89891   4.90781
 Alpha virt. eigenvalues --    4.91366   4.92275   4.93630   4.94036   4.95290
 Alpha virt. eigenvalues --    4.96878   4.97965   4.99832   5.00508   5.01888
 Alpha virt. eigenvalues --    5.02974   5.03572   5.06305   5.07688   5.09087
 Alpha virt. eigenvalues --    5.09504   5.11818   5.16212   5.18457   5.20333
 Alpha virt. eigenvalues --    5.23966   5.26607   5.27505   5.31341   5.32273
 Alpha virt. eigenvalues --    5.34722   5.36525   5.37163   5.38259   5.40322
 Alpha virt. eigenvalues --    5.42042   5.42542   5.44069   5.46103   5.47486
 Alpha virt. eigenvalues --    5.50496   5.52431   5.56928   5.57934   5.59549
 Alpha virt. eigenvalues --    5.63127   5.68968   5.69182   5.73915   5.77279
 Alpha virt. eigenvalues --    5.85912   5.87273   5.88319   5.91693   5.94635
 Alpha virt. eigenvalues --    5.98001   5.99688   6.03255   6.05730   6.07368
 Alpha virt. eigenvalues --    6.16264   6.17169   6.20888   6.30367   6.34169
 Alpha virt. eigenvalues --    6.40489   6.64606   6.82591   7.05267   7.21204
 Alpha virt. eigenvalues --    7.28042   7.28248   9.37621  11.24312  11.27669
 Alpha virt. eigenvalues --   11.36591  11.45805  11.64719  11.83625  11.98653
 Alpha virt. eigenvalues --   12.29427  12.31015  12.55890  12.87986  13.06230
 Alpha virt. eigenvalues --   13.38324  13.45565  13.72403  13.79597  21.96771
          Condensed to atoms (all electrons):
               1          2          3          4          5          6
     1  C    5.007026   0.401036  -0.027162   0.002827   0.000428  -0.000041
     2  C    0.401036   4.779972   0.427343  -0.025763  -0.007727  -0.005530
     3  C   -0.027162   0.427343   4.787851   0.385203  -0.026061  -0.003604
     4  C    0.002827  -0.025763   0.385203   4.914932   0.402689  -0.026414
     5  C    0.000428  -0.007727  -0.026061   0.402689   4.993495   0.362753
     6  C   -0.000041  -0.005530  -0.003604  -0.026414   0.362753   4.785215
     7  O    0.000008  -0.000555   0.000242   0.000792  -0.037364   0.348762
     8  C    0.000319   0.000713   0.000873  -0.000158   0.003396  -0.055648
     9  O   -0.003671  -0.023665  -0.003971  -0.000799   0.000094   0.006204
    10  O   -0.002877  -0.006844  -0.023398   0.001224  -0.000079  -0.000019
    11  C   -0.001648  -0.023262   0.354587  -0.028490  -0.006572  -0.001075
    12  C    0.000006   0.000901  -0.027300  -0.005616   0.002668   0.000448
    13  C   -0.000000   0.000028  -0.002931  -0.001589  -0.000191  -0.000062
    14  O    0.000000  -0.000001  -0.000013  -0.000215  -0.003575   0.000066
    15  N   -0.000000   0.000003   0.000083   0.000829  -0.005778   0.001097
    16  N   -0.000002   0.000081   0.000255  -0.001469   0.002638  -0.006100
    17  H    0.366577  -0.020855   0.003524  -0.000171  -0.000005   0.000046
    18  H    0.377002  -0.019681  -0.005735   0.000078  -0.000005  -0.000011
    19  H    0.369638  -0.029822  -0.002437   0.000028  -0.000008  -0.000002
    20  H   -0.037630   0.367695  -0.033997  -0.000560  -0.000992  -0.001015
    21  H   -0.041684   0.362020  -0.033985  -0.009177   0.000024   0.000061
    22  H   -0.002756  -0.045358   0.350976  -0.035456   0.004736  -0.000112
    23  H    0.000393  -0.010919  -0.029059   0.364676  -0.035671  -0.003023
    24  H   -0.000233   0.004414  -0.028223   0.358770  -0.033204   0.004417
    25  H    0.000003   0.000036   0.004109  -0.033801   0.360937  -0.025193
    26  H    0.000008  -0.000288  -0.002523  -0.041062   0.357584  -0.033018
    27  H    0.000113  -0.003490  -0.001312  -0.003969  -0.049683   0.366276
    28  H   -0.000016   0.000450   0.000132   0.004966  -0.041890   0.358090
    29  H    0.000038  -0.000080   0.000034  -0.000002  -0.000271   0.001227
    30  H   -0.000018  -0.000052   0.000249  -0.000026   0.000353   0.004108
    31  H    0.000244   0.002899  -0.028414   0.003117   0.000134   0.000041
    32  H    0.000001  -0.000050   0.004247  -0.000136   0.000052  -0.000029
    33  H   -0.000000   0.000029   0.002455   0.001362  -0.001790   0.000036
    34  H   -0.000000  -0.000000   0.000009  -0.000034   0.000113  -0.000002
    35  H    0.000000   0.000002  -0.000026   0.000413   0.001040   0.001132
    36  H    0.000014  -0.000212   0.000637  -0.001149   0.007025  -0.010419
               7          8          9         10         11         12
     1  C    0.000008   0.000319  -0.003671  -0.002877  -0.001648   0.000006
     2  C   -0.000555   0.000713  -0.023665  -0.006844  -0.023262   0.000901
     3  C    0.000242   0.000873  -0.003971  -0.023398   0.354587  -0.027300
     4  C    0.000792  -0.000158  -0.000799   0.001224  -0.028490  -0.005616
     5  C   -0.037364   0.003396   0.000094  -0.000079  -0.006572   0.002668
     6  C    0.348762  -0.055648   0.006204  -0.000019  -0.001075   0.000448
     7  O    7.829981   0.322727  -0.044330   0.001109   0.002478   0.000840
     8  C    0.322727   4.761752   0.318806  -0.051808   0.005291  -0.001048
     9  O   -0.044330   0.318806   7.883451   0.120254  -0.057434   0.001633
    10  O    0.001109  -0.051808   0.120254   7.901402   0.282048  -0.035510
    11  C    0.002478   0.005291  -0.057434   0.282048   4.873608   0.347599
    12  C    0.000840  -0.001048   0.001633  -0.035510   0.347599   4.856263
    13  C   -0.000137  -0.000058  -0.000054   0.002779  -0.013331   0.333841
    14  O   -0.000001  -0.000007   0.000000  -0.000010   0.001426  -0.036656
    15  N    0.000864  -0.000061   0.000032   0.000015   0.002519  -0.063704
    16  N   -0.046652  -0.007523  -0.000289  -0.002360  -0.021453   0.395090
    17  H   -0.000003  -0.000011  -0.000083   0.000191   0.000051   0.000001
    18  H    0.000018   0.000461  -0.000253   0.006980   0.002338   0.000061
    19  H    0.000000  -0.000021   0.000396  -0.000029  -0.000274   0.000001
    20  H    0.000968  -0.001300   0.011107   0.000194  -0.007293   0.000257
    21  H   -0.000003  -0.000015   0.001212  -0.000098   0.003746  -0.000043
    22  H    0.000001   0.000001   0.000007   0.002638  -0.034413   0.003585
    23  H   -0.000049   0.000004  -0.000004  -0.000022   0.003604   0.000075
    24  H   -0.000041  -0.000011  -0.000001  -0.000021  -0.001338  -0.000253
    25  H    0.001826  -0.000022  -0.000001  -0.000002   0.000143  -0.000232
    26  H   -0.004596  -0.000330  -0.000010  -0.000028   0.000843  -0.001388
    27  H   -0.022307  -0.005502   0.000058   0.000039   0.000100   0.000018
    28  H   -0.023780   0.003821  -0.000081   0.000006   0.000002   0.000017
    29  H   -0.027753   0.357196  -0.021441   0.003456  -0.000623   0.000023
    30  H   -0.025438   0.348757  -0.014824   0.003997   0.000451  -0.000932
    31  H    0.000016  -0.000141   0.002830  -0.017985   0.339199  -0.044004
    32  H   -0.000128   0.000437   0.000016   0.000197  -0.039296   0.347331
    33  H    0.000003  -0.000009   0.000005   0.000049  -0.009125  -0.034295
    34  H    0.000000   0.000005   0.000000  -0.000064   0.001698  -0.005298
    35  H    0.002811  -0.000421   0.000007   0.000015  -0.000033   0.010007
    36  H    0.041831  -0.017540   0.001966   0.000612  -0.000731  -0.061302
              13         14         15         16         17         18
     1  C   -0.000000   0.000000  -0.000000  -0.000002   0.366577   0.377002
     2  C    0.000028  -0.000001   0.000003   0.000081  -0.020855  -0.019681
     3  C   -0.002931  -0.000013   0.000083   0.000255   0.003524  -0.005735
     4  C   -0.001589  -0.000215   0.000829  -0.001469  -0.000171   0.000078
     5  C   -0.000191  -0.003575  -0.005778   0.002638  -0.000005  -0.000005
     6  C   -0.000062   0.000066   0.001097  -0.006100   0.000046  -0.000011
     7  O   -0.000137  -0.000001   0.000864  -0.046652  -0.000003   0.000018
     8  C   -0.000058  -0.000007  -0.000061  -0.007523  -0.000011   0.000461
     9  O   -0.000054   0.000000   0.000032  -0.000289  -0.000083  -0.000253
    10  O    0.002779  -0.000010   0.000015  -0.002360   0.000191   0.006980
    11  C   -0.013331   0.001426   0.002519  -0.021453   0.000051   0.002338
    12  C    0.333841  -0.036656  -0.063704   0.395090   0.000001   0.000061
    13  C    4.940310   0.340419  -0.107974  -0.047874  -0.000000  -0.000001
    14  O    0.340419   7.897408   0.217478  -0.056957   0.000000   0.000000
    15  N   -0.107974   0.217478   6.560281   0.271730   0.000000   0.000000
    16  N   -0.047874  -0.056957   0.271730   6.606849   0.000000  -0.000001
    17  H   -0.000000   0.000000   0.000000   0.000000   0.615210  -0.029505
    18  H   -0.000001   0.000000   0.000000  -0.000001  -0.029505   0.554509
    19  H   -0.000000   0.000000   0.000000  -0.000000  -0.031672  -0.032769
    20  H   -0.000002   0.000000   0.000001  -0.000014  -0.006738  -0.003005
    21  H   -0.000000  -0.000000  -0.000000  -0.000000  -0.001521   0.005336
    22  H    0.000163   0.000001   0.000003  -0.000077  -0.000096  -0.000160
    23  H    0.000176  -0.000006  -0.000001  -0.000039  -0.000023   0.000009
    24  H   -0.004053  -0.000204   0.000129  -0.000017   0.000003   0.000003
    25  H   -0.000034   0.000081  -0.000158   0.000826  -0.000000  -0.000000
    26  H   -0.003489   0.013459  -0.000689  -0.006561  -0.000000  -0.000001
    27  H   -0.000006  -0.000000  -0.000003  -0.000291  -0.000016   0.000026
    28  H    0.000009  -0.000003   0.000050  -0.000008  -0.000000  -0.000000
    29  H    0.000002   0.000000  -0.000032   0.000186  -0.000001  -0.000083
    30  H    0.000409   0.000021   0.000345   0.030224  -0.000000   0.000027
    31  H   -0.000828  -0.000057  -0.000183   0.003157  -0.000003  -0.000446
    32  H   -0.045994   0.000634   0.002772  -0.036892  -0.000000   0.000003
    33  H    0.360969  -0.031179   0.006757   0.000433  -0.000000  -0.000000
    34  H    0.348104  -0.024092   0.004075   0.003543   0.000000   0.000000
    35  H    0.000386  -0.038996   0.313789  -0.069819  -0.000000  -0.000000
    36  H    0.004854   0.001779  -0.038149   0.293693  -0.000000  -0.000003
              19         20         21         22         23         24
     1  C    0.369638  -0.037630  -0.041684  -0.002756   0.000393  -0.000233
     2  C   -0.029822   0.367695   0.362020  -0.045358  -0.010919   0.004414
     3  C   -0.002437  -0.033997  -0.033985   0.350976  -0.029059  -0.028223
     4  C    0.000028  -0.000560  -0.009177  -0.035456   0.364676   0.358770
     5  C   -0.000008  -0.000992   0.000024   0.004736  -0.035671  -0.033204
     6  C   -0.000002  -0.001015   0.000061  -0.000112  -0.003023   0.004417
     7  O    0.000000   0.000968  -0.000003   0.000001  -0.000049  -0.000041
     8  C   -0.000021  -0.001300  -0.000015   0.000001   0.000004  -0.000011
     9  O    0.000396   0.011107   0.001212   0.000007  -0.000004  -0.000001
    10  O   -0.000029   0.000194  -0.000098   0.002638  -0.000022  -0.000021
    11  C   -0.000274  -0.007293   0.003746  -0.034413   0.003604  -0.001338
    12  C    0.000001   0.000257  -0.000043   0.003585   0.000075  -0.000253
    13  C   -0.000000  -0.000002  -0.000000   0.000163   0.000176  -0.004053
    14  O    0.000000   0.000000  -0.000000   0.000001  -0.000006  -0.000204
    15  N    0.000000   0.000001  -0.000000   0.000003  -0.000001   0.000129
    16  N   -0.000000  -0.000014  -0.000000  -0.000077  -0.000039  -0.000017
    17  H   -0.031672  -0.006738  -0.001521  -0.000096  -0.000023   0.000003
    18  H   -0.032769  -0.003005   0.005336  -0.000160   0.000009   0.000003
    19  H    0.627465   0.006272  -0.005657   0.003400  -0.000003   0.000001
    20  H    0.006272   0.618805  -0.044386   0.006964   0.000468  -0.000076
    21  H   -0.005657  -0.044386   0.684103  -0.004363   0.006582   0.000308
    22  H    0.003400   0.006964  -0.004363   0.690465  -0.000686  -0.007462
    23  H   -0.000003   0.000468   0.006582  -0.000686   0.643328  -0.038713
    24  H    0.000001  -0.000076   0.000308  -0.007462  -0.038713   0.643271
    25  H   -0.000000  -0.000052  -0.000007  -0.000237  -0.008595   0.000621
    26  H   -0.000000   0.000114  -0.000000  -0.000127   0.006547  -0.011302
    27  H   -0.000005   0.005297   0.001431  -0.000010   0.001691  -0.000128
    28  H    0.000000   0.000122  -0.000046   0.000004  -0.000118  -0.000168
    29  H   -0.000000  -0.000070   0.000003   0.000000  -0.000000  -0.000000
    30  H    0.000001   0.000248   0.000004  -0.000003   0.000001   0.000001
    31  H   -0.000034  -0.000204  -0.000092  -0.016525  -0.000208   0.000001
    32  H   -0.000000  -0.000002   0.000002  -0.000136   0.000003  -0.000009
    33  H   -0.000000  -0.000004   0.000004  -0.000232  -0.000139   0.010244
    34  H   -0.000000  -0.000000  -0.000000   0.000009  -0.000006   0.000017
    35  H   -0.000000  -0.000001  -0.000000  -0.000001   0.000006   0.000047
    36  H   -0.000000  -0.000099   0.000008   0.000028   0.000101  -0.000026
              25         26         27         28         29         30
     1  C    0.000003   0.000008   0.000113  -0.000016   0.000038  -0.000018
     2  C    0.000036  -0.000288  -0.003490   0.000450  -0.000080  -0.000052
     3  C    0.004109  -0.002523  -0.001312   0.000132   0.000034   0.000249
     4  C   -0.033801  -0.041062  -0.003969   0.004966  -0.000002  -0.000026
     5  C    0.360937   0.357584  -0.049683  -0.041890  -0.000271   0.000353
     6  C   -0.025193  -0.033018   0.366276   0.358090   0.001227   0.004108
     7  O    0.001826  -0.004596  -0.022307  -0.023780  -0.027753  -0.025438
     8  C   -0.000022  -0.000330  -0.005502   0.003821   0.357196   0.348757
     9  O   -0.000001  -0.000010   0.000058  -0.000081  -0.021441  -0.014824
    10  O   -0.000002  -0.000028   0.000039   0.000006   0.003456   0.003997
    11  C    0.000143   0.000843   0.000100   0.000002  -0.000623   0.000451
    12  C   -0.000232  -0.001388   0.000018   0.000017   0.000023  -0.000932
    13  C   -0.000034  -0.003489  -0.000006   0.000009   0.000002   0.000409
    14  O    0.000081   0.013459  -0.000000  -0.000003   0.000000   0.000021
    15  N   -0.000158  -0.000689  -0.000003   0.000050  -0.000032   0.000345
    16  N    0.000826  -0.006561  -0.000291  -0.000008   0.000186   0.030224
    17  H   -0.000000  -0.000000  -0.000016  -0.000000  -0.000001  -0.000000
    18  H   -0.000000  -0.000001   0.000026  -0.000000  -0.000083   0.000027
    19  H   -0.000000  -0.000000  -0.000005   0.000000  -0.000000   0.000001
    20  H   -0.000052   0.000114   0.005297   0.000122  -0.000070   0.000248
    21  H   -0.000007  -0.000000   0.001431  -0.000046   0.000003   0.000004
    22  H   -0.000237  -0.000127  -0.000010   0.000004   0.000000  -0.000003
    23  H   -0.008595   0.006547   0.001691  -0.000118  -0.000000   0.000001
    24  H    0.000621  -0.011302  -0.000128  -0.000168  -0.000000   0.000001
    25  H    0.637182  -0.035333   0.002011  -0.009328   0.000003  -0.000004
    26  H   -0.035333   0.619692   0.004360  -0.000822  -0.000011   0.000061
    27  H    0.002011   0.004360   0.606180  -0.037642   0.000601  -0.000291
    28  H   -0.009328  -0.000822  -0.037642   0.625719  -0.000041  -0.000195
    29  H    0.000003  -0.000011   0.000601  -0.000041   0.602171  -0.046608
    30  H   -0.000004   0.000061  -0.000291  -0.000195  -0.046608   0.544499
    31  H    0.000005   0.000002  -0.000004   0.000000   0.000015  -0.000132
    32  H    0.000001   0.000198  -0.000000  -0.000000  -0.000014  -0.000352
    33  H    0.000088  -0.004899   0.000000   0.000001  -0.000000  -0.000003
    34  H    0.000000   0.000403  -0.000000   0.000000   0.000000  -0.000007
    35  H   -0.000340   0.000180   0.000057   0.000190   0.000009   0.000248
    36  H   -0.000797   0.002961   0.001475  -0.000709   0.002401  -0.021536
              31         32         33         34         35         36
     1  C    0.000244   0.000001  -0.000000  -0.000000   0.000000   0.000014
     2  C    0.002899  -0.000050   0.000029  -0.000000   0.000002  -0.000212
     3  C   -0.028414   0.004247   0.002455   0.000009  -0.000026   0.000637
     4  C    0.003117  -0.000136   0.001362  -0.000034   0.000413  -0.001149
     5  C    0.000134   0.000052  -0.001790   0.000113   0.001040   0.007025
     6  C    0.000041  -0.000029   0.000036  -0.000002   0.001132  -0.010419
     7  O    0.000016  -0.000128   0.000003   0.000000   0.002811   0.041831
     8  C   -0.000141   0.000437  -0.000009   0.000005  -0.000421  -0.017540
     9  O    0.002830   0.000016   0.000005   0.000000   0.000007   0.001966
    10  O   -0.017985   0.000197   0.000049  -0.000064   0.000015   0.000612
    11  C    0.339199  -0.039296  -0.009125   0.001698  -0.000033  -0.000731
    12  C   -0.044004   0.347331  -0.034295  -0.005298   0.010007  -0.061302
    13  C   -0.000828  -0.045994   0.360969   0.348104   0.000386   0.004854
    14  O   -0.000057   0.000634  -0.031179  -0.024092  -0.038996   0.001779
    15  N   -0.000183   0.002772   0.006757   0.004075   0.313789  -0.038149
    16  N    0.003157  -0.036892   0.000433   0.003543  -0.069819   0.293693
    17  H   -0.000003  -0.000000  -0.000000   0.000000  -0.000000  -0.000000
    18  H   -0.000446   0.000003  -0.000000   0.000000  -0.000000  -0.000003
    19  H   -0.000034  -0.000000  -0.000000  -0.000000  -0.000000  -0.000000
    20  H   -0.000204  -0.000002  -0.000004  -0.000000  -0.000001  -0.000099
    21  H   -0.000092   0.000002   0.000004  -0.000000  -0.000000   0.000008
    22  H   -0.016525  -0.000136  -0.000232   0.000009  -0.000001   0.000028
    23  H   -0.000208   0.000003  -0.000139  -0.000006   0.000006   0.000101
    24  H    0.000001  -0.000009   0.010244   0.000017   0.000047  -0.000026
    25  H    0.000005   0.000001   0.000088   0.000000  -0.000340  -0.000797
    26  H    0.000002   0.000198  -0.004899   0.000403   0.000180   0.002961
    27  H   -0.000004  -0.000000   0.000000  -0.000000   0.000057   0.001475
    28  H    0.000000  -0.000000   0.000001   0.000000   0.000190  -0.000709
    29  H    0.000015  -0.000014  -0.000000   0.000000   0.000009   0.002401
    30  H   -0.000132  -0.000352  -0.000003  -0.000007   0.000248  -0.021536
    31  H    0.644254  -0.004956   0.000005   0.000594  -0.000004  -0.000281
    32  H   -0.004956   0.664556   0.006193  -0.010997  -0.000721   0.007375
    33  H    0.000005   0.006193   0.639971  -0.054001   0.000405   0.000259
    34  H    0.000594  -0.010997  -0.054001   0.623643  -0.000535  -0.000257
    35  H   -0.000004  -0.000721   0.000405  -0.000535   0.571695  -0.015525
    36  H   -0.000281   0.007375   0.000259  -0.000257  -0.015525   0.506522
 Mulliken charges:
               1
     1  C   -0.407941
     2  C   -0.123471
     3  C   -0.042660
     4  C   -0.225850
     5  C   -0.249292
     6  C   -0.068661
     7  O   -0.322139
     8  C    0.017078
     9  O   -0.177165
    10  O   -0.186053
    11  C    0.024662
    12  C    0.016914
    13  C   -0.103841
    14  O   -0.280799
    15  N   -0.166119
    16  N   -0.304304
    17  H    0.105103
    18  H    0.144810
    19  H    0.095531
    20  H    0.118928
    21  H    0.076235
    22  H    0.085228
    23  H    0.099623
    24  H    0.103236
    25  H    0.106264
    26  H    0.140064
    27  H    0.134928
    28  H    0.121267
    29  H    0.129665
    30  H    0.176416
    31  H    0.117987
    32  H    0.105695
    33  H    0.106407
    34  H    0.113081
    35  H    0.223982
    36  H    0.295193
 Sum of Mulliken charges =  -0.00000
 Mulliken charges with hydrogens summed into heavy atoms:
               1
     1  C   -0.062497
     2  C    0.071692
     3  C    0.042568
     4  C   -0.022991
     5  C   -0.002965
     6  C    0.187534
     7  O   -0.322139
     8  C    0.323159
     9  O   -0.177165
    10  O   -0.186053
    11  C    0.142649
    12  C    0.122609
    13  C    0.115647
    14  O   -0.280799
    15  N    0.057863
    16  N   -0.009111
 Electronic spatial extent (au):  <R**2>=           3155.5926
 Charge=             -0.0000 electrons
 Dipole moment (field-independent basis, Debye):
    X=              2.3456    Y=             -1.5172    Z=              2.0681  Tot=              3.4758
 Quadrupole moment (field-independent basis, Debye-Ang):
   XX=           -113.4096   YY=            -92.9298   ZZ=            -93.2751
   XY=              3.8983   XZ=              0.9544   YZ=              2.7968
 Traceless Quadrupole moment (field-independent basis, Debye-Ang):
   XX=            -13.5381   YY=              6.9417   ZZ=              6.5964
   XY=              3.8983   XZ=              0.9544   YZ=              2.7968
 Octapole moment (field-independent basis, Debye-Ang**2):
  XXX=             38.5711  YYY=             15.1001  ZZZ=              6.1023  XYY=              4.2295
  XXY=              2.1190  XXZ=             10.0751  XZZ=            -11.3557  YZZ=              2.7443
  YYZ=            -10.3822  XYZ=             -7.7639
 Hexadecapole moment (field-independent basis, Debye-Ang**3):
 XXXX=          -2452.5291 YYYY=           -947.0759 ZZZZ=           -852.2556 XXXY=             37.2047
 XXXZ=            -13.2917 YYYX=             41.6720 YYYZ=            -16.5319 ZZZX=             -0.8273
 ZZZY=             16.3275 XXYY=           -531.3989 XXZZ=           -498.9902 YYZZ=           -300.4128
 XXYZ=             27.8422 YYXZ=            -10.3039 ZZXY=              7.7172
 N-N= 1.353141362741D+03 E-N=-4.581795816477D+03  KE= 7.978012554843D+02
 PrsmSu:  requested number of processors reduced to:  12 ShMem   1 Linda.
 Calling FoFJK, ICntrl=      2127 FMM=F ISym2X=0 I1Cent= 0 IOpClX= 0 NMat=1 NMatS=1 NMatT=0.
 ***** Axes restored to original set *****
 -------------------------------------------------------------------
 Center     Atomic                   Forces (Hartrees/Bohr)
 Number     Number              X              Y              Z
 -------------------------------------------------------------------
      1        6          -0.009385480   -0.001958634   -0.002710266
      2        6          -0.004296240    0.013829872    0.002905334
      3        6           0.003375167   -0.004721757   -0.015705465
      4        6           0.004828339   -0.003647506   -0.003522101
      5        6          -0.001220329   -0.005029293   -0.003407989
      6        6           0.026689594    0.017114142   -0.001759428
      7        8          -0.012231748   -0.002212700   -0.003443551
      8        6          -0.008609259    0.000547672    0.004960811
      9        8           0.002419217    0.013297097    0.021559889
     10        8           0.009620451    0.001090221   -0.012305225
     11        6          -0.000327024   -0.011742999    0.006150834
     12        6          -0.015388028    0.012701591    0.006499390
     13        6           0.023948662   -0.011716414    0.003729283
     14        8          -0.014230482   -0.012209814   -0.009962194
     15        7           0.025841560    0.021561222    0.026203371
     16        7          -0.008688843   -0.012991278   -0.003276364
     17        1          -0.002392145   -0.005209613   -0.002849652
     18        1           0.002844509   -0.002458553    0.000646809
     19        1          -0.003506263   -0.004948106   -0.004519934
     20        1           0.002915651    0.000543264   -0.001314498
     21        1           0.002242941   -0.010329541    0.001611495
     22        1          -0.001256668    0.001980636    0.005896112
     23        1          -0.009465048    0.000203309    0.000198596
     24        1           0.001360962    0.004663856    0.004442950
     25        1          -0.005264324    0.006998322   -0.006149855
     26        1           0.000603224    0.005775892    0.014832852
     27        1          -0.009650664   -0.006256045    0.003170282
     28        1          -0.002740687    0.003559203    0.005036742
     29        1           0.001856158    0.005352541   -0.021036624
     30        1           0.012974062   -0.005319786   -0.004931498
     31        1          -0.003955868    0.006431381    0.003740801
     32        1          -0.004155361   -0.008366173   -0.007669154
     33        1          -0.001428942   -0.004387135   -0.007444487
     34        1          -0.000642395   -0.003464247   -0.000010541
     35        1          -0.010923689   -0.005731954    0.000966770
     36        1           0.008238990    0.007051328   -0.000533494
 -------------------------------------------------------------------
 Cartesian Forces:  Max     0.026689594 RMS     0.009107083

 GradGradGradGradGradGradGradGradGradGradGradGradGradGradGradGradGradGrad
 Berny optimization.
 FormGI is forming the generalized inverse of G from B-inverse, IUseBI=4.
 Internal  Forces:  Max     0.040230526 RMS     0.009358633
 Search for a local minimum.
 Step number   1 out of a maximum of  216
 All quantities printed in internal units (Hartrees-Bohrs-Radians)
 Mixed Optimization -- RFO/linear search
 Second derivative matrix not updated -- first step.
 ITU=  0
     Eigenvalues ---    0.00230   0.00230   0.00332   0.00569   0.00598
     Eigenvalues ---    0.00635   0.00766   0.00921   0.00993   0.01143
     Eigenvalues ---    0.02272   0.02523   0.02708   0.02764   0.02998
     Eigenvalues ---    0.03134   0.03322   0.03916   0.04192   0.04273
     Eigenvalues ---    0.04338   0.04359   0.04623   0.04645   0.04844
     Eigenvalues ---    0.05176   0.05254   0.05303   0.05776   0.05931
     Eigenvalues ---    0.06039   0.06224   0.06991   0.07177   0.07485
     Eigenvalues ---    0.08674   0.08971   0.09145   0.09322   0.09892
     Eigenvalues ---    0.09959   0.11186   0.11220   0.11586   0.11740
     Eigenvalues ---    0.12642   0.13098   0.13208   0.13295   0.13502
     Eigenvalues ---    0.14932   0.15217   0.16000   0.16000   0.16000
     Eigenvalues ---    0.16011   0.18393   0.20254   0.21007   0.21158
     Eigenvalues ---    0.21746   0.21955   0.22307   0.22968   0.23728
     Eigenvalues ---    0.23735   0.23899   0.26228   0.27233   0.28389
     Eigenvalues ---    0.29458   0.30466   0.31084   0.33230   0.33233
     Eigenvalues ---    0.33650   0.33758   0.33765   0.33823   0.33832
     Eigenvalues ---    0.33870   0.33939   0.34021   0.34282   0.34331
     Eigenvalues ---    0.34657   0.34750   0.34805   0.35291   0.35328
     Eigenvalues ---    0.35610   0.36338   0.36367   0.37246   0.37386
     Eigenvalues ---    0.38089   0.38210   0.38509   0.41138   0.42758
     Eigenvalues ---    0.44567   0.47549
 RFO step:  Lambda=-9.44467710D-02 EMin= 2.30000000D-03
 Linear search not attempted -- first point.
 Maximum step size (   0.300) exceeded in Quadratic search.
    -- Step size scaled by   0.753
 Iteration  1 RMS(Cart)=  0.23821462 RMS(Int)=  0.00996480
 Iteration  2 RMS(Cart)=  0.02883564 RMS(Int)=  0.00072281
 Iteration  3 RMS(Cart)=  0.00041091 RMS(Int)=  0.00070664
 Iteration  4 RMS(Cart)=  0.00000050 RMS(Int)=  0.00070664
 Variable       Old X    -DE/DX   Delta X   Delta X   Delta X     New X
                                 (Linear)    (Quad)   (Total)
    R1        2.85853   0.01538   0.00000   0.02859   0.02859   2.88712
    R2        2.07614  -0.00171   0.00000  -0.00298  -0.00298   2.07316
    R3        2.05993  -0.00121   0.00000  -0.00207  -0.00207   2.05786
    R4        2.05205   0.00709   0.00000   0.01194   0.01194   2.06400
    R5        2.93847   0.00383   0.00000   0.00787   0.00787   2.94634
    R6        2.03556   0.00047   0.00000   0.00077   0.00077   2.03632
    R7        2.07295   0.00016   0.00000   0.00028   0.00028   2.07323
[...]
 360,-0.00002299,0.00040518,-0.00016767,-0.00046592,0.00033659,0.001550
 82,0.00082893,-0.00051530,0.00040332,0.00004608,-0.00006078,-0.0000516
 4,0.00014477,0.00008607,0.00009221,0.00013142,0.00007662,-0.00002352,0
 .00002466,-0.00000464,-0.00007018,0.00003836,-0.00000538,-0.00004996,-
 0.00009716,-0.00003040,-0.00007158,-0.00009754,-0.00003516,0.01760703,
 0.01174649,0.06348955,0.00003323,0.00003338,-0.00001137,0.00048607,-0.
 00000278,-0.00040938,-0.00116887,0.00207246,-0.00109065,-0.00049319,-0
 .00002155,-0.00026924,0.00009449,-0.00002841,-0.00001302,-0.00006006,-
 0.00000211,0.00001017,0.00001388,-0.00000113,-0.00003747,0.00007377,-0
 .00003401,0.00009784,0.00004982,-0.00026412,-0.00009801,0.00005613,0.0
 0029901,-0.00029266,0.00733228,-0.00309778,-0.01297757,-0.10104898,0.0
 3890004,0.09574140,0.00202668,-0.00211641,-0.00067319,0.00005654,0.000
 43209,-0.00045462,0.00245480,-0.00086551,0.00088043,-0.02903037,0.0039
 0852,0.03006863,-0.00001633,-0.00001328,-0.00000376,-0.00001641,-0.000
 00959,0.00001134,0.00000356,-0.00000829,0.00000925,-0.00001369,0.00001
 684,0.00000534,-0.00011933,-0.00000561,-0.00023425,-0.00012233,-0.0001
 2164,0.00009305,0.00025335,-0.00003786,0.00000426,0.00035588,-0.000103
 10,-0.00002267,0.00001373,0.00003899,-0.00000018,-0.00005203,0.0000763
 8,0.00003100,0.00001353,-0.00001664,0.00000999,0.00001206,-0.00000855,
 0.00000666,-0.00000115,-0.00003154,-0.00000634,0.00002041,0.00001877,0
 .00000044,0.00073790,-0.00056625,0.00046689,0.12327433,0.00000680,-0.0
 0011890,0.00001144,-0.00055608,0.00017310,0.00039423,0.00179851,-0.001
 45807,0.00135115,-0.00003528,0.00012084,0.00005860,0.00002081,0.000064
 96,0.00003698,-0.00011973,0.00005863,0.00014822,0.00022747,0.00003478,
 -0.00015746,-0.00029316,-0.00036004,0.00000865,-0.00031630,0.00040481,
 -0.00055373,0.00019185,-0.00055781,0.00173662,-0.00611630,0.00353731,0
 .01360627,0.04241352,-0.07039694,-0.07195195,0.01189004,-0.01505646,-0
 .02610128,-0.00079855,-0.00222653,0.00009024,0.00054576,0.00130339,-0.
 00049262,-0.00791581,0.00260269,0.00972025,0.00001698,0.00004614,-0.00
 000357,0.00001954,0.00001173,-0.00002070,-0.00001566,0.00004414,0.0000
 2337,0.00001995,-0.00001787,0.00000885,0.00012744,-0.00002384,0.000212
 90,-0.00007265,0.00008097,-0.00006686,-0.00001294,-0.00006821,0.000083
 14,0.00006940,-0.00005173,-0.00004278,0.00001358,-0.00002388,-0.000026
 38,-0.00004251,0.00000891,-0.00000714,0.00000064,-0.00000318,-0.000009
 46,0.00002246,-0.00001131,-0.00000725,0.00001893,0.00009436,-0.0000086
 4,0.00003962,-0.00000775,0.00000871,-0.00012609,0.00019778,-0.00062757
 ,-0.03891433,0.08378501,0.00005793,0.00010997,-0.00007120,0.00120713,-
 0.00006959,-0.00066854,-0.00365492,0.00221865,-0.00111487,-0.00027810,
 -0.00020427,-0.00025395,0.00006213,-0.00009268,-0.00006620,0.00018564,
 -0.00012466,-0.00023300,-0.00042445,-0.00004121,0.00024274,0.00052337,
 0.00054309,0.00011728,-0.00027527,-0.00058476,0.00107011,0.00084779,-0
 .00116581,0.00119478,0.01172192,-0.00619088,-0.02609486,0.10115488,-0.
 06978709,-0.23118569,0.00056303,0.00115330,-0.00020628,-0.00026840,-0.
 00019058,-0.00056042,-0.00078940,-0.00028625,0.00069371,-0.00031521,0.
 00252242,0.00525353,-0.00005669,-0.00005119,-0.00000203,-0.00004604,-0
 .00002802,0.00004748,0.00000799,-0.00001338,0.00001888,-0.00006300,0.0
 0003829,-0.00009401,-0.00025707,0.00001850,-0.00043624,-0.00008823,0.0
 0003481,0.00044164,0.00014257,0.00012589,-0.00010374,0.00003193,0.0000
 5708,0.00000592,-0.00001135,0.00008041,0.00004204,0.00004697,0.0000299
 2,0.00001881,0.00000516,-0.00000636,0.00001992,-0.00003330,0.00002074,
 0.00001563,-0.00003047,-0.00016808,-0.00002825,-0.00006103,0.00000774,
 -0.00002907,-0.00019611,-0.00032088,0.00060375,-0.10793631,0.07190571,
 0.24782865,0.00005383,0.00005194,-0.00000208,0.00002533,0.00023346,0.0
 0005847,0.00025635,-0.00052231,-0.00022737,-0.00020090,0.00010105,0.00
 008169,0.00005934,-0.00001482,-0.00007011,0.00000494,-0.00000863,0.000
 00279,-0.00000384,0.00001369,0.00001481,-0.00001026,-0.00002589,-0.000
 01411,0.00006947,0.00000634,0.00002887,-0.00016372,0.00005855,-0.00001
 287,0.00073257,0.00052974,-0.00030225,-0.00088735,-0.00016782,0.000956
 09,-0.05737762,-0.01970280,-0.04363426,-0.02088543,-0.01479321,-0.0316
 9504,-0.00511084,0.00516585,-0.00413317,0.00095463,0.00033478,0.000885
 15,-0.00003956,-0.00005590,0.00001623,-0.00009981,0.00007346,0.0000009
 5,0.00006843,-0.00004384,-0.00010333,-0.00008455,-0.00000998,-0.000081
 50,-0.00002148,-0.00002973,-0.00000107,-0.00018015,0.00005729,0.000470
 52,0.00003766,-0.00001332,0.00000970,0.00005839,-0.00004127,-0.0000155
 4,0.00001391,0.00003887,0.00001076,-0.00001286,0.00003891,0.00000958,0
 .00000512,-0.00000981,0.00000861,0.00000068,0.00000383,-0.00000153,0.0
 0000079,0.00000378,-0.00000109,0.00000003,-0.00000027,0.00000442,0.000
 04752,0.00008585,0.00029364,0.00029055,0.00065940,-0.00007125,0.075443
 77,-0.00001030,-0.00013301,-0.00011033,-0.00009374,0.00019349,0.000270
 66,0.00070389,-0.00102026,0.00003731,-0.00034837,0.00021712,0.00004618
 ,0.00012448,-0.00002398,-0.00013272,0.00003007,-0.00004478,-0.00002708
 ,-0.00005086,0.00004824,0.00006154,0.00004748,-0.00004126,-0.00004835,
 0.00009617,-0.00003811,0.00028430,-0.00001193,0.00091879,0.00016943,-0
 .00090692,0.00034596,-0.00144367,-0.00267096,-0.00848072,-0.02619630,-
 0.02592842,-0.08221036,-0.08624267,0.00762059,0.00819360,0.01081970,0.
 00027539,-0.00506347,0.00110422,-0.00243064,0.00030655,-0.00150958,-0.
 00002938,0.00006981,-0.00005447,0.00008339,-0.00003492,0.00003237,-0.0
 0001069,0.00015180,0.00013320,-0.00009984,0.00002395,-0.00013836,0.000
 03650,0.00000058,-0.00000091,-0.00074368,0.00030937,0.00089187,0.00005
 481,0.00001911,-0.00001062,0.00008146,-0.00001552,0.00000633,0.0000224
 7,0.00007653,0.00002234,-0.00001139,0.00003624,0.00000938,0.00000579,-
 0.00001572,0.00001878,-0.00000132,0.00001574,-0.00000069,-0.00000483,-
 0.00000484,-0.00000271,-0.00000891,0.00001222,0.00001045,0.00059439,0.
 00009018,0.00011092,-0.00057355,-0.00453389,0.00018891,0.02338055,0.08
 516761,-0.00005234,0.00002759,-0.00006846,-0.00012556,-0.00009969,0.00
 008816,0.00054053,0.00051571,0.00002399,-0.00013062,0.00015660,0.00008
 660,0.00006958,0.00000351,-0.00005286,0.00000950,-0.00001803,-0.000033
 54,-0.00003969,0.00000437,0.00003735,0.00009055,0.00003830,0.00002260,
 0.00003932,-0.00022962,0.00005019,0.00025766,0.00025767,0.00035791,-0.
 00114643,0.00011681,-0.00076852,0.00221365,-0.00013728,0.00257578,-0.0
 5033372,-0.08464941,-0.26334006,-0.01048139,-0.00230460,-0.00214796,0.
 00104818,0.00363194,0.00083303,0.00018820,0.00034161,-0.00012648,0.000
 03401,0.00002864,-0.00006520,0.00008720,-0.00008919,-0.00001963,-0.000
 11636,0.00005765,0.00002071,-0.00002177,0.00003141,-0.00001219,0.00002
 835,0.00001237,0.00002179,-0.00001477,0.00092018,-0.00039586,0.0000116
 8,-0.00001484,0.00002188,0.00006193,-0.00001048,-0.00003133,0.00000840
 ,0.00002997,0.00001443,-0.00000050,0.00002880,0.00001035,0.00000665,-0
 .00000565,0.00000972,-0.00000129,0.00000019,0.00000352,-0.00000435,-0.
 00003701,0.00000266,-0.00000689,0.00000232,0.00000036,0.00051607,-0.00
 004662,0.00021945,-0.00044761,0.00015518,0.00078157,0.06155279,0.09070
 867,0.28195315,0.00001033,-0.00004615,0.00000243,-0.00001172,0.0000143
 1,0.00002144,0.00016568,0.00001228,-0.00012583,-0.00019098,0.00008572,
 -0.00000619,0.00006489,-0.00000257,-0.00002641,-0.00003147,0.00001914,
 -0.00000375,0.00002704,-0.00002472,-0.00001027,0.00000444,0.00005186,0
 .00005047,-0.00000755,-0.00012050,0.00002266,0.00005319,-0.00000702,0.
 00021813,-0.00002411,-0.00058885,-0.00043442,0.00237311,-0.00045768,0.
 00188582,-0.13549202,-0.05548328,0.10286749,-0.04118022,-0.00331883,0.
 01556625,0.00152497,0.00312487,0.00184530,0.00004796,-0.00083198,0.000
 00983,-0.00000125,0.00001982,-0.00000012,0.00000358,-0.00000862,-0.000
 00501,-0.00001475,0.00002627,0.00001787,-0.00000675,0.00000928,-0.0000
 2172,0.00001218,0.00000589,0.00000216,-0.00018191,0.00009385,0.0000636
 9,0.00003311,-0.00001303,0.00002302,0.00010320,-0.00003209,0.00000202,
 0.00000415,0.00001663,0.00000943,-0.00001060,0.00004088,0.00000690,0.0
 0000936,-0.00000593,0.00000453,0.00000422,-0.00000999,0.00000377,0.000
 00317,-0.00002787,0.00000263,-0.00000307,-0.00000526,-0.00001032,-0.00
 004388,-0.00019361,0.00009145,0.00099597,0.00010323,-0.00042357,0.0070
 2338,0.00140760,-0.00398951,0.16445858,0.00000903,-0.00007946,-0.00000
 299,-0.00007860,0.00003756,0.00005864,0.00023804,-0.00007194,-0.000221
 74,0.00003238,0.00005628,-0.00000212,0.00001906,0.00001367,-0.00002909
 ,0.00002516,0.00000796,-0.00005913,-0.00010603,-0.00005773,0.00003340,
 0.00024042,0.00026742,0.00014828,0.00029081,-0.00070666,0.00002372,0.0
 0036392,0.00010864,0.00069350,-0.00183796,-0.00206628,-0.00151328,-0.0
 1723625,-0.01283075,0.02126561,-0.05664965,-0.07796286,0.06163591,0.01
 388831,0.00680916,-0.00715152,0.00021120,-0.00096129,0.00069603,-0.001
 66001,-0.00403739,-0.00101725,0.00000123,0.00004046,-0.00000135,-0.000
 00060,-0.00001585,0.00000554,-0.00000807,0.00005724,0.00004256,-0.0000
 0539,0.00001486,-0.00004057,0.00002628,0.00001135,0.00004413,-0.000095
 33,0.00006267,0.00007639,-0.00000031,-0.00001466,0.00002832,0.00002258
 ,-0.00000938,-0.00001676,-0.00001066,0.00000069,0.00001658,0.00001491,
 0.00003386,0.00000992,0.00000451,0.00000167,0.00000023,-0.00000681,-0.
 00001015,0.00000692,-0.00001249,-0.00010680,0.00000163,-0.00001267,-0.
 00002396,-0.00002405,0.00041467,0.00002756,0.00005544,-0.00025947,0.00
 113741,0.00014017,0.00604781,0.00520580,-0.00934002,0.05617886,0.08510
 045,0.00009254,-0.00016182,-0.00012071,-0.00004721,0.00016370,0.000160
 17,0.00047937,-0.00054523,-0.00005636,-0.00017875,0.00016274,0.0000497
 0,0.00006547,-0.00000881,-0.00007859,0.00005213,-0.00005426,-0.0000277
 1,-0.00008376,0.00004102,0.00005414,0.00007220,-0.00002940,-0.00004267
 ,0.00006467,-0.00000551,0.00007043,-0.00018451,0.00021665,0.00006482,0
 .00004189,-0.00038945,0.00003899,-0.00073355,-0.00404434,0.00111439,0.
 10710655,0.06370617,-0.18098332,-0.00450803,-0.00597955,0.01357259,-0.
 00012214,0.00056400,0.00137816,-0.00023237,-0.00044434,-0.00027793,-0.
 00005333,0.00004603,-0.00001340,-0.00003296,0.00003307,0.00002387,0.00
 000471,0.00009343,0.00006168,-0.00006584,0.00001733,-0.00009456,-0.000
 00240,-0.00001866,0.00000562,-0.00036181,0.00048896,0.00019193,0.00001
 051,0.00002377,-0.00002136,-0.00002147,0.00000484,-0.00000979,0.000013
 18,0.00004769,0.00001477,0.00000147,-0.00000588,0.00000779,-0.00000349
 ,-0.00000685,0.00000898,-0.00000499,0.00001750,-0.00000198,-0.00000872
 ,0.00000605,-0.00000706,-0.00000050,0.00000875,0.00001599,-0.00007631,
 0.00009985,-0.00012797,-0.00056328,0.00007483,0.00144566,0.01700097,0.
 01097296,-0.02006540,-0.11741294,-0.06509727,0.18396844,0.00000263,0.0
 0000755,0.00000536,0.00004241,0.00001276,-0.00003323,-0.00007978,0.000
 02695,-0.00009008,-0.00004565,-0.00001625,-0.00000512,0.00001213,0.000
 00790,-0.00000701,-0.00001107,0.00000476,0.00001270,0.00002883,0.00000
 816,-0.00000767,-0.00005242,-0.00004867,-0.00002498,0.00000140,0.00012
 993,0.00000232,-0.00007544,-0.00003958,-0.00011287,-0.00004659,-0.0000
 0684,0.00052867,-0.00043558,0.00139076,-0.00194671,-0.00070231,-0.0007
 4003,-0.00126126,-0.00881733,0.00195975,0.00306227,-0.40320415,0.05075
 334,0.02279392,-0.00668564,-0.00225013,0.00829858,-0.00000065,-0.00000
 221,-0.00000074,0.00000244,0.00000244,0.00000106,0.00000037,-0.0000053
 6,-0.00000548,-0.00000215,-0.00000065,0.00000425,-0.00000828,-0.000001
 09,-0.00001654,-0.00000303,0.00001846,-0.00003563,0.00000960,-0.000004
 92,0.00000760,0.00002810,-0.00001001,-0.00000274,0.00000013,-0.0000031
 1,0.00000408,-0.00000918,0.00002533,0.00000045,0.00000183,-0.00000304,
 0.00000135,0.00000308,-0.00000239,0.00000074,0.00000281,0.00001657,0.0
 0000201,0.00000201,0.00000335,0.00000311,-0.00002134,0.00003779,-0.000
 06709,0.00018626,-0.00018443,0.00021109,-0.00011573,-0.00017047,0.0001
 3659,0.00000239,-0.00012789,0.00008060,0.41821320,0.00001704,-0.000030
 49,-0.00001236,-0.00007446,0.00000786,0.00004454,0.00011051,-0.0000463
 4,-0.00017633,0.00012231,0.00001174,0.00001257,-0.00002367,0.00001090,
 0.00000611,0.00006583,-0.00003657,-0.00005149,-0.00014259,-0.00003134,
 0.00004450,0.00016239,0.00017711,0.00002908,-0.00001679,-0.00022112,0.
 00000822,-0.00006577,0.00018345,0.00004653,0.00189571,0.00105993,-0.00
 042019,0.00055766,-0.00674500,0.00498890,-0.00251421,-0.00571309,-0.00
 295193,-0.03491052,0.00030801,-0.00209362,0.04776027,-0.05836177,-0.00
 011875,0.03843982,-0.00496080,-0.00269589,-0.00001050,0.00001393,0.000
 00896,-0.00002341,-0.00001783,0.00000677,-0.00001489,0.00002026,0.0000
 1707,0.00000467,0.00000440,-0.00002260,0.00001140,0.00000826,0.0000445
 0,-0.00004765,0.00005004,0.00006023,-0.00005762,0.00000379,-0.00001614
 ,-0.00008470,0.00005860,0.00001199,-0.00002086,-0.00002205,0.00002882,
 0.00005877,-0.00001631,-0.00001379,-0.00001764,0.00001383,-0.00001135,
 -0.00001129,0.00000472,0.00000396,-0.00001243,-0.00003611,-0.00000829,
 -0.00000917,-0.00001340,-0.00000782,0.00031510,-0.00033000,0.00049356,
 -0.00033913,-0.00006008,-0.00004739,-0.00137139,0.00021477,-0.00025804
 ,-0.00051223,0.00014864,0.00002139,-0.04878484,0.07329428,-0.00000343,
 -0.00002411,0.00002340,-0.00004167,-0.00002301,-0.00000313,0.00007371,
 -0.00009157,0.00018666,-0.00024144,0.00013680,0.00006739,0.00008159,0.
 00004521,0.00004787,-0.00009419,0.00006975,0.00001980,0.00009035,-0.00
 008601,-0.00007091,-0.00006344,0.00010217,0.00004348,0.00002431,-0.000
 02750,-0.00002950,0.00007249,-0.00013191,-0.00001535,-0.00155635,0.000
 11923,0.00038325,-0.00295743,0.00224485,-0.00280748,-0.00308544,-0.002
 46545,-0.00328874,-0.02543089,-0.00105918,-0.00259309,0.09591853,-0.01
 189920,-0.03361434,-0.02809149,0.01014508,-0.00571948,0.00002355,0.000
 01259,0.00001109,0.00001259,0.00000375,-0.00001382,-0.00000767,0.00000
 425,-0.00000482,0.00002647,-0.00000814,0.00002749,0.00001801,0.0000039
 6,0.00001086,-0.00002012,-0.00009267,-0.00003547,0.00008883,-0.0000797
 6,0.00007110,0.00026825,-0.00006178,-0.00004059,-0.00000921,-0.0000047
 2,0.00000582,-0.00001262,0.00003867,0.00001158,0.00000976,-0.00000092,
 -0.00000640,0.00001070,-0.00003697,0.00001396,0.00001132,-0.00001364,0
 .00000792,0.00000531,-0.00000802,-0.00002144,-0.00003224,0.00021583,-0
 .00022880,-0.00051264,0.00026263,0.00027696,-0.00120775,0.00021730,-0.
 00006121,-0.00040505,-0.00015910,-0.00020831,-0.03046178,0.00346913,0.
 04622972,-0.00000991,-0.00002019,0.00008158,-0.00009775,-0.00035621,-0
 .00027176,-0.00078954,0.00096022,-0.00097243,0.00114557,-0.00032624,0.
 00053955,-0.00021348,0.00034753,0.00000863,0.00001177,0.00002872,0.000
 00766,-0.00002066,-0.00005403,-0.00003192,0.00000924,0.00012085,0.0000
 4168,0.00001193,-0.00006740,-0.00010762,0.00006959,-0.00020209,-0.0003
 7114,0.00079992,0.00089494,0.00102286,-0.02386329,0.00638040,0.0362819
 6,-0.00178188,0.00103606,0.00042090,0.00067557,0.00147051,0.00257199,0
 .00977894,0.00070706,-0.01913427,-0.12441081,0.02158493,0.12624654,0.0
 0004540,0.00002977,0.00001972,-0.00000190,0.00000993,-0.00001136,-0.00
 001194,-0.00001200,-0.00002636,0.00014254,-0.00000327,0.00019088,0.000
 02611,0.00000101,0.00005905,-0.00031108,-0.00063566,-0.00061880,0.0000
 4393,-0.00027885,0.00025115,0.00052749,0.00025188,0.00031393,-0.000061
 45,-0.00016285,0.00009092,0.00015761,0.00001973,-0.00002313,-0.0000241
 5,0.00002688,-0.00002974,-0.00000314,-0.00001198,0.00000542,-0.0000028
 9,-0.00000303,-0.00000337,0.00000124,-0.00002170,-0.00001577,0.0005018
 7,-0.00034540,0.00006956,-0.00669250,-0.00268607,-0.00148935,0.0000474
 2,-0.00045882,0.00001193,0.00027539,0.00007902,-0.00038789,0.00177671,
 -0.00045570,-0.00250094,0.14224815,-0.00007287,0.00010487,-0.00008683,
 -0.00011791,-0.00048654,0.00006779,0.00036992,0.00115658,0.00025550,0.
 00196402,-0.00083069,0.00044688,-0.00028310,-0.00035888,0.00031939,0.0
 0053871,-0.00031682,-0.00038103,-0.00074191,0.00006630,0.00036689,0.00
 077838,0.00047156,-0.00006939,-0.00007401,-0.00049347,0.00016232,-0.00
 021585,-0.00031534,0.00018928,0.00100756,0.00110414,-0.00091473,-0.007
 86236,-0.00418631,0.00161776,-0.00377170,0.00116355,0.00026364,0.00357
 904,0.00802525,0.00206888,-0.01032004,-0.01476046,0.04136837,0.0454605
 5,-0.03780849,-0.06280721,-0.00004199,-0.00005868,0.00001682,-0.000067
 64,-0.00001569,0.00002242,0.00001250,-0.00005947,-0.00002386,0.0000753
 7,0.00000745,0.00007382,-0.00002228,0.00002440,0.00013568,-0.00014997,
 -0.00050776,-0.00035249,-0.00065023,0.00028309,-0.00034336,-0.00128902
 ,0.00107884,0.00129504,-0.00004674,-0.00005233,-0.00002972,0.00021789,
 -0.00057361,-0.00027620,-0.00011299,0.00009698,-0.00004724,-0.00010234
 ,0.00012014,-0.00003053,-0.00007991,-0.00009487,-0.00003444,-0.0000688
 8,-0.00001640,0.00002303,-0.00011212,-0.00017871,0.00018865,0.00164616
 ,0.00126954,0.00017747,-0.00007416,0.00004336,0.00017099,0.00047972,-0
 .00018821,-0.00001934,-0.00200388,0.00104777,-0.00081752,-0.02784793,0
 .04523888,0.00000387,-0.00004641,0.00006602,0.00002678,0.00008711,-0.0
 0010212,-0.00032464,0.00010510,-0.00017886,-0.00232194,0.00229944,-0.0
 0293849,0.00051366,-0.00013940,0.00035192,-0.00017338,-0.00010855,-0.0
 0008651,0.00010694,-0.00005917,-0.00009872,-0.00008290,-0.00005364,0.0
 0000532,-0.00005313,0.00009889,-0.00003434,0.00011520,-0.00012106,-0.0
 0017760,-0.00025620,0.00040876,0.00119737,-0.00355924,-0.00404818,0.00
 386471,-0.00139778,0.00074237,-0.00002180,0.00089098,-0.00119458,0.006
 44333,0.00111910,0.00693975,-0.03484550,0.14848216,-0.02143485,-0.3123
 3383,0.00003390,0.00002846,-0.00000132,0.00002449,0.00000830,-0.000015
 00,-0.00000680,0.00000414,-0.00000364,0.00002436,-0.00002763,0.0000306
 7,0.00003676,0.00001597,-0.00001739,-0.00008246,-0.00022044,-0.0001286
 0,0.00013873,-0.00003599,-0.00031931,0.00108730,0.00067795,-0.00152159
 ,-0.00004085,-0.00003325,-0.00002107,0.00008774,-0.00023554,-0.0000911
 0,-0.00003492,0.00005258,-0.00002348,0.00002335,-0.00005141,0.00002309
 ,0.00000885,0.00002250,-0.00000132,0.00001126,-0.00000144,-0.00000354,
 -0.00002689,0.00008342,-0.00008241,-0.00138248,0.00017943,0.00102929,0
 .00016826,-0.00019834,0.00005353,0.00015781,-0.00030668,-0.00011102,-0
 .00107783,-0.00044087,0.00132448,-0.14224006,0.01700329,0.33876883\\-0
 .00000259,-0.00000113,0.00000096,0.00000578,0.00000298,0.00000155,-0.0
 0000474,-0.00000114,-0.00000173,0.00000324,-0.00000162,-0.00000151,-0.
 00000048,0.00000199,-0.00000147,0.00000209,-0.00000230,-0.00000251,0.0
 0000997,0.00000675,0.00000090,-0.00001135,-0.00002273,-0.00000191,-0.0
 0000141,0.00001758,-0.00000026,-0.00000163,0.00000323,0.00000220,0.000
 00309,-0.00000536,-0.00000089,0.00000515,0.00000706,0.00000025,-0.0000
 0014,-0.00000539,-0.00000108,-0.00000352,0.00000109,0.00000485,0.00000
 023,0.00000010,-0.00000469,-0.00000515,-0.00000495,0.00000199,0.,0.000
 00069,0.00000012,-0.00000069,0.00000089,0.00000001,-0.00000098,0.00000
 028,0.00000111,-0.00000098,-0.00000006,-0.00000065,-0.00000077,0.00000
 029,-0.00000033,-0.00000021,-0.00000119,0.00000027,-0.00000081,-0.0000
 0188,0.00000024,-0.00000176,0.00000017,0.00000256,0.00000137,-0.000000
 38,0.00000042,0.00000133,-0.00000202,-0.00000161,0.00000199,-0.0000003
 3,0.00000118,0.00000055,-0.00000028,-0.00000167,0.00000240,0.00000195,
 0.00000114,0.00000140,0.00000294,-0.00000043,0.00000004,0.00000151,-0.
 00000046,-0.00000077,-0.00000026,0.00000017,-0.00000104,0.00000130,0.0
 0000068,-0.00000061,0.00000039,0.00000102,0.00000014,-0.00000041,-0.00
 000016,0.00000082,0.00000026,-0.00000025\\\@


 Change starts when someone sees the next step.
                            -- William Drayton
 Job cpu time:       0 days 15 hours 43 minutes  7.5 seconds.
 Elapsed time:       0 days  3 hours 55 minutes 54.0 seconds.
 File lengths (MBytes):  RWF=    801 Int=      0 D2E=      0 Chk=     25 Scr=      1
 Normal termination of Gaussian 16 at Sun May 28 16:06:14 2023.
### All Done ###
