### Starting Gaussian ###
 Entering Gaussian System, Link 0=g16
 Initial command:
 /cluster/software/gaussian/gaussian-16-A.03/avx2/g16/l1.exe "/local/scratch/cz9n3/Gau-19455.inp" -scrdir="/local/scratch/cz9n3/"
 Entering Link 1 = /cluster/software/gaussian/gaussian-16-A.03/avx2/g16/l1.exe PID=     19456.
  
 Copyright (c) 1988,1990,1992,1993,1995,1998,2003,2009,2016,
            Gaussian, Inc.  All Rights Reserved.
  
 This is part of the Gaussian(R) 16 program.  It is based on
 the Gaussian(R) 09 system (copyright 2009, Gaussian, Inc.),
 the Gaussian(R) 03 system (copyright 2003, Gaussian, Inc.),
 the Gaussian(R) 98 system (copyright 1998, Gaussian, Inc.),
 the Gaussian(R) 94 system (copyright 1995, Gaussian, Inc.),
 the Gaussian 92(TM) system (copyright 1992, Gaussian, Inc.),
 the Gaussian 90(TM) system (copyright 1990, Gaussian, Inc.),
 the Gaussian 88(TM) system (copyright 1988, Gaussian, Inc.),
 the Gaussian 86(TM) system (copyright 1986, Carnegie Mellon
 University), and the Gaussian 82(TM) system (copyright 1983,
 Carnegie Mellon University). Gaussian is a federally registered
 trademark of Gaussian, Inc.
  
 This software contains proprietary and confidential information,
 including trade secrets, belonging to Gaussian, Inc.
  
 This software is provided under written license and may be
 used, copied, transmitted, or stored only in accord with that
 written license.
  
 The following legend is applicable only to US Government
 contracts under FAR:
  
                    RESTRICTED RIGHTS LEGEND
  
 Use, reproduction and disclosure by the US Government is
 subject to restrictions as set forth in subparagraphs (a)
 and (c) of the Commercial Computer Software - Restricted
 Rights clause in FAR 52.227-19.
  
 Gaussian, Inc.
 340 Quinnipiac St., Bldg. 40, Wallingford CT 06492
  
  
 ---------------------------------------------------------------
 Warning -- This program may not be used in any manner that
 competes with the business of Gaussian, Inc. or will provide
 assistance to any competitor of Gaussian, Inc.  The licensee
 of this program is prohibited from giving any competitor of
 Gaussian, Inc. access to this program.  By using this program,
 the user acknowledges that Gaussian, Inc. is engaged in the
 business of creating and licensing software in the field of
 computational chemistry and represents and warrants to the
 licensee that it is not a competitor of Gaussian, Inc. and that
 it will not use this program in any manner prohibited above.
 ---------------------------------------------------------------
  

 Cite this work as:
 Gaussian 16, Revision A.03,
 M. J. Frisch, G. W. Trucks, H. B. Schlegel, G. E. Scuseria, 
 M. A. Robb, J. R. Cheeseman, G. Scalmani, V. Barone, 
 G. A. Petersson, H. Nakatsuji, X. Li, M. Caricato, A. V. Marenich, 
 J. Bloino, B. G. Janesko, R. Gomperts, B. Mennucci, H. P. Hratchian, 
 J. V. Ortiz, A. F. Izmaylov, J. L. Sonnenberg, D. Williams-Young, 
 F. Ding, F. Lipparini, F. Egidi, J. Goings, B. Peng, A. Petrone, 
 T. Henderson, D. Ranasinghe, V. G. Zakrzewski, J. Gao, N. Rega, 
 G. Zheng, W. Liang, M. Hada, M. Ehara, K. Toyota, R. Fukuda, 
 J. Hasegawa, M. Ishida, T. Nakajima, Y. Honda, O. Kitao, H. Nakai, 
 T. Vreven, K. Throssell, J. A. Montgomery, Jr., J. E. Peralta, 
 F. Ogliaro, M. J. Bearpark, J. J. Heyd, E. N. Brothers, K. N. Kudin, 
 V. N. Staroverov, T. A. Keith, R. Kobayashi, J. Normand, 
 K. Raghavachari, A. P. Rendell, J. C. Burant, S. S. Iyengar, 
 J. Tomasi, M. Cossi, J. M. Millam, M. Klene, C. Adamo, R. Cammi, 
 J. W. Ochterski, R. L. Martin, K. Morokuma, O. Farkas, 
 J. B. Foresman, and D. J. Fox, Gaussian, Inc., Wallingford CT, 2016.
 
 ******************************************
 Gaussian 16:  ES64L-G16RevA.03 25-Dec-2016
                24-May-2023 
 ******************************************
 %chk=CCC1qCCNCOCrCCCqCrCC1.chk
 %NProcShared=20
 Will use up to   20 processors via shared memory.
 -----------------------------
 # opt freq b3lyp/6-31g(2df,p)
 -----------------------------
 1/18=20,19=15,26=3,38=1/1,3;
 2/9=110,12=2,17=6,18=5,40=1/2;
 3/5=1,6=6,7=104,11=2,25=1,30=1,71=1,74=-5/1,2,3;
 4//1;
 5/5=2,38=5/2;
 6/7=2,8=2,9=2,10=2,28=1/1;
 7//1,2,3,16;
 1/18=20,19=15,26=3/3(2);
 2/9=110/2;
 99//99;
 2/9=110/2;
 3/5=1,6=6,7=104,11=2,25=1,30=1,71=1,74=-5/1,2,3;
 4/5=5,16=3,69=1/1;
 5/5=2,38=5/2;
 7//1,2,3,16;
 1/18=20,19=15,26=3/3(-5);
 2/9=110/2;
 6/7=2,8=2,9=2,10=2,19=2,28=1/1;
 99/9=1/99;
 -------------------
 Title Card Required
 -------------------
 Symbolic Z-matrix:
 Charge =  0 Multiplicity = 1
 C                     1.11071   0.21165  -0.34469 
 C                     2.5963    0.02787  -0.01956 
 C                     3.05552  -1.26065   0.75327 
 C                     2.57125  -1.25716   2.24449 
 C                     1.06051  -1.29517   2.3854 
 N                     0.55428  -1.35243   3.75025 
 C                    -0.89652  -1.22853   3.64707 
 O                    -1.4495   -1.1425    4.94331 
 C                    -2.86722  -1.11      4.86727 
 C                     4.61882  -1.26413   0.7689 
 C                     5.22001  -2.56447   1.31889 
 C                     4.69867  -3.8059    0.58285 
 C                     5.26327  -3.87998  -0.83924 
 C                     3.16594  -3.82297   0.56455 
 C                     2.58287  -2.52977  -0.00831 
 H                     0.98197   0.98707  -1.1045 
 H                     0.5299    0.58928   0.49588 
 H                     0.6446   -0.70473  -0.71382 
 H                     2.94276   0.91534   0.52511 
 H                     3.11595   0.04535  -0.98674 
 H                     2.96251  -0.36116   2.74327 
 H                     2.98415  -2.10911   2.79406 
 H                     0.63868  -2.12155   1.81126 
 H                     0.68683  -0.3584    2.00689 
 H                     0.88494  -0.55254   4.2745 
 H                    -1.30707  -2.09504   3.11711 
 H                    -1.17039  -0.31929   3.09307 
 H                    -3.26013  -1.0917    5.88522 
 H                    -3.2455   -2.00173   4.35717 
 H                    -3.20021  -0.21005   4.34018 
 H                     4.99525  -0.41743   1.35638 
 H                     4.99939  -1.10939  -0.24921 
 H                     4.99278  -2.65608   2.38767 
 H                     6.31396  -2.52097   1.25728 
 H                     5.04435  -4.69746   1.12178 
 H                     4.97707  -3.01686  -1.44751 
 H                     4.9001   -4.77622  -1.35167 
 H                     6.35649  -3.91665  -0.81829 
 H                     2.78891  -3.97864   1.58281 
 H                     2.80452  -4.67715  -0.02027 
 H                     1.49323  -2.61847  -0.01571 
 H                     2.86392  -2.4456   -1.06584 
 

 GradGradGradGradGradGradGradGradGradGradGradGradGradGradGradGradGradGrad
 Berny optimization.
 Initialization pass.
                           ----------------------------
                           !    Initial Parameters    !
                           ! (Angstroms and Degrees)  !
 --------------------------                            --------------------------
 ! Name  Definition              Value          Derivative Info.                !
 --------------------------------------------------------------------------------
 ! R1    R(1,2)                  1.5318         estimate D2E/DX2                !
 ! R2    R(1,16)                 1.0932         estimate D2E/DX2                !
 ! R3    R(1,17)                 1.0893         estimate D2E/DX2                !
 ! R4    R(1,18)                 1.0924         estimate D2E/DX2                !
 ! R5    R(2,3)                  1.5711         estimate D2E/DX2                !
 ! R6    R(2,19)                 1.0974         estimate D2E/DX2                !
 ! R7    R(2,20)                 1.0981         estimate D2E/DX2                !
 ! R8    R(3,4)                  1.5679         estimate D2E/DX2                !
 ! R9    R(3,10)                 1.5634         estimate D2E/DX2                !
 ! R10   R(3,15)                 1.5537         estimate D2E/DX2                !
 ! R11   R(4,5)                  1.5178         estimate D2E/DX2                !
 ! R12   R(4,21)                 1.0976         estimate D2E/DX2                !
 ! R13   R(4,22)                 1.0947         estimate D2E/DX2                !
 ! R14   R(5,6)                  1.4568         estimate D2E/DX2                !
 ! R15   R(5,23)                 1.0911         estimate D2E/DX2                !
 ! R16   R(5,24)                 1.0772         estimate D2E/DX2                !
 ! R17   R(6,7)                  1.4597         estimate D2E/DX2                !
 ! R18   R(6,25)                 1.0119         estimate D2E/DX2                !
 ! R19   R(7,8)                  1.4119         estimate D2E/DX2                !
 ! R20   R(7,26)                 1.0956         estimate D2E/DX2                !
 ! R21   R(7,27)                 1.0994         estimate D2E/DX2                !
 ! R22   R(8,9)                  1.4201         estimate D2E/DX2                !
 ! R23   R(9,28)                 1.0913         estimate D2E/DX2                !
 ! R24   R(9,29)                 1.0948         estimate D2E/DX2                !
 ! R25   R(9,30)                 1.0948         estimate D2E/DX2                !
 ! R26   R(10,11)                1.5345         estimate D2E/DX2                !
 ! R27   R(10,31)                1.0971         estimate D2E/DX2                !
 ! R28   R(10,32)                1.0979         estimate D2E/DX2                !
 ! R29   R(11,12)                1.5345         estimate D2E/DX2                !
 ! R30   R(11,33)                1.0965         estimate D2E/DX2                !
 ! R31   R(11,34)                1.0965         estimate D2E/DX2                !
 ! R32   R(12,13)                1.5319         estimate D2E/DX2                !
 ! R33   R(12,14)                1.5329         estimate D2E/DX2                !
 ! R34   R(12,35)                1.0976         estimate D2E/DX2                !
 ! R35   R(13,36)                1.094          estimate D2E/DX2                !
 ! R36   R(13,37)                1.0944         estimate D2E/DX2                !
 ! R37   R(13,38)                1.094          estimate D2E/DX2                !
 ! R38   R(14,15)                1.5299         estimate D2E/DX2                !
 ! R39   R(14,39)                1.0969         estimate D2E/DX2                !
 ! R40   R(14,40)                1.0965         estimate D2E/DX2                !
 ! R41   R(15,41)                1.0933         estimate D2E/DX2                !
 ! R42   R(15,42)                1.0975         estimate D2E/DX2                !
 ! A1    A(2,1,16)             110.293          estimate D2E/DX2                !
 ! A2    A(2,1,17)             113.2612         estimate D2E/DX2                !
 ! A3    A(2,1,18)             112.6374         estimate D2E/DX2                !
 ! A4    A(16,1,17)            103.1581         estimate D2E/DX2                !
 ! A5    A(16,1,18)            108.054          estimate D2E/DX2                !
 ! A6    A(17,1,18)            108.9096         estimate D2E/DX2                !
 ! A7    A(1,2,3)              119.0955         estimate D2E/DX2                !
 ! A8    A(1,2,19)             108.3308         estimate D2E/DX2                !
 ! A9    A(1,2,20)             105.6699         estimate D2E/DX2                !
 ! A10   A(3,2,19)             109.0756         estimate D2E/DX2                !
 ! A11   A(3,2,20)             107.9383         estimate D2E/DX2                !
 ! A12   A(19,2,20)            105.9549         estimate D2E/DX2                !
 ! A13   A(2,3,4)              112.07           estimate D2E/DX2                !
 ! A14   A(2,3,10)             107.3985         estimate D2E/DX2                !
 ! A15   A(2,3,15)             109.8692         estimate D2E/DX2                !
 ! A16   A(4,3,10)             107.4185         estimate D2E/DX2                !
 ! A17   A(4,3,15)             111.9659         estimate D2E/DX2                !
 ! A18   A(10,3,15)            107.8948         estimate D2E/DX2                !
 ! A19   A(3,4,5)              113.3085         estimate D2E/DX2                !
 ! A20   A(3,4,21)             108.9007         estimate D2E/DX2                !
 ! A21   A(3,4,22)             111.0544         estimate D2E/DX2                !
 ! A22   A(5,4,21)             109.4557         estimate D2E/DX2                !
 ! A23   A(5,4,22)             108.0194         estimate D2E/DX2                !
 ! A24   A(21,4,22)            105.8266         estimate D2E/DX2                !
 ! A25   A(4,5,6)              115.7114         estimate D2E/DX2                !
 ! A26   A(4,5,23)             110.7895         estimate D2E/DX2                !
 ! A27   A(4,5,24)             106.9107         estimate D2E/DX2                !
 ! A28   A(6,5,23)             109.2003         estimate D2E/DX2                !
 ! A29   A(6,5,24)             104.0534         estimate D2E/DX2                !
 ! A30   A(23,5,24)            109.8539         estimate D2E/DX2                !
 ! A31   A(5,6,7)              106.0099         estimate D2E/DX2                !
 ! A32   A(5,6,25)             109.9223         estimate D2E/DX2                !
 ! A33   A(7,6,25)             107.1149         estimate D2E/DX2                !
 ! A34   A(6,7,8)              109.2409         estimate D2E/DX2                !
 ! A35   A(6,7,26)             109.8468         estimate D2E/DX2                !
 ! A36   A(6,7,27)             110.6958         estimate D2E/DX2                !
 ! A37   A(8,7,26)             110.2145         estimate D2E/DX2                !
 ! A38   A(8,7,27)             108.3416         estimate D2E/DX2                !
 ! A39   A(26,7,27)            108.4828         estimate D2E/DX2                !
 ! A40   A(7,8,9)              110.0739         estimate D2E/DX2                !
 ! A41   A(8,9,28)             108.0511         estimate D2E/DX2                !
 ! A42   A(8,9,29)             110.5645         estimate D2E/DX2                !
 ! A43   A(8,9,30)             110.3789         estimate D2E/DX2                !
 ! A44   A(28,9,29)            108.898          estimate D2E/DX2                !
 ! A45   A(28,9,30)            109.0136         estimate D2E/DX2                !
 ! A46   A(29,9,30)            109.8857         estimate D2E/DX2                !
 ! A47   A(3,10,11)            113.4046         estimate D2E/DX2                !
 ! A48   A(3,10,31)            110.2866         estimate D2E/DX2                !
 ! A49   A(3,10,32)            109.6966         estimate D2E/DX2                !
 ! A50   A(11,10,31)           109.1243         estimate D2E/DX2                !
 ! A51   A(11,10,32)           108.4211         estimate D2E/DX2                !
 ! A52   A(31,10,32)           105.5961         estimate D2E/DX2                !
 ! A53   A(10,11,12)           112.3662         estimate D2E/DX2                !
 ! A54   A(10,11,33)           109.8132         estimate D2E/DX2                !
 ! A55   A(10,11,34)           109.6998         estimate D2E/DX2                !
 ! A56   A(12,11,33)           109.2406         estimate D2E/DX2                !
 ! A57   A(12,11,34)           110.1259         estimate D2E/DX2                !
 ! A58   A(33,11,34)           105.3563         estimate D2E/DX2                !
 ! A59   A(11,12,13)           111.0505         estimate D2E/DX2                !
 ! A60   A(11,12,14)           110.7588         estimate D2E/DX2                !
 ! A61   A(11,12,35)           108.3376         estimate D2E/DX2                !
 ! A62   A(13,12,14)           110.91           estimate D2E/DX2                !
 ! A63   A(13,12,35)           107.4847         estimate D2E/DX2                !
 ! A64   A(14,12,35)           108.162          estimate D2E/DX2                !
 ! A65   A(12,13,36)           112.4316         estimate D2E/DX2                !
 ! A66   A(12,13,37)           110.6078         estimate D2E/DX2                !
 ! A67   A(12,13,38)           110.6183         estimate D2E/DX2                !
 ! A68   A(36,13,37)           107.3943         estimate D2E/DX2                !
 ! A69   A(36,13,38)           107.3675         estimate D2E/DX2                !
 ! A70   A(37,13,38)           108.2469         estimate D2E/DX2                !
 ! A71   A(12,14,15)           112.0942         estimate D2E/DX2                !
 ! A72   A(12,14,39)           109.522          estimate D2E/DX2                !
 ! A73   A(12,14,40)           110.1584         estimate D2E/DX2                !
 ! A74   A(15,14,39)           109.6674         estimate D2E/DX2                !
 ! A75   A(15,14,40)           109.4609         estimate D2E/DX2                !
 ! A76   A(39,14,40)           105.7395         estimate D2E/DX2                !
 ! A77   A(3,15,14)            113.0155         estimate D2E/DX2                !
 ! A78   A(3,15,41)            111.8874         estimate D2E/DX2                !
 ! A79   A(3,15,42)            109.3766         estimate D2E/DX2                !
 ! A80   A(14,15,41)           108.2891         estimate D2E/DX2                !
 ! A81   A(14,15,42)           109.1505         estimate D2E/DX2                !
 ! A82   A(41,15,42)           104.7699         estimate D2E/DX2                !
 ! D1    D(16,1,2,3)          -164.392          estimate D2E/DX2                !
 ! D2    D(16,1,2,19)           70.2714         estimate D2E/DX2                !
 ! D3    D(16,1,2,20)          -42.9132         estimate D2E/DX2                !
 ! D4    D(17,1,2,3)            80.5756         estimate D2E/DX2                !
 ! D5    D(17,1,2,19)          -44.761          estimate D2E/DX2                !
 ! D6    D(17,1,2,20)         -157.9455         estimate D2E/DX2                !
 ! D7    D(18,1,2,3)           -43.581          estimate D2E/DX2                !
 ! D8    D(18,1,2,19)         -168.9176         estimate D2E/DX2                !
 ! D9    D(18,1,2,20)           77.8978         estimate D2E/DX2                !
 ! D10   D(1,2,3,4)            -69.7219         estimate D2E/DX2                !
 ! D11   D(1,2,3,10)           172.5321         estimate D2E/DX2                !
 ! D12   D(1,2,3,15)            55.4269         estimate D2E/DX2                !
 ! D13   D(19,2,3,4)            55.2566         estimate D2E/DX2                !
 ! D14   D(19,2,3,10)          -62.4893         estimate D2E/DX2                !
 ! D15   D(19,2,3,15)         -179.5945         estimate D2E/DX2                !
 ! D16   D(20,2,3,4)           169.9436         estimate D2E/DX2                !
 ! D17   D(20,2,3,10)           52.1977         estimate D2E/DX2                !
 ! D18   D(20,2,3,15)          -64.9075         estimate D2E/DX2                !
 ! D19   D(2,3,4,5)             63.9771         estimate D2E/DX2                !
 ! D20   D(2,3,4,21)           -58.0866         estimate D2E/DX2                !
 ! D21   D(2,3,4,22)          -174.2348         estimate D2E/DX2                !
 ! D22   D(10,3,4,5)          -178.2888         estimate D2E/DX2                !
 ! D23   D(10,3,4,21)           59.6475         estimate D2E/DX2                !
 ! D24   D(10,3,4,22)          -56.5007         estimate D2E/DX2                !
 ! D25   D(15,3,4,5)           -60.0085         estimate D2E/DX2                !
 ! D26   D(15,3,4,21)          177.9278         estimate D2E/DX2                !
 ! D27   D(15,3,4,22)           61.7796         estimate D2E/DX2                !
 ! D28   D(2,3,10,11)         -171.8983         estimate D2E/DX2                !
 ! D29   D(2,3,10,31)           65.3776         estimate D2E/DX2                !
 ! D30   D(2,3,10,32)          -50.5207         estimate D2E/DX2                !
 ! D31   D(4,3,10,11)           67.3721         estimate D2E/DX2                !
 ! D32   D(4,3,10,31)          -55.3521         estimate D2E/DX2                !
 ! D33   D(4,3,10,32)         -171.2504         estimate D2E/DX2                !
 ! D34   D(15,3,10,11)         -53.5094         estimate D2E/DX2                !
 ! D35   D(15,3,10,31)        -176.2335         estimate D2E/DX2                !
 ! D36   D(15,3,10,32)          67.8682         estimate D2E/DX2                !
 ! D37   D(2,3,15,14)          171.4356         estimate D2E/DX2                !
 ! D38   D(2,3,15,41)          -66.0104         estimate D2E/DX2                !
 ! D39   D(2,3,15,42)           49.6178         estimate D2E/DX2                !
 ! D40   D(4,3,15,14)          -63.3558         estimate D2E/DX2                !
 ! D41   D(4,3,15,41)           59.1982         estimate D2E/DX2                !
 ! D42   D(4,3,15,42)          174.8264         estimate D2E/DX2                !
 ! D43   D(10,3,15,14)          54.641          estimate D2E/DX2                !
 ! D44   D(10,3,15,41)         177.195          estimate D2E/DX2                !
 ! D45   D(10,3,15,42)         -67.1768         estimate D2E/DX2                !
 ! D46   D(3,4,5,6)            177.4333         estimate D2E/DX2                !
 ! D47   D(3,4,5,23)            52.4568         estimate D2E/DX2                !
 ! D48   D(3,4,5,24)           -67.2208         estimate D2E/DX2                !
 ! D49   D(21,4,5,6)           -60.8131         estimate D2E/DX2                !
 ! D50   D(21,4,5,23)          174.2105         estimate D2E/DX2                !
 ! D51   D(21,4,5,24)           54.5329         estimate D2E/DX2                !
 ! D52   D(22,4,5,6)            53.9629         estimate D2E/DX2                !
 ! D53   D(22,4,5,23)          -71.0136         estimate D2E/DX2                !
 ! D54   D(22,4,5,24)          169.3088         estimate D2E/DX2                !
 ! D55   D(4,5,6,7)            173.7719         estimate D2E/DX2                !
 ! D56   D(4,5,6,25)            58.3268         estimate D2E/DX2                !
 ! D57   D(23,5,6,7)           -60.4374         estimate D2E/DX2                !
 ! D58   D(23,5,6,25)         -175.8825         estimate D2E/DX2                !
 ! D59   D(24,5,6,7)            56.8139         estimate D2E/DX2                !
 ! D60   D(24,5,6,25)          -58.6312         estimate D2E/DX2                !
 ! D61   D(5,6,7,8)           -174.2376         estimate D2E/DX2                !
 ! D62   D(5,6,7,26)            64.7602         estimate D2E/DX2                !
 ! D63   D(5,6,7,27)           -55.0183         estimate D2E/DX2                !
 ! D64   D(25,6,7,8)           -56.8973         estimate D2E/DX2                !
 ! D65   D(25,6,7,26)         -177.8996         estimate D2E/DX2                !
 ! D66   D(25,6,7,27)           62.322          estimate D2E/DX2                !
 ! D67   D(6,7,8,9)           -176.1777         estimate D2E/DX2                !
 ! D68   D(26,7,8,9)           -55.3994         estimate D2E/DX2                !
 ! D69   D(27,7,8,9)            63.1542         estimate D2E/DX2                !
 ! D70   D(7,8,9,28)           177.343          estimate D2E/DX2                !
 ! D71   D(7,8,9,29)            58.2581         estimate D2E/DX2                !
 ! D72   D(7,8,9,30)           -63.5394         estimate D2E/DX2                !
 ! D73   D(3,10,11,12)          54.4135         estimate D2E/DX2                !
 ! D74   D(3,10,11,33)         -67.3905         estimate D2E/DX2                !
 ! D75   D(3,10,11,34)         177.27           estimate D2E/DX2                !
 ! D76   D(31,10,11,12)        177.7776         estimate D2E/DX2                !
 ! D77   D(31,10,11,33)         55.9736         estimate D2E/DX2                !
 ! D78   D(31,10,11,34)        -59.3659         estimate D2E/DX2                !
 ! D79   D(32,10,11,12)        -67.6766         estimate D2E/DX2                !
 ! D80   D(32,10,11,33)        170.5193         estimate D2E/DX2                !
 ! D81   D(32,10,11,34)         55.1798         estimate D2E/DX2                !
 ! D82   D(10,11,12,13)         70.7859         estimate D2E/DX2                !
 ! D83   D(10,11,12,14)        -52.915          estimate D2E/DX2                !
 ! D84   D(10,11,12,35)       -171.3922         estimate D2E/DX2                !
 ! D85   D(33,11,12,13)       -167.0847         estimate D2E/DX2                !
 ! D86   D(33,11,12,14)         69.2145         estimate D2E/DX2                !
 ! D87   D(33,11,12,35)        -49.2628         estimate D2E/DX2                !
 ! D88   D(34,11,12,13)        -51.8305         estimate D2E/DX2                !
 ! D89   D(34,11,12,14)       -175.5313         estimate D2E/DX2                !
 ! D90   D(34,11,12,35)         65.9914         estimate D2E/DX2                !
 ! D91   D(11,12,13,36)        -60.8832         estimate D2E/DX2                !
 ! D92   D(11,12,13,37)        179.0666         estimate D2E/DX2                !
 ! D93   D(11,12,13,38)         59.1401         estimate D2E/DX2                !
 ! D94   D(14,12,13,36)         62.7312         estimate D2E/DX2                !
 ! D95   D(14,12,13,37)        -57.319          estimate D2E/DX2                !
 ! D96   D(14,12,13,38)       -177.2454         estimate D2E/DX2                !
 ! D97   D(35,12,13,36)       -179.2218         estimate D2E/DX2                !
 ! D98   D(35,12,13,37)         60.728          estimate D2E/DX2                !
 ! D99   D(35,12,13,38)        -59.1985         estimate D2E/DX2                !
 ! D100  D(11,12,14,15)         54.0971         estimate D2E/DX2                !
 ! D101  D(11,12,14,39)        -67.862          estimate D2E/DX2                !
 ! D102  D(11,12,14,40)        176.2414         estimate D2E/DX2                !
 ! D103  D(13,12,14,15)        -69.6844         estimate D2E/DX2                !
 ! D104  D(13,12,14,39)        168.3564         estimate D2E/DX2                !
 ! D105  D(13,12,14,40)         52.4599         estimate D2E/DX2                !
 ! D106  D(35,12,14,15)        172.6809         estimate D2E/DX2                !
 ! D107  D(35,12,14,39)         50.7218         estimate D2E/DX2                !
 ! D108  D(35,12,14,40)        -65.1747         estimate D2E/DX2                !
 ! D109  D(12,14,15,3)         -56.8641         estimate D2E/DX2                !
 ! D110  D(12,14,15,41)        178.5968         estimate D2E/DX2                !
 ! D111  D(12,14,15,42)         65.0808         estimate D2E/DX2                !
 ! D112  D(39,14,15,3)          65.012          estimate D2E/DX2                !
 ! D113  D(39,14,15,41)        -59.5271         estimate D2E/DX2                !
 ! D114  D(39,14,15,42)       -173.0432         estimate D2E/DX2                !
 ! D115  D(40,14,15,3)        -179.4052         estimate D2E/DX2                !
 ! D116  D(40,14,15,41)         56.0557         estimate D2E/DX2                !
 ! D117  D(40,14,15,42)        -57.4603         estimate D2E/DX2                !
 --------------------------------------------------------------------------------
 Trust Radius=3.00D-01 FncErr=1.00D-07 GrdErr=1.00D-06 EigMax=2.50D+02 EigMin=1.00D-04
 Number of steps in this run=    251 maximum allowed number of steps=    252.
 GradGradGradGradGradGradGradGradGradGradGradGradGradGradGradGradGradGrad

                          Input orientation:                          
 ---------------------------------------------------------------------
 Center     Atomic      Atomic             Coordinates (Angstroms)
 Number     Number       Type             X           Y           Z
 ---------------------------------------------------------------------
      1          6           0        1.110710    0.211650   -0.344690
      2          6           0        2.596300    0.027870   -0.019560
      3          6           0        3.055520   -1.260650    0.753270
      4          6           0        2.571250   -1.257160    2.244490
      5          6           0        1.060510   -1.295170    2.385400
      6          7           0        0.554280   -1.352430    3.750250
      7          6           0       -0.896520   -1.228530    3.647070
      8          8           0       -1.449500   -1.142500    4.943310
      9          6           0       -2.867220   -1.110000    4.867270
     10          6           0        4.618820   -1.264130    0.768900
     11          6           0        5.220010   -2.564470    1.318890
     12          6           0        4.698670   -3.805900    0.582850
     13          6           0        5.263270   -3.879980   -0.839240
     14          6           0        3.165940   -3.822970    0.564550
     15          6           0        2.582870   -2.529770   -0.008310
     16          1           0        0.981970    0.987070   -1.104500
     17          1           0        0.529900    0.589280    0.495880
     18          1           0        0.644600   -0.704730   -0.713820
     19          1           0        2.942760    0.915340    0.525110
     20          1           0        3.115950    0.045350   -0.986740
     21          1           0        2.962510   -0.361160    2.743270
     22          1           0        2.984150   -2.109110    2.794060
     23          1           0        0.638680   -2.121550    1.811260
     24          1           0        0.686830   -0.358400    2.006890
     25          1           0        0.884940   -0.552540    4.274500
     26          1           0       -1.307070   -2.095040    3.117110
     27          1           0       -1.170390   -0.319290    3.093070
     28          1           0       -3.260130   -1.091700    5.885220
     29          1           0       -3.245500   -2.001730    4.357170
     30          1           0       -3.200210   -0.210050    4.340180
     31          1           0        4.995250   -0.417430    1.356380
     32          1           0        4.999390   -1.109390   -0.249210
     33          1           0        4.992780   -2.656080    2.387670
     34          1           0        6.313960   -2.520970    1.257280
     35          1           0        5.044350   -4.697460    1.121780
     36          1           0        4.977070   -3.016860   -1.447510
     37          1           0        4.900100   -4.776220   -1.351670
     38          1           0        6.356490   -3.916650   -0.818290
     39          1           0        2.788910   -3.978640    1.582810
     40          1           0        2.804520   -4.677150   -0.020270
     41          1           0        1.493230   -2.618470   -0.015710
     42          1           0        2.863920   -2.445600   -1.065840
 ---------------------------------------------------------------------
                    Distance matrix (angstroms):
                    1          2          3          4          5
     1  C    0.000000
     2  C    1.531817   0.000000
     3  C    2.674971   1.571125   0.000000
     4  C    3.315785   2.603431   1.567886   0.000000
     5  C    3.118721   3.145301   2.577810   1.517773   0.000000
     6  N    4.418653   4.504058   3.904679   2.518841   1.456833
     7  C    4.694384   5.217519   4.898340   3.740786   2.329424
     8  O    6.029207   6.509097   6.153503   4.843883   3.586971
     9  C    6.688439   7.417945   7.212943   6.039668   4.649842
    10  C    3.965456   2.526167   1.563382   2.523877   3.908402
    11  C    5.230744   3.923714   2.589380   3.095436   4.477723
    12  C    5.465757   4.413689   3.034350   3.712552   4.773799
    13  C    5.850621   4.801656   3.777716   4.861640   5.894297
    14  C    4.618316   3.936324   2.571632   3.123978   3.760067
    15  C    3.129823   2.557700   1.553727   2.587427   3.093811
    16  H    1.093234   2.168691   3.578151   4.333372   4.170634
    17  H    1.089267   2.202469   3.141217   3.260995   2.720843
    18  H    1.092368   2.197233   2.876445   3.573340   3.182258
    19  H    2.146658   1.097407   2.190823   2.795361   3.448173
    20  H    2.112077   1.098080   2.176447   3.526199   4.170510
    21  H    3.645925   2.814016   2.185826   1.097580   2.148965
    22  H    4.329833   3.554373   2.211290   1.094684   2.128354
    23  H    3.211659   3.435722   2.775177   2.160945   1.091092
    24  H    2.456534   2.811010   2.827775   2.101252   1.077239
    25  H    4.687417   4.658817   4.196653   2.731496   2.037406
    26  H    4.811501   5.438910   5.031514   4.062619   2.603964
    27  H    4.159749   4.898667   4.921294   3.949628   2.535755
    28  H    7.721058   8.391522   8.139588   6.876575   5.563998
    29  H    6.781084   7.576389   7.296585   6.233168   4.788405
    30  H    6.380429   7.256960   7.287238   6.228813   4.811693
    31  H    4.287077   2.801154   2.199389   2.714712   4.160708
    32  H    4.108052   2.668509   2.192368   3.483711   4.742411
    33  H    5.546182   4.329141   2.893348   2.800229   4.161109
    34  H    6.091579   4.684859   3.529853   4.071815   5.511259
    35  H    6.459367   5.442825   3.987845   4.383191   5.389183
    36  H    5.156377   4.120375   3.408821   4.745037   5.744115
    37  H    6.344473   5.491930   4.493604   5.544339   6.389511
    38  H    6.692187   5.507834   4.518909   5.548112   6.721844
    39  H    4.908171   4.319353   2.854240   2.809208   3.291281
    40  H    5.184072   4.709625   3.511956   4.108514   4.501845
    41  H    2.874740   2.867036   2.208111   2.850227   2.775554
    42  H    3.264166   2.698958   2.179444   3.529353   4.060398
                    6          7          8          9         10
     6  N    0.000000
     7  C    1.459732   0.000000
     8  O    2.341495   1.411887   0.000000
     9  C    3.607377   2.320904   1.420130   0.000000
    10  C    5.041501   6.221262   7.366478   8.535876   0.000000
    11  C    5.399036   6.679603   7.722745   8.950406   1.534537
    12  C    5.764365   6.880293   7.994204   9.103122   2.549821
    13  C    7.044609   8.068468   9.273239  10.312222   3.137531
    14  C    4.803438   5.721593   6.903676   7.891301   2.949624
    15  C    4.430359   5.211639   6.534758   7.449195   2.520118
    16  H    5.405995   5.569114   6.857341   7.407834   4.669498
    17  H    3.789691   3.907570   5.166887   5.791116   4.497659
    18  H    4.511717   4.654759   6.048142   6.606488   4.278529
    19  H    4.609680   5.392855   6.561032   7.530752   2.760199
    20  H    5.563723   6.260582   7.577586   8.450005   2.656243
    21  H    2.792167   4.057252   4.991643   6.249631   2.730724
    22  H    2.718664   4.069723   5.021042   6.287683   2.736313
    23  H    2.087666   2.554314   3.889572   4.759597   4.202761
    24  H    2.011211   2.440146   3.715008   4.623629   4.220606
    25  H    1.011928   2.006049   2.498994   3.839380   5.170827
    26  H    2.101656   1.095559   2.064613   2.543115   6.428116
    27  H    2.115124   1.099381   2.044252   2.579194   6.309472
    28  H    4.379018   3.258019   2.041606   1.091300   9.395973
    29  H    3.902342   2.572895   2.075440   1.094751   8.675671
    30  H    3.968532   2.612411   2.073214   1.094813   8.660390
    31  H    5.130989   6.373233   7.411248   8.638544   1.097148
    32  H    5.984459   7.068023   8.279586   9.384131   1.097873
    33  H    4.822490   6.189333   7.094025   8.385605   2.167438
    34  H    6.383909   7.705357   8.703925   9.965788   2.166024
    35  H    6.185371   7.328336   8.331382   9.459995   3.477550
    36  H    7.024821   7.978216   9.255086  10.249168   2.848312
    37  H    7.525827   8.436487   9.651327  10.604133   4.112264
    38  H    7.817443   8.931494  10.090858  11.192842   3.546059
    39  H    4.072879   5.040503   6.107436   7.142029   3.373364
    40  H    5.507646   6.248205   7.431525   8.293446   3.945020
    41  H    4.082516   4.588986   5.952313   6.718073   3.495592
    42  H    5.451989   6.150910   7.510895   8.356530   2.800324
                   11         12         13         14         15
    11  C    0.000000
    12  C    1.534503   0.000000
    13  C    2.527838   1.531862   0.000000
    14  C    2.524293   1.532934   2.524415   0.000000
    15  C    2.952486   2.540588   3.114170   1.529871   0.000000
    16  H    6.037155   6.295520   6.487532   5.540030   4.016550
    17  H    5.711446   6.058367   6.645421   5.140172   3.767939
    18  H    5.340873   5.266317   5.606251   4.208896   2.754162
    19  H    4.233796   5.037525   5.499210   4.743727   3.504688
    20  H    4.068680   4.449802   4.476713   4.168081   2.805841
    21  H    3.461176   4.421301   5.523583   4.095404   3.523945
    22  H    2.717085   3.272327   4.640176   2.817992   2.862037
    23  H    4.628951   4.563940   5.612848   3.291832   2.693948
    24  H    5.088203   5.477956   6.437840   4.497730   3.517221
    25  H    5.619282   6.225525   7.509459   5.446320   5.013468
    26  H    6.786511   6.739320   7.874521   5.432230   5.008879
    27  H    7.001840   7.273481   8.338678   6.121515   5.347124
    28  H    9.743367   9.941052  11.208979   8.778596   8.422731
    29  H    9.011808   8.978327  10.145426   7.668601   7.301105
    30  H    9.250491   9.457271  10.579474   8.236288   7.598321
    31  H    2.159098   3.488271   4.108751   3.946020   3.484815
    32  H    2.150551   2.837943   2.844985   3.374502   2.813375
    33  H    1.096502   2.160084   3.461798   2.832445   3.400638
    34  H    1.096547   2.171420   2.710397   3.476364   3.939902
    35  H    2.149269   1.097643   2.135837   2.145615   3.469131
    36  H    2.813653   2.196008   1.094020   2.824605   2.835621
    37  H    3.482251   2.173583   1.094405   2.754614   3.495813
    38  H    2.772637   2.173436   1.094035   3.478596   4.101184
    39  H    2.824850   2.162624   3.463888   1.096922   2.161791
    40  H    3.477263   2.170400   2.711391   1.096477   2.158822
    41  H    3.958909   3.470318   4.059903   2.141374   1.093269
    42  H    3.354434   2.816896   2.804581   2.155582   1.097471
                   16         17         18         19         20
    16  H    0.000000
    17  H    1.709918   0.000000
    18  H    1.768795   1.775103   0.000000
    19  H    2.550583   2.434967   3.072640   0.000000
    20  H    2.335503   3.030128   2.597051   1.752874   0.000000
    21  H    4.532725   3.445532   4.176388   2.559312   3.755232
    22  H    5.365988   4.311181   4.444210   3.781157   4.353564
    23  H    4.275865   3.015072   2.895418   4.023141   4.319853
    24  H    3.402667   1.790496   2.742989   2.984511   3.876269
    25  H    5.595843   3.963304   4.996425   4.521860   5.745914
    26  H    5.706233   4.177425   4.518628   5.817380   6.402028
    27  H    4.894775   3.234483   4.234993   5.003672   5.928788
    28  H    8.436402   6.799633   7.677499   8.440073   9.443046
    29  H    7.525574   5.989703   6.521505   7.841463   8.556632
    30  H    6.969094   5.415837   6.369473   7.318288   8.266510
    31  H    4.912735   4.657604   4.826637   2.584570   3.039103
    32  H    4.611543   4.839109   4.398160   2.988115   2.329103
    33  H    6.446269   5.833398   5.686271   4.519597   4.712415
    34  H    6.805473   6.611258   6.271013   4.869218   4.674280
    35  H    7.333017   6.980088   6.218450   6.022974   5.537042
    36  H    5.666563   6.046349   4.965334   4.846839   3.612922
    37  H    6.973403   7.162449   5.923948   6.304549   5.154018
    38  H    7.281061   7.481952   6.553856   6.066828   5.121222
    39  H    5.928317   5.210608   4.537737   5.009335   4.785607
    40  H    6.048192   5.759826   4.574537   5.620720   4.830431
    41  H    3.800891   3.388125   2.206792   3.857647   3.266811
    42  H    3.914901   4.134866   2.842521   3.719308   2.504917
                   21         22         23         24         25
    21  H    0.000000
    22  H    1.748822   0.000000
    23  H    3.060686   2.543085   0.000000
    24  H    2.391858   2.993710   1.774623   0.000000
    25  H    2.587970   3.003547   2.930868   2.284512   0.000000
    26  H    4.623355   4.303386   2.343478   2.867777   2.919549
    27  H    4.147888   4.533549   2.857256   2.151879   2.382134
    28  H    7.009050   7.041408   5.732230   5.581905   4.479589
    29  H    6.620841   6.423658   4.645737   4.866988   4.378073
    30  H    6.368051   6.651558   4.978589   4.536004   4.100008
    31  H    2.461435   2.995535   4.700068   4.357652   5.042651
    32  H    3.696439   3.784458   4.928062   4.924647   6.140255
    33  H    3.084656   2.121067   4.424495   4.895460   4.985916
    34  H    4.255016   3.690387   5.716225   6.074802   6.515565
    35  H    5.076099   3.706818   5.149818   6.212797   6.664885
    36  H    5.354795   4.773537   5.499344   6.116081   7.453845
    37  H    6.325784   5.288801   5.933894   6.967690   8.100295
    38  H    6.070035   5.262029   6.544484   7.265523   8.197049
    39  H    3.803021   2.236155   2.850344   4.207698   4.754835
    40  H    5.127366   3.814125   3.817913   5.219731   6.256376
    41  H    3.855672   3.221350   2.077259   3.138329   4.800415
    42  H    4.343262   3.876404   3.651631   4.305554   6.001606
                   26         27         28         29         30
    26  H    0.000000
    27  H    1.781165   0.000000
    28  H    3.533209   3.572077   0.000000
    29  H    2.303034   2.955442   1.778568   0.000000
    30  H    2.938208   2.384824   1.779900   1.792333   0.000000
    31  H    6.755278   6.406313   9.440145   8.912054   8.724198
    32  H    7.216305   7.061252  10.288402   9.486476   9.439531
    33  H    6.366707   6.628940   9.098938   8.495667   8.770430
    34  H    7.856238   8.014550  10.729578  10.062912  10.264699
    35  H    7.148039   7.853493  10.230164   9.298189   9.923090
    36  H    7.821504   8.104629  11.194938  10.116099  10.404011
    37  H    8.104794   8.744758  11.512498  10.326638  10.902389
    38  H    8.805441   9.213775  12.058058  11.074769  11.475156
    39  H    4.762256   5.598909   7.964674   6.929600   7.594400
    40  H    5.780624   6.669613   9.192945   7.932376   8.661714
    41  H    4.234409   4.695276   7.729582   6.477500   6.841246
    42  H    5.917527   6.171984   9.362386   8.181141   8.425937
                   31         32         33         34         35
    31  H    0.000000
    32  H    1.748355   0.000000
    33  H    2.464776   3.057030   0.000000
    34  H    2.484693   2.447481   1.744005   0.000000
    35  H    4.286736   3.841338   2.402576   2.523367   0.000000
    36  H    3.823502   2.252746   3.852144   3.057625   3.070862
    37  H    5.132411   3.830264   4.299564   3.727167   2.478904
    38  H    4.338975   3.169587   3.704986   2.501544   2.468855
    39  H    4.195405   4.058955   2.693326   3.828413   2.411692
    40  H    4.983942   4.195090   3.830324   4.312472   2.514265
    41  H    4.357907   3.824265   4.245527   4.986928   4.269255
    42  H    3.810930   2.648126   4.062398   4.159969   3.822412
                   36         37         38         39         40
    36  H    0.000000
    37  H    1.763649   0.000000
    38  H    1.763048   1.773253   0.000000
    39  H    3.859521   3.701949   4.300785   0.000000
    40  H    3.084404   2.484733   3.719098   1.748721   0.000000
    41  H    3.787599   4.248228   5.097127   2.466600   2.440833
    42  H    2.222029   3.107976   3.797804   3.061239   2.465068
                   41         42
    41  H    0.000000
    42  H    1.735352   0.000000
 Stoichiometry    C13H27NO
 Framework group  C1[X(C13H27NO)]
 Deg. of freedom   120
 Full point group                 C1      NOp   1
 Largest Abelian subgroup         C1      NOp   1
 Largest concise Abelian subgroup C1      NOp   1
                         Standard orientation:                         
 ---------------------------------------------------------------------
 Center     Atomic      Atomic             Coordinates (Angstroms)
 Number     Number       Type             X           Y           Z
 ---------------------------------------------------------------------
      1          6           0       -0.090384    2.839624   -0.672964
      2          6           0        0.964865    2.272337    0.281551
      3          6           0        1.209762    0.720771    0.314737
      4          6           0        0.000633   -0.053137    0.945086
      5          6           0       -1.279131    0.073007    0.138905
      6          7           0       -2.422145   -0.674096    0.646565
      7          6           0       -3.557538   -0.287416   -0.185409
      8          8           0       -4.733856   -0.872567    0.331602
      9          6           0       -5.836249   -0.580196   -0.514576
     10          6           0        2.455293    0.463443    1.223910
     11          6           0        2.939324   -0.992506    1.196885
     12          6           0        3.216844   -1.489227   -0.228229
     13          6           0        4.468888   -0.824308   -0.808634
     14          6           0        2.002101   -1.251719   -1.132595
     15          6           0        1.546847    0.208713   -1.112931
     16          1           0        0.042663    3.918701   -0.787211
     17          1           0       -1.106712    2.754215   -0.290491
     18          1           0       -0.046479    2.386116   -1.665773
     19          1           0        0.735270    2.620978    1.296459
     20          1           0        1.909262    2.757885    0.002022
     21          1           0       -0.169806    0.321577    1.962544
     22          1           0        0.228938   -1.118241    1.053533
     23          1           0       -1.108061   -0.197752   -0.904122
     24          1           0       -1.589928    1.102419    0.203419
     25          1           0       -2.632668   -0.381811    1.592212
     26          1           0       -3.392323   -0.617524   -1.216903
     27          1           0       -3.685361    0.804509   -0.185158
     28          1           0       -6.715336   -1.085879   -0.111556
     29          1           0       -5.650178   -0.947037   -1.529113
     30          1           0       -6.024093    0.498147   -0.537101
     31          1           0        2.235731    0.750066    2.259947
     32          1           0        3.284054    1.110481    0.907961
     33          1           0        2.190849   -1.641781    1.666507
     34          1           0        3.840048   -1.094104    1.813965
     35          1           0        3.406386   -2.569579   -0.186607
     36          1           0        4.371825    0.263456   -0.873658
     37          1           0        4.669410   -1.195822   -1.818332
     38          1           0        5.342399   -1.037554   -0.185401
     39          1           0        1.176314   -1.900148   -0.815020
     40          1           0        2.233986   -1.548245   -2.162432
     41          1           0        0.698113    0.312706   -1.794162
     42          1           0        2.334025    0.837109   -1.548721
 ---------------------------------------------------------------------
 Rotational constants (GHZ):           1.0595547           0.2406119           0.2216460
 Standard basis: 6-31G(2df,p) (6D, 7F)
 There are   600 symmetry adapted cartesian basis functions of A   symmetry.
 There are   555 symmetry adapted basis functions of A   symmetry.
   555 basis functions,   849 primitive gaussians,   600 cartesian basis functions
    60 alpha electrons       60 beta electrons
       nuclear repulsion energy      1094.8776508727 Hartrees.
 NAtoms=   42 NActive=   42 NUniq=   42 SFac= 1.00D+00 NAtFMM=   60 NAOKFM=F Big=F
 Integral buffers will be    131072 words long.
 Raffenetti 2 integral format.
 Two-electron integral symmetry is turned on.
 One-electron integrals computed using PRISM.
 PrsmSu:  requested number of processors reduced to:  12 ShMem   1 Linda.
 NBasis=   555 RedAO= T EigKep=  3.11D-04  NBF=   555
 NBsUse=   555 1.00D-06 EigRej= -1.00D+00 NBFU=   555
 ExpMin= 1.61D-01 ExpMax= 5.48D+03 ExpMxC= 8.25D+02 IAcc=3 IRadAn=         5 AccDes= 0.00D+00
 Harris functional with IExCor=  402 and IRadAn=       5 diagonalized for initial guess.
 HarFok:  IExCor=  402 AccDes= 0.00D+00 IRadAn=         5 IDoV= 1 UseB2=F ITyADJ=14
 ICtDFT=  3500011 ScaDFX=  1.000000  1.000000  1.000000  1.000000
 FoFCou: FMM=F IPFlag=           0 FMFlag=      100000 FMFlg1=           0
         NFxFlg=           0 DoJE=T BraDBF=F KetDBF=T FulRan=T
         wScrn=  0.000000 ICntrl=       500 IOpCl=  0 I1Cent=   200000004 NGrid=           0
         NMat0=    1 NMatS0=      1 NMatT0=    0 NMatD0=    1 NMtDS0=    0 NMtDT0=    0
 Petite list used in FoFCou.
 Requested convergence on RMS density matrix=1.00D-08 within 128 cycles.
 Requested convergence on MAX density matrix=1.00D-06.
 Requested convergence on             energy=1.00D-06.
 No special actions if energy rises.
 Integral accuracy reduced to 1.0D-05 until final iterations.
 Initial convergence to 1.0D-05 achieved.  Increase integral accuracy.
 SCF Done:  E(RB3LYP) =  -641.640624015     A.U. after   12 cycles
            NFock= 12  Conv=0.56D-08     -V/T= 2.0082

 **********************************************************************

            Population analysis using the SCF density.

 **********************************************************************

 Orbital symmetries:
       Occupied  (A) (A) (A) (A) (A) (A) (A) (A) (A) (A) (A) (A)
                 (A) (A) (A) (A) (A) (A) (A) (A) (A) (A) (A) (A)
                 (A) (A) (A) (A) (A) (A) (A) (A) (A) (A) (A) (A)
                 (A) (A) (A) (A) (A) (A) (A) (A) (A) (A) (A) (A)
                 (A) (A) (A) (A) (A) (A) (A) (A) (A) (A) (A) (A)
       Virtual   (A) (A) (A) (A) (A) (A) (A) (A) (A) (A) (A) (A)
                 (A) (A) (A) (A) (A) (A) (A) (A) (A) (A) (A) (A)
                 (A) (A) (A) (A) (A) (A) (A) (A) (A) (A) (A) (A)
                 (A) (A) (A) (A) (A) (A) (A) (A) (A) (A) (A) (A)
                 (A) (A) (A) (A) (A) (A) (A) (A) (A) (A) (A) (A)
                 (A) (A) (A) (A) (A) (A) (A) (A) (A) (A) (A) (A)
                 (A) (A) (A) (A) (A) (A) (A) (A) (A) (A) (A) (A)
                 (A) (A) (A) (A) (A) (A) (A) (A) (A) (A) (A) (A)
                 (A) (A) (A) (A) (A) (A) (A) (A) (A) (A) (A) (A)
                 (A) (A) (A) (A) (A) (A) (A) (A) (A) (A) (A) (A)
                 (A) (A) (A) (A) (A) (A) (A) (A) (A) (A) (A) (A)
                 (A) (A) (A) (A) (A) (A) (A) (A) (A) (A) (A) (A)
                 (A) (A) (A) (A) (A) (A) (A) (A) (A) (A) (A) (A)
                 (A) (A) (A) (A) (A) (A) (A) (A) (A) (A) (A) (A)
                 (A) (A) (A) (A) (A) (A) (A) (A) (A) (A) (A) (A)
                 (A) (A) (A) (A) (A) (A) (A) (A) (A) (A) (A) (A)
                 (A) (A) (A) (A) (A) (A) (A) (A) (A) (A) (A) (A)
                 (A) (A) (A) (A) (A) (A) (A) (A) (A) (A) (A) (A)
                 (A) (A) (A) (A) (A) (A) (A) (A) (A) (A) (A) (A)
                 (A) (A) (A) (A) (A) (A) (A) (A) (A) (A) (A) (A)
                 (A) (A) (A) (A) (A) (A) (A) (A) (A) (A) (A) (A)
                 (A) (A) (A) (A) (A) (A) (A) (A) (A) (A) (A) (A)
                 (A) (A) (A) (A) (A) (A) (A) (A) (A) (A) (A) (A)
                 (A) (A) (A) (A) (A) (A) (A) (A) (A) (A) (A) (A)
                 (A) (A) (A) (A) (A) (A) (A) (A) (A) (A) (A) (A)
                 (A) (A) (A) (A) (A) (A) (A) (A) (A) (A) (A) (A)
                 (A) (A) (A) (A) (A) (A) (A) (A) (A) (A) (A) (A)
                 (A) (A) (A) (A) (A) (A) (A) (A) (A) (A) (A) (A)
                 (A) (A) (A) (A) (A) (A) (A) (A) (A) (A) (A) (A)
                 (A) (A) (A) (A) (A) (A) (A) (A) (A) (A) (A) (A)
                 (A) (A) (A) (A) (A) (A) (A) (A) (A) (A) (A) (A)
                 (A) (A) (A) (A) (A) (A) (A) (A) (A) (A) (A) (A)
                 (A) (A) (A) (A) (A) (A) (A) (A) (A) (A) (A) (A)
                 (A) (A) (A) (A) (A) (A) (A) (A) (A) (A) (A) (A)
                 (A) (A) (A) (A) (A) (A) (A) (A) (A) (A) (A) (A)
                 (A) (A) (A) (A) (A) (A) (A) (A) (A) (A) (A) (A)
                 (A) (A) (A) (A) (A) (A) (A) (A) (A) (A) (A) (A)
                 (A) (A) (A) (A) (A) (A) (A) (A) (A) (A) (A) (A)
                 (A) (A) (A) (A) (A) (A) (A) (A) (A) (A) (A) (A)
                 (A) (A) (A) (A) (A) (A) (A) (A) (A) (A) (A) (A)
                 (A) (A) (A) (A) (A) (A) (A) (A) (A) (A) (A) (A)
                 (A) (A) (A)
 The electronic state is 1-A.
 Alpha  occ. eigenvalues --  -19.13501 -14.30584 -10.24292 -10.22165 -10.19270
 Alpha  occ. eigenvalues --  -10.19200 -10.17719 -10.17682 -10.17336 -10.17195
 Alpha  occ. eigenvalues --  -10.17158 -10.17017 -10.16977 -10.16843 -10.16584
 Alpha  occ. eigenvalues --   -1.03075  -0.89849  -0.83959  -0.78954  -0.73928
 Alpha  occ. eigenvalues --   -0.73693  -0.72301  -0.68802  -0.66905  -0.62471
 Alpha  occ. eigenvalues --   -0.62364  -0.60276  -0.60031  -0.55212  -0.51106
 Alpha  occ. eigenvalues --   -0.50084  -0.48236  -0.47826  -0.46632  -0.46357
 Alpha  occ. eigenvalues --   -0.44532  -0.44165  -0.43012  -0.42317  -0.40943
 Alpha  occ. eigenvalues --   -0.40455  -0.39556  -0.39199  -0.38729  -0.37914
 Alpha  occ. eigenvalues --   -0.37090  -0.36721  -0.35898  -0.34548  -0.34171
 Alpha  occ. eigenvalues --   -0.33667  -0.32294  -0.32145  -0.31664  -0.31406
 Alpha  occ. eigenvalues --   -0.29483  -0.28398  -0.28286  -0.25301  -0.21947
 Alpha virt. eigenvalues --    0.06949   0.08060   0.09249   0.09593   0.10188
 Alpha virt. eigenvalues --    0.11390   0.13066   0.13492   0.14040   0.14269
 Alpha virt. eigenvalues --    0.14693   0.15019   0.15469   0.15964   0.16437
 Alpha virt. eigenvalues --    0.16805   0.17419   0.17805   0.17939   0.19316
 Alpha virt. eigenvalues --    0.19789   0.20016   0.20344   0.20924   0.21145
 Alpha virt. eigenvalues --    0.21652   0.21905   0.22796   0.23331   0.23927
 Alpha virt. eigenvalues --    0.24165   0.24784   0.25569   0.26536   0.26873
 Alpha virt. eigenvalues --    0.27970   0.29274   0.29470   0.30492   0.31268
 Alpha virt. eigenvalues --    0.32666   0.32709   0.39846   0.43958   0.45418
 Alpha virt. eigenvalues --    0.46034   0.46435   0.47245   0.48192   0.49312
 Alpha virt. eigenvalues --    0.50324   0.50812   0.52791   0.52904   0.53506
 Alpha virt. eigenvalues --    0.53668   0.54160   0.55787   0.56308   0.57190
 Alpha virt. eigenvalues --    0.58237   0.60171   0.60705   0.60915   0.61185
 Alpha virt. eigenvalues --    0.62595   0.62845   0.63620   0.64255   0.65103
 Alpha virt. eigenvalues --    0.65759   0.66849   0.68029   0.68640   0.68920
 Alpha virt. eigenvalues --    0.70595   0.70871   0.71296   0.72138   0.72855
 Alpha virt. eigenvalues --    0.73223   0.73607   0.74376   0.74513   0.74853
 Alpha virt. eigenvalues --    0.75335   0.75858   0.76775   0.77223   0.78404
 Alpha virt. eigenvalues --    0.78519   0.78962   0.79807   0.80332   0.80651
 Alpha virt. eigenvalues --    0.80802   0.81710   0.82862   0.83776   0.84054
 Alpha virt. eigenvalues --    0.85285   0.85524   0.86285   0.86834   0.87390
 Alpha virt. eigenvalues --    0.88162   0.88950   0.89388   0.90164   0.91969
 Alpha virt. eigenvalues --    0.92109   0.92948   0.94443   0.95251   0.96599
 Alpha virt. eigenvalues --    0.96822   0.99863   1.01609   1.02701   1.03360
 Alpha virt. eigenvalues --    1.05421   1.07112   1.10045   1.10976   1.13868
 Alpha virt. eigenvalues --    1.14697   1.17197   1.18653   1.18919   1.21447
 Alpha virt. eigenvalues --    1.22809   1.23722   1.25263   1.26630   1.28504
 Alpha virt. eigenvalues --    1.29131   1.29385   1.30904   1.32582   1.34022
 Alpha virt. eigenvalues --    1.35995   1.36245   1.37442   1.38314   1.38356
 Alpha virt. eigenvalues --    1.40037   1.40372   1.41588   1.42000   1.42574
 Alpha virt. eigenvalues --    1.44154   1.44962   1.45683   1.46347   1.46747
 Alpha virt. eigenvalues --    1.48094   1.49177   1.51461   1.51840   1.52894
 Alpha virt. eigenvalues --    1.54249   1.54611   1.57099   1.57564   1.58979
 Alpha virt. eigenvalues --    1.61128   1.61444   1.63156   1.63673   1.64888
 Alpha virt. eigenvalues --    1.65811   1.67622   1.68316   1.69635   1.72189
 Alpha virt. eigenvalues --    1.72939   1.74091   1.75078   1.75775   1.76663
 Alpha virt. eigenvalues --    1.78124   1.78628   1.81538   1.82239   1.84119
 Alpha virt. eigenvalues --    1.84638   1.85959   1.86304   1.88076   1.89088
 Alpha virt. eigenvalues --    1.89799   1.91506   1.92004   1.93696   1.93795
 Alpha virt. eigenvalues --    1.95370   1.96579   1.98399   1.99403   2.01178
 Alpha virt. eigenvalues --    2.01829   2.03488   2.04944   2.06224   2.06959
 Alpha virt. eigenvalues --    2.08335   2.17340   2.18064   2.19513   2.22973
 Alpha virt. eigenvalues --    2.23744   2.24523   2.26579   2.28045   2.29606
 Alpha virt. eigenvalues --    2.29867   2.30948   2.31138   2.31761   2.32341
 Alpha virt. eigenvalues --    2.36016   2.36189   2.37149   2.39138   2.39679
 Alpha virt. eigenvalues --    2.42726   2.43054   2.43826   2.44379   2.45286
 Alpha virt. eigenvalues --    2.46461   2.48164   2.51236   2.52279   2.54270
 Alpha virt. eigenvalues --    2.56102   2.56851   2.59116   2.61000   2.63301
 Alpha virt. eigenvalues --    2.65291   2.69540   2.70424   2.71267   2.73080
 Alpha virt. eigenvalues --    2.74855   2.75704   2.75863   2.76575   2.77452
 Alpha virt. eigenvalues --    2.78496   2.78955   2.79874   2.80639   2.81109
 Alpha virt. eigenvalues --    2.82528   2.83342   2.84834   2.84878   2.85741
 Alpha virt. eigenvalues --    2.87124   2.87763   2.88334   2.89752   2.90430
 Alpha virt. eigenvalues --    2.90620   2.91558   2.92198   2.93162   2.93721
 Alpha virt. eigenvalues --    2.94253   2.95211   2.95377   2.96502   2.97078
 Alpha virt. eigenvalues --    2.98063   2.99681   3.00396   3.00991   3.02317
 Alpha virt. eigenvalues --    3.03375   3.03588   3.04064   3.04998   3.06035
 Alpha virt. eigenvalues --    3.07972   3.09357   3.11923   3.13273   3.13973
 Alpha virt. eigenvalues --    3.16624   3.18210   3.19166   3.22205   3.22989
 Alpha virt. eigenvalues --    3.24102   3.25391   3.26863   3.28992   3.29354
 Alpha virt. eigenvalues --    3.31427   3.32789   3.34417   3.35764   3.36737
 Alpha virt. eigenvalues --    3.37877   3.38948   3.39759   3.41012   3.41508
 Alpha virt. eigenvalues --    3.41946   3.42662   3.43874   3.45505   3.45698
 Alpha virt. eigenvalues --    3.46453   3.48400   3.50108   3.52704   3.52945
 Alpha virt. eigenvalues --    3.54790   3.55377   3.56734   3.57427   3.58498
 Alpha virt. eigenvalues --    3.60178   3.61825   3.63414   3.64566   3.65398
 Alpha virt. eigenvalues --    3.66629   3.67955   3.68012   3.69148   3.70216
 Alpha virt. eigenvalues --    3.70683   3.71665   3.72892   3.74262   3.75542
 Alpha virt. eigenvalues --    3.77267   3.79261   3.80153   3.81431   3.82872
 Alpha virt. eigenvalues --    3.86494   3.87294   3.88324   3.93232   3.94286
 Alpha virt. eigenvalues --    3.95859   3.96652   3.96936   3.99412   4.00586
 Alpha virt. eigenvalues --    4.02891   4.03607   4.10218   4.11276   4.13729
 Alpha virt. eigenvalues --    4.14672   4.17345   4.19586   4.22298   4.25732
 Alpha virt. eigenvalues --    4.26873   4.28174   4.29756   4.33107   4.34676
 Alpha virt. eigenvalues --    4.34939   4.36500   4.37927   4.40097   4.40305
 Alpha virt. eigenvalues --    4.41824   4.44885   4.46214   4.46725   4.47527
 Alpha virt. eigenvalues --    4.48285   4.48787   4.49624   4.50044   4.51386
 Alpha virt. eigenvalues --    4.52473   4.53727   4.54892   4.55695   4.56012
 Alpha virt. eigenvalues --    4.57055   4.57950   4.58994   4.60115   4.61276
 Alpha virt. eigenvalues --    4.62557   4.63963   4.64763   4.64868   4.65721
 Alpha virt. eigenvalues --    4.67478   4.67790   4.68531   4.70053   4.71215
 Alpha virt. eigenvalues --    4.71671   4.72947   4.73063   4.74153   4.74304
 Alpha virt. eigenvalues --    4.75001   4.75327   4.76325   4.77397   4.79104
 Alpha virt. eigenvalues --    4.79658   4.80560   4.81087   4.81411   4.82329
 Alpha virt. eigenvalues --    4.83450   4.84589   4.86034   4.86631   4.86809
 Alpha virt. eigenvalues --    4.87858   4.88732   4.90290   4.91560   4.92169
 Alpha virt. eigenvalues --    4.93043   4.95173   4.95695   4.96951   4.97693
 Alpha virt. eigenvalues --    4.99075   5.00051   5.01675   5.03364   5.05998
 Alpha virt. eigenvalues --    5.06696   5.07357   5.07602   5.08285   5.12407
 Alpha virt. eigenvalues --    5.15891   5.19320   5.21564   5.23259   5.28027
 Alpha virt. eigenvalues --    5.33662   5.37411   5.37751   5.39020   5.42414
 Alpha virt. eigenvalues --    5.43646   5.45617   5.48827   5.50423   5.52208
 Alpha virt. eigenvalues --    5.54357   5.56357   5.56687   5.59948   5.61674
 Alpha virt. eigenvalues --    5.63661   5.66523   5.72958   5.85113   5.98881
 Alpha virt. eigenvalues --    6.03110   6.06315   6.16662   6.19885   6.24894
 Alpha virt. eigenvalues --    6.32809   6.55786   6.79533   7.01421  11.12306
 Alpha virt. eigenvalues --   11.23270  11.35657  11.49418  11.61157  11.78638
 Alpha virt. eigenvalues --   11.90790  12.06660  12.17263  12.41567  12.65078
 Alpha virt. eigenvalues --   12.71716  12.87812  13.14438  13.29802  15.27664
          Condensed to atoms (all electrons):
               1          2          3          4          5          6
     1  C    5.008383   0.394454  -0.019311  -0.000522  -0.009402   0.000355
     2  C    0.394454   4.915608   0.400373  -0.032978  -0.002215   0.000099
     3  C   -0.019311   0.400373   4.407704   0.392407  -0.026650   0.001037
     4  C   -0.000522  -0.032978   0.392407   4.990150   0.428888  -0.029349
     5  C   -0.009402  -0.002215  -0.026650   0.428888   4.835453   0.351789
     6  N    0.000355   0.000099   0.001037  -0.029349   0.351789   6.413839
     7  C   -0.000008   0.000015  -0.000133   0.001624  -0.069170   0.417240
     8  O    0.000000   0.000000   0.000000  -0.000029   0.001553  -0.029338
     9  C   -0.000000  -0.000000  -0.000000   0.000000  -0.000365   0.004275
    10  C    0.003111  -0.038354   0.390616  -0.043961   0.001755  -0.000061
    11  C   -0.000135   0.002155  -0.010122  -0.001204   0.000364   0.000001
    12  C   -0.000014   0.000834  -0.011686  -0.003000   0.000078   0.000001
    13  C    0.000001  -0.000037  -0.002715   0.000052  -0.000001  -0.000000
    14  C    0.000366   0.002610  -0.012803   0.000180  -0.000922  -0.000028
    15  C   -0.007144  -0.045847   0.414242  -0.053558  -0.003940   0.000257
    16  H    0.362866  -0.021452   0.002374  -0.000034   0.000350  -0.000010
    17  H    0.376498  -0.027465  -0.000830   0.000283  -0.007060  -0.000181
    18  H    0.377798  -0.027285  -0.007443  -0.000122   0.000240   0.000013
    19  H   -0.040513   0.353265  -0.022713  -0.007482  -0.000224  -0.000010
    20  H   -0.042005   0.356380  -0.019138   0.004819  -0.000018   0.000001
    21  H   -0.000059  -0.007301  -0.017534   0.342890  -0.031282  -0.001088
    22  H   -0.000108   0.004837  -0.017111   0.347199  -0.032726   0.003829
    23  H    0.000189  -0.000431  -0.006749  -0.027058   0.357017  -0.021812
    24  H   -0.004934  -0.000412  -0.000219  -0.039129   0.372012  -0.054027
    25  H    0.000018  -0.000013  -0.000045   0.000634  -0.049667   0.339738
    26  H    0.000018   0.000001  -0.000000   0.000280  -0.003717  -0.021802
    27  H   -0.000263  -0.000022   0.000078  -0.000235   0.005640  -0.060792
    28  H   -0.000000   0.000000   0.000000  -0.000000  -0.000000  -0.000132
    29  H    0.000000  -0.000000  -0.000000   0.000000   0.000036   0.000063
    30  H   -0.000000   0.000000   0.000000   0.000000   0.000057  -0.000081
    31  H   -0.000038  -0.004284  -0.024033  -0.009447   0.000244   0.000001
    32  H    0.000105  -0.006257  -0.023084   0.004240  -0.000140   0.000001
    33  H    0.000001   0.000088  -0.006400  -0.000407  -0.000107  -0.000002
    34  H    0.000001  -0.000121   0.002496   0.000089  -0.000009  -0.000000
    35  H   -0.000000   0.000004   0.000837   0.000009   0.000003   0.000000
    36  H   -0.000001  -0.000031   0.000456   0.000009  -0.000000  -0.000000
    37  H    0.000000   0.000000   0.000080   0.000000  -0.000000   0.000000
    38  H    0.000000   0.000000   0.000080  -0.000000   0.000000   0.000000
    39  H   -0.000004   0.000120  -0.007868   0.001352   0.000619  -0.000098
    40  H   -0.000000  -0.000145   0.002837   0.000006   0.000023   0.000000
    41  H   -0.000258  -0.004921  -0.024297  -0.007715  -0.001690  -0.000016
    42  H    0.000133  -0.004606  -0.025457   0.005347   0.000079  -0.000003
               7          8          9         10         11         12
     1  C   -0.000008   0.000000  -0.000000   0.003111  -0.000135  -0.000014
     2  C    0.000015   0.000000  -0.000000  -0.038354   0.002155   0.000834
     3  C   -0.000133   0.000000  -0.000000   0.390616  -0.010122  -0.011686
     4  C    0.001624  -0.000029   0.000000  -0.043961  -0.001204  -0.003000
     5  C   -0.069170   0.001553  -0.000365   0.001755   0.000364   0.000078
     6  N    0.417240  -0.029338   0.004275  -0.000061   0.000001   0.000001
     7  C    4.724777   0.374821  -0.084853  -0.000000   0.000000   0.000000
     8  O    0.374821   7.684770   0.366846  -0.000000   0.000000  -0.000000
     9  C   -0.084853   0.366846   4.827565   0.000000   0.000000   0.000000
    10  C   -0.000000  -0.000000   0.000000   4.953590   0.394966  -0.018795
    11  C    0.000000   0.000000   0.000000   0.394966   4.895078   0.421493
    12  C    0.000000  -0.000000   0.000000  -0.018795   0.421493   4.578846
    13  C   -0.000000  -0.000000  -0.000000  -0.003909  -0.043524   0.416486
    14  C   -0.000000  -0.000000  -0.000000  -0.020231  -0.024605   0.420163
    15  C    0.000013   0.000000   0.000000  -0.027928  -0.019636  -0.016711
    16  H   -0.000000  -0.000000   0.000000  -0.000101   0.000001   0.000000
    17  H   -0.000045  -0.000001   0.000000  -0.000038   0.000003   0.000000
    18  H   -0.000015  -0.000000  -0.000000   0.000216   0.000006  -0.000006
    19  H   -0.000001  -0.000000   0.000000  -0.002055   0.000091  -0.000018
    20  H   -0.000000   0.000000  -0.000000  -0.008329   0.000320  -0.000027
    21  H    0.000057   0.000002   0.000000  -0.003951  -0.000304   0.000109
    22  H    0.000272  -0.000001   0.000000  -0.006781   0.000042  -0.000111
    23  H   -0.003567   0.000160  -0.000003   0.000160  -0.000006   0.000020
    24  H   -0.004856  -0.000126   0.000056   0.000089  -0.000008  -0.000006
    25  H   -0.049783   0.005916  -0.000138   0.000001   0.000000  -0.000000
    26  H    0.343192  -0.026245  -0.007882  -0.000000   0.000000  -0.000000
    27  H    0.347552  -0.044828  -0.001079   0.000000  -0.000000   0.000000
    28  H    0.004688  -0.019054   0.386543  -0.000000   0.000000  -0.000000
    29  H   -0.006491  -0.033180   0.369711   0.000000   0.000000  -0.000000
    30  H   -0.005100  -0.034229   0.369224   0.000000  -0.000000   0.000000
    31  H    0.000000   0.000000   0.000000   0.354643  -0.031543   0.003634
    32  H   -0.000000   0.000000  -0.000000   0.354651  -0.036072  -0.006085
    33  H   -0.000000   0.000000  -0.000000  -0.033154   0.360702  -0.027453
    34  H   -0.000000  -0.000000  -0.000000  -0.029287   0.360978  -0.032251
    35  H    0.000000   0.000000   0.000000   0.003967  -0.041712   0.363120
    36  H   -0.000000   0.000000  -0.000000   0.001165  -0.006876  -0.025276
    37  H   -0.000000   0.000000  -0.000000   0.000108   0.004482  -0.024630
    38  H    0.000000   0.000000   0.000000  -0.000428  -0.002659  -0.024237
    39  H   -0.000008  -0.000000  -0.000000   0.000180  -0.003433  -0.026846
    40  H    0.000000   0.000000   0.000000   0.000492   0.004767  -0.031600
    41  H    0.000002  -0.000000   0.000000   0.005175   0.000415   0.003471
    42  H   -0.000000   0.000000  -0.000000  -0.005656   0.000133  -0.006422
              13         14         15         16         17         18
     1  C    0.000001   0.000366  -0.007144   0.362866   0.376498   0.377798
     2  C   -0.000037   0.002610  -0.045847  -0.021452  -0.027465  -0.027285
     3  C   -0.002715  -0.012803   0.414242   0.002374  -0.000830  -0.007443
     4  C    0.000052   0.000180  -0.053558  -0.000034   0.000283  -0.000122
     5  C   -0.000001  -0.000922  -0.003940   0.000350  -0.007060   0.000240
     6  N   -0.000000  -0.000028   0.000257  -0.000010  -0.000181   0.000013
     7  C   -0.000000  -0.000000   0.000013  -0.000000  -0.000045  -0.000015
     8  O   -0.000000  -0.000000   0.000000  -0.000000  -0.000001  -0.000000
     9  C   -0.000000  -0.000000   0.000000   0.000000   0.000000  -0.000000
    10  C   -0.003909  -0.020231  -0.027928  -0.000101  -0.000038   0.000216
    11  C   -0.043524  -0.024605  -0.019636   0.000001   0.000003   0.000006
    12  C    0.416486   0.420163  -0.016711   0.000000   0.000000  -0.000006
    13  C    4.996980  -0.043384  -0.005036   0.000000  -0.000000  -0.000000
    14  C   -0.043384   4.890615   0.401210  -0.000005  -0.000011  -0.000203
    15  C   -0.005036   0.401210   4.926196   0.000085  -0.000107   0.002897
    16  H    0.000000  -0.000005   0.000085   0.624107  -0.032368  -0.031069
    17  H   -0.000000  -0.000011  -0.000107  -0.032368   0.592748  -0.035111
    18  H   -0.000000  -0.000203   0.002897  -0.031069  -0.035111   0.592997
    19  H    0.000001  -0.000154   0.005081   0.000172  -0.007106   0.005687
    20  H   -0.000049   0.000103  -0.006015  -0.008348   0.005851  -0.000759
    21  H    0.000000  -0.000036   0.005324  -0.000014   0.000054   0.000026
    22  H    0.000010   0.001449  -0.007393   0.000007  -0.000021  -0.000019
    23  H    0.000000   0.000475   0.002287  -0.000015   0.000180  -0.000605
    24  H    0.000000   0.000043  -0.000481   0.000267   0.009314   0.000334
    25  H   -0.000000   0.000000   0.000001  -0.000000  -0.000037  -0.000001
    26  H    0.000000   0.000001  -0.000014  -0.000000  -0.000028   0.000001
    27  H   -0.000000  -0.000000   0.000004   0.000011   0.001103  -0.000003
    28  H    0.000000   0.000000  -0.000000   0.000000   0.000000   0.000000
    29  H    0.000000   0.000000   0.000000   0.000000  -0.000000   0.000000
    30  H   -0.000000  -0.000000   0.000000  -0.000000   0.000001  -0.000000
    31  H    0.000125   0.000424   0.005251  -0.000000   0.000002   0.000003
    32  H    0.001200   0.000166  -0.004472  -0.000010   0.000004   0.000008
    33  H    0.005295  -0.003333  -0.000006   0.000000  -0.000000   0.000000
    34  H   -0.007506   0.004890   0.000498  -0.000000  -0.000000   0.000000
    35  H   -0.043919  -0.042017   0.004060   0.000000  -0.000000  -0.000000
    36  H    0.376575  -0.006660   0.001005  -0.000000   0.000000  -0.000002
    37  H    0.370162  -0.002989  -0.000445   0.000000   0.000000   0.000000
    38  H    0.370312   0.004429   0.000148  -0.000000   0.000000   0.000000
    39  H    0.005304   0.361554  -0.032947  -0.000000   0.000000   0.000006
    40  H   -0.007500   0.362194  -0.030434  -0.000000  -0.000000   0.000013
    41  H    0.000165  -0.033242   0.358982  -0.000088   0.000156   0.004685
    42  H    0.001418  -0.036579   0.355163  -0.000085   0.000042   0.000725
              19         20         21         22         23         24
     1  C   -0.040513  -0.042005  -0.000059  -0.000108   0.000189  -0.004934
     2  C    0.353265   0.356380  -0.007301   0.004837  -0.000431  -0.000412
     3  C   -0.022713  -0.019138  -0.017534  -0.017111  -0.006749  -0.000219
     4  C   -0.007482   0.004819   0.342890   0.347199  -0.027058  -0.039129
     5  C   -0.000224  -0.000018  -0.031282  -0.032726   0.357017   0.372012
     6  N   -0.000010   0.000001  -0.001088   0.003829  -0.021812  -0.054027
     7  C   -0.000001  -0.000000   0.000057   0.000272  -0.003567  -0.004856
     8  O   -0.000000   0.000000   0.000002  -0.000001   0.000160  -0.000126
     9  C    0.000000  -0.000000   0.000000   0.000000  -0.000003   0.000056
    10  C   -0.002055  -0.008329  -0.003951  -0.006781   0.000160   0.000089
    11  C    0.000091   0.000320  -0.000304   0.000042  -0.000006  -0.000008
    12  C   -0.000018  -0.000027   0.000109  -0.000111   0.000020  -0.000006
    13  C    0.000001  -0.000049   0.000000   0.000010   0.000000   0.000000
    14  C   -0.000154   0.000103  -0.000036   0.001449   0.000475   0.000043
    15  C    0.005081  -0.006015   0.005324  -0.007393   0.002287  -0.000481
    16  H    0.000172  -0.008348  -0.000014   0.000007  -0.000015   0.000267
    17  H   -0.007106   0.005851   0.000054  -0.000021   0.000180   0.009314
    18  H    0.005687  -0.000759   0.000026  -0.000019  -0.000605   0.000334
    19  H    0.657306  -0.037923   0.004668  -0.000060   0.000036   0.000297
    20  H   -0.037923   0.649376  -0.000040  -0.000191  -0.000028  -0.000058
    21  H    0.004668  -0.000040   0.658254  -0.041931   0.006531  -0.008738
    22  H   -0.000060  -0.000191  -0.041931   0.628990  -0.005166   0.007590
    23  H    0.000036  -0.000028   0.006531  -0.005166   0.631772  -0.052184
    24  H    0.000297  -0.000058  -0.008738   0.007590  -0.052184   0.680851
    25  H    0.000002  -0.000000   0.004511  -0.000617   0.006982  -0.007372
    26  H   -0.000000  -0.000000   0.000002  -0.000019   0.006966  -0.002512
    27  H    0.000000   0.000000  -0.000016   0.000057  -0.002454   0.016629
    28  H   -0.000000   0.000000   0.000000   0.000000   0.000000   0.000001
    29  H   -0.000000   0.000000  -0.000000   0.000000  -0.000004  -0.000003
    30  H   -0.000000  -0.000000   0.000000  -0.000000  -0.000001  -0.000001
    31  H    0.004436  -0.000157   0.005199  -0.000299   0.000004  -0.000001
    32  H    0.000060   0.007245   0.000023   0.000030   0.000002  -0.000000
    33  H    0.000006   0.000004   0.000630   0.005346   0.000024  -0.000001
    34  H   -0.000001  -0.000009  -0.000049  -0.000148  -0.000000   0.000000
    35  H   -0.000000  -0.000000   0.000001  -0.000015   0.000001  -0.000000
    36  H   -0.000003   0.000072   0.000000  -0.000004   0.000000  -0.000000
    37  H    0.000000   0.000000  -0.000000   0.000000  -0.000000   0.000000
    38  H   -0.000000  -0.000000  -0.000000  -0.000000  -0.000000  -0.000000
    39  H    0.000002   0.000002  -0.000097   0.003681   0.000177  -0.000018
    40  H    0.000003  -0.000000   0.000000  -0.000090  -0.000057   0.000001
    41  H   -0.000092  -0.000208  -0.000055  -0.000144   0.004629   0.000332
    42  H   -0.000020   0.005282  -0.000145  -0.000054  -0.000250  -0.000048
              25         26         27         28         29         30
     1  C    0.000018   0.000018  -0.000263  -0.000000   0.000000  -0.000000
     2  C   -0.000013   0.000001  -0.000022   0.000000  -0.000000   0.000000
     3  C   -0.000045  -0.000000   0.000078   0.000000  -0.000000   0.000000
     4  C    0.000634   0.000280  -0.000235  -0.000000   0.000000   0.000000
     5  C   -0.049667  -0.003717   0.005640  -0.000000   0.000036   0.000057
     6  N    0.339738  -0.021802  -0.060792  -0.000132   0.000063  -0.000081
     7  C   -0.049783   0.343192   0.347552   0.004688  -0.006491  -0.005100
     8  O    0.005916  -0.026245  -0.044828  -0.019054  -0.033180  -0.034229
     9  C   -0.000138  -0.007882  -0.001079   0.386543   0.369711   0.369224
    10  C    0.000001  -0.000000   0.000000  -0.000000   0.000000   0.000000
    11  C    0.000000   0.000000  -0.000000   0.000000   0.000000  -0.000000
    12  C   -0.000000  -0.000000   0.000000  -0.000000  -0.000000   0.000000
    13  C   -0.000000   0.000000  -0.000000   0.000000   0.000000  -0.000000
    14  C    0.000000   0.000001  -0.000000   0.000000   0.000000  -0.000000
    15  C    0.000001  -0.000014   0.000004  -0.000000   0.000000   0.000000
    16  H   -0.000000  -0.000000   0.000011   0.000000   0.000000  -0.000000
    17  H   -0.000037  -0.000028   0.001103   0.000000  -0.000000   0.000001
    18  H   -0.000001   0.000001  -0.000003   0.000000   0.000000  -0.000000
    19  H    0.000002  -0.000000   0.000000  -0.000000  -0.000000  -0.000000
    20  H   -0.000000  -0.000000   0.000000   0.000000   0.000000  -0.000000
    21  H    0.004511   0.000002  -0.000016   0.000000  -0.000000   0.000000
    22  H   -0.000617  -0.000019   0.000057   0.000000   0.000000  -0.000000
    23  H    0.006982   0.006966  -0.002454   0.000000  -0.000004  -0.000001
    24  H   -0.007372  -0.002512   0.016629   0.000001  -0.000003  -0.000001
    25  H    0.534255   0.007977  -0.008634   0.000000   0.000065  -0.000046
    26  H    0.007977   0.674494  -0.074172  -0.000131   0.015635  -0.003092
    27  H   -0.008634  -0.074172   0.751796  -0.000152  -0.002982   0.014263
    28  H    0.000000  -0.000131  -0.000152   0.571022  -0.034735  -0.036288
    29  H    0.000065   0.015635  -0.002982  -0.034735   0.633887  -0.049643
    30  H   -0.000046  -0.003092   0.014263  -0.036288  -0.049643   0.639667
    31  H    0.000001  -0.000000   0.000000   0.000000  -0.000000   0.000000
    32  H    0.000000   0.000000   0.000000   0.000000  -0.000000   0.000000
    33  H    0.000002   0.000000  -0.000000   0.000000  -0.000000  -0.000000
    34  H   -0.000000   0.000000  -0.000000  -0.000000   0.000000  -0.000000
    35  H    0.000000  -0.000000  -0.000000   0.000000  -0.000000  -0.000000
    36  H    0.000000   0.000000  -0.000000   0.000000  -0.000000  -0.000000
    37  H    0.000000   0.000000   0.000000   0.000000  -0.000000  -0.000000
    38  H    0.000000   0.000000  -0.000000   0.000000  -0.000000  -0.000000
    39  H   -0.000002  -0.000001   0.000000  -0.000000  -0.000000   0.000000
    40  H    0.000000   0.000000  -0.000000   0.000000   0.000000  -0.000000
    41  H   -0.000001  -0.000015   0.000007  -0.000000  -0.000000   0.000000
    42  H   -0.000000   0.000000   0.000000   0.000000  -0.000000   0.000000
              31         32         33         34         35         36
     1  C   -0.000038   0.000105   0.000001   0.000001  -0.000000  -0.000001
     2  C   -0.004284  -0.006257   0.000088  -0.000121   0.000004  -0.000031
     3  C   -0.024033  -0.023084  -0.006400   0.002496   0.000837   0.000456
     4  C   -0.009447   0.004240  -0.000407   0.000089   0.000009   0.000009
     5  C    0.000244  -0.000140  -0.000107  -0.000009   0.000003  -0.000000
     6  N    0.000001   0.000001  -0.000002  -0.000000   0.000000  -0.000000
     7  C    0.000000  -0.000000  -0.000000  -0.000000   0.000000  -0.000000
     8  O    0.000000   0.000000   0.000000  -0.000000   0.000000   0.000000
     9  C    0.000000  -0.000000  -0.000000  -0.000000   0.000000  -0.000000
    10  C    0.354643   0.354651  -0.033154  -0.029287   0.003967   0.001165
    11  C   -0.031543  -0.036072   0.360702   0.360978  -0.041712  -0.006876
    12  C    0.003634  -0.006085  -0.027453  -0.032251   0.363120  -0.025276
    13  C    0.000125   0.001200   0.005295  -0.007506  -0.043919   0.376575
    14  C    0.000424   0.000166  -0.003333   0.004890  -0.042017  -0.006660
    15  C    0.005251  -0.004472  -0.000006   0.000498   0.004060   0.001005
    16  H   -0.000000  -0.000010   0.000000  -0.000000   0.000000  -0.000000
    17  H    0.000002   0.000004  -0.000000  -0.000000  -0.000000   0.000000
    18  H    0.000003   0.000008   0.000000   0.000000  -0.000000  -0.000002
    19  H    0.004436   0.000060   0.000006  -0.000001  -0.000000  -0.000003
    20  H   -0.000157   0.007245   0.000004  -0.000009  -0.000000   0.000072
    21  H    0.005199   0.000023   0.000630  -0.000049   0.000001   0.000000
    22  H   -0.000299   0.000030   0.005346  -0.000148  -0.000015  -0.000004
    23  H    0.000004   0.000002   0.000024  -0.000000   0.000001   0.000000
    24  H   -0.000001  -0.000000  -0.000001   0.000000  -0.000000  -0.000000
    25  H    0.000001   0.000000   0.000002  -0.000000   0.000000   0.000000
    26  H   -0.000000   0.000000   0.000000   0.000000  -0.000000   0.000000
    27  H    0.000000   0.000000  -0.000000  -0.000000  -0.000000  -0.000000
[...]
 00075490,0.00160299,0.02944217,-0.00451934,0.00475300,-0.04737754,0.00
 593434,-0.05444042,0.00164060,-0.00077975,-0.00567486,0.00003070,0.000
 43825,-0.00056079,-0.00000790,-0.00000147,-0.00000276,-0.00000829,0.00
 000687,0.00000509,-0.00000255,0.00000065,-0.00000958,-0.00000256,-0.00
 001428,0.00001801,-0.00001379,-0.00001598,0.00002020,-0.00000765,-0.00
 001474,0.00001246,0.00002106,0.00001584,0.00001264,-0.00007129,-0.0000
 3031,0.00000453,0.00000016,-0.00003739,-0.00001068,0.00001472,-0.00000
 839,-0.00000604,-0.00000387,-0.00000614,0.00000015,0.00000221,-0.00000
 411,0.00000030,0.00000098,-0.00000029,-0.00000094,0.00000057,-0.000000
 15,0.00000044,0.00000121,-0.00000048,0.00000066,-0.00002082,-0.0000274
 8,0.00005332,-0.00007139,-0.00002108,0.00001262,-0.00014205,0.00034548
 ,0.00019132,-0.00065494,-0.00026179,-0.00014611,-0.00059995,0.00032207
 ,0.00134649,-0.01919118,0.00120994,-0.00407078,-0.01417060,0.00297319,
 -0.00344992,0.04861113,-0.00607590,0.05958732,-0.00000838,-0.00000303,
 0.00001503,-0.00000297,-0.00011203,-0.00009988,0.00003557,-0.00033894,
 0.00053465,0.00033810,-0.00000344,0.00036886,-0.00008144,0.00078096,0.
 00011922,-0.00010913,-0.00006949,-0.00007163,0.00003731,0.00004540,0.0
 0000689,-0.00001814,-0.00000609,-0.00001453,0.00001346,0.00000107,-0.0
 0000020,-0.00018859,-0.00015458,-0.00012792,0.00118412,0.00042959,0.00
 117116,-0.01695233,-0.00169024,0.03053994,-0.00607347,0.00001708,-0.00
 316000,-0.09493506,-0.01197001,0.09767009,0.00383826,0.00083175,-0.008
 93366,-0.00000536,0.00000465,-0.00000297,-0.00000244,0.00000031,-0.000
 00044,0.00001389,-0.00000184,-0.00001308,-0.00001464,0.00000088,0.0000
 3845,-0.00003490,0.00000360,0.00002124,-0.00013974,0.00006194,-0.00002
 361,-0.00011547,-0.00010000,-0.00025315,-0.00050497,0.00042208,0.00015
 467,-0.00004459,-0.00003754,0.00001156,0.00004706,-0.00001479,-0.00001
 125,-0.00000936,-0.00001386,0.00000855,-0.00001926,0.00000087,-0.00000
 244,0.00000013,-0.00000114,0.00000041,-0.00000072,-0.00000131,0.000001
 38,-0.00000289,0.00000219,-0.00000200,0.00002542,-0.00008724,0.0000100
 0,0.00001660,0.00015173,-0.00011395,-0.00012564,-0.00041514,-0.0008376
 7,0.00028167,0.00031119,-0.00028106,0.00141149,0.00039022,0.00001284,0
 .00010044,-0.00019743,0.00001017,0.00023100,0.00015035,-0.00019140,-0.
 00120745,0.00023011,0.00187904,0.10772514,0.00001876,0.00008561,0.0000
 0524,0.00005285,-0.00000889,0.00010613,-0.00058178,0.00149099,0.000423
 26,-0.00007345,-0.00055400,-0.00010753,0.00019337,-0.00087598,-0.00032
 932,-0.00011177,0.00013622,0.00007737,0.00026971,0.00007601,-0.0000881
 1,-0.00014137,-0.00001103,0.00011874,0.00009608,0.00002978,-0.00001237
 ,0.00001099,-0.00025829,-0.00008842,-0.00032230,0.00009223,0.00059354,
 0.00167397,-0.00081822,-0.00228615,0.00113062,0.00035182,-0.00011166,-
 0.01164447,-0.05024448,0.01931577,-0.01278554,-0.00372298,0.02807368,-
 0.00000096,-0.00001370,-0.00003470,0.00004289,-0.00007288,-0.00002872,
 -0.00009348,0.00001336,0.00000887,0.00003842,-0.00010537,-0.00015641,0
 .00013478,0.00008280,-0.00025620,0.00000039,0.00022039,-0.00008316,-0.
 00014603,-0.00045195,-0.00047365,0.00090490,-0.00005515,-0.00005593,-0
 .00014348,0.00028523,0.00005259,-0.00006754,0.00002852,0.00003830,-0.0
 0000086,-0.00000603,-0.00000888,-0.00005166,0.00000568,-0.00000286,-0.
 00001221,-0.00000029,0.00001192,-0.00001515,-0.00001483,-0.00000429,-0
 .00001360,-0.00000206,-0.00000419,-0.00010682,-0.00003166,-0.00004630,
 0.00013639,0.00004680,-0.00006896,-0.00017906,0.00010825,-0.00011587,0
 .00006725,-0.00003330,-0.00008238,0.00017266,0.00028760,-0.00056890,0.
 00018597,0.00005090,-0.00015222,-0.00011889,0.00025358,0.00040779,0.00
 037621,0.00030072,-0.00017147,0.00843442,0.05498298,0.00004876,-0.0000
 7614,-0.00002569,0.00005288,0.00011536,0.00006553,-0.00019674,-0.00057
 975,-0.00020951,0.00033476,0.00018964,-0.00021195,0.00052532,0.0003084
 7,0.00036493,-0.00004295,-0.00025079,-0.00013061,-0.00019615,0.0001208
 5,0.00012665,0.00011905,-0.00004374,-0.00013876,-0.00009996,0.00000354
 ,0.00002044,-0.00001017,0.00015390,0.00005021,-0.00018032,0.00011233,0
 .00026220,-0.00270690,-0.00082657,0.00320330,-0.00066096,-0.00032581,0
 .00103436,0.09884586,0.01995550,-0.24755287,0.00544082,0.00234681,-0.0
 1356008,-0.00002765,0.00002502,0.00002669,-0.00004817,0.00008631,0.000
 05627,0.00007108,-0.00002440,-0.00000156,-0.00001624,0.00014630,0.0000
 4717,-0.00011206,-0.00008201,0.00016134,-0.00007051,-0.00009892,0.0002
 0670,0.00017619,-0.00037360,0.00024146,-0.00041436,-0.00046855,0.00005
 920,0.00003863,-0.00036849,-0.00008018,0.00010772,-0.00004889,-0.00007
 141,-0.00001910,-0.00005211,0.00000130,0.00003471,-0.00003752,0.000005
 21,0.00000982,-0.00000211,-0.00001479,0.00000905,0.00000287,0.00000435
 ,0.00001657,-0.00000491,0.00000850,0.00010082,0.00004409,0.00003221,-0
 .00011183,-0.00006813,0.00001021,0.00008758,0.00023488,0.00031254,0.00
 009675,0.00009203,0.00021283,0.00039407,-0.00047903,0.00098224,-0.0002
 3007,-0.00000175,0.00010545,-0.00012562,0.00020254,0.00015560,-0.00000
 259,0.00018946,0.00011914,-0.10791750,-0.02427994,0.27093133,0.0000450
 9,-0.00001921,0.00003632,0.00041968,0.00040283,0.00037337,-0.00027868,
 0.00139533,-0.00126119,0.00005544,-0.00012264,-0.00011685,0.00000554,-
 0.00007406,-0.00001192,-0.00003485,0.00001866,0.00000862,0.00005620,0.
 00002369,-0.00001048,-0.00002455,-0.00000327,0.00001573,0.00001364,0.0
 0000470,-0.00000106,-0.00011477,0.00070920,-0.00015791,-0.00678026,0.0
 0231717,0.00043142,-0.01210723,-0.02572372,-0.01903979,0.00172426,-0.0
 0123933,-0.00111718,-0.07326705,-0.06142526,-0.04640577,0.00255980,0.0
 0739860,0.00585487,-0.00000316,-0.00000941,-0.00000898,-0.00000086,-0.
 00000670,-0.00000173,-0.00001441,-0.00000775,-0.00000427,-0.00000672,0
 .00023234,-0.00012335,-0.00000080,-0.00001357,-0.00004242,-0.00001188,
 0.00003519,-0.00001996,-0.00011960,-0.00002802,-0.00002596,0.00011390,
 0.00004852,0.00003095,-0.00000010,0.00005875,0.00000881,-0.00001356,0.
 00000713,0.00000659,0.00000061,-0.00000549,0.00000130,-0.00001104,0.00
 000196,-0.00000034,-0.00000254,-0.00000047,0.00000167,-0.00000212,-0.0
 0000221,0.00000017,-0.00000192,0.00000004,-0.00000030,0.00015365,-0.00
 010161,0.00005309,0.00002649,-0.00010077,0.00008166,0.00012175,0.00017
 948,-0.00012129,-0.00081482,-0.00189536,-0.00122087,0.00100334,0.00046
 163,0.00001234,-0.00011638,0.00004511,0.00018792,-0.00022337,0.0007246
 4,0.00084314,0.00044354,0.00034662,-0.00010497,0.00450030,0.01086633,0
 .00812944,0.08204979,-0.00020700,-0.00001362,-0.00000874,-0.00084235,-
 0.00096504,-0.00151963,0.00287973,-0.00265963,0.00489700,-0.00013866,0
 .00016685,0.00049598,-0.00018126,-0.00007228,0.00001909,0.00023421,0.0
 0009224,-0.00008054,-0.00017400,-0.00011225,0.00003603,0.00010779,0.00
 002693,-0.00006659,-0.00006787,-0.00002798,0.00000542,0.00066950,0.000
 38834,0.00015664,0.00066335,0.00095705,0.00023714,0.00070068,0.0018018
 7,0.00127554,0.00037519,0.00017563,0.00016653,-0.06190902,-0.18839773,
 -0.10911205,-0.00893754,-0.02367851,-0.01724949,0.00007998,-0.00003882
 ,0.00003955,0.00003610,-0.00000776,-0.00001550,0.00006671,0.00005605,0
 .00000694,0.00000292,-0.00067783,0.00034363,-0.00004347,0.00002257,0.0
 0007557,0.00002910,-0.00004603,-0.00013385,0.00000469,0.00004497,-0.00
 008580,0.00001284,-0.00000805,-0.00003429,0.00000123,-0.00001708,-0.00
 001760,-0.00002485,0.00001066,0.00002350,0.00001373,0.00002863,-0.0000
 0272,0.00003647,0.00000085,0.00000044,0.00000881,0.00000094,-0.0000071
 4,0.00001060,0.00001432,0.00000174,0.00000824,0.00000049,0.00000251,-0
 .00010035,0.00000881,-0.00005587,-0.00008759,-0.00003920,0.00003292,0.
 00004312,-0.00005531,-0.00009931,0.00009607,0.00022547,0.00001490,-0.0
 0056000,0.00043936,-0.00002644,-0.00003878,-0.00004622,-0.00004920,-0.
 00032415,0.00032562,0.00039811,0.00008000,0.00020191,0.00019599,0.0013
 5932,0.00220378,0.00144207,0.06620370,0.20756213,0.00007281,-0.0000349
 3,0.00001697,0.00024051,0.00049198,0.00051247,-0.00107741,0.00225732,-
 0.00126525,-0.00001053,0.00026992,-0.00030328,0.00002644,0.00010974,0.
 00012072,0.00009334,-0.00004243,-0.00000862,-0.00016324,-0.00007027,0.
 00003692,0.00008132,0.00001553,-0.00004444,-0.00005676,-0.00002357,0.0
 0000611,-0.00013329,0.00020381,-0.00018116,-0.00107446,0.00102518,0.00
 070667,-0.00061059,-0.00311870,-0.00322700,0.00078119,0.00047873,0.000
 59838,-0.04739645,-0.11040322,-0.13219028,0.00502792,0.01301972,0.0085
 3255,-0.00001964,-0.00000291,0.00000351,-0.00001118,0.00001399,0.00000
 384,-0.00002808,-0.00000806,-0.00001200,0.00001622,0.00029438,-0.00010
 893,0.00001834,-0.00003684,-0.00000797,0.00003597,-0.00005975,0.000161
 78,0.00010706,0.00000078,0.00031494,-0.00019645,-0.00013460,-0.0000811
 6,0.00006428,-0.00009879,-0.00001838,0.00001595,-0.00000205,-0.0000175
 8,0.00000211,0.00001756,-0.00000077,0.00003517,-0.00000374,0.00000198,
 0.00000598,0.00000133,-0.00000493,0.00000868,0.00001185,0.00000121,0.0
 0000800,0.00000053,0.00000228,0.00006327,-0.00005731,0.00002839,0.0000
 1647,-0.00004310,0.00004181,0.00019714,0.00026027,0.00035809,-0.000308
 85,-0.00050102,0.00010549,-0.00009518,0.00011035,-0.00025933,0.0000020
 2,0.00007643,0.00005341,-0.00014659,0.00008602,0.00051494,-0.00002613,
 0.00019186,-0.00001327,-0.00952789,-0.02165827,-0.01722117,0.05324769,
 0.11873996,0.14147172,-0.00064960,0.00004181,-0.00064410,-0.00048233,0
 .00029454,-0.00039458,-0.00992216,-0.00035831,-0.00102549,-0.00024932,
 -0.00019731,0.00069895,-0.00048449,-0.00033608,0.00087947,0.00045659,0
 .00050944,0.00037272,0.00017203,0.00001473,-0.00019294,-0.00007135,0.0
 0000825,0.00012816,0.00006406,0.00001306,-0.00002345,0.00105314,-0.002
 42075,-0.00139611,0.00041357,-0.00012509,0.00045813,0.00156425,0.00181
 056,-0.00056664,0.00019742,-0.00017569,-0.00013239,-0.00846225,0.00035
 621,-0.00042306,-0.30062504,0.00449302,-0.02493942,0.00031200,0.000262
 93,0.00019989,0.00010589,0.00013238,0.00007088,0.00075161,0.00066273,0
 .00046276,0.00016193,-0.00018829,0.00003612,0.00005706,-0.00001333,-0.
 00010271,0.00012481,-0.00004185,-0.00012769,0.00002985,0.00006404,0.00
 009251,0.00003918,0.00076588,0.00033554,0.00025004,-0.00021552,0.00022
 005,-0.00014020,0.00003650,0.00017088,0.00000564,0.00001663,-0.0000079
 8,-0.00000247,-0.00000800,0.00000598,-0.00000778,0.00000174,0.00001253
 ,-0.00001121,-0.00000615,-0.00000463,-0.00000778,-0.00000456,-0.000002
 74,-0.00080876,0.00013744,-0.00022647,0.00025894,0.00007577,0.00010382
 ,-0.00001607,0.00002925,-0.00010423,-0.00002761,0.00002755,0.00000174,
 -0.00065642,-0.00001138,-0.00008264,0.00011364,0.00001973,-0.00011628,
 -0.00001933,0.00009085,0.00001485,-0.00003587,0.00003848,-0.00002794,0
 .00054655,0.00001334,-0.00030794,0.00047399,0.00049505,0.00032224,0.32
 873716,0.00008166,-0.00064103,-0.00008521,-0.00044899,0.00104305,0.000
 11175,-0.02663053,0.00117011,-0.00209889,-0.00004322,0.00093439,0.0009
 9825,-0.00006525,0.00064417,-0.00087698,0.00005365,-0.00016429,0.00025
 599,0.00011460,0.00007399,-0.00002756,-0.00002709,-0.00001942,0.000017
 27,0.00001172,0.00001460,-0.00000381,-0.00038376,-0.00479770,-0.002915
 15,-0.00003332,-0.00061827,-0.00004715,-0.00062906,-0.00536133,0.00267
 875,-0.00021746,0.00001811,0.00054491,0.03095914,-0.00208695,0.0027329
 5,0.00478193,-0.04598598,-0.00033606,0.00014264,0.00019837,0.00010731,
 0.00004639,-0.00000097,0.00004263,0.00055968,-0.00105713,0.00067523,0.
 00022751,0.00002120,-0.00010677,0.00002060,-0.00014050,-0.00004084,-0.
 00001500,-0.00003151,0.00014390,0.00004615,0.00002711,0.00002869,0.000
 08898,-0.00002583,0.00005542,0.00043281,-0.00027059,-0.00009884,-0.000
 04620,-0.00002363,-0.00004410,-0.00000919,-0.00002866,0.00000419,-0.00
 000304,-0.00000748,-0.00000058,-0.00000218,-0.00000132,0.00000118,-0.0
 0000285,-0.00000537,0.00000103,-0.00000194,-0.00000130,0.00000043,-0.0
 0187654,0.00005123,-0.00050445,0.00018379,-0.00001239,0.00012489,0.000
 02569,0.00011370,-0.00001864,0.00004247,0.00024811,0.00000516,0.001898
 18,-0.00020019,0.00045975,-0.00008774,0.00011726,-0.00017852,0.0000079
 8,0.00000153,-0.00002752,0.00008422,0.00004289,-0.00012782,-0.00064471
 ,0.00122847,-0.00017202,-0.00020416,0.00099333,-0.00079875,-0.00669860
 ,0.05476190,0.00022015,0.00027271,0.00030355,0.00046711,0.00054676,-0.
 00003218,-0.01803053,0.00028739,-0.00277837,-0.00074365,0.00072509,0.0
 0080148,0.00006257,-0.00083539,-0.00138092,0.00000572,0.00016759,0.000
 31241,0.00035627,0.00003935,-0.00015892,-0.00018535,0.00000789,0.00019
 129,0.00013400,0.00002062,-0.00002252,-0.00015839,-0.00313898,-0.00168
 238,0.00038891,-0.00007680,0.00028703,0.00057473,0.00285179,-0.0011008
 8,0.00022266,0.00024146,-0.00030818,-0.01562820,0.00105754,-0.00194254
 ,-0.02304328,-0.00018606,-0.04874133,0.00007448,-0.00004844,-0.0000704
 4,-0.00001219,-0.00016267,-0.00007196,-0.00020328,0.00041822,-0.000006
 53,-0.00006579,-0.00000905,-0.00000666,0.00000826,-0.00005596,0.000084
 29,0.00015303,0.00006715,0.00024989,0.00009107,-0.00003913,0.00004181,
 0.00050000,0.00030462,-0.00128954,0.00029103,-0.00020732,0.00001332,-0
 .00011395,0.00002689,0.00007043,0.00000071,0.00001959,-0.00000745,-0.0
 0005129,0.00001197,-0.00000753,-0.00001688,0.00000098,0.00001888,-0.00
 001836,-0.00001276,-0.00000587,-0.00002001,0.00000055,-0.00000847,-0.0
 0120667,-0.00004788,0.00004054,-0.00029649,-0.00009766,0.00015279,-0.0
 0001142,0.00004145,-0.00007225,-0.00002134,0.00003484,0.00001231,-0.00
 088397,0.00013430,-0.00005210,-0.00025850,-0.00023573,0.00033070,-0.00
 000899,-0.00005638,0.00005582,-0.00005100,-0.00017313,0.00021523,-0.00
 003320,-0.00075793,0.00020657,0.00056961,-0.00029621,0.00048990,0.0267
 3695,-0.00025987,0.05349868,0.00004491,0.00013287,0.00000039,0.0005122
 4,0.00017972,0.00003711,0.00325926,0.00007224,-0.00984984,-0.00049567,
 -0.00194624,-0.00058205,-0.00008059,-0.00049527,0.00011549,0.00011153,
 0.00027017,0.00019225,0.00019690,0.00001825,-0.00010961,-0.00010115,0.
 00000983,0.00010290,0.00007580,0.00000851,-0.00001310,0.00069145,0.000
 22189,-0.00050559,-0.00017952,-0.00001472,-0.00008148,0.00033899,-0.00
 054273,-0.00041926,-0.00045271,0.00051441,0.00017642,0.00393831,0.0006
 4973,-0.00907700,-0.08529722,-0.00495500,0.08833298,0.00002780,0.00000
 996,-0.00003511,-0.00003458,-0.00017089,-0.00009295,-0.00027431,-0.000
 01677,0.00006955,-0.00000039,0.00014369,-0.00020020,0.00020194,0.00009
 083,0.00002395,0.00040096,-0.00003528,-0.00053537,0.00002349,0.0001357
 7,0.00013262,0.00015294,0.00042777,-0.00018557,0.00012514,-0.00014476,
 0.00000330,-0.00011249,0.00001207,0.00011855,0.00000728,0.00001641,-0.
 00000868,-0.00002697,0.00000680,-0.00000367,-0.00000855,0.00000049,0.0
 0001054,-0.00001028,-0.00000598,-0.00000308,-0.00001158,0.00000090,-0.
 00000538,0.00009827,0.00007683,0.00019207,-0.00005273,-0.00022063,0.00
 003196,-0.00000652,-0.00001729,0.00007505,-0.00002250,0.00000379,-0.00
 001277,0.00010176,-0.00007919,0.00023091,-0.00124747,0.00081400,-0.000
 03813,-0.00000986,-0.00004382,0.00001143,0.00007327,-0.00009044,-0.000
 03298,0.00025046,0.00179013,-0.00114211,0.00018366,-0.00058224,0.00039
 260,-0.01320929,-0.00173895,0.03020548,0.09081804,-0.00000058,-0.00011
 557,0.00018542,0.00100648,0.00043806,-0.00218300,0.01025679,-0.0017531
 5,-0.02438550,-0.00213741,-0.00424277,-0.00159977,-0.00070115,-0.00038
 174,0.00013410,0.00025694,0.00011412,-0.00003579,-0.00012880,-0.000079
 27,0.00003624,0.00007578,0.00002009,-0.00005209,-0.00004403,-0.0000181
 2,0.00000074,0.00077647,0.00070369,0.00038427,0.00002495,-0.00016041,-
 0.00000361,-0.00063128,0.00104906,-0.00030700,0.00031268,0.00000440,-0
 .00003545,-0.01195428,-0.00356469,0.02848529,-0.00536411,-0.04562896,0
 .01176932,0.00003839,-0.00000559,0.00004486,-0.00014705,0.00013684,0.0
 0001548,0.00011378,-0.00000153,-0.00000640,-0.00002933,0.00037292,0.00
 021985,-0.00055484,-0.00050545,0.00050759,0.00052752,-0.00012996,-0.00
 160341,-0.00001918,-0.00009906,-0.00031875,0.00017999,0.00008075,0.000
 06671,0.00007720,0.00008340,0.00004152,-0.00009078,0.00007453,0.000039
 19,0.00003283,0.00002404,-0.00000058,0.00003654,0.00000597,0.00000264,
 0.00000723,0.00000036,-0.00000616,0.00000865,0.00000824,0.00000209,0.0
 0000589,0.00000211,0.00000157,0.00014018,-0.00000880,0.00024309,-0.000
 35239,0.00009375,0.00023976,-0.00002385,-0.00012389,-0.00004195,0.0000
 4171,0.00012161,0.00003511,-0.00015553,0.00008101,-0.00030560,0.000826
 16,0.00005888,-0.00021667,0.00000789,-0.00014536,-0.00002846,-0.000036
 11,0.00010804,-0.00023692,0.00223310,-0.00508064,0.00289322,-0.0004986
 2,0.00111451,-0.00057894,0.00038901,-0.00022166,-0.00058141,0.00549315
 ,0.05757023,0.00010110,-0.00030293,0.00026842,0.00052606,0.00187005,0.
 00019160,0.00765724,-0.00105102,-0.01833640,-0.00205449,-0.00273543,0.
 00048708,-0.00069750,0.00010749,0.00028438,0.00035323,0.00005733,-0.00
 004101,-0.00026213,-0.00003010,0.00009835,0.00016787,-0.00000546,-0.00
 013596,-0.00011871,-0.00001588,0.00001499,0.00091745,0.00053118,-0.000
 07799,-0.00034991,0.00004298,-0.00004107,0.00096990,-0.00033565,-0.000
 35953,0.00056059,0.00054027,-0.00046574,0.00515403,0.00230149,-0.01390
 539,0.08759089,0.01100447,-0.25811213,0.00006284,-0.00005051,0.0000401
 8,-0.00011309,0.00013683,0.00003417,0.00015632,-0.00009099,-0.00012595
 ,-0.00034776,0.00029146,0.00049425,-0.00041224,-0.00054878,0.00110416,
 0.00035205,-0.00030586,-0.00109236,0.00006311,-0.00001123,-0.00018964,
 -0.00008650,0.00003280,0.00004484,0.00013828,-0.00006379,0.00002614,-0
 .00004977,0.00004299,0.00003040,0.00001418,-0.00000016,-0.00000407,0.0
 0006626,-0.00001922,0.00000643,0.00001400,-0.00000052,-0.00001648,0.00
 001445,0.00001053,0.00000400,0.00001813,-0.00000303,0.00000836,-0.0001
 2588,-0.00004935,0.00032333,-0.00079379,-0.00012957,0.00029812,0.00008
 454,-0.00002453,0.00022032,-0.00012276,-0.00000182,-0.00005783,-0.0001
 5476,-0.00002565,0.00018867,-0.00021553,-0.00071699,0.00083093,-0.0000
 1903,-0.00009678,0.00001546,-0.00000948,-0.00036919,0.00040501,-0.0009
 5472,0.00280159,0.00020464,-0.00009810,0.00025375,0.00088143,-0.000474
 73,-0.00022016,0.00237012,-0.09752163,-0.01282060,0.28408574\\0.000002
 00,0.00000134,0.00000140,0.00000220,0.00000274,0.00000103,0.00000027,-
 0.00000363,-0.00000043,0.00000216,0.00000252,0.00000398,-0.00000163,-0
 .00000605,0.00000527,-0.00000051,0.00000049,-0.00000237,0.00000304,-0.
 00000377,-0.00000431,-0.00000009,0.00000039,0.00000343,-0.00000211,-0.
 00000184,-0.00000137,0.00000108,-0.00000121,0.00000252,-0.00000055,-0.
 00000233,-0.00000150,-0.00000013,0.00000047,-0.00000077,-0.00000100,0.
 00000013,-0.00000137,-0.00000228,-0.00000008,-0.00000244,0.00000019,0.
 00000071,-0.00000031,0.00000209,0.00000366,0.00000309,0.00000179,0.000
 00228,0.00000296,0.00000202,0.00000395,0.00000140,0.00000140,0.0000003
 2,0.00000245,0.00000151,0.00000182,0.00000180,0.00000068,-0.00000080,0
 .00000027,-0.00000144,-0.00000114,0.00000027,-0.00000235,0.00000173,-0
 .00000136,0.00000240,0.00000318,-0.00000043,-0.00000137,-0.00000152,-0
 .00000075,-0.00000105,0.00000069,-0.00000228,-0.00000038,0.00000140,0.
 00000191,-0.00000079,-0.00000199,-0.00000056,-0.00000110,-0.00000067,-
 0.00000201,-0.00000008,0.00000001,-0.00000005,0.00000062,-0.00000165,0
 .00000190,-0.00000016,0.,0.00000125,-0.00000055,-0.00000247,-0.0000005
 6,-0.00000064,-0.00000288,0.00000027,-0.00000158,-0.00000156,-0.000002
 59,0.,0.00000062,-0.00000088,-0.00000134,0.00000071,-0.00000232,-0.000
 00088,-0.00000070,-0.00000134,-0.00000125,0.00000031,-0.00000154,-0.00
 000100,0.00000102,-0.00000203,0.00000043,0.00000167,-0.00000138,0.0000
 0037,0.00000210,-0.00000026\\\@


 Spring appears, and we are once more children.
                                  -- Anonymous
 Job cpu time:       0 days 16 hours 59 minutes  1.4 seconds.
 Elapsed time:       0 days  4 hours 15 minutes 19.4 seconds.
 File lengths (MBytes):  RWF=    897 Int=      0 D2E=      0 Chk=     26 Scr=      1
 Normal termination of Gaussian 16 at Thu May 25 08:36:39 2023.
### All Done ###
