### Starting Gaussian ###
 Entering Gaussian System, Link 0=g16
 Initial command:
 /cluster/software/gaussian/gaussian-16-A.03/avx2/g16/l1.exe "/local/scratch/cz9n3/Gau-3021.inp" -scrdir="/local/scratch/cz9n3/"
 Entering Link 1 = /cluster/software/gaussian/gaussian-16-A.03/avx2/g16/l1.exe PID=      3022.
  
 Copyright (c) 1988,1990,1992,1993,1995,1998,2003,2009,2016,
            Gaussian, Inc.  All Rights Reserved.
  
 This is part of the Gaussian(R) 16 program.  It is based on
 the Gaussian(R) 09 system (copyright 2009, Gaussian, Inc.),
 the Gaussian(R) 03 system (copyright 2003, Gaussian, Inc.),
 the Gaussian(R) 98 system (copyright 1998, Gaussian, Inc.),
 the Gaussian(R) 94 system (copyright 1995, Gaussian, Inc.),
 the Gaussian 92(TM) system (copyright 1992, Gaussian, Inc.),
 the Gaussian 90(TM) system (copyright 1990, Gaussian, Inc.),
 the Gaussian 88(TM) system (copyright 1988, Gaussian, Inc.),
 the Gaussian 86(TM) system (copyright 1986, Carnegie Mellon
 University), and the Gaussian 82(TM) system (copyright 1983,
 Carnegie Mellon University). Gaussian is a federally registered
 trademark of Gaussian, Inc.
  
 This software contains proprietary and confidential information,
 including trade secrets, belonging to Gaussian, Inc.
  
 This software is provided under written license and may be
 used, copied, transmitted, or stored only in accord with that
 written license.
  
 The following legend is applicable only to US Government
 contracts under FAR:
  
                    RESTRICTED RIGHTS LEGEND
  
 Use, reproduction and disclosure by the US Government is
 subject to restrictions as set forth in subparagraphs (a)
 and (c) of the Commercial Computer Software - Restricted
 Rights clause in FAR 52.227-19.
  
 Gaussian, Inc.
 340 Quinnipiac St., Bldg. 40, Wallingford CT 06492
  
  
 ---------------------------------------------------------------
 Warning -- This program may not be used in any manner that
 competes with the business of Gaussian, Inc. or will provide
 assistance to any competitor of Gaussian, Inc.  The licensee
 of this program is prohibited from giving any competitor of
 Gaussian, Inc. access to this program.  By using this program,
 the user acknowledges that Gaussian, Inc. is engaged in the
 business of creating and licensing software in the field of
 computational chemistry and represents and warrants to the
 licensee that it is not a competitor of Gaussian, Inc. and that
 it will not use this program in any manner prohibited above.
 ---------------------------------------------------------------
  

 Cite this work as:
 Gaussian 16, Revision A.03,
 M. J. Frisch, G. W. Trucks, H. B. Schlegel, G. E. Scuseria, 
 M. A. Robb, J. R. Cheeseman, G. Scalmani, V. Barone, 
 G. A. Petersson, H. Nakatsuji, X. Li, M. Caricato, A. V. Marenich, 
 J. Bloino, B. G. Janesko, R. Gomperts, B. Mennucci, H. P. Hratchian, 
 J. V. Ortiz, A. F. Izmaylov, J. L. Sonnenberg, D. Williams-Young, 
 F. Ding, F. Lipparini, F. Egidi, J. Goings, B. Peng, A. Petrone, 
 T. Henderson, D. Ranasinghe, V. G. Zakrzewski, J. Gao, N. Rega, 
 G. Zheng, W. Liang, M. Hada, M. Ehara, K. Toyota, R. Fukuda, 
 J. Hasegawa, M. Ishida, T. Nakajima, Y. Honda, O. Kitao, H. Nakai, 
 T. Vreven, K. Throssell, J. A. Montgomery, Jr., J. E. Peralta, 
 F. Ogliaro, M. J. Bearpark, J. J. Heyd, E. N. Brothers, K. N. Kudin, 
 V. N. Staroverov, T. A. Keith, R. Kobayashi, J. Normand, 
 K. Raghavachari, A. P. Rendell, J. C. Burant, S. S. Iyengar, 
 J. Tomasi, M. Cossi, J. M. Millam, M. Klene, C. Adamo, R. Cammi, 
 J. W. Ochterski, R. L. Martin, K. Morokuma, O. Farkas, 
 J. B. Foresman, and D. J. Fox, Gaussian, Inc., Wallingford CT, 2016.
 
 ******************************************
 Gaussian 16:  ES64L-G16RevA.03 25-Dec-2016
                22-May-2023 
 ******************************************
 %chk=CCC1COCCCqCNqCrCrCC1NO.chk
 %NProcShared=20
 Will use up to   20 processors via shared memory.
 -----------------------------
 # opt freq b3lyp/6-31g(2df,p)
 -----------------------------
 1/18=20,19=15,26=3,38=1/1,3;
 2/9=110,12=2,17=6,18=5,40=1/2;
 3/5=1,6=6,7=104,11=2,25=1,30=1,71=1,74=-5/1,2,3;
 4//1;
 5/5=2,38=5/2;
 6/7=2,8=2,9=2,10=2,28=1/1;
 7//1,2,3,16;
 1/18=20,19=15,26=3/3(2);
 2/9=110/2;
 99//99;
 2/9=110/2;
 3/5=1,6=6,7=104,11=2,25=1,30=1,71=1,74=-5/1,2,3;
 4/5=5,16=3,69=1/1;
 5/5=2,38=5/2;
 7//1,2,3,16;
 1/18=20,19=15,26=3/3(-5);
 2/9=110/2;
 6/7=2,8=2,9=2,10=2,19=2,28=1/1;
 99/9=1/99;
 -------------------
 Title Card Required
 -------------------
 Symbolic Z-matrix:
 Charge =  0 Multiplicity = 1
 C                     0.50947   0.0841    0.06257 
 C                     1.98659   0.1856   -0.19411 
 C                     2.54258  -0.69305  -1.31672 
 C                     1.54164  -1.59748  -2.07075 
 O                     2.14244  -2.7451   -2.68343 
 C                     2.76801  -3.67615  -1.79747 
 C                     4.26257  -3.74667  -2.12095 
 C                     5.06916  -2.45862  -1.75611 
 C                     5.18716  -2.34369  -0.16366 
 N                     6.0276   -1.27854   0.4477 
 C                     6.0453   -0.12347  -0.40883 
 C                     5.44414  -0.80854   1.72324 
 C                     4.60999  -1.25333  -2.72689 
 C                     3.59476  -0.09846  -2.29518 
 N                     4.2077    1.26765  -2.20333 
 O                     4.05512   2.08484  -1.00868 
 H                     0.23985   0.7897    0.85236 
 H                     0.22741  -0.91845   0.39122 
 H                    -0.02821   0.35437  -0.84829 
 H                     2.50127  -0.09423   0.73718 
 H                     2.17655   1.23907  -0.348 
 H                     3.09173  -1.39865  -0.73273 
 H                     1.07912  -1.01729  -2.87657 
 H                     0.74039  -1.96455  -1.42881 
 H                     2.32055  -4.65921  -1.98411 
 H                     2.58399  -3.45645  -0.7407 
 H                     4.37704  -3.93587  -3.1984 
 H                     4.70864  -4.6136   -1.61656 
 H                     6.09714  -2.68747  -2.07975 
 H                     5.59273  -3.29593   0.20523 
 H                     4.19828  -2.3414    0.30286 
 H                     6.49142  -0.30662  -1.38451 
 H                     6.50198   0.78304  -0.00808 
 H                     4.99727   0.07518  -0.48842 
 H                     5.57113  -1.53908   2.52078 
 H                     4.37707  -0.56919   1.63394 
 H                     5.92866   0.12453   2.0444 
 H                     4.15025  -1.72373  -3.61159 
 H                     5.50839  -0.81181  -3.18019 
 H                     3.03261   0.08531  -3.2208 
 H                     5.20212   1.30068  -2.41197 
 H                     4.05471   1.54     -0.21511 
 

 GradGradGradGradGradGradGradGradGradGradGradGradGradGradGradGradGradGrad
 Berny optimization.
 Initialization pass.
                           ----------------------------
                           !    Initial Parameters    !
                           ! (Angstroms and Degrees)  !
 --------------------------                            --------------------------
 ! Name  Definition              Value          Derivative Info.                !
 --------------------------------------------------------------------------------
 ! R1    R(1,2)                  1.5027         estimate D2E/DX2                !
 ! R2    R(1,17)                 1.0929         estimate D2E/DX2                !
 ! R3    R(1,18)                 1.0921         estimate D2E/DX2                !
 ! R4    R(1,19)                 1.0917         estimate D2E/DX2                !
 ! R5    R(2,3)                  1.5302         estimate D2E/DX2                !
 ! R6    R(2,20)                 1.1002         estimate D2E/DX2                !
 ! R7    R(2,21)                 1.0815         estimate D2E/DX2                !
 ! R8    R(3,4)                  1.5455         estimate D2E/DX2                !
 ! R9    R(3,14)                 1.555          estimate D2E/DX2                !
 ! R10   R(3,22)                 1.0679         estimate D2E/DX2                !
 ! R11   R(4,5)                  1.433          estimate D2E/DX2                !
 ! R12   R(4,23)                 1.0954         estimate D2E/DX2                !
 ! R13   R(4,24)                 1.0903         estimate D2E/DX2                !
 ! R14   R(5,6)                  1.4294         estimate D2E/DX2                !
 ! R15   R(6,7)                  1.5308         estimate D2E/DX2                !
 ! R16   R(6,25)                 1.0961         estimate D2E/DX2                !
 ! R17   R(6,26)                 1.0949         estimate D2E/DX2                !
 ! R18   R(7,8)                  1.5629         estimate D2E/DX2                !
 ! R19   R(7,27)                 1.0999         estimate D2E/DX2                !
 ! R20   R(7,28)                 1.0977         estimate D2E/DX2                !
 ! R21   R(8,9)                  1.6009         estimate D2E/DX2                !
 ! R22   R(8,13)                 1.6143         estimate D2E/DX2                !
 ! R23   R(8,29)                 1.1018         estimate D2E/DX2                !
 ! R24   R(9,10)                 1.4882         estimate D2E/DX2                !
 ! R25   R(9,30)                 1.0988         estimate D2E/DX2                !
 ! R26   R(9,31)                 1.0934         estimate D2E/DX2                !
 ! R27   R(10,11)                1.4381         estimate D2E/DX2                !
 ! R28   R(10,12)                1.4793         estimate D2E/DX2                !
 ! R29   R(11,32)                1.0884         estimate D2E/DX2                !
 ! R30   R(11,33)                1.0913         estimate D2E/DX2                !
 ! R31   R(11,34)                1.0697         estimate D2E/DX2                !
 ! R32   R(12,35)                1.089          estimate D2E/DX2                !
 ! R33   R(12,36)                1.0972         estimate D2E/DX2                !
 ! R34   R(12,37)                1.0993         estimate D2E/DX2                !
 ! R35   R(13,14)                1.5971         estimate D2E/DX2                !
 ! R36   R(13,38)                1.1024         estimate D2E/DX2                !
 ! R37   R(13,39)                1.0989         estimate D2E/DX2                !
 ! R38   R(14,15)                1.5001         estimate D2E/DX2                !
 ! R39   R(14,40)                1.0984         estimate D2E/DX2                !
 ! R40   R(15,16)                1.4554         estimate D2E/DX2                !
 ! R41   R(15,41)                1.0166         estimate D2E/DX2                !
 ! R42   R(16,42)                0.9626         estimate D2E/DX2                !
 ! A1    A(2,1,17)             108.805          estimate D2E/DX2                !
 ! A2    A(2,1,18)             111.5486         estimate D2E/DX2                !
 ! A3    A(2,1,19)             108.9592         estimate D2E/DX2                !
 ! A4    A(17,1,18)            108.1501         estimate D2E/DX2                !
 ! A5    A(17,1,19)            108.7609         estimate D2E/DX2                !
 ! A6    A(18,1,19)            110.5576         estimate D2E/DX2                !
 ! A7    A(1,2,3)              116.3404         estimate D2E/DX2                !
 ! A8    A(1,2,20)             107.3417         estimate D2E/DX2                !
 ! A9    A(1,2,21)             105.2342         estimate D2E/DX2                !
 ! A10   A(3,2,20)             107.7571         estimate D2E/DX2                !
 ! A11   A(3,2,21)             113.0251         estimate D2E/DX2                !
 ! A12   A(20,2,21)            106.6207         estimate D2E/DX2                !
 ! A13   A(2,3,4)              117.3008         estimate D2E/DX2                !
 ! A14   A(2,3,14)             119.205          estimate D2E/DX2                !
 ! A15   A(2,3,22)              99.4999         estimate D2E/DX2                !
 ! A16   A(4,3,14)             110.7939         estimate D2E/DX2                !
 ! A17   A(4,3,22)             102.3089         estimate D2E/DX2                !
 ! A18   A(14,3,22)            104.406          estimate D2E/DX2                !
 ! A19   A(3,4,5)              113.9379         estimate D2E/DX2                !
 ! A20   A(3,4,23)             108.8095         estimate D2E/DX2                !
 ! A21   A(3,4,24)             112.688          estimate D2E/DX2                !
 ! A22   A(5,4,23)             106.6601         estimate D2E/DX2                !
 ! A23   A(5,4,24)             106.871          estimate D2E/DX2                !
 ! A24   A(23,4,24)            107.526          estimate D2E/DX2                !
 ! A25   A(4,5,6)              116.1132         estimate D2E/DX2                !
 ! A26   A(5,6,7)              109.0457         estimate D2E/DX2                !
 ! A27   A(5,6,25)             107.4568         estimate D2E/DX2                !
 ! A28   A(5,6,26)             113.2014         estimate D2E/DX2                !
 ! A29   A(7,6,25)             108.7394         estimate D2E/DX2                !
 ! A30   A(7,6,26)             112.1652         estimate D2E/DX2                !
 ! A31   A(25,6,26)            106.0029         estimate D2E/DX2                !
 ! A32   A(6,7,8)              114.618          estimate D2E/DX2                !
 ! A33   A(6,7,27)             108.4535         estimate D2E/DX2                !
 ! A34   A(6,7,28)             109.6353         estimate D2E/DX2                !
 ! A35   A(8,7,27)             108.4646         estimate D2E/DX2                !
 ! A36   A(8,7,28)             109.5049         estimate D2E/DX2                !
 ! A37   A(27,7,28)            105.7816         estimate D2E/DX2                !
 ! A38   A(7,8,9)              109.232          estimate D2E/DX2                !
 ! A39   A(7,8,13)             109.1564         estimate D2E/DX2                !
 ! A40   A(7,8,29)             103.9907         estimate D2E/DX2                !
 ! A41   A(9,8,13)             124.4395         estimate D2E/DX2                !
 ! A42   A(9,8,29)             103.7881         estimate D2E/DX2                !
 ! A43   A(13,8,29)            104.1126         estimate D2E/DX2                !
 ! A44   A(8,9,10)             120.1087         estimate D2E/DX2                !
 ! A45   A(8,9,30)             107.3936         estimate D2E/DX2                !
 ! A46   A(8,9,31)             110.9709         estimate D2E/DX2                !
 ! A47   A(10,9,30)            105.8973         estimate D2E/DX2                !
 ! A48   A(10,9,31)            109.5106         estimate D2E/DX2                !
 ! A49   A(30,9,31)            101.0926         estimate D2E/DX2                !
 ! A50   A(9,10,11)            109.7034         estimate D2E/DX2                !
 ! A51   A(9,10,12)            111.0319         estimate D2E/DX2                !
 ! A52   A(11,10,12)           105.2615         estimate D2E/DX2                !
 ! A53   A(10,11,32)           113.8171         estimate D2E/DX2                !
 ! A54   A(10,11,33)           116.9763         estimate D2E/DX2                !
 ! A55   A(10,11,34)           100.4525         estimate D2E/DX2                !
 ! A56   A(32,11,33)           107.3051         estimate D2E/DX2                !
 ! A57   A(32,11,34)           111.4792         estimate D2E/DX2                !
 ! A58   A(33,11,34)           106.4436         estimate D2E/DX2                !
 ! A59   A(10,12,35)           111.8612         estimate D2E/DX2                !
 ! A60   A(10,12,36)           112.5015         estimate D2E/DX2                !
 ! A61   A(10,12,37)           110.3488         estimate D2E/DX2                !
 ! A62   A(35,12,36)           108.6238         estimate D2E/DX2                !
 ! A63   A(35,12,37)           107.7002         estimate D2E/DX2                !
 ! A64   A(36,12,37)           105.501          estimate D2E/DX2                !
 ! A65   A(8,13,14)            123.9274         estimate D2E/DX2                !
 ! A66   A(8,13,38)            106.4172         estimate D2E/DX2                !
 ! A67   A(8,13,39)            108.3917         estimate D2E/DX2                !
 ! A68   A(14,13,38)           105.0924         estimate D2E/DX2                !
 ! A69   A(14,13,39)           109.9172         estimate D2E/DX2                !
 ! A70   A(38,13,39)           100.4481         estimate D2E/DX2                !
 ! A71   A(3,14,13)            108.8876         estimate D2E/DX2                !
 ! A72   A(3,14,15)            125.8849         estimate D2E/DX2                !
 ! A73   A(3,14,40)            104.3547         estimate D2E/DX2                !
 ! A74   A(13,14,15)           114.5394         estimate D2E/DX2                !
 ! A75   A(13,14,40)           102.6217         estimate D2E/DX2                !
 ! A76   A(15,14,40)            96.22           estimate D2E/DX2                !
 ! A77   A(14,15,16)           121.2477         estimate D2E/DX2                !
 ! A78   A(14,15,41)           114.6261         estimate D2E/DX2                !
 ! A79   A(16,15,41)           104.6411         estimate D2E/DX2                !
 ! A80   A(15,16,42)           111.0346         estimate D2E/DX2                !
 ! D1    D(17,1,2,3)          -177.5463         estimate D2E/DX2                !
 ! D2    D(17,1,2,20)           61.7148         estimate D2E/DX2                !
 ! D3    D(17,1,2,21)          -51.5892         estimate D2E/DX2                !
 ! D4    D(18,1,2,3)            63.2266         estimate D2E/DX2                !
 ! D5    D(18,1,2,20)          -57.5122         estimate D2E/DX2                !
 ! D6    D(18,1,2,21)         -170.8162         estimate D2E/DX2                !
 ! D7    D(19,1,2,3)           -59.1072         estimate D2E/DX2                !
 ! D8    D(19,1,2,20)         -179.846          estimate D2E/DX2                !
 ! D9    D(19,1,2,21)           66.85           estimate D2E/DX2                !
 ! D10   D(1,2,3,4)             -0.1964         estimate D2E/DX2                !
 ! D11   D(1,2,3,14)           138.0677         estimate D2E/DX2                !
 ! D12   D(1,2,3,22)          -109.4418         estimate D2E/DX2                !
 ! D13   D(20,2,3,4)           120.3206         estimate D2E/DX2                !
 ! D14   D(20,2,3,14)         -101.4153         estimate D2E/DX2                !
 ! D15   D(20,2,3,22)           11.0751         estimate D2E/DX2                !
 ! D16   D(21,2,3,4)          -122.1347         estimate D2E/DX2                !
 ! D17   D(21,2,3,14)           16.1294         estimate D2E/DX2                !
 ! D18   D(21,2,3,22)          128.6198         estimate D2E/DX2                !
 ! D19   D(2,3,4,5)           -155.6286         estimate D2E/DX2                !
 ! D20   D(2,3,4,23)            85.5174         estimate D2E/DX2                !
 ! D21   D(2,3,4,24)           -33.6398         estimate D2E/DX2                !
 ! D22   D(14,3,4,5)            62.8016         estimate D2E/DX2                !
 ! D23   D(14,3,4,23)          -56.0524         estimate D2E/DX2                !
 ! D24   D(14,3,4,24)         -175.2096         estimate D2E/DX2                !
 ! D25   D(22,3,4,5)           -48.0069         estimate D2E/DX2                !
 ! D26   D(22,3,4,23)         -166.8609         estimate D2E/DX2                !
 ! D27   D(22,3,4,24)           73.9818         estimate D2E/DX2                !
 ! D28   D(2,3,14,13)          146.2314         estimate D2E/DX2                !
 ! D29   D(2,3,14,15)            4.11           estimate D2E/DX2                !
 ! D30   D(2,3,14,40)         -104.7456         estimate D2E/DX2                !
 ! D31   D(4,3,14,13)          -73.0228         estimate D2E/DX2                !
 ! D32   D(4,3,14,15)          144.8558         estimate D2E/DX2                !
 ! D33   D(4,3,14,40)           36.0001         estimate D2E/DX2                !
 ! D34   D(22,3,14,13)          36.4271         estimate D2E/DX2                !
 ! D35   D(22,3,14,15)        -105.6943         estimate D2E/DX2                !
 ! D36   D(22,3,14,40)         145.4501         estimate D2E/DX2                !
 ! D37   D(3,4,5,6)             62.1605         estimate D2E/DX2                !
 ! D38   D(23,4,5,6)          -177.7686         estimate D2E/DX2                !
 ! D39   D(24,4,5,6)           -62.9828         estimate D2E/DX2                !
 ! D40   D(4,5,6,7)           -117.5796         estimate D2E/DX2                !
 ! D41   D(4,5,6,25)           124.7206         estimate D2E/DX2                !
 ! D42   D(4,5,6,26)             8.0272         estimate D2E/DX2                !
 ! D43   D(5,6,7,8)             69.4112         estimate D2E/DX2                !
 ! D44   D(5,6,7,27)           -51.9325         estimate D2E/DX2                !
 ! D45   D(5,6,7,28)          -166.9863         estimate D2E/DX2                !
 ! D46   D(25,6,7,8)          -173.7013         estimate D2E/DX2                !
 ! D47   D(25,6,7,27)           64.9549         estimate D2E/DX2                !
 ! D48   D(25,6,7,28)          -50.0989         estimate D2E/DX2                !
 ! D49   D(26,6,7,8)           -56.7937         estimate D2E/DX2                !
 ! D50   D(26,6,7,27)         -178.1375         estimate D2E/DX2                !
 ! D51   D(26,6,7,28)           66.8087         estimate D2E/DX2                !
 ! D52   D(6,7,8,9)             71.0497         estimate D2E/DX2                !
 ! D53   D(6,7,8,13)           -67.9985         estimate D2E/DX2                !
 ! D54   D(6,7,8,29)          -178.6429         estimate D2E/DX2                !
 ! D55   D(27,7,8,9)          -167.6126         estimate D2E/DX2                !
 ! D56   D(27,7,8,13)           53.3391         estimate D2E/DX2                !
 ! D57   D(27,7,8,29)          -57.3052         estimate D2E/DX2                !
 ! D58   D(28,7,8,9)           -52.6224         estimate D2E/DX2                !
 ! D59   D(28,7,8,13)          168.3293         estimate D2E/DX2                !
 ! D60   D(28,7,8,29)           57.685          estimate D2E/DX2                !
 ! D61   D(7,8,9,10)           173.7692         estimate D2E/DX2                !
 ! D62   D(7,8,9,30)            52.8745         estimate D2E/DX2                !
 ! D63   D(7,8,9,31)           -56.7577         estimate D2E/DX2                !
 ! D64   D(13,8,9,10)          -54.8829         estimate D2E/DX2                !
 ! D65   D(13,8,9,30)         -175.7776         estimate D2E/DX2                !
 ! D66   D(13,8,9,31)           74.5902         estimate D2E/DX2                !
 ! D67   D(29,8,9,10)           63.3268         estimate D2E/DX2                !
 ! D68   D(29,8,9,30)          -57.5678         estimate D2E/DX2                !
 ! D69   D(29,8,9,31)         -167.2001         estimate D2E/DX2                !
 ! D70   D(7,8,13,14)          100.8704         estimate D2E/DX2                !
 ! D71   D(7,8,13,38)          -20.8204         estimate D2E/DX2                !
 ! D72   D(7,8,13,39)         -128.1097         estimate D2E/DX2                !
 ! D73   D(9,8,13,14)          -30.5074         estimate D2E/DX2                !
 ! D74   D(9,8,13,38)         -152.1983         estimate D2E/DX2                !
 ! D75   D(9,8,13,39)          100.5124         estimate D2E/DX2                !
 ! D76   D(29,8,13,14)        -148.5664         estimate D2E/DX2                !
 ! D77   D(29,8,13,38)          89.7427         estimate D2E/DX2                !
 ! D78   D(29,8,13,39)         -17.5466         estimate D2E/DX2                !
 ! D79   D(8,9,10,11)           30.3243         estimate D2E/DX2                !
 ! D80   D(8,9,10,12)          146.2528         estimate D2E/DX2                !
 ! D81   D(30,9,10,11)         151.9559         estimate D2E/DX2                !
 ! D82   D(30,9,10,12)         -92.1157         estimate D2E/DX2                !
 ! D83   D(31,9,10,11)         -99.7952         estimate D2E/DX2                !
 ! D84   D(31,9,10,12)          16.1333         estimate D2E/DX2                !
 ! D85   D(9,10,11,32)         -62.8226         estimate D2E/DX2                !
 ! D86   D(9,10,11,33)         171.054          estimate D2E/DX2                !
 ! D87   D(9,10,11,34)          56.4153         estimate D2E/DX2                !
 ! D88   D(12,10,11,32)        177.6491         estimate D2E/DX2                !
 ! D89   D(12,10,11,33)         51.5256         estimate D2E/DX2                !
 ! D90   D(12,10,11,34)        -63.1131         estimate D2E/DX2                !
 ! D91   D(9,10,12,35)          73.4287         estimate D2E/DX2                !
 ! D92   D(9,10,12,36)         -49.1633         estimate D2E/DX2                !
 ! D93   D(9,10,12,37)        -166.6903         estimate D2E/DX2                !
 ! D94   D(11,10,12,35)       -167.9297         estimate D2E/DX2                !
 ! D95   D(11,10,12,36)         69.4783         estimate D2E/DX2                !
 ! D96   D(11,10,12,37)        -48.0487         estimate D2E/DX2                !
 ! D97   D(8,13,14,3)          -33.836          estimate D2E/DX2                !
 ! D98   D(8,13,14,15)         113.0131         estimate D2E/DX2                !
 ! D99   D(8,13,14,40)        -144.0259         estimate D2E/DX2                !
 ! D100  D(38,13,14,3)          88.4533         estimate D2E/DX2                !
 ! D101  D(38,13,14,15)       -124.6976         estimate D2E/DX2                !
 ! D102  D(38,13,14,40)        -21.7366         estimate D2E/DX2                !
 ! D103  D(39,13,14,3)        -164.24           estimate D2E/DX2                !
 ! D104  D(39,13,14,15)        -17.3909         estimate D2E/DX2                !
 ! D105  D(39,13,14,40)         85.5701         estimate D2E/DX2                !
 ! D106  D(3,14,15,16)          12.2867         estimate D2E/DX2                !
 ! D107  D(3,14,15,41)         139.398          estimate D2E/DX2                !
 ! D108  D(13,14,15,16)       -128.0249         estimate D2E/DX2                !
 ! D109  D(13,14,15,41)         -0.9136         estimate D2E/DX2                !
 ! D110  D(40,14,15,16)        125.0339         estimate D2E/DX2                !
 ! D111  D(40,14,15,41)       -107.8548         estimate D2E/DX2                !
 ! D112  D(14,15,16,42)         35.2897         estimate D2E/DX2                !
 ! D113  D(41,15,16,42)        -96.1837         estimate D2E/DX2                !
 --------------------------------------------------------------------------------
 Trust Radius=3.00D-01 FncErr=1.00D-07 GrdErr=1.00D-06 EigMax=2.50D+02 EigMin=1.00D-04
 Number of steps in this run=    245 maximum allowed number of steps=    252.
 GradGradGradGradGradGradGradGradGradGradGradGradGradGradGradGradGradGrad

                          Input orientation:                          
 ---------------------------------------------------------------------
 Center     Atomic      Atomic             Coordinates (Angstroms)
 Number     Number       Type             X           Y           Z
 ---------------------------------------------------------------------
      1          6           0        0.509470    0.084100    0.062570
      2          6           0        1.986590    0.185600   -0.194110
      3          6           0        2.542580   -0.693050   -1.316720
      4          6           0        1.541640   -1.597480   -2.070750
      5          8           0        2.142440   -2.745100   -2.683430
      6          6           0        2.768010   -3.676150   -1.797470
      7          6           0        4.262570   -3.746670   -2.120950
      8          6           0        5.069160   -2.458620   -1.756110
      9          6           0        5.187160   -2.343690   -0.163660
     10          7           0        6.027600   -1.278540    0.447700
     11          6           0        6.045300   -0.123470   -0.408830
     12          6           0        5.444140   -0.808540    1.723240
     13          6           0        4.609990   -1.253330   -2.726890
     14          6           0        3.594760   -0.098460   -2.295180
     15          7           0        4.207700    1.267650   -2.203330
     16          8           0        4.055120    2.084840   -1.008680
     17          1           0        0.239850    0.789700    0.852360
     18          1           0        0.227410   -0.918450    0.391220
     19          1           0       -0.028210    0.354370   -0.848290
     20          1           0        2.501270   -0.094230    0.737180
     21          1           0        2.176550    1.239070   -0.348000
     22          1           0        3.091730   -1.398650   -0.732730
     23          1           0        1.079120   -1.017290   -2.876570
     24          1           0        0.740390   -1.964550   -1.428810
     25          1           0        2.320550   -4.659210   -1.984110
     26          1           0        2.583990   -3.456450   -0.740700
     27          1           0        4.377040   -3.935870   -3.198400
     28          1           0        4.708640   -4.613600   -1.616560
     29          1           0        6.097140   -2.687470   -2.079750
     30          1           0        5.592730   -3.295930    0.205230
     31          1           0        4.198280   -2.341400    0.302860
     32          1           0        6.491420   -0.306620   -1.384510
     33          1           0        6.501980    0.783040   -0.008080
     34          1           0        4.997270    0.075180   -0.488420
     35          1           0        5.571130   -1.539080    2.520780
     36          1           0        4.377070   -0.569190    1.633940
     37          1           0        5.928660    0.124530    2.044400
     38          1           0        4.150250   -1.723730   -3.611590
     39          1           0        5.508390   -0.811810   -3.180190
     40          1           0        3.032610    0.085310   -3.220800
     41          1           0        5.202120    1.300680   -2.411970
     42          1           0        4.054710    1.540000   -0.215110
 ---------------------------------------------------------------------
                    Distance matrix (angstroms):
                    1          2          3          4          5
     1  C    0.000000
     2  C    1.502688   0.000000
     3  C    2.576808   1.530165   0.000000
     4  C    2.905880   2.626620   1.545456   0.000000
     5  O    4.267491   3.848377   2.497783   1.432958   0.000000
     6  C    4.764476   4.253762   3.029988   2.428896   1.429376
     7  C    5.790364   4.935134   3.595796   3.467708   2.411323
     8  C    5.528453   4.351319   3.113504   3.644716   3.083453
     9  C    5.275048   4.079446   3.323848   4.181344   3.972492
    10  N    5.696918   4.345732   3.949853   5.154430   5.200889
    11  C    5.559741   4.076120   3.663022   5.021717   5.222936
    12  C    5.282575   4.076665   4.204015   5.499663   5.836971
    13  C    5.136543   3.920169   2.564503   3.156538   2.883760
    14  C    3.887329   2.661089   1.554993   2.552005   3.043793
    15  N    4.495776   3.184514   2.720854   3.915919   4.538497
    16  O    4.209771   2.923945   3.177946   4.583127   5.458155
    17  H    1.092856   2.123944   3.493712   3.992225   5.349436
    18  H    1.092097   2.157835   2.885806   2.872208   4.056780
    19  H    1.091701   2.125054   2.815222   2.787213   4.205493
    20  H    2.110490   1.100228   2.139812   3.326428   4.342401
    21  H    2.069222   1.081465   2.192141   3.378904   4.618334
    22  H    3.082064   2.005316   1.067933   2.057331   2.553294
    23  H    3.190001   3.076693   2.163326   1.095395   2.037960
    24  H    2.544505   2.775003   2.208430   1.090334   2.036928
    25  H    5.474294   5.175694   4.028043   3.160443   2.045627
    26  H    4.181432   3.730975   2.823100   2.512229   2.115463
    27  H    6.461593   5.632630   4.173948   3.844367   2.583905
    28  H    6.520805   5.697828   4.489146   4.396949   3.348863
    29  H    6.594937   5.357872   4.146664   4.684094   4.000925
    30  H    6.106102   5.028396   4.288908   4.947337   4.533461
    31  H    4.421324   3.394743   2.842787   3.639392   3.647928
    32  H    6.166882   4.685384   3.968282   5.161159   5.152379
    33  H    6.033547   4.558540   4.423599   5.875922   6.213764
    34  H    4.521506   3.027046   2.702177   4.152462   4.574068
    35  H    5.856442   4.816023   4.961279   6.109202   6.347771
    36  H    4.225437   3.102559   3.476649   4.777214   5.326147
    37  H    5.770347   4.533715   4.840568   6.256654   6.702433
    38  H    5.479323   4.472822   2.985520   3.032321   2.436386
    39  H    6.025558   4.723831   3.504662   4.193237   3.913311
    40  H    4.140864   3.203915   2.114591   2.525349   3.015359
    41  H    5.442828   4.062258   3.499669   4.681333   5.079731
    42  H    3.842587   2.472238   2.913176   4.427494   5.302024
                    6          7          8          9         10
     6  C    0.000000
     7  C    1.530791   0.000000
     8  C    2.603725   1.562936   0.000000
     9  C    3.208905   2.579574   1.600947   0.000000
    10  N    4.627553   3.975545   2.677307   1.488168   0.000000
    11  C    5.028965   4.386007   2.867218   2.392883   1.438104
    12  C    5.270698   4.980614   3.869012   2.446041   1.479300
    13  C    3.182258   2.589326   1.614303   2.844672   3.476820
    14  C    3.705549   3.712918   2.834574   3.481404   3.851583
    15  N    5.165132   5.015297   3.850611   4.261616   4.101595
    16  O    5.955489   5.940260   4.714866   4.648382   4.162216
    17  H    5.775553   6.752888   6.377925   5.943594   6.159498
    18  H    4.341650   5.531035   5.515949   5.190214   5.811631
    19  H    4.996487   6.070337   5.892388   5.911711   6.404594
    20  H    4.396106   4.960988   4.289626   3.617401   3.731138
    21  H    5.158505   5.687920   4.901314   4.683367   4.669270
    22  H    2.534852   2.968370   2.465983   2.368073   3.166571
    23  H    3.329616   4.260849   4.387856   5.098550   5.967116
    24  H    2.678942   4.007588   4.369151   4.638762   5.652123
    25  H    1.096112   2.150092   3.528376   4.110125   5.575379
    26  H    1.094940   2.192475   2.864052   2.889239   4.244295
    27  H    2.149194   1.099908   2.177498   3.521502   4.804144
    28  H    2.162773   1.097705   2.189381   2.737223   4.138049
    29  H    3.484290   2.118785   1.101752   2.148872   2.894464
    30  H    3.483449   2.717279   2.195921   1.098785   2.077923
    31  H    2.870299   2.802458   2.238645   1.093403   2.120628
    32  H    5.038656   4.164620   2.606149   2.709469   2.125265
    33  H    6.085131   5.476993   3.951828   3.395497   2.163997
    34  H    4.555841   4.220364   2.834140   2.447950   1.941767
    35  H    5.574211   5.303908   4.403330   2.828612   2.138669
    36  H    4.900699   4.920233   3.942255   2.652633   2.152810
    37  H    6.260578   5.925554   4.674963   3.393739   2.127873
    38  H    3.002260   2.515335   2.197104   3.653458   4.494494
    39  H    4.198338   3.359682   2.221016   3.398426   3.694456
    40  H    4.030442   4.172115   3.572735   4.459622   4.928280
    41  H    5.574167   5.142294   3.818399   4.282120   3.938465
    42  H    5.600686   5.623550   4.403720   4.045756   3.503681
                   11         12         13         14         15
    11  C    0.000000
    12  C    2.318714   0.000000
    13  C    2.951288   4.549429   0.000000
    14  C    3.092586   4.480192   1.597119   0.000000
    15  N    2.920996   4.610564   2.606011   1.500129   0.000000
    16  O    3.032700   4.214785   3.795195   2.575619   1.455427
    17  H    6.010635   5.513387   6.006923   4.685217   5.030856
    18  H    5.926206   5.385223   5.389041   4.384994   5.230051
    19  H    6.108108   6.157251   5.256114   3.927398   4.540170
    20  H    3.724828   3.184813   4.217819   3.223499   3.662406
    21  H    4.102127   4.377201   4.218152   2.755325   2.751116
    22  H    3.233353   3.451645   2.510559   2.093987   3.243025
    23  H    5.617081   6.344701   3.541915   2.740567   3.932202
    24  H    5.707189   5.779017   4.143024   3.518567   4.803045
    25  H    6.076858   6.191035   4.170525   4.745610   6.223911
    26  H    4.816592   4.611170   3.592125   3.835904   5.205078
    27  H    5.009909   5.928021   2.733607   4.019140   5.300515
    28  H    4.838031   5.116024   3.540336   4.699760   5.931639
    29  H    3.060843   4.291797   2.164986   3.607116   4.385001
    30  H    3.262881   2.917798   3.706119   4.524130   5.342821
    31  H    2.972743   2.432962   3.245425   3.484943   4.393896
    32  H    1.088356   3.317654   2.497603   3.043565   2.892087
    33  H    1.091292   2.578686   3.888233   3.802604   3.212116
    34  H    1.069656   2.423240   2.631667   2.293811   2.233007
    35  H    3.288070   1.088984   5.342610   5.401379   5.661615
    36  H    2.674802   1.097224   4.420310   4.033805   4.257618
    37  H    2.468491   1.099328   5.138346   4.932420   4.723520
    38  H    4.050891   5.565261   1.102421   2.164026   3.306789
    39  H    2.905602   4.903852   1.098883   2.225779   2.640114
    40  H    4.126386   5.572968   2.126977   1.098434   1.952949
    41  H    2.598408   4.648370   2.640598   2.134207   1.016608
    42  H    2.601367   3.347142   3.797376   2.687526   2.012610
                   16         17         18         19         20
    16  O    0.000000
    17  H    4.438146   0.000000
    18  H    5.062690   1.769345   0.000000
    19  H    4.437774   1.775832   1.794937   0.000000
    20  H    3.195438   2.430765   2.443249   3.018812   0.000000
    21  H    2.163527   2.322413   3.000081   2.427746   1.749499
    22  H    3.624772   3.928690   3.114191   3.580567   2.052021
    23  H    4.687089   4.227825   3.378407   2.687294   3.991709
    24  H    5.249905   3.611118   2.161014   2.511004   3.360105
    25  H    7.031530   6.485792   4.900685   5.651791   5.317624
    26  H    5.739506   5.105156   3.643646   4.621419   3.673622
    27  H    6.414628   7.473688   6.261759   6.582963   5.810809
    28  H    6.757640   7.433795   6.145465   6.907149   5.553132
    29  H    5.300187   7.415917   6.609755   6.949043   5.252644
    30  H    5.726300   6.764944   5.871428   6.784509   4.482296
    31  H    4.618683   5.076899   4.219052   5.143495   2.849254
    32  H    3.434514   6.729609   6.539524   6.574954   4.524155
    33  H    2.946694   6.320971   6.513427   6.597961   4.163015
    34  H    2.279704   4.994124   4.951023   5.046078   2.785823
    35  H    5.280925   6.052222   5.785806   6.803557   3.833127
    36  H    3.759118   4.424256   4.345804   5.140128   2.132696
    37  H    4.083413   5.850297   6.027028   6.626068   3.674736
    38  H    4.614043   6.444797   5.662123   5.423454   4.928104
    39  H    3.901029   6.825233   6.376135   6.119777   4.990339
    40  H    3.152320   4.988618   4.682240   3.881986   3.997520
    41  H    1.974776   5.961634   6.126186   5.540483   4.376929
    42  H    0.962603   4.031823   4.589100   4.298473   2.447599
                   21         22         23         24         25
    21  H    0.000000
    22  H    2.818357   0.000000
    23  H    3.562187   2.965145   0.000000
    24  H    3.673403   2.516658   1.762966   0.000000
    25  H    6.122687   3.576580   3.949837   3.172768   0.000000
    26  H    4.729496   2.119529   3.574364   2.469438   1.749886
    27  H    6.304517   3.764178   4.415649   4.499197   2.495370
    28  H    6.501882   3.705598   5.262555   4.774906   2.416640
    29  H    5.812719   3.536666   5.348359   5.444365   4.261401
    30  H    5.704610   3.276346   5.921348   5.290356   4.166402
    31  H    4.163025   1.784847   4.646633   3.885576   3.758769
    32  H    4.699108   3.629771   5.659000   5.985402   6.058112
    33  H    4.362666   4.112748   6.393499   6.539392   7.141928
    34  H    3.054639   2.421352   4.716848   4.813092   5.640600
    35  H    5.241297   4.092978   7.041435   6.254305   6.371461
    36  H    3.469896   2.818019   5.605530   4.955089   5.835051
    37  H    4.587386   4.252141   7.002695   6.583737   7.220216
    38  H    4.829565   3.084473   3.235916   4.055819   3.822766
    39  H    4.829966   3.489224   4.444417   5.208643   5.137647
    40  H    3.212006   2.897607   2.269437   3.559133   4.954483
    41  H    3.663037   3.815754   4.752680   5.615636   6.633762
    42  H    1.906752   3.135431   4.741016   4.973897   6.675843
                   26         27         28         29         30
    26  H    0.000000
    27  H    3.079799   0.000000
    28  H    2.572987   1.752568   0.000000
    29  H    3.837526   2.401796   2.419185   0.000000
    30  H    3.158016   3.670439   2.415945   2.417806   0.000000
    31  H    2.222226   3.851378   3.017869   3.066311   1.692675
    32  H    5.060033   4.575178   4.667144   2.511426   3.502983
    33  H    5.818991   6.079607   5.909907   4.062038   4.184523
    34  H    4.284854   4.880287   4.831218   3.372578   3.492865
    35  H    4.820432   6.315020   5.226294   4.770782   2.906675
    36  H    4.146121   5.889486   5.199321   4.608388   3.309706
    37  H    5.636224   6.810384   6.110724   4.994431   3.898069
    38  H    3.701013   2.261796   3.555741   2.658140   4.372720
    39  H    4.636523   3.322655   4.187857   2.252930   4.199885
    40  H    4.346978   4.240033   5.240460   4.287382   5.452034
    41  H    5.681376   5.359168   5.987897   4.100826   5.303879
    42  H    5.234861   6.244123   6.344957   5.051723   5.091995
                   31         32         33         34         35
    31  H    0.000000
    32  H    3.499434   0.000000
    33  H    3.894335   1.755571   0.000000
    34  H    2.665402   1.783601   1.730880   0.000000
    35  H    2.729030   4.197283   3.557226   3.462721   0.000000
    36  H    2.223616   3.694653   3.006659   2.303101   1.775655
    37  H    3.479653   3.501430   2.230472   2.699092   1.767021
    38  H    3.963173   3.528337   4.979941   3.702393   6.297536
    39  H    4.023390   2.108561   3.686875   2.879865   5.747514
    40  H    4.434398   3.935599   4.779637   3.365396   6.484479
    41  H    4.652176   2.302473   2.781416   2.289947   5.703721
    42  H    3.918440   3.273386   2.570016   1.763183   4.389232
                   36         37         38         39         40
    36  H    0.000000
    37  H    1.748473   0.000000
    38  H    5.375872   6.210397   0.000000
    39  H    4.951222   5.324444   1.691818   0.000000
    40  H    5.079807   6.009241   2.162050   2.633621   0.000000
    41  H    4.532826   4.665879   3.419441   2.268607   2.614977
    42  H    2.823399   3.258931   4.711384   4.054121   3.492132
                   41         42
    41  H    0.000000
    42  H    2.489983   0.000000
 Stoichiometry    C12H26N2O2
 Framework group  C1[X(C12H26N2O2)]
 Deg. of freedom   120
 Full point group                 C1      NOp   1
 Largest Abelian subgroup         C1      NOp   1
 Largest concise Abelian subgroup C1      NOp   1
                         Standard orientation:                         
 ---------------------------------------------------------------------
 Center     Atomic      Atomic             Coordinates (Angstroms)
 Number     Number       Type             X           Y           Z
 ---------------------------------------------------------------------
      1          6           0       -0.842442    3.118794    1.619502
      2          6           0        0.050366    2.139891    0.910477
      3          6           0       -0.647688    1.081721    0.053504
      4          6           0       -2.191906    1.116711    0.002481
      5          8           0       -2.791636   -0.143674   -0.321741
      6          6           0       -2.553468   -1.209500    0.600435
      7          6           0       -1.785676   -2.325181   -0.113059
      8          6           0       -0.309978   -1.966638   -0.482561
      9          6           0        0.568599   -1.906116    0.854402
     10          7           0        2.042701   -1.719719    0.771195
     11          6           0        2.368557   -0.947271   -0.397259
     12          6           0        2.542825   -0.925755    1.914797
     13          6           0       -0.312106   -0.827068   -1.625956
     14          6           0       -0.057296    0.723391   -1.339708
     15          7           0        1.216374    1.263020   -1.920185
     16          8           0        2.168932    1.996215   -1.099619
     17          1           0       -0.219663    3.839569    2.155193
     18          1           0       -1.487285    2.620049    2.346210
     19          1           0       -1.440860    3.653541    0.879398
     20          1           0        0.637545    1.615375    1.678984
     21          1           0        0.747658    2.746438    0.348827
     22          1           0       -0.459198    0.217677    0.652153
     23          1           0       -2.503685    1.822191   -0.775325
     24          1           0       -2.636373    1.446286    0.941980
     25          1           0       -3.529542   -1.598032    0.913138
     26          1           0       -2.050934   -0.882876    1.516771
     27          1           0       -2.323679   -2.581998   -1.037394
     28          1           0       -1.798929   -3.234012    0.502414
     29          1           0        0.061005   -2.865751   -1.000079
     30          1           0        0.414706   -2.852150    1.391677
     31          1           0        0.149487   -1.189492    1.565967
     32          1           0        2.094049   -1.429506   -1.333535
     33          1           0        3.402068   -0.611105   -0.496078
     34          1           0        1.780745   -0.071186   -0.220862
     35          1           0        2.543115   -1.501668    2.839032
     36          1           0        1.963281   -0.007797    2.074118
     37          1           0        3.573903   -0.593497    1.727696
     38          1           0       -1.302678   -0.870997   -2.107794
     39          1           0        0.327158   -1.164974   -2.453424
     40          1           0       -0.731265    1.213516   -2.055320
     41          1           0        1.779295    0.577596   -2.416981
     42          1           0        2.199466    1.641486   -0.205282
 ---------------------------------------------------------------------
 Rotational constants (GHZ):           0.5382532           0.4971111           0.3733100
 Standard basis: 6-31G(2df,p) (6D, 7F)
 There are   626 symmetry adapted cartesian basis functions of A   symmetry.
 There are   578 symmetry adapted basis functions of A   symmetry.
   578 basis functions,   886 primitive gaussians,   626 cartesian basis functions
    64 alpha electrons       64 beta electrons
       nuclear repulsion energy      1327.6172350189 Hartrees.
 NAtoms=   42 NActive=   42 NUniq=   42 SFac= 1.00D+00 NAtFMM=   60 NAOKFM=F Big=F
 Integral buffers will be    131072 words long.
 Raffenetti 2 integral format.
 Two-electron integral symmetry is turned on.
 One-electron integrals computed using PRISM.
 PrsmSu:  requested number of processors reduced to:  12 ShMem   1 Linda.
 NBasis=   578 RedAO= T EigKep=  2.92D-04  NBF=   578
 NBsUse=   578 1.00D-06 EigRej= -1.00D+00 NBFU=   578
 ExpMin= 1.61D-01 ExpMax= 5.48D+03 ExpMxC= 8.25D+02 IAcc=3 IRadAn=         5 AccDes= 0.00D+00
 Harris functional with IExCor=  402 and IRadAn=       5 diagonalized for initial guess.
 HarFok:  IExCor=  402 AccDes= 0.00D+00 IRadAn=         5 IDoV= 1 UseB2=F ITyADJ=14
 ICtDFT=  3500011 ScaDFX=  1.000000  1.000000  1.000000  1.000000
 FoFCou: FMM=F IPFlag=           0 FMFlag=      100000 FMFlg1=           0
         NFxFlg=           0 DoJE=T BraDBF=F KetDBF=T FulRan=T
         wScrn=  0.000000 ICntrl=       500 IOpCl=  0 I1Cent=   200000004 NGrid=           0
         NMat0=    1 NMatS0=      1 NMatT0=    0 NMatD0=    1 NMtDS0=    0 NMtDT0=    0
 Petite list used in FoFCou.
 Requested convergence on RMS density matrix=1.00D-08 within 128 cycles.
 Requested convergence on MAX density matrix=1.00D-06.
 Requested convergence on             energy=1.00D-06.
 No special actions if energy rises.
 Integral accuracy reduced to 1.0D-05 until final iterations.
 Initial convergence to 1.0D-05 achieved.  Increase integral accuracy.
 SCF Done:  E(RB3LYP) =  -732.734169260     A.U. after   12 cycles
            NFock= 12  Conv=0.78D-08     -V/T= 2.0077

 **********************************************************************

            Population analysis using the SCF density.

 **********************************************************************

 Orbital symmetries:
       Occupied  (A) (A) (A) (A) (A) (A) (A) (A) (A) (A) (A) (A)
                 (A) (A) (A) (A) (A) (A) (A) (A) (A) (A) (A) (A)
                 (A) (A) (A) (A) (A) (A) (A) (A) (A) (A) (A) (A)
                 (A) (A) (A) (A) (A) (A) (A) (A) (A) (A) (A) (A)
                 (A) (A) (A) (A) (A) (A) (A) (A) (A) (A) (A) (A)
                 (A) (A) (A) (A)
       Virtual   (A) (A) (A) (A) (A) (A) (A) (A) (A) (A) (A) (A)
                 (A) (A) (A) (A) (A) (A) (A) (A) (A) (A) (A) (A)
                 (A) (A) (A) (A) (A) (A) (A) (A) (A) (A) (A) (A)
                 (A) (A) (A) (A) (A) (A) (A) (A) (A) (A) (A) (A)
                 (A) (A) (A) (A) (A) (A) (A) (A) (A) (A) (A) (A)
                 (A) (A) (A) (A) (A) (A) (A) (A) (A) (A) (A) (A)
                 (A) (A) (A) (A) (A) (A) (A) (A) (A) (A) (A) (A)
                 (A) (A) (A) (A) (A) (A) (A) (A) (A) (A) (A) (A)
                 (A) (A) (A) (A) (A) (A) (A) (A) (A) (A) (A) (A)
                 (A) (A) (A) (A) (A) (A) (A) (A) (A) (A) (A) (A)
                 (A) (A) (A) (A) (A) (A) (A) (A) (A) (A) (A) (A)
                 (A) (A) (A) (A) (A) (A) (A) (A) (A) (A) (A) (A)
                 (A) (A) (A) (A) (A) (A) (A) (A) (A) (A) (A) (A)
                 (A) (A) (A) (A) (A) (A) (A) (A) (A) (A) (A) (A)
                 (A) (A) (A) (A) (A) (A) (A) (A) (A) (A) (A) (A)
                 (A) (A) (A) (A) (A) (A) (A) (A) (A) (A) (A) (A)
                 (A) (A) (A) (A) (A) (A) (A) (A) (A) (A) (A) (A)
                 (A) (A) (A) (A) (A) (A) (A) (A) (A) (A) (A) (A)
                 (A) (A) (A) (A) (A) (A) (A) (A) (A) (A) (A) (A)
                 (A) (A) (A) (A) (A) (A) (A) (A) (A) (A) (A) (A)
                 (A) (A) (A) (A) (A) (A) (A) (A) (A) (A) (A) (A)
                 (A) (A) (A) (A) (A) (A) (A) (A) (A) (A) (A) (A)
                 (A) (A) (A) (A) (A) (A) (A) (A) (A) (A) (A) (A)
                 (A) (A) (A) (A) (A) (A) (A) (A) (A) (A) (A) (A)
                 (A) (A) (A) (A) (A) (A) (A) (A) (A) (A) (A) (A)
                 (A) (A) (A) (A) (A) (A) (A) (A) (A) (A) (A) (A)
                 (A) (A) (A) (A) (A) (A) (A) (A) (A) (A) (A) (A)
                 (A) (A) (A) (A) (A) (A) (A) (A) (A) (A) (A) (A)
                 (A) (A) (A) (A) (A) (A) (A) (A) (A) (A) (A) (A)
                 (A) (A) (A) (A) (A) (A) (A) (A) (A) (A) (A) (A)
                 (A) (A) (A) (A) (A) (A) (A) (A) (A) (A) (A) (A)
                 (A) (A) (A) (A) (A) (A) (A) (A) (A) (A) (A) (A)
                 (A) (A) (A) (A) (A) (A) (A) (A) (A) (A) (A) (A)
                 (A) (A) (A) (A) (A) (A) (A) (A) (A) (A) (A) (A)
                 (A) (A) (A) (A) (A) (A) (A) (A) (A) (A) (A) (A)
                 (A) (A) (A) (A) (A) (A) (A) (A) (A) (A) (A) (A)
                 (A) (A) (A) (A) (A) (A) (A) (A) (A) (A) (A) (A)
                 (A) (A) (A) (A) (A) (A) (A) (A) (A) (A) (A) (A)
                 (A) (A) (A) (A) (A) (A) (A) (A) (A) (A) (A) (A)
                 (A) (A) (A) (A) (A) (A) (A) (A) (A) (A) (A) (A)
                 (A) (A) (A) (A) (A) (A) (A) (A) (A) (A) (A) (A)
                 (A) (A) (A) (A) (A) (A) (A) (A) (A) (A) (A) (A)
                 (A) (A) (A) (A) (A) (A) (A) (A) (A) (A)
 The electronic state is 1-A.
 Alpha  occ. eigenvalues --  -19.15222 -19.13773 -14.35407 -14.32222 -10.23014
 Alpha  occ. eigenvalues --  -10.22900 -10.21982 -10.21288 -10.20602 -10.20395
 Alpha  occ. eigenvalues --  -10.19151 -10.18890 -10.18752 -10.18677 -10.17704
 Alpha  occ. eigenvalues --  -10.17342  -1.03261  -1.02406  -0.92257  -0.84049
 Alpha  occ. eigenvalues --   -0.80448  -0.79559  -0.74534  -0.71413  -0.70758
 Alpha  occ. eigenvalues --   -0.69476  -0.67462  -0.63318  -0.60663  -0.60098
 Alpha  occ. eigenvalues --   -0.56934  -0.54946  -0.51127  -0.50416  -0.48312
 Alpha  occ. eigenvalues --   -0.47934  -0.47682  -0.46146  -0.45873  -0.44498
 Alpha  occ. eigenvalues --   -0.43994  -0.43547  -0.42461  -0.41621  -0.41062
 Alpha  occ. eigenvalues --   -0.39751  -0.38844  -0.38241  -0.37773  -0.37169
 Alpha  occ. eigenvalues --   -0.36094  -0.35948  -0.35436  -0.34852  -0.33571
 Alpha  occ. eigenvalues --   -0.33289  -0.32214  -0.31220  -0.31064  -0.29838
 Alpha  occ. eigenvalues --   -0.28135  -0.24531  -0.21300  -0.20337
 Alpha virt. eigenvalues --    0.05250   0.07016   0.07491   0.08165   0.09304
 Alpha virt. eigenvalues --    0.09816   0.10429   0.10604   0.12169   0.12608
 Alpha virt. eigenvalues --    0.12976   0.13579   0.14056   0.15013   0.15303
 Alpha virt. eigenvalues --    0.15902   0.16094   0.16474   0.17230   0.17732
 Alpha virt. eigenvalues --    0.18506   0.19163   0.19674   0.20132   0.21088
 Alpha virt. eigenvalues --    0.21780   0.21929   0.22219   0.22818   0.23768
 Alpha virt. eigenvalues --    0.24234   0.24859   0.25355   0.26475   0.27154
 Alpha virt. eigenvalues --    0.28196   0.28808   0.29568   0.31081   0.32317
 Alpha virt. eigenvalues --    0.34323   0.35488   0.42917   0.44715   0.45636
 Alpha virt. eigenvalues --    0.46245   0.46427   0.47756   0.47889   0.48787
 Alpha virt. eigenvalues --    0.48950   0.49588   0.51130   0.52391   0.52569
 Alpha virt. eigenvalues --    0.53141   0.53934   0.54394   0.54941   0.56865
 Alpha virt. eigenvalues --    0.57453   0.58196   0.58995   0.59518   0.61002
 Alpha virt. eigenvalues --    0.61103   0.61818   0.62643   0.64731   0.65142
 Alpha virt. eigenvalues --    0.66405   0.67040   0.67711   0.68533   0.68984
 Alpha virt. eigenvalues --    0.69960   0.70851   0.71651   0.71905   0.72454
 Alpha virt. eigenvalues --    0.73068   0.73216   0.73485   0.74282   0.74933
 Alpha virt. eigenvalues --    0.75797   0.76654   0.76919   0.77788   0.77887
 Alpha virt. eigenvalues --    0.78405   0.79224   0.79570   0.80516   0.81012
 Alpha virt. eigenvalues --    0.81258   0.82264   0.83339   0.83504   0.84210
 Alpha virt. eigenvalues --    0.84925   0.85357   0.86128   0.86952   0.87929
 Alpha virt. eigenvalues --    0.88505   0.90439   0.91272   0.91634   0.91845
 Alpha virt. eigenvalues --    0.93553   0.94698   0.95105   0.96816   0.99182
 Alpha virt. eigenvalues --    0.99756   0.99881   1.01206   1.03439   1.04871
 Alpha virt. eigenvalues --    1.06013   1.06810   1.07579   1.08713   1.09909
 Alpha virt. eigenvalues --    1.11099   1.12181   1.13241   1.14693   1.15822
 Alpha virt. eigenvalues --    1.17611   1.18214   1.20038   1.20665   1.21627
 Alpha virt. eigenvalues --    1.23232   1.24360   1.24981   1.26165   1.27050
 Alpha virt. eigenvalues --    1.27702   1.28872   1.29449   1.32408   1.33588
 Alpha virt. eigenvalues --    1.35168   1.35957   1.37160   1.39769   1.40321
 Alpha virt. eigenvalues --    1.41743   1.42565   1.42721   1.44598   1.44664
 Alpha virt. eigenvalues --    1.46406   1.48035   1.48682   1.49852   1.51236
 Alpha virt. eigenvalues --    1.52042   1.53285   1.54248   1.54811   1.55243
 Alpha virt. eigenvalues --    1.55987   1.56880   1.58115   1.59796   1.60737
 Alpha virt. eigenvalues --    1.60892   1.61617   1.63509   1.64292   1.64677
 Alpha virt. eigenvalues --    1.66438   1.68037   1.69075   1.69634   1.70342
 Alpha virt. eigenvalues --    1.72000   1.73451   1.74090   1.75574   1.77372
 Alpha virt. eigenvalues --    1.77864   1.78725   1.80366   1.81281   1.81929
 Alpha virt. eigenvalues --    1.82962   1.84252   1.85249   1.87473   1.88389
 Alpha virt. eigenvalues --    1.91351   1.93201   1.93782   1.94283   1.95709
 Alpha virt. eigenvalues --    1.96735   1.96794   1.97541   1.99613   2.01468
 Alpha virt. eigenvalues --    2.02145   2.04048   2.06380   2.07721   2.08612
 Alpha virt. eigenvalues --    2.10783   2.11602   2.13492   2.15357   2.18137
 Alpha virt. eigenvalues --    2.22543   2.23517   2.25304   2.25824   2.27270
 Alpha virt. eigenvalues --    2.29302   2.30222   2.31179   2.32260   2.33625
 Alpha virt. eigenvalues --    2.35717   2.35992   2.38439   2.39336   2.40346
 Alpha virt. eigenvalues --    2.41762   2.43078   2.43601   2.45129   2.45528
 Alpha virt. eigenvalues --    2.47280   2.48791   2.49729   2.50307   2.53239
 Alpha virt. eigenvalues --    2.53802   2.54801   2.55618   2.57663   2.59427
 Alpha virt. eigenvalues --    2.61141   2.63229   2.63732   2.66174   2.68489
 Alpha virt. eigenvalues --    2.69214   2.71621   2.72142   2.73640   2.74869
 Alpha virt. eigenvalues --    2.76104   2.76924   2.77460   2.78386   2.79917
 Alpha virt. eigenvalues --    2.80847   2.81988   2.82775   2.83434   2.84783
 Alpha virt. eigenvalues --    2.86532   2.86992   2.87122   2.87957   2.89098
 Alpha virt. eigenvalues --    2.89362   2.89966   2.91065   2.92804   2.93486
 Alpha virt. eigenvalues --    2.94710   2.95887   2.96091   2.96906   2.98454
 Alpha virt. eigenvalues --    2.99633   2.99930   3.00343   3.00676   3.02313
 Alpha virt. eigenvalues --    3.02778   3.04086   3.05054   3.06048   3.07550
 Alpha virt. eigenvalues --    3.07974   3.10370   3.11981   3.13538   3.16105
 Alpha virt. eigenvalues --    3.16754   3.19625   3.20860   3.22444   3.23282
 Alpha virt. eigenvalues --    3.25491   3.26366   3.27206   3.28372   3.32268
 Alpha virt. eigenvalues --    3.32928   3.33990   3.35044   3.36470   3.37070
 Alpha virt. eigenvalues --    3.37669   3.38681   3.39114   3.40335   3.41350
 Alpha virt. eigenvalues --    3.44159   3.44260   3.44753   3.46180   3.47620
 Alpha virt. eigenvalues --    3.49962   3.51159   3.51334   3.52210   3.53540
 Alpha virt. eigenvalues --    3.55523   3.56601   3.57276   3.58692   3.59570
 Alpha virt. eigenvalues --    3.60565   3.61274   3.62348   3.63823   3.64556
 Alpha virt. eigenvalues --    3.65940   3.66569   3.68201   3.70049   3.70600
 Alpha virt. eigenvalues --    3.71389   3.72716   3.72874   3.74450   3.75857
 Alpha virt. eigenvalues --    3.77885   3.79813   3.80882   3.81749   3.83530
 Alpha virt. eigenvalues --    3.85803   3.86414   3.89135   3.89246   3.91479
 Alpha virt. eigenvalues --    3.92305   3.94599   3.96659   3.99048   4.01024
 Alpha virt. eigenvalues --    4.02091   4.03646   4.04546   4.06312   4.09191
 Alpha virt. eigenvalues --    4.10556   4.11345   4.15234   4.17638   4.18166
 Alpha virt. eigenvalues --    4.19708   4.20369   4.26235   4.26902   4.28127
 Alpha virt. eigenvalues --    4.28960   4.31328   4.32175   4.33147   4.35089
 Alpha virt. eigenvalues --    4.35909   4.39594   4.40951   4.41681   4.43476
 Alpha virt. eigenvalues --    4.44221   4.44909   4.45592   4.45909   4.47247
 Alpha virt. eigenvalues --    4.47830   4.48378   4.49414   4.50767   4.51243
 Alpha virt. eigenvalues --    4.52148   4.53368   4.55193   4.55875   4.56411
 Alpha virt. eigenvalues --    4.57106   4.58430   4.59341   4.59985   4.60374
 Alpha virt. eigenvalues --    4.61578   4.62126   4.63712   4.64802   4.65751
 Alpha virt. eigenvalues --    4.66483   4.66909   4.68442   4.69248   4.70372
 Alpha virt. eigenvalues --    4.71523   4.72720   4.73350   4.74266   4.75610
 Alpha virt. eigenvalues --    4.75999   4.77102   4.77873   4.78181   4.78650
 Alpha virt. eigenvalues --    4.79194   4.80996   4.81855   4.82571   4.83167
 Alpha virt. eigenvalues --    4.84868   4.85834   4.87757   4.88411   4.88988
 Alpha virt. eigenvalues --    4.89954   4.91587   4.92260   4.92695   4.93584
 Alpha virt. eigenvalues --    4.94840   4.95652   4.98672   4.99897   5.00408
 Alpha virt. eigenvalues --    5.02404   5.02979   5.03751   5.05780   5.06096
 Alpha virt. eigenvalues --    5.07707   5.12041   5.12404   5.13981   5.18125
 Alpha virt. eigenvalues --    5.19493   5.19959   5.23154   5.24167   5.26482
 Alpha virt. eigenvalues --    5.28734   5.32308   5.33799   5.36013   5.37622
 Alpha virt. eigenvalues --    5.38614   5.39632   5.41371   5.43491   5.45701
 Alpha virt. eigenvalues --    5.46928   5.48473   5.48787   5.49906   5.52100
 Alpha virt. eigenvalues --    5.55635   5.58556   5.60581   5.63289   5.65952
 Alpha virt. eigenvalues --    5.73412   5.77917   5.79368   5.87197   5.95053
 Alpha virt. eigenvalues --    5.98260   6.00570   6.01117   6.08233   6.15340
 Alpha virt. eigenvalues --    6.25211   6.34176   6.72343   7.01492   7.19938
 Alpha virt. eigenvalues --    7.31483  11.10423  11.19131  11.37073  11.47658
 Alpha virt. eigenvalues --   11.56692  11.63643  11.87621  11.94670  12.05466
 Alpha virt. eigenvalues --   12.23683  12.34135  12.54450  12.87568  13.03159
 Alpha virt. eigenvalues --   13.19000  13.67743  14.01832  17.47907
          Condensed to atoms (all electrons):
               1          2          3          4          5          6
     1  C    4.983662   0.373934  -0.027558  -0.019181   0.000061   0.000000
     2  C    0.373934   4.995799   0.382146  -0.024873   0.001942  -0.000420
     3  C   -0.027558   0.382146   4.790915   0.367229  -0.051399   0.002997
     4  C   -0.019181  -0.024873   0.367229   4.862900   0.381319  -0.088127
     5  O    0.000061   0.001942  -0.051399   0.381319   7.708544   0.354432
     6  C    0.000000  -0.000420   0.002997  -0.088127   0.354432   4.781664
     7  C   -0.000002   0.000080   0.001394   0.002891  -0.044470   0.403861
     8  C   -0.000000   0.000209  -0.009949   0.000929  -0.002171  -0.020265
     9  C   -0.000002  -0.000056  -0.008875   0.000209  -0.000134  -0.006233
    10  N    0.000000   0.000324   0.001441   0.000020  -0.000001   0.000170
    11  C   -0.000002  -0.000693  -0.001832   0.000120  -0.000000  -0.000002
    12  C    0.000045  -0.001541   0.000423  -0.000003   0.000000   0.000002
    13  C   -0.000077   0.003908  -0.017394   0.000251  -0.000244  -0.008502
    14  C    0.002345  -0.036338   0.407216  -0.020300  -0.001287   0.001115
    15  N    0.000124  -0.003625  -0.021817   0.000987   0.000015   0.000000
    16  O    0.000822  -0.013572  -0.008587  -0.000086  -0.000000   0.000000
    17  H    0.374331  -0.025005   0.003390   0.000351  -0.000003  -0.000001
    18  H    0.374159  -0.025462  -0.003160  -0.001989  -0.000025  -0.000022
    19  H    0.381241  -0.028262  -0.006485   0.002524   0.000060   0.000012
    20  H   -0.040867   0.359808  -0.019758   0.004177  -0.000020   0.000004
    21  H   -0.026047   0.351204  -0.020310   0.000481  -0.000033   0.000008
    22  H    0.005337  -0.037024   0.327489  -0.057258  -0.006046   0.006852
    23  H    0.000299   0.002953  -0.034337   0.347520  -0.015957   0.005132
    24  H    0.004177  -0.008538  -0.041968   0.366905  -0.029664  -0.008816
    25  H    0.000000  -0.000001  -0.000509   0.002981  -0.022551   0.361821
    26  H    0.000055  -0.000610  -0.001730  -0.005876  -0.026958   0.356351
    27  H    0.000000  -0.000002  -0.000109   0.000101  -0.001370  -0.031469
    28  H   -0.000000   0.000002  -0.000024  -0.000209   0.002797  -0.029901
    29  H    0.000000  -0.000010  -0.000094   0.000042  -0.000009   0.004282
    30  H    0.000000   0.000010   0.000656  -0.000023  -0.000004  -0.000073
    31  H   -0.000014  -0.000175  -0.011580   0.000147   0.000066  -0.000718
    32  H    0.000000   0.000029   0.000082  -0.000002   0.000000   0.000003
    33  H   -0.000001  -0.000029   0.000137   0.000000   0.000000   0.000000
    34  H    0.000063  -0.000630  -0.003027  -0.000360   0.000004  -0.000033
    35  H   -0.000001   0.000035   0.000020   0.000000  -0.000000   0.000001
    36  H   -0.000173  -0.002017  -0.001083  -0.000006   0.000001  -0.000024
    37  H   -0.000001   0.000041  -0.000005   0.000000   0.000000   0.000000
    38  H    0.000004  -0.000115  -0.000860  -0.000800   0.012049  -0.001751
    39  H    0.000002  -0.000129   0.002716  -0.000012   0.000530   0.000088
    40  H    0.000141   0.002311  -0.053249  -0.013548  -0.000427  -0.000075
    41  H    0.000009  -0.000113   0.002276  -0.000068   0.000002  -0.000002
    42  H   -0.000741   0.010038  -0.000317   0.000050   0.000000   0.000001
               7          8          9         10         11         12
     1  C   -0.000002  -0.000000  -0.000002   0.000000  -0.000002   0.000045
     2  C    0.000080   0.000209  -0.000056   0.000324  -0.000693  -0.001541
     3  C    0.001394  -0.009949  -0.008875   0.001441  -0.001832   0.000423
     4  C    0.002891   0.000929   0.000209   0.000020   0.000120  -0.000003
     5  O   -0.044470  -0.002171  -0.000134  -0.000001  -0.000000   0.000000
     6  C    0.403861  -0.020265  -0.006233   0.000170  -0.000002   0.000002
     7  C    4.939209   0.388228  -0.031242   0.001408   0.000186  -0.000077
     8  C    0.388228   4.755109   0.404732  -0.021080  -0.005762   0.003694
     9  C   -0.031242   0.404732   4.924860   0.398478  -0.076919  -0.063640
    10  N    0.001408  -0.021080   0.398478   6.184796   0.376851   0.397004
    11  C    0.000186  -0.005762  -0.076919   0.376851   4.988681  -0.087236
    12  C   -0.000077   0.003694  -0.063640   0.397004  -0.087236   5.021746
    13  C   -0.026643   0.376632  -0.027290  -0.000525  -0.003198   0.000127
    14  C   -0.000092  -0.017763  -0.002593  -0.000484  -0.003523  -0.000233
    15  N   -0.000047   0.000859   0.000418   0.001091  -0.007089  -0.000012
    16  O    0.000000   0.000036  -0.000085   0.000295  -0.006278   0.000010
    17  H    0.000000  -0.000000   0.000000  -0.000000  -0.000000   0.000001
    18  H   -0.000002   0.000001  -0.000002  -0.000000   0.000000   0.000003
    19  H    0.000000  -0.000001  -0.000000   0.000000  -0.000000  -0.000001
    20  H    0.000015  -0.000038   0.000071  -0.000493   0.000051  -0.002060
    21  H   -0.000003   0.000006  -0.000001  -0.000001   0.000180   0.000046
    22  H   -0.005109   0.010106   0.004022  -0.000649  -0.001371   0.000223
    23  H   -0.000278   0.000026  -0.000013   0.000000  -0.000003   0.000000
    24  H   -0.000386  -0.000079   0.000019   0.000000  -0.000002  -0.000000
    25  H   -0.043299   0.004195  -0.000017  -0.000002  -0.000000  -0.000000
    26  H   -0.039351  -0.007786  -0.000537  -0.000054   0.000017  -0.000025
    27  H    0.363809  -0.026723   0.002915  -0.000053   0.000005   0.000001
    28  H    0.346407  -0.028150  -0.004526   0.000077   0.000014   0.000005
    29  H   -0.033161   0.350111  -0.037533  -0.001064   0.001006  -0.000103
    30  H   -0.003624  -0.020034   0.342159  -0.026222   0.004106   0.003219
    31  H   -0.001546  -0.039989   0.342052  -0.043279   0.006044  -0.017672
    32  H    0.000183   0.001816  -0.006278  -0.014096   0.374350   0.006540
    33  H   -0.000010   0.000179   0.005537  -0.015292   0.377725  -0.007738
    34  H    0.000082  -0.002846  -0.005351  -0.074290   0.376102  -0.008094
    35  H    0.000002  -0.000000   0.000240  -0.022845   0.004972   0.379272
    36  H   -0.000001   0.000267  -0.008843  -0.045897   0.001204   0.342740
    37  H    0.000001  -0.000155   0.004543  -0.021607  -0.005285   0.377855
    38  H   -0.011971  -0.030372   0.002593  -0.000007   0.000305   0.000005
    39  H    0.003314  -0.033172   0.001913   0.000274  -0.005226  -0.000006
    40  H   -0.000073   0.004294  -0.000075  -0.000007   0.000419   0.000001
    41  H   -0.000002   0.000136   0.000190   0.000044   0.001111   0.000010
    42  H    0.000000   0.000047  -0.000118  -0.002076   0.001318   0.000135
              13         14         15         16         17         18
     1  C   -0.000077   0.002345   0.000124   0.000822   0.374331   0.374159
     2  C    0.003908  -0.036338  -0.003625  -0.013572  -0.025005  -0.025462
     3  C   -0.017394   0.407216  -0.021817  -0.008587   0.003390  -0.003160
     4  C    0.000251  -0.020300   0.000987  -0.000086   0.000351  -0.001989
     5  O   -0.000244  -0.001287   0.000015  -0.000000  -0.000003  -0.000025
     6  C   -0.008502   0.001115   0.000000   0.000000  -0.000001  -0.000022
     7  C   -0.026643  -0.000092  -0.000047   0.000000   0.000000  -0.000002
     8  C    0.376632  -0.017763   0.000859   0.000036  -0.000000   0.000001
     9  C   -0.027290  -0.002593   0.000418  -0.000085   0.000000  -0.000002
    10  N   -0.000525  -0.000484   0.001091   0.000295  -0.000000  -0.000000
    11  C   -0.003198  -0.003523  -0.007089  -0.006278  -0.000000   0.000000
    12  C    0.000127  -0.000233  -0.000012   0.000010   0.000001   0.000003
    13  C    5.087972   0.341067  -0.032556   0.002145   0.000002  -0.000001
    14  C    0.341067   4.830187   0.340264  -0.044888  -0.000077  -0.000051
    15  N   -0.032556   0.340264   6.463282   0.256214  -0.000006  -0.000001
    16  O    0.002145  -0.044888   0.256214   7.950328   0.000013  -0.000008
    17  H    0.000002  -0.000077  -0.000006   0.000013   0.606915  -0.032328
    18  H   -0.000001  -0.000051  -0.000001  -0.000008  -0.032328   0.608899
    19  H   -0.000003   0.000225  -0.000000   0.000011  -0.029722  -0.034442
    20  H   -0.000009   0.004745   0.000008  -0.000771  -0.001854  -0.006613
    21  H   -0.000088  -0.012393  -0.000747   0.028634  -0.005070   0.005289
    22  H   -0.030015  -0.052103   0.002286   0.000018  -0.000279   0.000965
    23  H   -0.000958  -0.009142   0.000117   0.000003  -0.000065   0.000162
    24  H    0.000145   0.003281  -0.000048  -0.000000   0.000001   0.003753
    25  H    0.000189  -0.000038   0.000000   0.000000  -0.000000   0.000001
    26  H   -0.000102   0.000425  -0.000000  -0.000000   0.000003   0.000217
    27  H   -0.006036   0.000050  -0.000002  -0.000000   0.000000   0.000000
    28  H    0.004363  -0.000049   0.000001  -0.000000   0.000000   0.000000
    29  H   -0.039662   0.003472  -0.000084   0.000000  -0.000000   0.000000
    30  H    0.003484  -0.000039   0.000001   0.000000  -0.000000   0.000000
    31  H   -0.004290   0.002046  -0.000021  -0.000010   0.000002   0.000004
    32  H    0.000557  -0.001283  -0.001555   0.000624  -0.000000  -0.000000
    33  H    0.000111   0.000391  -0.000122   0.002426  -0.000000   0.000000
    34  H   -0.001577  -0.000145  -0.006161  -0.006364   0.000003  -0.000004
    35  H   -0.000001   0.000002  -0.000001   0.000001  -0.000000  -0.000000
    36  H   -0.000045   0.000073  -0.000066  -0.000318   0.000002   0.000002
    37  H   -0.000001   0.000004  -0.000004  -0.000018   0.000000  -0.000000
    38  H    0.347304  -0.016058   0.001945  -0.000054  -0.000000  -0.000000
    39  H    0.345936  -0.034404  -0.007579   0.000106  -0.000000  -0.000000
    40  H   -0.047055   0.338558  -0.037464   0.003127   0.000001   0.000012
    41  H   -0.005759  -0.066837   0.351912  -0.033520  -0.000000  -0.000000
    42  H    0.000623   0.003681  -0.069509   0.288348  -0.000000   0.000016
              19         20         21         22         23         24
     1  C    0.381241  -0.040867  -0.026047   0.005337   0.000299   0.004177
     2  C   -0.028262   0.359808   0.351204  -0.037024   0.002953  -0.008538
     3  C   -0.006485  -0.019758  -0.020310   0.327489  -0.034337  -0.041968
     4  C    0.002524   0.004177   0.000481  -0.057258   0.347520   0.366905
     5  O    0.000060  -0.000020  -0.000033  -0.006046  -0.015957  -0.029664
     6  C    0.000012   0.000004   0.000008   0.006852   0.005132  -0.008816
     7  C    0.000000   0.000015  -0.000003  -0.005109  -0.000278  -0.000386
     8  C   -0.000001  -0.000038   0.000006   0.010106   0.000026  -0.000079
     9  C   -0.000000   0.000071  -0.000001   0.004022  -0.000013   0.000019
    10  N    0.000000  -0.000493  -0.000001  -0.000649   0.000000   0.000000
    11  C   -0.000000   0.000051   0.000180  -0.001371  -0.000003  -0.000002
    12  C   -0.000001  -0.002060   0.000046   0.000223   0.000000  -0.000000
    13  C   -0.000003  -0.000009  -0.000088  -0.030015  -0.000958   0.000145
    14  C    0.000225   0.004745  -0.012393  -0.052103  -0.009142   0.003281
    15  N   -0.000000   0.000008  -0.000747   0.002286   0.000117  -0.000048
    16  O    0.000011  -0.000771   0.028634   0.000018   0.000003  -0.000000
    17  H   -0.029722  -0.001854  -0.005070  -0.000279  -0.000065   0.000001
    18  H   -0.034442  -0.006613   0.005289   0.000965   0.000162   0.003753
    19  H    0.592079   0.005850  -0.004338  -0.000132   0.000234  -0.000016
    20  H    0.005850   0.654101  -0.045877  -0.029006  -0.000301   0.000138
    21  H   -0.004338  -0.045877   0.585218   0.007291   0.000317  -0.000022
    22  H   -0.000132  -0.029006   0.007291   0.765158   0.008229  -0.003128
    23  H    0.000234  -0.000301   0.000317   0.008229   0.612328  -0.039720
    24  H   -0.000016   0.000138  -0.000022  -0.003128  -0.039720   0.648929
    25  H   -0.000000  -0.000003   0.000000  -0.000031  -0.000178   0.001686
    26  H   -0.000004   0.000157   0.000007   0.001097  -0.000105   0.005847
    27  H    0.000000   0.000000  -0.000000   0.000098  -0.000006   0.000016
    28  H    0.000000  -0.000000   0.000000   0.000088   0.000006   0.000023
    29  H   -0.000000  -0.000000   0.000000  -0.000193  -0.000001  -0.000001
    30  H    0.000000  -0.000026   0.000001  -0.001037   0.000001   0.000001
    31  H   -0.000001   0.001663  -0.000027   0.005079  -0.000019  -0.000056
    32  H    0.000000  -0.000008  -0.000005   0.000105   0.000000   0.000000
    33  H    0.000000  -0.000012  -0.000023   0.000022   0.000000   0.000000
    34  H    0.000001   0.000775  -0.000843   0.001203   0.000008   0.000004
    35  H    0.000000  -0.000003   0.000000  -0.000082   0.000000   0.000000
    36  H    0.000004   0.012876  -0.000041  -0.000100  -0.000001  -0.000000
    37  H    0.000000  -0.000000  -0.000010   0.000016  -0.000000   0.000000
    38  H    0.000000   0.000001   0.000006   0.000418  -0.000067   0.000168
    39  H    0.000000   0.000002   0.000000   0.000657  -0.000011   0.000013
    40  H   -0.000039  -0.000282   0.001508   0.009857   0.011484   0.000193
    41  H    0.000000  -0.000008   0.000486   0.000049   0.000007   0.000002
    42  H    0.000030   0.004431  -0.010859  -0.001279  -0.000026   0.000000
              25         26         27         28         29         30
     1  C    0.000000   0.000055   0.000000  -0.000000   0.000000   0.000000
     2  C   -0.000001  -0.000610  -0.000002   0.000002  -0.000010   0.000010
     3  C   -0.000509  -0.001730  -0.000109  -0.000024  -0.000094   0.000656
     4  C    0.002981  -0.005876   0.000101  -0.000209   0.000042  -0.000023
     5  O   -0.022551  -0.026958  -0.001370   0.002797  -0.000009  -0.000004
     6  C    0.361821   0.356351  -0.031469  -0.029901   0.004282  -0.000073
     7  C   -0.043299  -0.039351   0.363809   0.346407  -0.033161  -0.003624
     8  C    0.004195  -0.007786  -0.026723  -0.028150   0.350111  -0.020034
     9  C   -0.000017  -0.000537   0.002915  -0.004526  -0.037533   0.342159
    10  N   -0.000002  -0.000054  -0.000053   0.000077  -0.001064  -0.026222
    11  C   -0.000000   0.000017   0.000005   0.000014   0.001006   0.004106
    12  C   -0.000000  -0.000025   0.000001   0.000005  -0.000103   0.003219
    13  C    0.000189  -0.000102  -0.006036   0.004363  -0.039662   0.003484
    14  C   -0.000038   0.000425   0.000050  -0.000049   0.003472  -0.000039
    15  N    0.000000  -0.000000  -0.000002   0.000001  -0.000084   0.000001
    16  O    0.000000  -0.000000  -0.000000  -0.000000   0.000000   0.000000
    17  H   -0.000000   0.000003   0.000000   0.000000  -0.000000  -0.000000
    18  H    0.000001   0.000217   0.000000   0.000000   0.000000   0.000000
    19  H   -0.000000  -0.000004   0.000000   0.000000  -0.000000   0.000000
    20  H   -0.000003   0.000157   0.000000  -0.000000  -0.000000  -0.000026
    21  H    0.000000   0.000007  -0.000000   0.000000   0.000000   0.000001
    22  H   -0.000031   0.001097   0.000098   0.000088  -0.000193  -0.001037
    23  H   -0.000178  -0.000105  -0.000006   0.000006  -0.000001   0.000001
    24  H    0.001686   0.005847   0.000016   0.000023  -0.000001   0.000001
    25  H    0.642772  -0.041833  -0.003876   0.000247  -0.000203  -0.000011
    26  H   -0.041833   0.649143   0.005896   0.000574  -0.000005   0.000153
    27  H   -0.003876   0.005896   0.618767  -0.035563  -0.003965  -0.000094
    28  H    0.000247   0.000574  -0.035563   0.651299  -0.004432   0.006006
    29  H   -0.000203  -0.000005  -0.003965  -0.004432   0.678738  -0.006912
    30  H   -0.000011   0.000153  -0.000094   0.006006  -0.006912   0.647707
    31  H   -0.000187   0.004197  -0.000071  -0.000630   0.007081  -0.050642
    32  H   -0.000000  -0.000002   0.000000  -0.000000   0.000006   0.000283
    33  H   -0.000000  -0.000000  -0.000000   0.000000  -0.000048  -0.000188
    34  H    0.000000   0.000012   0.000001  -0.000010   0.000801  -0.000543
    35  H   -0.000000  -0.000002  -0.000000   0.000000  -0.000003   0.001769
    36  H    0.000000   0.000040   0.000000  -0.000002   0.000023  -0.001102
    37  H    0.000000  -0.000000  -0.000000   0.000000   0.000007  -0.000251
    38  H   -0.000027   0.000432   0.006015   0.000287   0.002658  -0.000087
    39  H    0.000012   0.000003   0.000274  -0.000189  -0.013278  -0.000059
    40  H    0.000007  -0.000003  -0.000024   0.000006  -0.000137   0.000003
    41  H    0.000000   0.000000   0.000000   0.000000  -0.000117  -0.000000
    42  H   -0.000000   0.000001   0.000000  -0.000000   0.000006  -0.000006
              31         32         33         34         35         36
     1  C   -0.000014   0.000000  -0.000001   0.000063  -0.000001  -0.000173
     2  C   -0.000175   0.000029  -0.000029  -0.000630   0.000035  -0.002017
     3  C   -0.011580   0.000082   0.000137  -0.003027   0.000020  -0.001083
     4  C    0.000147  -0.000002   0.000000  -0.000360   0.000000  -0.000006
     5  O    0.000066   0.000000   0.000000   0.000004  -0.000000   0.000001
     6  C   -0.000718   0.000003   0.000000  -0.000033   0.000001  -0.000024
     7  C   -0.001546   0.000183  -0.000010   0.000082   0.000002  -0.000001
     8  C   -0.039989   0.001816   0.000179  -0.002846  -0.000000   0.000267
     9  C    0.342052  -0.006278   0.005537  -0.005351   0.000240  -0.008843
    10  N   -0.043279  -0.014096  -0.015292  -0.074290  -0.022845  -0.045897
    11  C    0.006044   0.374350   0.377725   0.376102   0.004972   0.001204
    12  C   -0.017672   0.006540  -0.007738  -0.008094   0.379272   0.342740
    13  C   -0.004290   0.000557   0.000111  -0.001577  -0.000001  -0.000045
    14  C    0.002046  -0.001283   0.000391  -0.000145   0.000002   0.000073
    15  N   -0.000021  -0.001555  -0.000122  -0.006161  -0.000001  -0.000066
    16  O   -0.000010   0.000624   0.002426  -0.006364   0.000001  -0.000318
    17  H    0.000002  -0.000000  -0.000000   0.000003  -0.000000   0.000002
    18  H    0.000004  -0.000000   0.000000  -0.000004  -0.000000   0.000002
    19  H   -0.000001   0.000000   0.000000   0.000001   0.000000   0.000004
    20  H    0.001663  -0.000008  -0.000012   0.000775  -0.000003   0.012876
    21  H   -0.000027  -0.000005  -0.000023  -0.000843   0.000000  -0.000041
    22  H    0.005079   0.000105   0.000022   0.001203  -0.000082  -0.000100
    23  H   -0.000019   0.000000   0.000000   0.000008   0.000000  -0.000001
    24  H   -0.000056   0.000000   0.000000   0.000004   0.000000  -0.000000
    25  H   -0.000187  -0.000000  -0.000000   0.000000  -0.000000   0.000000
    26  H    0.004197  -0.000002  -0.000000   0.000012  -0.000002   0.000040
    27  H   -0.000071   0.000000  -0.000000   0.000001  -0.000000   0.000000
[...]
 0.00326993,-0.00366508,-0.00743113,0.00156007,-0.00101168,0.00040081,0
 .00013359,0.00027216,0.00072060,0.00002242,0.00002721,-0.00001653,-0.0
 0000781,-0.00000520,-0.00000439,0.00004627,0.00002647,0.00000056,-0.00
 008493,0.00004465,0.00006073,0.00004370,-0.00003233,-0.00000101,-0.000
 08379,-0.00008464,0.00019566,-0.00000453,0.00007724,0.00000267,-0.0001
 6575,0.00015134,0.00017466,0.00015448,-0.00006583,0.00006860,-0.000082
 97,-0.00006522,0.00022696,-0.00003268,0.00104510,0.00031121,-0.0002109
 9,-0.00030429,0.00036034,-0.00018656,-0.00003859,0.00054294,0.00010463
 ,0.00004418,0.00021074,0.00000215,-0.00009309,0.00026568,0.00000409,-0
 .00003059,0.00005586,-0.00008732,0.00001164,-0.00001578,-0.00005663,-0
 .00003735,0.00002392,0.00003067,-0.00001927,0.00001523,0.00000136,-0.0
 0004993,-0.00003086,-0.00001408,-0.00002287,-0.00021011,0.03755082,0.1
 2633938,0.24862541,-0.00032664,0.00057957,0.00000235,-0.00052389,-0.00
 149929,0.00087709,-0.00281582,0.00413862,-0.00165026,0.00034684,0.0005
 7464,0.00016891,0.00011158,-0.00139097,0.00047143,-0.00095113,0.000697
 41,-0.00060203,-0.00063832,0.00131320,-0.00243565,0.00595421,0.0147073
 0,-0.00505732,0.00012059,-0.00004623,0.00056251,-0.00011196,0.00035038
 ,-0.00003442,0.00004405,-0.00006676,-0.00001247,-0.00002860,-0.0000645
 6,0.00009126,-0.13424716,-0.11434497,0.03590265,-0.02251304,-0.0190093
 0,0.00973297,0.00241366,-0.00325079,-0.00077441,0.00097594,0.00065650,
 0.00085256,-0.00018334,-0.00007736,0.00015779,0.00003330,-0.00002227,0
 .00001228,0.00001488,-0.00002156,-0.00001814,-0.00004476,0.00008490,0.
 00011344,-0.00002873,-0.00000719,-0.00006458,0.00017046,0.00001415,0.0
 0009183,0.00000044,-0.00004498,-0.00002176,-0.00009559,-0.00017006,0.0
 0003235,0.00022589,-0.00007542,0.00005514,0.00005950,-0.00001349,0.000
 01773,-0.00006199,-0.00009678,0.00004273,0.00007789,0.00080566,-0.0001
 3218,0.00177473,0.00124548,-0.00061297,-0.00000659,-0.00003271,-0.0000
 5699,0.00012665,0.00008741,0.00011405,-0.00000924,0.00002321,-0.000005
 53,-0.00000377,0.00000853,0.00000728,-0.00001551,-0.00001516,-0.000004
 19,0.00000934,0.00000135,-0.00000928,0.00000900,-0.00001434,-0.0000184
 2,-0.00000221,0.00001163,0.00000900,-0.00362447,-0.00397471,0.00118546
 ,0.15467616,0.00015053,-0.00008494,0.00001374,0.00053020,0.00036438,-0
 .00050306,0.00157644,-0.00109297,-0.00053343,0.00077802,-0.00078805,-0
 .00032595,-0.00153031,-0.00048177,0.00050451,0.00038119,0.00038048,-0.
 00041420,0.00278010,-0.00015295,0.00331854,-0.00808280,-0.01717454,0.0
 0418733,-0.00026835,-0.00086375,-0.00064318,0.00022060,0.00062836,0.00
 016256,-0.00014066,-0.00019958,-0.00002481,0.00005799,-0.00000758,-0.0
 0002007,-0.11357003,-0.18201983,0.04426323,0.00920669,0.00439417,-0.00
 394974,0.00279821,0.00176108,-0.00236147,0.00104409,0.00013632,0.00042
 321,0.00003987,0.00003610,-0.00003307,-0.00000862,-0.00000593,-0.00001
 662,0.00005849,0.00002396,-0.00001350,-0.00005693,0.00013602,0.0000449
 1,-0.00004279,0.00000664,0.00001033,-0.00001503,-0.00004227,-0.0000647
 9,-0.00006300,0.00007878,-0.00002899,-0.00014071,0.00007163,0.00010556
 ,-0.00012698,-0.00007909,0.00004950,-0.00007404,-0.00001012,0.00011729
 ,0.00000640,0.00031021,-0.00005384,-0.00041906,-0.00137907,0.00004107,
 0.00058031,0.00000971,0.00004818,0.00000093,0.00002947,-0.00007522,0.0
 0022655,0.00078743,0.00042212,-0.00006305,-0.00003161,0.00003289,0.000
 01815,0.00003021,0.00001675,0.00004224,0.00008818,0.00004024,0.0000033
 3,-0.00000635,-0.00001936,0.00001799,0.00003711,0.00003993,0.00000616,
 -0.00000933,0.00001294,-0.01080444,-0.01339740,0.00459593,0.11594029,0
 .20800120,0.00012997,-0.00023956,-0.00001451,0.00031040,0.00061990,-0.
 00024063,0.00178959,-0.00144276,0.00027885,0.00020666,-0.00048038,-0.0
 0023128,-0.00066249,-0.00073490,0.00090903,-0.00056299,0.00005253,-0.0
 0028541,-0.00273560,0.00032835,-0.00249056,0.01178257,0.01964528,-0.00
 622773,0.00098831,0.00133472,0.00073521,-0.00028461,-0.00047636,0.0000
 1262,-0.00001096,0.00012014,0.00006223,0.00000270,-0.00006121,-0.00002
 695,0.03602155,0.04549715,-0.06148034,0.00934580,0.00698482,-0.0035038
 3,-0.00108888,0.00136614,0.00137868,-0.00033453,-0.00002584,-0.0001558
 9,0.00007207,0.00003214,-0.00006343,-0.00001175,0.00000918,-0.00000042
 ,-0.00000756,0.00000399,0.00001310,0.00002671,-0.00001973,-0.00005336,
 0.00003470,-0.00001556,0.00002990,-0.00014454,-0.00003582,0.00009741,0
 .00005526,-0.00000143,-0.00000117,-0.00007252,0.00010005,0.00004106,0.
 00013018,-0.00004354,0.00008289,0.00004806,-0.00004455,0.00007478,-0.0
 0005708,0.00019655,0.00020197,0.00017949,0.00112650,0.00020042,0.00039
 921,-0.00067542,0.00136843,-0.00004960,-0.00005048,0.00006216,-0.00033
 668,-0.00073591,-0.00030292,0.00001508,0.00002119,-0.00003845,-0.00000
 314,-0.00001872,0.00000497,-0.00002553,-0.00004713,-0.00003387,-0.0000
 0453,0.00000594,0.00000913,-0.00001511,-0.00001376,-0.00002868,0.00000
 089,0.00000569,0.00002560,-0.01692666,-0.02034472,0.00762015,-0.038936
 51,-0.05062021,0.06278397,-0.00008654,-0.00015429,0.00003337,0.0013906
 6,-0.00024855,0.00043374,0.00698370,-0.00191570,0.01845966,0.00138033,
 0.00032110,0.00054501,0.00008912,-0.00016612,0.00009470,-0.00034926,0.
 00003656,0.00016658,-0.00007602,-0.00017654,-0.00019271,-0.00303103,-0
 .00087658,0.00272110,0.00009651,0.00010790,0.00067849,-0.00003985,-0.0
 0001328,-0.00022951,0.00002445,0.00008585,0.00001393,-0.00007825,0.000
 04779,0.00009425,-0.01783022,0.00901174,-0.02225970,-0.09329564,0.0039
 3402,-0.09804575,-0.00222011,-0.00105159,-0.00653513,0.00160641,-0.001
 72119,0.00015016,-0.00003022,0.00002056,-0.00005534,-0.00008019,0.0000
 8519,-0.00014073,-0.00004316,-0.00000918,-0.00000147,-0.00008226,-0.00
 008755,0.00006120,-0.00019158,0.00000963,-0.00038286,-0.00208352,-0.00
 182509,0.00272747,-0.00002982,0.00021687,-0.00036033,0.00010520,0.0002
 7439,0.00005391,0.00011008,0.00000140,-0.00002796,0.00006117,-0.000017
 92,-0.00008472,0.00001301,0.00007937,-0.00000397,0.00004305,0.00018122
 ,0.00001841,-0.00094169,0.00092556,-0.00069376,-0.00003134,-0.00005426
 ,-0.00010827,0.00002423,-0.00003981,-0.00004631,0.00006482,-0.00005066
 ,-0.00003024,-0.00000998,-0.00000602,-0.00004552,-0.00000695,-0.000024
 32,-0.00000513,0.00001515,-0.00000368,-0.00000649,0.00000008,-0.000030
 09,-0.00002242,-0.00000751,0.00000091,-0.00003388,0.00090335,0.0006702
 7,-0.00061458,-0.00014353,-0.00061106,0.00036175,0.10786680,-0.0000404
 5,-0.00000917,0.00002297,0.00034591,-0.00012536,-0.00063512,0.00533923
 ,-0.00262236,0.01676785,0.00098177,0.00064976,0.00171634,-0.00016320,0
 .00011252,-0.00068361,0.00020010,-0.00001860,0.00037119,-0.00003077,0.
 00028981,0.00002003,0.00222611,0.00057943,-0.00099599,-0.00029375,-0.0
 0041646,-0.00025122,0.00003966,0.00024272,0.00010839,0.00002204,-0.000
 08839,-0.00002335,0.00000619,-0.00007238,-0.00002809,0.00961611,-0.002
 93768,0.01019708,0.00661122,-0.04601829,0.02052401,-0.01168270,-0.0035
 8190,-0.03474192,-0.00405228,-0.00708070,-0.00609942,-0.00006417,0.000
 01115,-0.00004016,0.00003694,0.00000438,-0.00009925,-0.00002648,-0.000
 00537,-0.00000096,-0.00011655,0.00003463,-0.00000840,-0.00011188,0.000
 30057,-0.00011205,-0.00267365,-0.00126411,0.00226540,-0.00045398,-0.00
 003411,-0.00052773,-0.00005828,0.00018222,-0.00017387,-0.00008095,-0.0
 0000876,-0.00009464,0.00001590,0.00005613,-0.00015253,0.00003661,-0.00
 001889,-0.00002249,-0.00005913,-0.00007856,-0.00000743,0.00053741,-0.0
 0053232,0.00031877,-0.00007710,-0.00005314,-0.00004955,0.00017102,0.00
 026223,-0.00001984,-0.00003923,0.00003563,0.00002572,0.00000518,0.0000
 0778,0.00002427,0.00000301,0.00001458,0.00001062,-0.00000329,-0.000002
 80,-0.00000748,0.00002256,0.00003070,0.00001306,0.00000614,0.00001276,
 0.00001991,0.00106046,-0.00020137,0.00088740,0.00043725,0.00012391,-0.
 00017278,-0.00729339,0.06208144,0.00040035,-0.00000564,0.00027450,-0.0
 0119627,0.00025541,-0.00000584,-0.00673702,0.00417001,-0.02174172,-0.0
 0093602,-0.00162329,0.00028957,-0.00005745,0.00040287,0.00043744,-0.00
 012350,-0.00009372,-0.00029407,0.00010736,0.00005326,-0.00000381,0.000
 80060,-0.00013330,0.00099893,0.00034849,-0.00044531,-0.00019305,-0.000
 11830,0.00013382,0.00013601,0.00002921,-0.00000266,-0.00004280,0.00004
 295,-0.00000300,0.00002990,0.00402165,-0.00261854,0.00238918,-0.098780
 19,0.01428622,-0.23840759,-0.00496590,-0.00272842,-0.01395914,-0.00057
 565,-0.00311509,0.00107359,0.00009021,0.00000577,-0.00000583,-0.000150
 24,-0.00009633,0.00023990,0.00005674,0.00002111,-0.00001766,0.00001048
 ,0.00007238,0.00003309,0.00094197,-0.00044873,0.00027510,0.00302981,0.
 00141937,-0.00173914,0.00069671,0.00073942,0.00072325,0.00023452,-0.00
 035793,0.00043349,0.00000041,0.00003584,0.00008483,-0.00003101,-0.0000
 6391,0.00013961,-0.00002384,0.00002105,0.00001511,-0.00001087,-0.00001
 940,-0.00000160,0.00004440,0.00007048,-0.00007820,0.00001415,-0.000041
 40,0.00018083,0.00002012,0.00011945,0.00003050,-0.00001351,0.00000355,
 0.00000736,-0.00001962,0.00000788,0.00000098,-0.00000608,-0.00000833,0
 .00000545,-0.00000827,-0.00001318,0.00001443,0.00000530,0.00000027,0.0
 0000651,-0.00001651,0.00001166,0.00000153,0.00090570,-0.00014645,0.002
 20887,-0.00048231,0.00029248,-0.00014597,0.10273213,-0.00970269,0.2660
 2327,-0.00007025,-0.00013522,-0.00030337,0.00042862,-0.00046832,0.0006
 0953,-0.00019027,-0.00137327,-0.00138720,-0.00039014,0.00022371,0.0011
 0197,0.00034015,-0.00033107,-0.00012114,-0.00010595,0.00009838,-0.0001
 2516,-0.00004336,0.00002437,0.00008322,-0.00004167,0.00006269,-0.00005
 595,-0.00006817,0.00017105,-0.00009694,0.00003124,-0.00002300,0.000157
 88,-0.00003812,0.00000374,0.00001745,0.00002327,-0.00005375,-0.0000851
 6,0.00199500,0.00217795,-0.00116774,-0.00636931,0.01061082,0.00411285,
 -0.18215549,-0.14340497,0.16505668,0.00603806,0.01028240,-0.02735936,-
 0.00008233,0.00001750,0.00005625,0.00001026,-0.00002258,0.00001523,-0.
 00008165,-0.00012654,0.00009166,0.00026196,-0.00040852,-0.00047082,-0.
 00009110,-0.00000203,-0.00014842,-0.00002589,-0.00021148,0.00017257,-0
 .00004948,0.00000484,-0.00005602,-0.00017489,-0.00034233,-0.00013400,-
 0.00000534,-0.00005457,0.00001638,-0.00000131,0.00001494,-0.00001342,0
 .00000422,0.00000782,-0.00001381,0.00001532,-0.00003639,0.00001129,0.0
 0001515,-0.00001656,0.00007374,-0.00007043,-0.00014102,0.00000045,-0.0
 0001438,0.00000133,-0.00006621,-0.00002302,0.00001675,0.00000347,0.000
 00860,-0.00001106,0.00001973,0.00000840,0.00001003,-0.00000869,-0.0000
 0759,-0.00000341,-0.00000438,0.00001157,0.00003209,0.00001505,0.000011
 63,-0.00000122,0.00002295,-0.00003600,-0.00008987,0.00002937,-0.000187
 73,0.00002669,0.00022393,-0.00048051,-0.00096728,-0.00077361,0.1784432
 6,0.00002660,0.00023108,0.00010500,0.00082530,-0.00003884,-0.00079438,
 0.00035334,-0.00550998,-0.00452108,-0.00153048,-0.00013041,0.00209474,
 0.00070374,-0.00005765,-0.00004601,-0.00035549,0.00012758,-0.00013246,
 -0.00026452,-0.00002999,-0.00024804,0.00059589,0.00034630,0.00027234,-
 0.00008380,-0.00012846,0.00025331,-0.00008002,0.00016279,-0.00026444,0
 .00009743,0.00002650,-0.00003719,-0.00007493,0.00006244,0.00013820,-0.
 00243373,0.00070745,0.00171330,-0.02528375,-0.02339574,0.02348761,-0.1
 0266393,-0.11390556,0.08831988,0.00513414,0.00549592,-0.00773072,-0.00
 000814,-0.00000590,0.00002114,0.00000672,-0.00001059,-0.00000626,0.000
 10117,0.00005714,-0.00006740,-0.00018934,0.00029220,0.00023820,-0.0000
 6057,0.00004389,0.00003500,0.00012852,0.00001008,0.00016241,0.00000819
 ,0.00002919,-0.00002234,-0.00022570,-0.00065545,-0.00036299,0.00008682
 ,0.00000105,0.00001434,0.00001438,-0.00000204,-0.00002585,0.00002659,-
 0.00001150,-0.00000322,0.00007529,0.00018195,-0.00004729,0.00001760,-0
 .00000867,-0.00000291,-0.00000881,-0.00002041,-0.00007892,0.00014204,0
 .00013260,0.00001668,0.00002667,-0.00002847,-0.00000341,-0.00002431,0.
 00001117,-0.00002809,-0.00001609,-0.00002971,0.00001067,0.00001117,-0.
 00001171,0.00000142,0.00000256,-0.00004093,-0.00002404,-0.00001951,0.0
 0000898,-0.00004097,-0.00014115,0.00065692,0.00007661,0.00246805,0.000
 29053,-0.00087735,-0.00001565,0.00108493,-0.00034702,0.12255759,0.1347
 3045,-0.00003129,0.00002861,-0.00000804,0.00002684,-0.00027403,0.00000
 747,0.00033592,-0.00204684,0.00057078,-0.00016264,-0.00020626,0.000290
 75,-0.00003840,-0.00003405,0.00006810,-0.00003558,0.00004903,-0.000059
 79,0.00008328,-0.00002415,0.00010301,-0.00014636,-0.00013783,-0.000238
 80,0.00003897,-0.00007701,-0.00017683,-0.00006598,0.00011145,0.0000945
 8,0.00004933,0.00001952,-0.00003096,0.00001562,-0.00001870,-0.00001703
 ,-0.00037618,-0.00166598,-0.00007185,-0.00155649,-0.00717491,0.0080400
 1,0.12692563,0.10507125,-0.18116195,0.01135018,0.00766403,-0.04479486,
 -0.00002548,-0.00000061,0.00001337,-0.00000246,-0.00002668,0.00001248,
 0.00000819,-0.00001052,0.00001376,-0.00015304,0.00009518,-0.00017452,0
 .00000158,0.00006923,0.00000634,-0.00018252,-0.00035492,0.00020719,-0.
 00003082,0.00000657,-0.00004178,-0.00009766,-0.00014012,-0.00008356,0.
 00000797,-0.00001134,-0.00000064,-0.00000910,0.00000190,-0.00000110,0.
 00000377,0.00002181,0.00000564,-0.00000301,-0.00006054,0.00000641,0.00
 000619,0.00004531,0.00003379,-0.00011223,-0.00018879,0.00004989,0.0000
 5318,0.00014227,-0.00003615,-0.00001139,0.00000657,0.00001187,-0.00001
 341,-0.00000289,0.00000515,-0.00000840,-0.00001608,-0.00000157,-0.0000
 1248,-0.00002024,0.00000781,0.00001892,0.00001282,0.00000928,-0.000008
 42,0.00001281,0.00000373,-0.00002755,-0.00036908,-0.00003672,-0.000559
 47,0.00025798,0.00034220,0.00008246,0.00140297,0.00036778,-0.13713322,
 -0.10249490,0.21554081,0.00002581,-0.00004473,0.00001947,0.00001373,0.
 00030694,-0.00015051,-0.00057373,0.00011716,-0.00008655,0.00031272,-0.
 00047358,-0.00011582,-0.00034544,0.00029215,-0.00007121,0.00028321,-0.
 00014964,0.00010062,0.00015791,-0.00004386,-0.00025705,-0.00064200,-0.
 00145384,0.00059084,0.00120191,0.00831663,-0.00199438,-0.00001197,-0.0
 0225846,0.00128953,-0.00040079,0.00056630,0.00010669,0.00019788,0.0000
 2594,-0.00054294,0.00098067,-0.00113049,-0.00124175,0.00061928,-0.0005
 1329,0.00111937,-0.01328557,0.00295159,-0.01099256,-0.40221721,0.16639
 207,0.00836375,0.00004288,-0.00000028,-0.00001956,-0.00001730,-0.00000
 527,0.00002359,0.00001150,0.00001694,0.00000495,0.00008652,0.00006960,
 0.00003740,0.00007742,-0.00008096,0.00002590,-0.00012864,-0.00034314,0
 .00016703,0.00000663,0.00007780,0.00005485,0.00002849,0.00009877,0.000
 02898,-0.00005709,0.00004140,0.00000046,-0.00001309,-0.00000328,0.0000
 3054,-0.00003521,-0.00011912,-0.00002675,-0.00004371,0.00007435,0.0000
 2495,-0.00017930,0.00024134,0.00000279,-0.00083278,-0.00123411,0.00058
 391,-0.00153573,-0.00139654,-0.00028443,0.00004419,-0.00001897,-0.0000
 2365,-0.00004902,-0.00005480,0.00001198,0.00011434,0.00007027,-0.00007
 863,-0.00008747,-0.00005950,0.00007654,-0.00000155,0.00015968,0.000098
 55,-0.00002103,0.00001336,0.00004781,0.00007376,-0.00034943,-0.0000646
 8,-0.00058108,-0.00047358,0.00014638,0.00039103,0.00056771,0.00049290,
 0.00315764,0.00007016,0.00179552,0.41323220,0.00002778,-0.00008955,-0.
 00006148,-0.00008192,0.00031873,-0.00004606,-0.00022376,-0.00025965,-0
 .00033041,-0.00025878,0.00009396,0.00027827,0.00043272,-0.00019631,0.0
 0006770,-0.00033182,0.00004142,-0.00019095,-0.00000368,-0.00007124,0.0
 0036595,0.00049122,-0.00068918,-0.00110815,-0.00041315,-0.00581409,0.0
 0041444,-0.00070651,0.00185950,-0.00040430,0.00094566,0.00027619,-0.00
 054138,-0.00014413,0.00049490,0.00102295,0.00111216,0.00072850,0.00070
 414,-0.00555831,0.00419077,-0.00117531,-0.00895151,0.00166663,0.001428
 59,0.17962641,-0.08535241,-0.01834469,0.00004077,-0.00000546,-0.000015
 34,-0.00001242,0.00000434,0.00004701,-0.00004447,-0.00003031,0.0000270
 1,0.00028098,-0.00023197,-0.00006277,0.00005852,-0.00012627,0.00001510
 ,-0.00030333,-0.00024650,0.00033379,0.00007621,0.00002011,0.00007326,0
 .00001136,-0.00004705,-0.00004186,0.00008752,0.00004300,0.00003267,-0.
 00003644,-0.00003614,0.00003947,0.00006862,0.00019328,0.00006796,0.000
 00678,-0.00007857,-0.00007816,-0.00002560,0.00004461,0.00028338,-0.000
 25140,-0.00098267,0.00063418,0.00270757,0.00108057,-0.00017538,-0.0000
 1380,-0.00002906,0.00006114,-0.00021188,0.00001721,-0.00001888,-0.0001
 1165,-0.00032755,0.00007429,0.00000834,-0.00005618,0.00000931,-0.00004
 053,-0.00033931,-0.00009364,-0.00008856,-0.00001815,-0.00017063,-0.000
 26100,0.00029258,0.00040626,0.00009338,0.00010124,-0.00027215,0.000382
 16,-0.00094658,-0.00010795,0.00187976,-0.00066914,0.00033713,-0.170263
 30,0.08517582,0.00006645,-0.00002194,0.00014682,-0.00000828,-0.0003221
 6,-0.00016989,0.00006588,-0.00041057,0.00005271,-0.00008834,-0.0001156
 7,-0.00001879,-0.00004409,0.00023246,-0.00014900,0.00011426,-0.0000907
 6,0.00019263,-0.00005974,0.00004439,-0.00043605,0.00069133,-0.00124809
 ,0.00054813,-0.00010701,0.00110148,-0.00086340,0.00031281,-0.00053719,
 -0.00043219,-0.00023143,-0.00001154,0.00017443,0.00013335,0.00041401,0
 .00019926,-0.00024388,-0.00176336,0.00185584,-0.00140174,0.00162248,0.
 00134966,-0.04642965,0.01470093,-0.01699466,0.04793505,-0.03344925,-0.
 04649771,0.00000562,0.00000079,-0.00002179,-0.00001355,-0.00000800,-0.
 00001212,0.00003027,0.00003409,-0.00003716,-0.00045848,0.00021062,-0.0
 0017947,0.00013588,0.00015979,0.00011634,0.00001742,0.00001245,-0.0000
 6689,-0.00000709,0.00001314,-0.00000330,0.00002271,0.00000551,0.000004
 78,-0.00001212,0.00002239,-0.00002434,0.00002838,0.00000330,-0.0000394
 5,-0.00002888,-0.00015466,-0.00004128,0.00001196,0.00016706,0.00002563
 ,0.00014241,-0.00012708,-0.00016134,0.00048110,0.00094881,-0.00017949,
 -0.00111683,-0.00018585,0.00111761,0.00003962,-0.00004418,-0.00005566,
 0.00006159,-0.00001116,-0.00000919,0.00003023,0.00003476,-0.00000845,0
 .00002745,0.00006529,-0.00003988,-0.00012874,-0.00020544,-0.00001735,0
 .00002525,-0.00013361,-0.00003070,0.00017612,0.00063003,-0.00010260,0.
 00098808,0.00070025,-0.00100937,0.00049845,-0.00004542,0.00021541,-0.0
 0236702,0.00124639,0.00112394,0.00070519,0.01651550,0.06047833\\-0.000
 00060,-0.00000176,0.00000034,0.00000012,0.00000280,0.00000150,0.000001
 44,-0.00000360,-0.00000017,0.00000190,0.00000210,-0.00000190,-0.000001
 50,-0.00000087,0.00000060,-0.00000052,0.00000323,-0.00000481,0.0000006
 2,0.00000375,0.00000062,-0.00000003,-0.00000371,0.00000280,0.00000860,
 0.00000427,-0.00000197,-0.00000252,-0.00000346,-0.00000014,0.00000201,
 -0.00000102,-0.00000031,-0.00000022,-0.00000338,-0.00000035,-0.0000056
 1,0.00000709,-0.00000095,0.00000420,-0.00000508,-0.00000021,-0.0000019
 0,0.00000378,0.00000620,-0.00000034,0.00000013,0.00000009,0.00000076,-
 0.00000147,0.00000268,0.00000015,-0.00000380,-0.00000035,-0.00000100,0
 .00000019,-0.00000152,-0.00000165,-0.00000028,0.00000129,0.00000092,-0
 .00000113,0.00000006,-0.00000012,0.00000180,0.00000005,-0.00000042,0.0
 0000212,-0.00000117,0.00000083,-0.00000038,-0.00000154,0.00000121,-0.0
 0000005,-0.00000296,-0.00000137,-0.00000066,-0.00000106,0.00000044,0.0
 0000111,-0.00000213,0.00000097,0.00000032,-0.00000203,-0.00000100,0.00
 000125,-0.00000137,-0.00000093,-0.00000269,-0.00000034,-0.00000203,-0.
 00000274,0.00000332,0.00000075,0.00000115,-0.00000003,-0.00000022,-0.0
 0000039,-0.00000132,-0.00000135,-0.00000050,0.00000058,-0.00000025,-0.
 00000281,-0.00000013,-0.00000017,-0.00000255,0.00000070,-0.00000006,-0
 .00000247,-0.00000105,0.00000053,0.00000196,-0.00000102,-0.00000064,0.
 00000238,0.00000211,-0.00000040,0.00000276,0.00000067,-0.00000011,0.00
 000143,0.00000296,-0.00000049,0.00000120,0.00000223\\\@


 SIC AS THE CAWSE OF EWERY THING IS, SIC WILBE THE EFFECT.
 -- PROVERBS AND REASONS OF THE YEAR 1585
           AS REPRINTED IN PAISLEY MAGAZINE 1828.
 Job cpu time:       0 days 22 hours  3 minutes 37.8 seconds.
 Elapsed time:       0 days  5 hours 31 minutes  5.0 seconds.
 File lengths (MBytes):  RWF=    986 Int=      0 D2E=      0 Chk=     28 Scr=      1
 Normal termination of Gaussian 16 at Tue May 23 10:02:59 2023.
### All Done ###
