### Starting Gaussian ###
 Entering Gaussian System, Link 0=g16
 Initial command:
 /cluster/software/gaussian/gaussian-16-A.03/avx2/g16/l1.exe "/local/scratch/cz9n3/Gau-19112.inp" -scrdir="/local/scratch/cz9n3/"
 Entering Link 1 = /cluster/software/gaussian/gaussian-16-A.03/avx2/g16/l1.exe PID=     19153.
  
 Copyright (c) 1988,1990,1992,1993,1995,1998,2003,2009,2016,
            Gaussian, Inc.  All Rights Reserved.
  
 This is part of the Gaussian(R) 16 program.  It is based on
 the Gaussian(R) 09 system (copyright 2009, Gaussian, Inc.),
 the Gaussian(R) 03 system (copyright 2003, Gaussian, Inc.),
 the Gaussian(R) 98 system (copyright 1998, Gaussian, Inc.),
 the Gaussian(R) 94 system (copyright 1995, Gaussian, Inc.),
 the Gaussian 92(TM) system (copyright 1992, Gaussian, Inc.),
 the Gaussian 90(TM) system (copyright 1990, Gaussian, Inc.),
 the Gaussian 88(TM) system (copyright 1988, Gaussian, Inc.),
 the Gaussian 86(TM) system (copyright 1986, Carnegie Mellon
 University), and the Gaussian 82(TM) system (copyright 1983,
 Carnegie Mellon University). Gaussian is a federally registered
 trademark of Gaussian, Inc.
  
 This software contains proprietary and confidential information,
 including trade secrets, belonging to Gaussian, Inc.
  
 This software is provided under written license and may be
 used, copied, transmitted, or stored only in accord with that
 written license.
  
 The following legend is applicable only to US Government
 contracts under FAR:
  
                    RESTRICTED RIGHTS LEGEND
  
 Use, reproduction and disclosure by the US Government is
 subject to restrictions as set forth in subparagraphs (a)
 and (c) of the Commercial Computer Software - Restricted
 Rights clause in FAR 52.227-19.
  
 Gaussian, Inc.
 340 Quinnipiac St., Bldg. 40, Wallingford CT 06492
  
  
 ---------------------------------------------------------------
 Warning -- This program may not be used in any manner that
 competes with the business of Gaussian, Inc. or will provide
 assistance to any competitor of Gaussian, Inc.  The licensee
 of this program is prohibited from giving any competitor of
 Gaussian, Inc. access to this program.  By using this program,
 the user acknowledges that Gaussian, Inc. is engaged in the
 business of creating and licensing software in the field of
 computational chemistry and represents and warrants to the
 licensee that it is not a competitor of Gaussian, Inc. and that
 it will not use this program in any manner prohibited above.
 ---------------------------------------------------------------
  

 Cite this work as:
 Gaussian 16, Revision A.03,
 M. J. Frisch, G. W. Trucks, H. B. Schlegel, G. E. Scuseria, 
 M. A. Robb, J. R. Cheeseman, G. Scalmani, V. Barone, 
 G. A. Petersson, H. Nakatsuji, X. Li, M. Caricato, A. V. Marenich, 
 J. Bloino, B. G. Janesko, R. Gomperts, B. Mennucci, H. P. Hratchian, 
 J. V. Ortiz, A. F. Izmaylov, J. L. Sonnenberg, D. Williams-Young, 
 F. Ding, F. Lipparini, F. Egidi, J. Goings, B. Peng, A. Petrone, 
 T. Henderson, D. Ranasinghe, V. G. Zakrzewski, J. Gao, N. Rega, 
 G. Zheng, W. Liang, M. Hada, M. Ehara, K. Toyota, R. Fukuda, 
 J. Hasegawa, M. Ishida, T. Nakajima, Y. Honda, O. Kitao, H. Nakai, 
 T. Vreven, K. Throssell, J. A. Montgomery, Jr., J. E. Peralta, 
 F. Ogliaro, M. J. Bearpark, J. J. Heyd, E. N. Brothers, K. N. Kudin, 
 V. N. Staroverov, T. A. Keith, R. Kobayashi, J. Normand, 
 K. Raghavachari, A. P. Rendell, J. C. Burant, S. S. Iyengar, 
 J. Tomasi, M. Cossi, J. M. Millam, M. Klene, C. Adamo, R. Cammi, 
 J. W. Ochterski, R. L. Martin, K. Morokuma, O. Farkas, 
 J. B. Foresman, and D. J. Fox, Gaussian, Inc., Wallingford CT, 2016.
 
 ******************************************
 Gaussian 16:  ES64L-G16RevA.03 25-Dec-2016
                26-May-2023 
 ******************************************
 %chk=CCC1CSC1NC1COC1CC.chk
 %NProcShared=20
 Will use up to   20 processors via shared memory.
 ----------------------------------------------------------------
 # opt freq b3lyp/6-31+g(2df,p) Geom=AllCheckpoint TD(NStates=10)
 ----------------------------------------------------------------
 1/18=20,19=15,26=3,29=7,38=1/1,3;
 2/9=110,12=2,40=1/2;
 3/5=1,6=6,7=114,11=9,14=-4,25=1,30=1,71=1,74=-5/1,2,3,8;
 4//1;
 5/5=2,38=5/2;
 8/6=1,10=2,108=10/1;
 9/15=2,41=10,42=1,70=2/14;
 10/5=4/2;
 6/7=2,8=2,9=2,10=2/1;
 7/12=6,13=5/1,2,3,16;
 1/18=20,19=15,26=3/3(2);
 2/9=110/2;
 99//99;
 2/9=110/2;
 3/5=1,6=6,7=114,11=9,14=-2,25=1,30=1,71=1,74=-5/1,2,3,8;
 4/5=5,16=3,69=1/1;
 5/5=2,38=5/2;
 8/6=1,10=2,108=10/1;
 9/15=2,41=10,42=1,49=4,70=2/14;
 10/5=4/2;
 7/12=6,13=5/1,2,3,16;
 1/18=20,19=15,26=3/3(-8);
 2/9=110/2;
 6/7=2,8=2,9=2,10=2/1;
 99//99;
 Structure from the checkpoint file:  "CCC1CSC1NC1COC1CC.chk"
 -------------------
 Title Card Required
 -------------------
 Charge =  0 Multiplicity = 1
 Redundant internal coordinates found in file.  (old form).
 C,0,2.9986604466,1.1718590174,-0.8579276846
 C,0,3.4996575494,0.363250883,0.3435823299
 C,0,3.5838333753,-1.1425132619,0.0887508863
 C,0,4.1502114072,-2.0080229736,1.2357481631
 S,0,2.9863157657,-3.3978382558,0.8881443202
 C,0,2.2507407802,-1.9074260717,-0.0789832225
 N,0,1.7880895833,-2.0764812977,-1.4063398012
 C,0,0.4705323035,-2.6194903894,-1.660601009
 C,0,-0.1829328308,-3.7373063667,-0.7991997186
 O,0,-1.4093868943,-2.9832742363,-0.7211263439
 C,0,-0.7820843042,-1.7979303571,-1.2622130444
 C,0,-1.6084440375,-1.1323428317,-2.3476384506
 C,0,-0.9314214116,0.1177206547,-2.9190087513
 H,0,2.9413061344,2.2378738643,-0.6173002568
 H,0,2.0069808916,0.8399015651,-1.1775037576
 H,0,3.6714323904,1.0589875699,-1.7152373826
 H,0,2.8496259986,0.5401556877,1.2111080773
 H,0,4.4959805533,0.7205075339,0.6361487413
 H,0,4.1813945979,-1.3262517215,-0.8134611274
 H,0,3.9637877167,-1.5796277437,2.2240016141
 H,0,5.2034959739,-2.2792435254,1.154567445
 H,0,1.4528124335,-1.4884457435,0.5382064314
 H,0,2.4942665768,-2.5127764608,-1.9862093146
 H,0,0.4286256865,-2.8734180026,-2.7231132197
 H,0,0.2734716762,-3.8777655377,0.1894652912
 H,0,-0.3269665425,-4.7161734035,-1.2693316351
 H,0,-0.5648459423,-1.0740790165,-0.4600331298
 H,0,-2.5869046068,-0.8734596757,-1.9247667296
 H,0,-1.7976533605,-1.864816405,-3.1420227479
 H,0,-0.7812849512,0.8772387012,-2.1438307071
 H,0,-1.5392723943,0.5665806912,-3.7098214505
 H,0,0.0502154347,-0.1177328905,-3.3432338153
 Recover connectivity data from disk.

 GradGradGradGradGradGradGradGradGradGradGradGradGradGradGradGradGradGrad
 Berny optimization.
 Initialization pass.
                           ----------------------------
                           !    Initial Parameters    !
                           ! (Angstroms and Degrees)  !
 --------------------------                            --------------------------
 ! Name  Definition              Value          Derivative Info.                !
 --------------------------------------------------------------------------------
 ! R1    R(1,2)                  1.5325         estimate D2E/DX2                !
 ! R2    R(1,14)                 1.0943         estimate D2E/DX2                !
 ! R3    R(1,15)                 1.0935         estimate D2E/DX2                !
 ! R4    R(1,16)                 1.0956         estimate D2E/DX2                !
 ! R5    R(2,3)                  1.5295         estimate D2E/DX2                !
 ! R6    R(2,17)                 1.0984         estimate D2E/DX2                !
 ! R7    R(2,18)                 1.0981         estimate D2E/DX2                !
 ! R8    R(3,4)                  1.5445         estimate D2E/DX2                !
 ! R9    R(3,6)                  1.5461         estimate D2E/DX2                !
 ! R10   R(3,19)                 1.0976         estimate D2E/DX2                !
 ! R11   R(4,5)                  1.8458         estimate D2E/DX2                !
 ! R12   R(4,20)                 1.0931         estimate D2E/DX2                !
 ! R13   R(4,21)                 1.0907         estimate D2E/DX2                !
 ! R14   R(5,6)                  1.9229         estimate D2E/DX2                !
 ! R15   R(6,7)                  1.4158         estimate D2E/DX2                !
 ! R16   R(6,22)                 1.0923         estimate D2E/DX2                !
 ! R17   R(7,8)                  1.4476         estimate D2E/DX2                !
 ! R18   R(7,23)                 1.0126         estimate D2E/DX2                !
 ! R19   R(8,9)                  1.5552         estimate D2E/DX2                !
 ! R20   R(8,11)                 1.5501         estimate D2E/DX2                !
 ! R21   R(8,24)                 1.0932         estimate D2E/DX2                !
 ! R22   R(9,10)                 1.4418         estimate D2E/DX2                !
 ! R23   R(9,25)                 1.0979         estimate D2E/DX2                !
 ! R24   R(9,26)                 1.0954         estimate D2E/DX2                !
 ! R25   R(10,11)                1.4461         estimate D2E/DX2                !
 ! R26   R(11,12)                1.5179         estimate D2E/DX2                !
 ! R27   R(11,27)                1.1021         estimate D2E/DX2                !
 ! R28   R(12,13)                1.5321         estimate D2E/DX2                !
 ! R29   R(12,28)                1.0969         estimate D2E/DX2                !
 ! R30   R(12,29)                1.097          estimate D2E/DX2                !
 ! R31   R(13,30)                1.0956         estimate D2E/DX2                !
 ! R32   R(13,31)                1.0938         estimate D2E/DX2                !
 ! R33   R(13,32)                1.095          estimate D2E/DX2                !
 ! A1    A(2,1,14)             111.0222         estimate D2E/DX2                !
 ! A2    A(2,1,15)             111.4342         estimate D2E/DX2                !
 ! A3    A(2,1,16)             111.0018         estimate D2E/DX2                !
 ! A4    A(14,1,15)            108.2067         estimate D2E/DX2                !
 ! A5    A(14,1,16)            107.734          estimate D2E/DX2                !
 ! A6    A(15,1,16)            107.273          estimate D2E/DX2                !
 ! A7    A(1,2,3)              114.0056         estimate D2E/DX2                !
 ! A8    A(1,2,17)             109.925          estimate D2E/DX2                !
 ! A9    A(1,2,18)             109.5017         estimate D2E/DX2                !
 ! A10   A(3,2,17)             108.8278         estimate D2E/DX2                !
 ! A11   A(3,2,18)             108.3452         estimate D2E/DX2                !
 ! A12   A(17,2,18)            105.9095         estimate D2E/DX2                !
 ! A13   A(2,3,4)              116.6242         estimate D2E/DX2                !
 ! A14   A(2,3,6)              117.2381         estimate D2E/DX2                !
 ! A15   A(2,3,19)             109.3723         estimate D2E/DX2                !
 ! A16   A(4,3,6)               96.8639         estimate D2E/DX2                !
 ! A17   A(4,3,19)             108.4797         estimate D2E/DX2                !
 ! A18   A(6,3,19)             107.3025         estimate D2E/DX2                !
 ! A19   A(3,4,5)               92.9153         estimate D2E/DX2                !
 ! A20   A(3,4,20)             112.9068         estimate D2E/DX2                !
 ! A21   A(3,4,21)             115.9899         estimate D2E/DX2                !
 ! A22   A(5,4,20)             110.965          estimate D2E/DX2                !
 ! A23   A(5,4,21)             114.0596         estimate D2E/DX2                !
 ! A24   A(20,4,21)            109.235          estimate D2E/DX2                !
 ! A25   A(4,5,6)               75.6603         estimate D2E/DX2                !
 ! A26   A(3,6,5)               89.9465         estimate D2E/DX2                !
 ! A27   A(3,6,7)              116.2665         estimate D2E/DX2                !
 ! A28   A(3,6,22)             112.2588         estimate D2E/DX2                !
 ! A29   A(5,6,7)              120.2632         estimate D2E/DX2                !
 ! A30   A(5,6,22)             107.0106         estimate D2E/DX2                !
 ! A31   A(7,6,22)             109.6834         estimate D2E/DX2                !
 ! A32   A(6,7,8)              120.457          estimate D2E/DX2                !
 ! A33   A(6,7,23)             111.1278         estimate D2E/DX2                !
 ! A34   A(8,7,23)             111.8733         estimate D2E/DX2                !
 ! A35   A(7,8,9)              123.6959         estimate D2E/DX2                !
 ! A36   A(7,8,11)             119.4432         estimate D2E/DX2                !
 ! A37   A(7,8,24)             107.0214         estimate D2E/DX2                !
 ! A38   A(9,8,11)              84.2059         estimate D2E/DX2                !
 ! A39   A(9,8,24)             110.8101         estimate D2E/DX2                !
 ! A40   A(11,8,24)            109.9939         estimate D2E/DX2                !
 ! A41   A(8,9,10)              90.66           estimate D2E/DX2                !
 ! A42   A(8,9,25)             114.5854         estimate D2E/DX2                !
 ! A43   A(8,9,26)             117.3758         estimate D2E/DX2                !
 ! A44   A(10,9,25)            111.823          estimate D2E/DX2                !
 ! A45   A(10,9,26)            112.2544         estimate D2E/DX2                !
 ! A46   A(25,9,26)            109.0747         estimate D2E/DX2                !
 ! A47   A(9,10,11)             92.2589         estimate D2E/DX2                !
 ! A48   A(8,11,10)             90.7029         estimate D2E/DX2                !
 ! A49   A(8,11,12)            119.246          estimate D2E/DX2                !
 ! A50   A(8,11,27)            112.0793         estimate D2E/DX2                !
 ! A51   A(10,11,12)           113.0053         estimate D2E/DX2                !
 ! A52   A(10,11,27)           110.5797         estimate D2E/DX2                !
 ! A53   A(12,11,27)           109.8642         estimate D2E/DX2                !
 ! A54   A(11,12,13)           112.5734         estimate D2E/DX2                !
 ! A55   A(11,12,28)           108.2664         estimate D2E/DX2                !
 ! A56   A(11,12,29)           108.599          estimate D2E/DX2                !
 ! A57   A(13,12,28)           110.2041         estimate D2E/DX2                !
 ! A58   A(13,12,29)           110.5453         estimate D2E/DX2                !
 ! A59   A(28,12,29)           106.4334         estimate D2E/DX2                !
 ! A60   A(12,13,30)           111.2423         estimate D2E/DX2                !
 ! A61   A(12,13,31)           111.0315         estimate D2E/DX2                !
 ! A62   A(12,13,32)           111.4182         estimate D2E/DX2                !
 ! A63   A(30,13,31)           107.6515         estimate D2E/DX2                !
 ! A64   A(30,13,32)           107.4778         estimate D2E/DX2                !
 ! A65   A(31,13,32)           107.8386         estimate D2E/DX2                !
 ! D1    D(14,1,2,3)           179.0355         estimate D2E/DX2                !
 ! D2    D(14,1,2,17)           56.5416         estimate D2E/DX2                !
 ! D3    D(14,1,2,18)          -59.4153         estimate D2E/DX2                !
 ! D4    D(15,1,2,3)            58.3404         estimate D2E/DX2                !
 ! D5    D(15,1,2,17)          -64.1534         estimate D2E/DX2                !
 ! D6    D(15,1,2,18)          179.8897         estimate D2E/DX2                !
 ! D7    D(16,1,2,3)           -61.1579         estimate D2E/DX2                !
 ! D8    D(16,1,2,17)          176.3482         estimate D2E/DX2                !
 ! D9    D(16,1,2,18)           60.3913         estimate D2E/DX2                !
 ! D10   D(1,2,3,4)            176.9723         estimate D2E/DX2                !
 ! D11   D(1,2,3,6)            -68.9226         estimate D2E/DX2                !
 ! D12   D(1,2,3,19)            53.4609         estimate D2E/DX2                !
 ! D13   D(17,2,3,4)           -59.9349         estimate D2E/DX2                !
 ! D14   D(17,2,3,6)            54.1702         estimate D2E/DX2                !
 ! D15   D(17,2,3,19)          176.5537         estimate D2E/DX2                !
 ! D16   D(18,2,3,4)            54.7852         estimate D2E/DX2                !
 ! D17   D(18,2,3,6)           168.8903         estimate D2E/DX2                !
 ! D18   D(18,2,3,19)          -68.7262         estimate D2E/DX2                !
 ! D19   D(2,3,4,5)            143.227          estimate D2E/DX2                !
 ! D20   D(2,3,4,20)            28.9938         estimate D2E/DX2                !
 ! D21   D(2,3,4,21)           -98.155          estimate D2E/DX2                !
 ! D22   D(6,3,4,5)             18.0561         estimate D2E/DX2                !
 ! D23   D(6,3,4,20)           -96.1771         estimate D2E/DX2                !
 ! D24   D(6,3,4,21)           136.6742         estimate D2E/DX2                !
 ! D25   D(19,3,4,5)           -92.8034         estimate D2E/DX2                !
 ! D26   D(19,3,4,20)          152.9634         estimate D2E/DX2                !
 ! D27   D(19,3,4,21)           25.8146         estimate D2E/DX2                !
 ! D28   D(2,3,6,5)           -142.01           estimate D2E/DX2                !
 ! D29   D(2,3,6,7)             93.8275         estimate D2E/DX2                !
 ! D30   D(2,3,6,22)           -33.6056         estimate D2E/DX2                !
 ! D31   D(4,3,6,5)            -17.2854         estimate D2E/DX2                !
 ! D32   D(4,3,6,7)           -141.4479         estimate D2E/DX2                !
 ! D33   D(4,3,6,22)            91.1189         estimate D2E/DX2                !
 ! D34   D(19,3,6,5)            94.5465         estimate D2E/DX2                !
 ! D35   D(19,3,6,7)           -29.616          estimate D2E/DX2                !
 ! D36   D(19,3,6,22)         -157.0491         estimate D2E/DX2                !
 ! D37   D(3,4,5,6)            -14.7957         estimate D2E/DX2                !
 ! D38   D(20,4,5,6)           101.1093         estimate D2E/DX2                !
 ! D39   D(21,4,5,6)          -135.0119         estimate D2E/DX2                !
 ! D40   D(4,5,6,3)             14.7607         estimate D2E/DX2                !
 ! D41   D(4,5,6,7)            135.5465         estimate D2E/DX2                !
 ! D42   D(4,5,6,22)           -98.5573         estimate D2E/DX2                !
 ! D43   D(3,6,7,8)           -171.8087         estimate D2E/DX2                !
 ! D44   D(3,6,7,23)            54.5158         estimate D2E/DX2                !
 ! D45   D(5,6,7,8)             81.5277         estimate D2E/DX2                !
 ! D46   D(5,6,7,23)           -52.1477         estimate D2E/DX2                !
 ! D47   D(22,6,7,8)           -43.1149         estimate D2E/DX2                !
 ! D48   D(22,6,7,23)         -176.7903         estimate D2E/DX2                !
 ! D49   D(6,7,8,9)            -36.3843         estimate D2E/DX2                !
 ! D50   D(6,7,8,11)            67.3287         estimate D2E/DX2                !
 ! D51   D(6,7,8,24)          -166.9796         estimate D2E/DX2                !
 ! D52   D(23,7,8,9)            96.9819         estimate D2E/DX2                !
 ! D53   D(23,7,8,11)         -159.3051         estimate D2E/DX2                !
 ! D54   D(23,7,8,24)          -33.6135         estimate D2E/DX2                !
 ! D55   D(7,8,9,10)           132.5095         estimate D2E/DX2                !
 ! D56   D(7,8,9,25)            18.047          estimate D2E/DX2                !
 ! D57   D(7,8,9,26)          -111.8658         estimate D2E/DX2                !
 ! D58   D(11,8,9,10)           10.7608         estimate D2E/DX2                !
 ! D59   D(11,8,9,25)         -103.7017         estimate D2E/DX2                !
 ! D60   D(11,8,9,26)          126.3855         estimate D2E/DX2                !
 ! D61   D(24,8,9,10)          -98.453          estimate D2E/DX2                !
 ! D62   D(24,8,9,25)          147.0844         estimate D2E/DX2                !
 ! D63   D(24,8,9,26)           17.1717         estimate D2E/DX2                !
 ! D64   D(7,8,11,10)         -136.3945         estimate D2E/DX2                !
 ! D65   D(7,8,11,12)          106.5524         estimate D2E/DX2                !
 ! D66   D(7,8,11,27)          -23.7922         estimate D2E/DX2                !
 ! D67   D(9,8,11,10)          -10.7284         estimate D2E/DX2                !
 ! D68   D(9,8,11,12)         -127.7815         estimate D2E/DX2                !
 ! D69   D(9,8,11,27)          101.874          estimate D2E/DX2                !
 ! D70   D(24,8,11,10)          99.3361         estimate D2E/DX2                !
 ! D71   D(24,8,11,12)         -17.7169         estimate D2E/DX2                !
 ! D72   D(24,8,11,27)        -148.0615         estimate D2E/DX2                !
 ! D73   D(8,9,10,11)          -11.4937         estimate D2E/DX2                !
 ! D74   D(25,9,10,11)         105.4303         estimate D2E/DX2                !
 ! D75   D(26,9,10,11)        -131.5983         estimate D2E/DX2                !
 ! D76   D(9,10,11,8)           11.5321         estimate D2E/DX2                !
 ! D77   D(9,10,11,12)         133.9454         estimate D2E/DX2                !
 ! D78   D(9,10,11,27)        -102.431          estimate D2E/DX2                !
 ! D79   D(8,11,12,13)         -75.036          estimate D2E/DX2                !
 ! D80   D(8,11,12,28)         162.8854         estimate D2E/DX2                !
 ! D81   D(8,11,12,29)          47.7092         estimate D2E/DX2                !
 ! D82   D(10,11,12,13)       -179.692          estimate D2E/DX2                !
 ! D83   D(10,11,12,28)         58.2294         estimate D2E/DX2                !
 ! D84   D(10,11,12,29)        -56.9468         estimate D2E/DX2                !
 ! D85   D(27,11,12,13)         56.291          estimate D2E/DX2                !
 ! D86   D(27,11,12,28)        -65.7876         estimate D2E/DX2                !
 ! D87   D(27,11,12,29)        179.0362         estimate D2E/DX2                !
 ! D88   D(11,12,13,30)        -61.1216         estimate D2E/DX2                !
 ! D89   D(11,12,13,31)        179.0099         estimate D2E/DX2                !
 ! D90   D(11,12,13,32)         58.7867         estimate D2E/DX2                !
 ! D91   D(28,12,13,30)         59.8548         estimate D2E/DX2                !
 ! D92   D(28,12,13,31)        -60.0138         estimate D2E/DX2                !
 ! D93   D(28,12,13,32)        179.7631         estimate D2E/DX2                !
 ! D94   D(29,12,13,30)        177.2323         estimate D2E/DX2                !
 ! D95   D(29,12,13,31)         57.3637         estimate D2E/DX2                !
 ! D96   D(29,12,13,32)        -62.8594         estimate D2E/DX2                !
 --------------------------------------------------------------------------------
 Trust Radius=3.00D-01 FncErr=1.00D-07 GrdErr=1.00D-06 EigMax=2.50D+02 EigMin=1.00D-04
 Number of steps in this run=    192 maximum allowed number of steps=    192.
 GradGradGradGradGradGradGradGradGradGradGradGradGradGradGradGradGradGrad

                          Input orientation:                          
 ---------------------------------------------------------------------
 Center     Atomic      Atomic             Coordinates (Angstroms)
 Number     Number       Type             X           Y           Z
 ---------------------------------------------------------------------
      1          6           0        2.998660    1.171859   -0.857928
      2          6           0        3.499658    0.363251    0.343582
      3          6           0        3.583833   -1.142513    0.088751
      4          6           0        4.150211   -2.008023    1.235748
      5         16           0        2.986316   -3.397838    0.888144
      6          6           0        2.250741   -1.907426   -0.078983
      7          7           0        1.788090   -2.076481   -1.406340
      8          6           0        0.470532   -2.619490   -1.660601
      9          6           0       -0.182933   -3.737306   -0.799200
     10          8           0       -1.409387   -2.983274   -0.721126
     11          6           0       -0.782084   -1.797930   -1.262213
     12          6           0       -1.608444   -1.132343   -2.347638
     13          6           0       -0.931421    0.117721   -2.919009
     14          1           0        2.941306    2.237874   -0.617300
     15          1           0        2.006981    0.839902   -1.177504
     16          1           0        3.671432    1.058988   -1.715237
     17          1           0        2.849626    0.540156    1.211108
     18          1           0        4.495981    0.720508    0.636149
     19          1           0        4.181395   -1.326252   -0.813461
     20          1           0        3.963788   -1.579628    2.224002
     21          1           0        5.203496   -2.279244    1.154567
     22          1           0        1.452812   -1.488446    0.538206
     23          1           0        2.494267   -2.512776   -1.986209
     24          1           0        0.428626   -2.873418   -2.723113
     25          1           0        0.273472   -3.877766    0.189465
     26          1           0       -0.326967   -4.716173   -1.269332
     27          1           0       -0.564846   -1.074079   -0.460033
     28          1           0       -2.586905   -0.873460   -1.924767
     29          1           0       -1.797653   -1.864816   -3.142023
     30          1           0       -0.781285    0.877239   -2.143831
     31          1           0       -1.539272    0.566581   -3.709821
     32          1           0        0.050215   -0.117733   -3.343234
 ---------------------------------------------------------------------
                    Distance matrix (angstroms):
                    1          2          3          4          5
     1  C    0.000000
     2  C    1.532472   0.000000
     3  C    2.568063   1.529493   0.000000
     4  C    3.977587   2.615745   1.544504   0.000000
     5  S    4.891938   3.834822   2.466282   1.845824   0.000000
     6  C    3.263148   2.625705   1.546080   2.312277   1.922949
     7  N    3.509694   3.456007   2.516404   3.544705   2.906267
     8  C    4.627099   4.699904   3.864497   4.722581   3.664846
     9  C    5.850290   5.628676   4.659392   5.089948   3.606453
    10  O    6.059268   6.035856   5.382987   5.974078   4.699342
    11  C    4.824637   5.057924   4.616916   5.532765   4.624347
    12  C    5.362275   5.964241   5.735490   6.838829   6.059256
    13  C    4.561229   5.508107   5.569770   6.899549   6.496325
    14  H    1.094339   2.179280   3.512601   4.787784   5.833493
    15  H    1.093505   2.183800   2.831931   4.304404   4.815022
    16  H    1.095601   2.179976   2.847570   4.283001   5.206753
    17  H    2.168449   1.098379   2.151772   2.861004   3.953579
    18  H    2.162857   1.098129   2.145345   2.814952   4.393559
    19  H    2.764307   2.158225   1.097646   2.159871   2.935157
    20  H    4.242692   2.743387   2.212404   1.093124   2.458832
    21  H    4.563063   3.247082   2.247538   1.090669   2.497624
    22  H    3.378766   2.766990   2.205205   2.834164   2.473837
    23  H    3.886383   3.835397   2.714818   3.657587   3.047516
    24  H    5.142787   5.414045   4.567050   5.501972   4.456229
    25  H    5.832872   5.330877   4.295375   4.429419   2.842183
    26  H    6.774804   6.560876   5.468984   5.801261   4.167799
    27  H    4.230973   4.385419   4.185378   5.097028   4.452885
    28  H    6.043179   6.612193   6.496511   7.527604   6.733925
    29  H    6.119078   6.721252   6.318229   7.386642   6.440401
    30  H    4.003540   4.977738   5.302648   6.638218   6.454763
    31  H    5.393746   6.470104   6.602754   7.966020   7.572242
    32  H    4.066094   5.071746   5.031416   6.430415   6.106090
                    6          7          8          9         10
     6  C    0.000000
     7  N    1.415804   0.000000
     8  C    2.485496   1.447572   0.000000
     9  C    3.128888   2.647997   1.555166   0.000000
    10  O    3.868634   3.393471   2.132850   1.441822   0.000000
    11  C    3.257307   2.589239   1.550072   2.081957   1.446141
    12  C    4.543221   3.648819   2.646842   3.348967   2.472066
    13  C    4.721559   3.807680   3.322858   4.462629   3.830836
    14  H    4.236765   4.534992   5.548620   6.745127   6.797036
    15  H    2.968834   2.933525   3.815947   5.088189   5.147477
    16  H    3.673595   3.670635   4.876469   6.220908   6.568323
    17  H    2.830840   3.850283   4.887756   5.615553   5.855534
    18  H    3.529667   4.396314   5.712695   6.620012   7.101659
    19  H    2.145844   2.577258   4.020026   4.986055   5.831903
    20  H    2.888896   4.261444   5.326752   5.566921   6.286096
    21  H    3.221593   4.273682   5.517417   5.912425   6.909711
    22  H    1.092317   2.058994   2.660618   3.085724   3.465922
    23  H    2.015754   1.012565   2.052537   3.174250   4.130413
    24  H    3.353307   2.053568   1.093237   2.195848   2.719983
    25  H    2.804264   2.843464   2.246071   1.097949   2.112180
    26  H    3.993816   3.385293   2.277098   1.095422   2.115444
    27  H    2.960945   2.727015   2.213971   2.711765   2.103912
    28  H    5.280039   4.566903   3.530769   3.904817   2.699373
    29  H    5.076763   3.989355   2.812261   3.406224   2.694891
    30  H    4.605555   3.983722   3.745353   4.843561   4.161990
    31  H    5.802404   4.833543   4.288318   5.369806   4.642267
    32  H    4.324424   3.257063   3.044127   4.430325   4.149363
                   11         12         13         14         15
    11  C    0.000000
    12  C    1.517902   0.000000
    13  C    2.537123   1.532150   0.000000
    14  H    5.528767   5.920528   4.979049   0.000000
    15  H    3.839820   4.281385   3.491217   1.772320   0.000000
    16  H    5.310463   5.751431   4.849878   1.768707   1.762826
    17  H    4.977277   5.944436   5.615393   2.496744   2.550562
    18  H    6.148518   7.042730   6.516072   2.508096   3.081998
    19  H    5.005995   5.992790   5.714829   3.778795   3.090764
    20  H    5.892763   7.221477   7.300316   4.867421   4.610147
    21  H    6.472995   7.744892   7.744461   5.353631   5.038386
    22  H    2.886530   4.222109   4.496296   4.175676   2.944820
    23  H    3.430692   4.343784   4.418707   4.964115   3.483088
    24  H    2.180991   2.705915   3.291658   6.072340   4.320747
    25  H    2.747232   4.185194   5.203680   6.720808   5.208651
    26  H    2.953528   3.955853   5.143280   7.711389   6.027082
    27  H    1.102110   2.157671   2.757050   4.825647   3.285176
    28  H    2.133307   1.096917   2.170617   6.476958   4.959616
    29  H    2.137648   1.096980   2.174982   6.757516   5.064590
    30  H    2.816697   2.182693   1.095586   4.247271   2.951205
    31  H    3.486407   2.178685   1.093775   5.694953   4.366148
    32  H    2.801149   2.184444   1.094996   4.619308   3.071869
                   16         17         18         19         20
    16  H    0.000000
    17  H    3.083513   0.000000
    18  H    2.514650   1.753165   0.000000
    19  H    2.600505   3.058752   2.527757   0.000000
    20  H    4.750302   2.600152   2.845194   3.055770   0.000000
    21  H    4.661200   3.673270   3.125355   2.413715   1.780457
    22  H    4.060751   2.553254   3.761641   3.049340   3.025759
    23  H    3.770496   4.435033   4.619280   2.372674   4.555890
    24  H    5.195712   5.743851   6.383128   4.485952   6.216527
    25  H    6.288526   5.215204   6.258852   4.773672   4.799917
    26  H    7.038360   6.623618   7.513267   5.659038   6.360178
    27  H    4.906278   4.130022   5.480339   4.766057   5.288492
    28  H    6.553246   6.433342   7.698460   6.873856   7.786047
    29  H    6.363587   6.806676   7.782564   6.439042   7.878436
    30  H    4.476987   4.955074   5.966773   5.590478   6.901439
    31  H    5.601096   6.593836   7.438779   6.685637   8.372582
    32  H    4.141045   5.386237   6.025194   4.992686   6.960409
                   21         22         23         24         25
    21  H    0.000000
    22  H    3.882382   0.000000
    23  H    4.154388   2.916600   0.000000
    24  H    6.179712   3.688267   2.222603   0.000000
    25  H    5.271796   2.687250   3.395392   3.084785   0.000000
    26  H    6.511523   4.105245   3.650785   2.465796   1.786489
    27  H    6.110084   2.288914   3.709074   3.057145   2.997546
    28  H    8.494049   4.771138   5.339423   3.705484   4.655919
    29  H    8.224873   4.924558   4.491807   2.479734   4.409120
    30  H    7.527311   4.216750   4.716597   3.983325   5.400634
    31  H    8.787828   5.587615   5.359358   4.084092   6.184068
    32  H    7.173468   4.348760   3.681187   2.849832   5.164073
                   26         27         28         29         30
    26  H    0.000000
    27  H    3.738503   0.000000
    28  H    4.505925   2.504878   0.000000
    29  H    3.714852   3.055838   1.757105   0.000000
    30  H    5.679561   2.586438   2.524519   3.090026   0.000000
    31  H    5.944171   3.768607   2.521442   2.510149   1.767309
    32  H    5.058556   3.099314   3.088296   2.550962   1.766332
                   31         32
    31  H    0.000000
    32  H    1.768938   0.000000
 Stoichiometry    C10H19NOS
 Framework group  C1[X(C10H19NOS)]
 Deg. of freedom    90
 Full point group                 C1      NOp   1
 Largest Abelian subgroup         C1      NOp   1
 Largest concise Abelian subgroup C1      NOp   1
                         Standard orientation:                         
 ---------------------------------------------------------------------
 Center     Atomic      Atomic             Coordinates (Angstroms)
 Number     Number       Type             X           Y           Z
 ---------------------------------------------------------------------
      1          6           0       -1.340853    2.995755   -0.026008
      2          6           0       -2.338891    1.945696   -0.525774
      3          6           0       -2.258617    0.609304    0.213795
      4          6           0       -3.286700   -0.469386   -0.192367
      5         16           0       -2.069250   -1.841492    0.013078
      6          6           0       -0.992169   -0.248673   -0.010590
      7          7           0        0.053323   -0.080269    0.929137
      8          6           0        1.342867   -0.700769    0.711148
      9          6           0        1.527406   -2.102385    0.063105
     10          8           0        2.550180   -1.582436   -0.810071
     11          6           0        2.233705   -0.215262   -0.460779
     12          6           0        3.464683    0.620272   -0.159781
     13          6           0        3.117708    2.064452    0.216296
     14          1           0       -1.428497    3.924377   -0.598335
     15          1           0       -0.310472    2.639156   -0.109106
     16          1           0       -1.518096    3.235510    1.028243
     17          1           0       -2.187861    1.766599   -1.598878
     18          1           0       -3.360945    2.334833   -0.426457
     19          1           0       -2.346841    0.784930    1.293702
     20          1           0       -3.605684   -0.382271   -1.234280
     21          1           0       -4.166305   -0.555999    0.446658
     22          1           0       -0.596580   -0.145439   -1.023511
     23          1           0       -0.279264   -0.223596    1.874722
     24          1           0        1.894075   -0.632623    1.652792
     25          1           0        0.656245   -2.464143   -0.498768
     26          1           0        1.899867   -2.908682    0.704283
     27          1           0        1.643357    0.261988   -1.259758
     28          1           0        4.115194    0.604608   -1.042854
     29          1           0        4.026884    0.136447    0.648431
     30          1           0        2.598420    2.574109   -0.602788
     31          1           0        4.020413    2.638305    0.444683
     32          1           0        2.464560    2.103103    1.094316
 ---------------------------------------------------------------------
 Rotational constants (GHZ):           0.9071549           0.4643610           0.3299955
 Standard basis: 6-31+G(2df,p) (6D, 7F)
 There are   554 symmetry adapted cartesian basis functions of A   symmetry.
 There are   515 symmetry adapted basis functions of A   symmetry.
   515 basis functions,   781 primitive gaussians,   554 cartesian basis functions
    55 alpha electrons       55 beta electrons
       nuclear repulsion energy       961.3746002813 Hartrees.
 NAtoms=   32 NActive=   32 NUniq=   32 SFac= 1.00D+00 NAtFMM=   60 NAOKFM=F Big=F
 Integral buffers will be    131072 words long.
 Regular integral format.
 Two-electron integral symmetry is turned on.
 One-electron integrals computed using PRISM.
 PrsmSu:  requested number of processors reduced to:  12 ShMem   1 Linda.
 NBasis=   515 RedAO= T EigKep=  8.52D-06  NBF=   515
 NBsUse=   515 1.00D-06 EigRej= -1.00D+00 NBFU=   515
 ExpMin= 4.05D-02 ExpMax= 2.19D+04 ExpMxC= 3.30D+03 IAcc=3 IRadAn=         5 AccDes= 0.00D+00
 Harris functional with IExCor=  402 and IRadAn=       5 diagonalized for initial guess.
 HarFok:  IExCor=  402 AccDes= 0.00D+00 IRadAn=         5 IDoV= 1 UseB2=F ITyADJ=14
 ICtDFT=  3500011 ScaDFX=  1.000000  1.000000  1.000000  1.000000
 FoFCou: FMM=F IPFlag=           0 FMFlag=      100000 FMFlg1=           0
         NFxFlg=           0 DoJE=T BraDBF=F KetDBF=T FulRan=T
         wScrn=  0.000000 ICntrl=       500 IOpCl=  0 I1Cent=   200000004 NGrid=           0
         NMat0=    1 NMatS0=      1 NMatT0=    0 NMatD0=    1 NMtDS0=    0 NMtDT0=    0
 Petite list used in FoFCou.
 Requested convergence on RMS density matrix=1.00D-08 within 128 cycles.
 Requested convergence on MAX density matrix=1.00D-06.
 Requested convergence on             energy=1.00D-06.
 No special actions if energy rises.
 SCF Done:  E(RB3LYP) =  -920.680879411     A.U. after   13 cycles
            NFock= 13  Conv=0.67D-08     -V/T= 2.0060
 DoSCS=F DFT=T ScalE2(SS,OS)=  1.000000  1.000000
 ExpMin= 4.05D-02 ExpMax= 2.19D+04 ExpMxC= 3.30D+03 IAcc=3 IRadAn=         5 AccDes= 0.00D+00
 HarFok:  IExCor=  205 AccDes= 0.00D+00 IRadAn=         5 IDoV=-2 UseB2=F ITyADJ=14
 ICtDFT= 12500011 ScaDFX=  1.000000  1.000000  1.000000  1.000000
 Range of M.O.s used for correlation:    18   515
 NBasis=   515 NAE=    55 NBE=    55 NFC=    17 NFV=     0
 NROrb=    498 NOA=    38 NOB=    38 NVA=   460 NVB=   460

 **** Warning!!: The largest alpha MO coefficient is  0.66047140D+02

 Orbital symmetries:
       Occupied  (A) (A) (A) (A) (A) (A) (A) (A) (A) (A) (A) (A)
                 (A) (A) (A) (A) (A) (A) (A) (A) (A) (A) (A) (A)
                 (A) (A) (A) (A) (A) (A) (A) (A) (A) (A) (A) (A)
                 (A) (A) (A) (A) (A) (A) (A) (A) (A) (A) (A) (A)
                 (A) (A) (A) (A) (A) (A) (A)
       Virtual   (A) (A) (A) (A) (A) (A) (A) (A) (A) (A) (A) (A)
                 (A) (A) (A) (A) (A) (A) (A) (A) (A) (A) (A) (A)
                 (A) (A) (A) (A) (A) (A) (A) (A) (A) (A) (A) (A)
                 (A) (A) (A) (A) (A) (A) (A) (A) (A) (A) (A) (A)
                 (A) (A) (A) (A) (A) (A) (A) (A) (A) (A) (A) (A)
                 (A) (A) (A) (A) (A) (A) (A) (A) (A) (A) (A) (A)
                 (A) (A) (A) (A) (A) (A) (A) (A) (A) (A) (A) (A)
                 (A) (A) (A) (A) (A) (A) (A) (A) (A) (A) (A) (A)
                 (A) (A) (A) (A) (A) (A) (A) (A) (A) (A) (A) (A)
                 (A) (A) (A) (A) (A) (A) (A) (A) (A) (A) (A) (A)
                 (A) (A) (A) (A) (A) (A) (A) (A) (A) (A) (A) (A)
                 (A) (A) (A) (A) (A) (A) (A) (A) (A) (A) (A) (A)
                 (A) (A) (A) (A) (A) (A) (A) (A) (A) (A) (A) (A)
                 (A) (A) (A) (A) (A) (A) (A) (A) (A) (A) (A) (A)
                 (A) (A) (A) (A) (A) (A) (A) (A) (A) (A) (A) (A)
                 (A) (A) (A) (A) (A) (A) (A) (A) (A) (A) (A) (A)
                 (A) (A) (A) (A) (A) (A) (A) (A) (A) (A) (A) (A)
                 (A) (A) (A) (A) (A) (A) (A) (A) (A) (A) (A) (A)
                 (A) (A) (A) (A) (A) (A) (A) (A) (A) (A) (A) (A)
                 (A) (A) (A) (A) (A) (A) (A) (A) (A) (A) (A) (A)
                 (A) (A) (A) (A) (A) (A) (A) (A) (A) (A) (A) (A)
                 (A) (A) (A) (A) (A) (A) (A) (A) (A) (A) (A) (A)
                 (A) (A) (A) (A) (A) (A) (A) (A) (A) (A) (A) (A)
                 (A) (A) (A) (A) (A) (A) (A) (A) (A) (A) (A) (A)
                 (A) (A) (A) (A) (A) (A) (A) (A) (A) (A) (A) (A)
                 (A) (A) (A) (A) (A) (A) (A) (A) (A) (A) (A) (A)
                 (A) (A) (A) (A) (A) (A) (A) (A) (A) (A) (A) (A)
                 (A) (A) (A) (A) (A) (A) (A) (A) (A) (A) (A) (A)
                 (A) (A) (A) (A) (A) (A) (A) (A) (A) (A) (A) (A)
                 (A) (A) (A) (A) (A) (A) (A) (A) (A) (A) (A) (A)
                 (A) (A) (A) (A) (A) (A) (A) (A) (A) (A) (A) (A)
                 (A) (A) (A) (A) (A) (A) (A) (A) (A) (A) (A) (A)
                 (A) (A) (A) (A) (A) (A) (A) (A) (A) (A) (A) (A)
                 (A) (A) (A) (A) (A) (A) (A) (A) (A) (A) (A) (A)
                 (A) (A) (A) (A) (A) (A) (A) (A) (A) (A) (A) (A)
                 (A) (A) (A) (A) (A) (A) (A) (A) (A) (A) (A) (A)
                 (A) (A) (A) (A) (A) (A) (A) (A) (A) (A) (A) (A)
                 (A) (A) (A) (A) (A) (A) (A) (A) (A) (A) (A) (A)
                 (A) (A) (A) (A)
    40 initial guesses have been made.
 Convergence on wavefunction:    0.000001000000000
 Iteration     1 Dimension    40 NMult     0 NNew     40
 CISAX will form     4 AO SS matrices at one time.
 New state      5 was old state      7
 New state      6 was old state      5
 New state      7 was old state      6
 Iteration     2 Dimension    60 NMult    40 NNew     20
 Iteration     3 Dimension    80 NMult    60 NNew     20
 Iteration     4 Dimension   100 NMult    80 NNew     20
 Iteration     5 Dimension   120 NMult   100 NNew     20
 Iteration     6 Dimension   140 NMult   120 NNew     20
 Iteration     7 Dimension   160 NMult   140 NNew     20
 Iteration     8 Dimension   180 NMult   160 NNew     20
 Iteration     9 Dimension   200 NMult   180 NNew     20
 Iteration    10 Dimension   218 NMult   200 NNew     18
 Iteration    11 Dimension   224 NMult   218 NNew      6
 ***********************************************************************
 Excited states from <AA,BB:AA,BB> singles matrix:
 ***********************************************************************
 
 Ground to excited state transition densities written to RWF  633
 Ground to excited state transition electric dipole moments (Au):
       state          X           Y           Z        Dip. S.      Osc.
         1         0.1804      0.0664     -0.0127      0.0371      0.0040
         2        -0.1812     -0.0064      0.1374      0.0517      0.0065
         3        -0.3419     -0.2114     -0.1878      0.1969      0.0255
         4         0.5216      0.1404      0.1761      0.3229      0.0424
         5         0.1906      0.3858     -0.1963      0.2237      0.0307
         6         0.1046      0.2658      0.3168      0.1819      0.0251
         7        -0.0688      0.1319      0.1433      0.0427      0.0059
         8         0.1555      0.0916     -0.0351      0.0338      0.0048
         9        -0.3614      0.0256     -0.0175      0.1315      0.0190
        10        -0.1919     -0.0933     -0.2085      0.0890      0.0130
 Ground to excited state transition velocity dipole moments (Au):
       state          X           Y           Z        Dip. S.      Osc.
         1        -0.0302     -0.0108      0.0028      0.0010      0.0043
         2         0.0355     -0.0012     -0.0269      0.0020      0.0070
         3         0.0669      0.0415      0.0376      0.0076      0.0261
         4        -0.1027     -0.0310     -0.0344      0.0127      0.0429
         5        -0.0425     -0.0825      0.0416      0.0104      0.0335
         6        -0.0211     -0.0538     -0.0666      0.0078      0.0251
         7         0.0138     -0.0297     -0.0301      0.0020      0.0063
         8        -0.0349     -0.0203      0.0074      0.0017      0.0053
         9         0.0785     -0.0056      0.0054      0.0062      0.0192
        10         0.0420      0.0209      0.0462      0.0043      0.0132
 Ground to excited state transition magnetic dipole moments (Au):
       state          X           Y           Z
         1        -0.1369      0.5977     -0.1959
         2         0.3809      0.0207      0.0540
         3        -0.3244      0.1634      0.1378
         4        -0.2737     -0.2960     -0.2616
         5        -0.1017      0.0106      0.2087
         6         0.3518     -0.3226      0.3053
         7         0.3499     -0.1078      0.2335
         8        -0.2203      0.0665      0.1474
         9        -0.0905     -0.1437      0.5572
        10        -0.2186      0.1722      0.0121
 Ground to excited state transition velocity quadrupole moments (Au):
       state          XX          YY          ZZ          XY          XZ          YZ
         1         0.0744      0.0598      0.0150      0.1584      0.0492      0.0118
         2        -0.0217     -0.0976     -0.0968     -0.2520      0.1257     -0.0144
         3        -0.3745     -0.0519      0.1707     -0.2976     -0.0795     -0.1590
         4         0.3193      0.2030     -0.1617      0.3915      0.0680     -0.0639
         5        -0.0591      0.1053      0.2414      0.2200     -0.1401     -0.2197
         6        -0.0413      0.3554     -0.0379      0.1816      0.2295      0.4364
         7        -0.1088      0.3965      0.0354      0.0772      0.1341      0.2294
         8         0.1162      0.1377     -0.0341      0.1473     -0.1167     -0.0235
         9        -0.0322      0.0354     -0.0118     -0.1406     -0.0063     -0.0825
        10        -0.1569      0.0218      0.0438     -0.2674     -0.1904     -0.2229
 <0|del|b> * <b|rxdel|0> + <0|del|b> * <b|delr+rdel|0>
 Rotatory Strengths (R) in cgs (10**-40 erg-esu-cm/Gauss)
       state          XX          YY          ZZ    R(velocity)    E-M Angle
         1       -13.3107      6.1643     -5.5200     -4.2221       97.97
         2        10.2719      8.9571     26.0557     15.0949       45.49
         3         7.4185    -29.0050    -13.7600    -11.7821      106.68
         4        12.2272    102.4605     51.3137     55.3338       31.25
         5         9.2629     22.6481      9.7278     13.8796       59.13
         6        -4.6750    -42.5548     11.6138    -11.8720      102.04
         7        -3.6669      5.5945      1.5031      1.1436       86.99
         8        -2.5472     14.0618     13.0337      8.1827       48.53
         9         4.9632    -16.0094      0.3356     -3.5702       94.08
        10        -6.8312     -9.0836     -0.3243     -5.4130      105.87
 1/2[<0|r|b>*<b|rxdel|0> + (<0|rxdel|b>*<b|r|0>)*]
 Rotatory Strengths (R) in cgs (10**-40 erg-esu-cm/Gauss)
       state          XX          YY          ZZ     R(length)
         1        17.4757    -28.0555     -1.7548     -4.1115
         2        48.7946      0.0940     -5.2479     14.5469
         3       -78.4422     24.4389     18.2964    -11.9023
         4       100.9487     29.3954     32.5869     54.3104
         5        13.7042     -2.8838     28.9744     13.2649
         6       -26.0341     60.6399    -68.3947    -11.2630
         7        17.0250     10.0584    -23.6653      1.1394
         8        24.2158     -4.3049      3.6556      7.8555
         9       -23.1377      2.5991      6.8988     -4.5466
        10       -29.6604     11.3631      1.7857     -5.5038
  1/2[<0|del|b>*<b|r|0> + (<0|r|b>*<b|del|0>)*] (Au)
       state          X           Y           Z        Dip. S.   Osc.(frdel)
         1        -0.0054     -0.0007     -0.0000      0.0062      0.0041
         2        -0.0064      0.0000     -0.0037      0.0101      0.0067
         3        -0.0229     -0.0088     -0.0071      0.0387      0.0258
         4        -0.0536     -0.0044     -0.0061      0.0640      0.0427
         5        -0.0081     -0.0318     -0.0082      0.0481      0.0321
         6        -0.0022     -0.0143     -0.0211      0.0376      0.0251
         7        -0.0010     -0.0039     -0.0043      0.0092      0.0061
         8        -0.0054     -0.0019     -0.0003      0.0076      0.0050
         9        -0.0284     -0.0001     -0.0001      0.0286      0.0191
        10        -0.0081     -0.0020     -0.0096      0.0196      0.0131

 Excitation energies and oscillator strengths:
 
 Excited State   1:      Singlet-A      4.3621 eV  284.23 nm  f=0.0040  <S**2>=0.000
      54 -> 56        -0.15811
      55 -> 56         0.66556
      55 -> 57         0.11340
 This state for optimization and/or second-order correction.
 Total Energy, E(TD-HF/TD-DFT) =  -920.520575037    
 Copying the excited state density for this state as the 1-particle RhoCI density.
 
 Excited State   2:      Singlet-A      5.1125 eV  242.51 nm  f=0.0065  <S**2>=0.000
      54 -> 56        -0.38437
      55 -> 56        -0.18212
      55 -> 57         0.51557
      55 -> 58         0.17335
 
 Excited State   3:      Singlet-A      5.2964 eV  234.09 nm  f=0.0255  <S**2>=0.000
      54 -> 56        -0.35767
      55 -> 57        -0.39944
      55 -> 58         0.40623
      55 -> 59        -0.15610
 
 Excited State   4:      Singlet-A      5.3653 eV  231.09 nm  f=0.0424  <S**2>=0.000
      54 -> 56         0.41295
      54 -> 57         0.11945
      55 -> 57         0.14346
      55 -> 58         0.52258
 
 Excited State   5:      Singlet-A      5.6060 eV  221.16 nm  f=0.0307  <S**2>=0.000
      54 -> 57         0.58348
      54 -> 58         0.19766
      55 -> 59        -0.28748
      55 -> 60         0.10444
 
 Excited State   6:      Singlet-A      5.6294 eV  220.24 nm  f=0.0251  <S**2>=0.000
      54 -> 57        -0.17653
      54 -> 58        -0.12975
      55 -> 59        -0.30486
      55 -> 60         0.50143
      55 -> 61        -0.26855
 
 Excited State   7:      Singlet-A      5.6781 eV  218.35 nm  f=0.0059  <S**2>=0.000
      54 -> 57         0.11942
      54 -> 58         0.19056
      55 -> 57        -0.16358
      55 -> 59         0.49322
      55 -> 60         0.35773
      55 -> 61        -0.10590
 
 Excited State   8:      Singlet-A      5.8280 eV  212.74 nm  f=0.0048  <S**2>=0.000
      53 -> 56         0.12840
      54 -> 57        -0.25874
      54 -> 58         0.60170
      55 -> 59        -0.13101
 
 Excited State   9:      Singlet-A      5.8827 eV  210.76 nm  f=0.0190  <S**2>=0.000
      53 -> 56         0.68044
 
 Excited State  10:      Singlet-A      5.9407 eV  208.70 nm  f=0.0130  <S**2>=0.000
      54 -> 60         0.19906
      55 -> 60         0.28384
      55 -> 61         0.53075
      55 -> 62        -0.15058
      55 -> 64        -0.20222
 SavETr:  write IOETrn=   770 NScale= 10 NData=  16 NLR=1 NState=   10 LETran=     190.
          IDoAtm=11111111111111111111111111111111
          Differentiating once with respect to electric field.
                with respect to dipole field.
          Differentiating once with respect to nuclear coordinates.
          There are     1 degrees of freedom in the 1st order CPHF.  IDoFFX=0 NUNeed=     1.
 LinEq1:  Iter=  0 NonCon=     1 RMS=3.84D-03 Max=1.52D-01 NDo=     1
 AX will form     1 AO Fock derivatives at one time.
 LinEq1:  Iter=  1 NonCon=     1 RMS=1.78D-03 Max=5.90D-02 NDo=     1
 LinEq1:  Iter=  2 NonCon=     1 RMS=1.02D-03 Max=2.34D-02 NDo=     1
 LinEq1:  Iter=  3 NonCon=     1 RMS=4.16D-04 Max=1.23D-02 NDo=     1
 LinEq1:  Iter=  4 NonCon=     1 RMS=2.52D-04 Max=5.94D-03 NDo=     1
 LinEq1:  Iter=  5 NonCon=     1 RMS=1.48D-04 Max=3.23D-03 NDo=     1
 LinEq1:  Iter=  6 NonCon=     1 RMS=7.10D-05 Max=1.32D-03 NDo=     1
 LinEq1:  Iter=  7 NonCon=     1 RMS=3.31D-05 Max=1.10D-03 NDo=     1
 LinEq1:  Iter=  8 NonCon=     1 RMS=1.84D-05 Max=4.40D-04 NDo=     1
 LinEq1:  Iter=  9 NonCon=     1 RMS=1.05D-05 Max=3.55D-04 NDo=     1
 LinEq1:  Iter= 10 NonCon=     1 RMS=3.53D-06 Max=1.03D-04 NDo=     1
 LinEq1:  Iter= 11 NonCon=     1 RMS=1.81D-06 Max=9.19D-05 NDo=     1
 LinEq1:  Iter= 12 NonCon=     1 RMS=7.67D-07 Max=5.27D-05 NDo=     1
 LinEq1:  Iter= 13 NonCon=     1 RMS=3.33D-07 Max=1.54D-05 NDo=     1
 LinEq1:  Iter= 14 NonCon=     1 RMS=1.72D-07 Max=6.14D-06 NDo=     1
 LinEq1:  Iter= 15 NonCon=     1 RMS=7.18D-08 Max=2.43D-06 NDo=     1
 LinEq1:  Iter= 16 NonCon=     1 RMS=3.43D-08 Max=9.27D-07 NDo=     1
 LinEq1:  Iter= 17 NonCon=     1 RMS=1.51D-08 Max=2.79D-07 NDo=     1
 LinEq1:  Iter= 18 NonCon=     1 RMS=5.59D-09 Max=9.11D-08 NDo=     1
 LinEq1:  Iter= 19 NonCon=     1 RMS=2.46D-09 Max=4.75D-08 NDo=     1
 LinEq1:  Iter= 20 NonCon=     1 RMS=9.49D-10 Max=2.21D-08 NDo=     1
 LinEq1:  Iter= 21 NonCon=     1 RMS=3.81D-10 Max=7.04D-09 NDo=     1
 LinEq1:  Iter= 22 NonCon=     1 RMS=1.52D-10 Max=3.50D-09 NDo=     1
 LinEq1:  Iter= 23 NonCon=     1 RMS=4.66D-11 Max=1.86D-09 NDo=     1
 LinEq1:  Iter= 24 NonCon=     0 RMS=2.13D-11 Max=5.44D-10 NDo=     1
 Linear equations converged to 1.000D-10 1.000D-09 after    24 iterations.
 End of Minotr F.D. properties file   721 does not exist.
 End of Minotr F.D. properties file   722 does not exist.
 End of Minotr F.D. properties file   788 does not exist.

 **********************************************************************

            Population analysis using the SCF density.

 **********************************************************************

 Orbital symmetries:
       Occupied  (A) (A) (A) (A) (A) (A) (A) (A) (A) (A) (A) (A)
                 (A) (A) (A) (A) (A) (A) (A) (A) (A) (A) (A) (A)
                 (A) (A) (A) (A) (A) (A) (A) (A) (A) (A) (A) (A)
                 (A) (A) (A) (A) (A) (A) (A) (A) (A) (A) (A) (A)
                 (A) (A) (A) (A) (A) (A) (A)
       Virtual   (A) (A) (A) (A) (A) (A) (A) (A) (A) (A) (A) (A)
                 (A) (A) (A) (A) (A) (A) (A) (A) (A) (A) (A) (A)
                 (A) (A) (A) (A) (A) (A) (A) (A) (A) (A) (A) (A)
                 (A) (A) (A) (A) (A) (A) (A) (A) (A) (A) (A) (A)
                 (A) (A) (A) (A) (A) (A) (A) (A) (A) (A) (A) (A)
                 (A) (A) (A) (A) (A) (A) (A) (A) (A) (A) (A) (A)
                 (A) (A) (A) (A) (A) (A) (A) (A) (A) (A) (A) (A)
                 (A) (A) (A) (A) (A) (A) (A) (A) (A) (A) (A) (A)
                 (A) (A) (A) (A) (A) (A) (A) (A) (A) (A) (A) (A)
                 (A) (A) (A) (A) (A) (A) (A) (A) (A) (A) (A) (A)
                 (A) (A) (A) (A) (A) (A) (A) (A) (A) (A) (A) (A)
                 (A) (A) (A) (A) (A) (A) (A) (A) (A) (A) (A) (A)
                 (A) (A) (A) (A) (A) (A) (A) (A) (A) (A) (A) (A)
                 (A) (A) (A) (A) (A) (A) (A) (A) (A) (A) (A) (A)
                 (A) (A) (A) (A) (A) (A) (A) (A) (A) (A) (A) (A)
                 (A) (A) (A) (A) (A) (A) (A) (A) (A) (A) (A) (A)
                 (A) (A) (A) (A) (A) (A) (A) (A) (A) (A) (A) (A)
                 (A) (A) (A) (A) (A) (A) (A) (A) (A) (A) (A) (A)
                 (A) (A) (A) (A) (A) (A) (A) (A) (A) (A) (A) (A)
                 (A) (A) (A) (A) (A) (A) (A) (A) (A) (A) (A) (A)
                 (A) (A) (A) (A) (A) (A) (A) (A) (A) (A) (A) (A)
                 (A) (A) (A) (A) (A) (A) (A) (A) (A) (A) (A) (A)
                 (A) (A) (A) (A) (A) (A) (A) (A) (A) (A) (A) (A)
                 (A) (A) (A) (A) (A) (A) (A) (A) (A) (A) (A) (A)
                 (A) (A) (A) (A) (A) (A) (A) (A) (A) (A) (A) (A)
                 (A) (A) (A) (A) (A) (A) (A) (A) (A) (A) (A) (A)
                 (A) (A) (A) (A) (A) (A) (A) (A) (A) (A) (A) (A)
                 (A) (A) (A) (A) (A) (A) (A) (A) (A) (A) (A) (A)
                 (A) (A) (A) (A) (A) (A) (A) (A) (A) (A) (A) (A)
                 (A) (A) (A) (A) (A) (A) (A) (A) (A) (A) (A) (A)
                 (A) (A) (A) (A) (A) (A) (A) (A) (A) (A) (A) (A)
                 (A) (A) (A) (A) (A) (A) (A) (A) (A) (A) (A) (A)
                 (A) (A) (A) (A) (A) (A) (A) (A) (A) (A) (A) (A)
                 (A) (A) (A) (A) (A) (A) (A) (A) (A) (A) (A) (A)
                 (A) (A) (A) (A) (A) (A) (A) (A) (A) (A) (A) (A)
                 (A) (A) (A) (A) (A) (A) (A) (A) (A) (A) (A) (A)
                 (A) (A) (A) (A) (A) (A) (A) (A) (A) (A) (A) (A)
                 (A) (A) (A) (A) (A) (A) (A) (A) (A) (A) (A) (A)
                 (A) (A) (A) (A)
 The electronic state is 1-A.
 Alpha  occ. eigenvalues --  -88.85979 -19.14361 -14.34812 -10.25132 -10.23761
 Alpha  occ. eigenvalues --  -10.23127 -10.23056 -10.21531 -10.20845 -10.19419
 Alpha  occ. eigenvalues --  -10.18807 -10.18414 -10.18206  -7.92336  -5.88749
 Alpha  occ. eigenvalues --   -5.88513  -5.87882  -1.04754  -0.93798  -0.84486
 Alpha  occ. eigenvalues --   -0.78871  -0.77055  -0.73283  -0.69032  -0.67558
 Alpha  occ. eigenvalues --   -0.66773  -0.61552  -0.60537  -0.58441  -0.55662
 Alpha  occ. eigenvalues --   -0.51770  -0.50653  -0.47938  -0.46745  -0.45642
 Alpha  occ. eigenvalues --   -0.44793  -0.44303  -0.43102  -0.41677  -0.40725
 Alpha  occ. eigenvalues --   -0.39895  -0.39250  -0.38406  -0.37533  -0.36674
 Alpha  occ. eigenvalues --   -0.36049  -0.34854  -0.34452  -0.33663  -0.33267
 Alpha  occ. eigenvalues --   -0.31780  -0.29714  -0.25606  -0.23953  -0.22115
 Alpha virt. eigenvalues --   -0.01481  -0.00408  -0.00015   0.00786   0.01345
 Alpha virt. eigenvalues --    0.02392   0.02858   0.03129   0.03496   0.04329
 Alpha virt. eigenvalues --    0.04910   0.05511   0.05678   0.05952   0.06194
 Alpha virt. eigenvalues --    0.07260   0.07763   0.08015   0.08266   0.09178
 Alpha virt. eigenvalues --    0.09430   0.09476   0.10027   0.10418   0.10565
 Alpha virt. eigenvalues --    0.11097   0.12302   0.12739   0.13129   0.13519
 Alpha virt. eigenvalues --    0.13632   0.14369   0.14892   0.15144   0.15457
 Alpha virt. eigenvalues --    0.15969   0.16030   0.16684   0.17046   0.17804
 Alpha virt. eigenvalues --    0.18050   0.18307   0.19075   0.19449   0.19506
 Alpha virt. eigenvalues --    0.20300   0.20685   0.21055   0.21203   0.21543
 Alpha virt. eigenvalues --    0.21827   0.22456   0.22796   0.23474   0.23480
 Alpha virt. eigenvalues --    0.24681   0.25291   0.25900   0.26125   0.26937
 Alpha virt. eigenvalues --    0.27678   0.28084   0.28363   0.28672   0.29755
 Alpha virt. eigenvalues --    0.29832   0.30198   0.30687   0.31517   0.32101
 Alpha virt. eigenvalues --    0.32471   0.32751   0.33713   0.35077   0.36230
 Alpha virt. eigenvalues --    0.36498   0.36625   0.37674   0.38016   0.38768
 Alpha virt. eigenvalues --    0.39756   0.40162   0.43733   0.44121   0.44618
 Alpha virt. eigenvalues --    0.46087   0.47459   0.48467   0.50393   0.51665
 Alpha virt. eigenvalues --    0.54169   0.55833   0.57138   0.57719   0.58508
 Alpha virt. eigenvalues --    0.58727   0.60143   0.61129   0.61521   0.62504
 Alpha virt. eigenvalues --    0.62855   0.64363   0.64567   0.65284   0.65477
 Alpha virt. eigenvalues --    0.67014   0.67658   0.68782   0.69468   0.70649
 Alpha virt. eigenvalues --    0.70929   0.71834   0.72987   0.74036   0.75263
 Alpha virt. eigenvalues --    0.76037   0.77052   0.77315   0.78227   0.78695
 Alpha virt. eigenvalues --    0.79560   0.80025   0.81103   0.81933   0.82503
 Alpha virt. eigenvalues --    0.82802   0.83770   0.85031   0.85646   0.86499
 Alpha virt. eigenvalues --    0.87629   0.88210   0.88929   0.90704   0.91006
 Alpha virt. eigenvalues --    0.91826   0.93077   0.93828   0.95040   0.96501
 Alpha virt. eigenvalues --    0.96979   0.97342   0.98838   0.99816   1.01182
 Alpha virt. eigenvalues --    1.02100   1.02682   1.04789   1.06360   1.07447
 Alpha virt. eigenvalues --    1.07826   1.08101   1.11053   1.12796   1.13723
 Alpha virt. eigenvalues --    1.14527   1.15980   1.18587   1.20047   1.21204
 Alpha virt. eigenvalues --    1.21698   1.22572   1.22829   1.23837   1.25767
 Alpha virt. eigenvalues --    1.27921   1.30268   1.31578   1.33756   1.35104
 Alpha virt. eigenvalues --    1.36943   1.37357   1.38205   1.41051   1.42756
 Alpha virt. eigenvalues --    1.44909   1.45561   1.47170   1.48052   1.49411
 Alpha virt. eigenvalues --    1.50508   1.51487   1.53344   1.54373   1.55727
 Alpha virt. eigenvalues --    1.56099   1.57810   1.58143   1.58737   1.61818
 Alpha virt. eigenvalues --    1.62365   1.63207   1.64552   1.65289   1.65870
 Alpha virt. eigenvalues --    1.66913   1.67287   1.69050   1.70439   1.71277
 Alpha virt. eigenvalues --    1.73179   1.73442   1.75008   1.75666   1.76653
 Alpha virt. eigenvalues --    1.78268   1.79141   1.80573   1.81917   1.83048
 Alpha virt. eigenvalues --    1.85178   1.86100   1.87692   1.89738   1.91006
 Alpha virt. eigenvalues --    1.91774   1.93928   1.94492   1.95260   1.96000
 Alpha virt. eigenvalues --    1.97157   1.97350   1.98878   2.01357   2.03866
 Alpha virt. eigenvalues --    2.05145   2.08549   2.10928   2.12385   2.15340
 Alpha virt. eigenvalues --    2.16020   2.17719   2.18269   2.21615   2.25319
 Alpha virt. eigenvalues --    2.26807   2.28099   2.28771   2.29367   2.31514
 Alpha virt. eigenvalues --    2.33195   2.36643   2.37263   2.39424   2.40085
 Alpha virt. eigenvalues --    2.42239   2.42737   2.44003   2.45927   2.47899
 Alpha virt. eigenvalues --    2.50143   2.51931   2.53975   2.55845   2.56625
 Alpha virt. eigenvalues --    2.59050   2.61187   2.63885   2.67429   2.68138
 Alpha virt. eigenvalues --    2.69774   2.73690   2.75156   2.77293   2.78503
 Alpha virt. eigenvalues --    2.79550   2.80234   2.80591   2.81877   2.84121
 Alpha virt. eigenvalues --    2.85604   2.86855   2.88593   2.89436   2.90784
 Alpha virt. eigenvalues --    2.91733   2.94406   2.94822   2.95093   2.96761
 Alpha virt. eigenvalues --    2.96892   2.97604   2.97947   2.99037   3.00217
 Alpha virt. eigenvalues --    3.00639   3.02466   3.03189   3.04642   3.05267
 Alpha virt. eigenvalues --    3.06417   3.09350   3.11569   3.12943   3.13562
 Alpha virt. eigenvalues --    3.14677   3.15376   3.18144   3.18944   3.20387
 Alpha virt. eigenvalues --    3.21458   3.23132   3.24176   3.28942   3.29901
 Alpha virt. eigenvalues --    3.32006   3.33392   3.33749   3.35555   3.36694
 Alpha virt. eigenvalues --    3.39237   3.39930   3.41559   3.42661   3.45478
 Alpha virt. eigenvalues --    3.47685   3.48569   3.51826   3.52429   3.53198
 Alpha virt. eigenvalues --    3.54329   3.56277   3.57751   3.59311   3.59957
 Alpha virt. eigenvalues --    3.61103   3.62280   3.62471   3.65064   3.67049
 Alpha virt. eigenvalues --    3.68329   3.69725   3.71245   3.74525   3.74981
 Alpha virt. eigenvalues --    3.76840   3.78649   3.81055   3.82446   3.83714
 Alpha virt. eigenvalues --    3.84585   3.87520   3.89353   3.90127   3.94357
 Alpha virt. eigenvalues --    3.95805   3.96611   3.99811   4.02026   4.05358
 Alpha virt. eigenvalues --    4.07554   4.09676   4.14687   4.20835   4.22460
 Alpha virt. eigenvalues --    4.27978   4.29751   4.31834   4.36483   4.38761
 Alpha virt. eigenvalues --    4.39843   4.41928   4.42347   4.43970   4.44405
 Alpha virt. eigenvalues --    4.46099   4.47711   4.47887   4.48798   4.49494
 Alpha virt. eigenvalues --    4.50584   4.51061   4.51430   4.51799   4.52691
 Alpha virt. eigenvalues --    4.54595   4.55935   4.57241   4.59062   4.60569
 Alpha virt. eigenvalues --    4.61836   4.63212   4.64470   4.66488   4.67259
 Alpha virt. eigenvalues --    4.67808   4.69161   4.69601   4.69780   4.70873
 Alpha virt. eigenvalues --    4.72705   4.73288   4.75138   4.75958   4.76317
 Alpha virt. eigenvalues --    4.76725   4.77977   4.78969   4.80378   4.80890
 Alpha virt. eigenvalues --    4.82456   4.84318   4.84975   4.85750   4.87045
 Alpha virt. eigenvalues --    4.87570   4.90379   4.91019   4.92350   4.93481
 Alpha virt. eigenvalues --    4.95113   4.98771   4.99246   5.01566   5.03235
 Alpha virt. eigenvalues --    5.05466   5.07049   5.08107   5.09046   5.15590
 Alpha virt. eigenvalues --    5.18151   5.19781   5.24270   5.28881   5.32250
 Alpha virt. eigenvalues --    5.34109   5.37562   5.38082   5.45735   5.47353
 Alpha virt. eigenvalues --    5.49147   5.51037   5.56464   5.57756   5.65499
 Alpha virt. eigenvalues --    5.70996   5.73746   5.78374   5.81747   5.89846
 Alpha virt. eigenvalues --    5.91375   6.04439   6.17925   6.24502   6.50619
 Alpha virt. eigenvalues --    6.64368   7.27820  11.30741  11.53055  11.59281
 Alpha virt. eigenvalues --   11.79342  12.03282  12.08555  12.20819  12.44073
 Alpha virt. eigenvalues --   12.48968  12.90325  12.92491  13.68001  26.64627
          Condensed to atoms (all electrons):
               1          2          3          4          5          6
     1  C    5.558449  -0.259740   0.092267  -0.122255   0.000544   0.119357
     2  C   -0.259740   6.217324  -0.549232   0.211310   0.019121   0.042190
     3  C    0.092267  -0.549232   8.335715  -0.900565   0.950620  -1.804919
     4  C   -0.122255   0.211310  -0.900565   6.042669  -0.405220   0.710203
     5  S    0.000544   0.019121   0.950620  -0.405220  17.012291  -0.983227
     6  C    0.119357   0.042190  -1.804919   0.710203  -0.983227   7.537393
     7  N   -0.060168   0.022178   0.144527  -0.046143  -0.021557   0.223059
     8  C   -0.017456   0.040596  -0.101215  -0.051536   0.115915  -0.727211
     9  C   -0.002442   0.010477  -0.000618   0.010650  -0.026126   0.015066
    10  O   -0.000183   0.000127   0.004109  -0.001729   0.003091  -0.015025
    11  C    0.019006  -0.027461  -0.036844   0.011126  -0.076098   0.366080
    12  C    0.010185   0.010396  -0.066779  -0.006393  -0.003503  -0.055529
    13  C   -0.000752  -0.005383   0.002568   0.002073  -0.001303  -0.000857
    14  H    0.431620  -0.082231   0.020350  -0.002260  -0.000047  -0.006848
    15  H    0.458801  -0.127393   0.027764  -0.008443   0.002925   0.011284
    16  H    0.445327  -0.112947   0.015324  -0.004591  -0.000526   0.009630
    17  H    0.030640   0.324171  -0.100743  -0.035294  -0.006874   0.083876
    18  H   -0.007699   0.386175  -0.024655  -0.033422   0.000032  -0.008154
    19  H   -0.005689   0.028729   0.104910   0.041876  -0.022115   0.094528
    20  H   -0.002434   0.049505  -0.148270   0.413943  -0.023366   0.015799
    21  H   -0.005643  -0.009713  -0.012500   0.431172  -0.030467  -0.035122
    22  H    0.004382   0.009581  -0.081708   0.000398  -0.021394   0.416957
    23  H    0.000128   0.000856  -0.043952   0.004997  -0.005572   0.020744
    24  H    0.000258   0.000729   0.001868   0.001218  -0.003616   0.023671
    25  H   -0.000131  -0.000458   0.000289   0.009920  -0.018878   0.093864
    26  H    0.000109  -0.000004  -0.004285  -0.001429   0.000624  -0.015709
    27  H   -0.001750   0.002038  -0.002736   0.003547   0.001890   0.027752
    28  H    0.000069  -0.000078  -0.000770   0.000017  -0.000181   0.001347
    29  H   -0.000005  -0.000039  -0.000393   0.000009   0.000241  -0.000415
    30  H    0.000493  -0.001314  -0.000204  -0.000023  -0.000061   0.001652
    31  H    0.000027  -0.000005   0.000091   0.000004   0.000022   0.001019
    32  H    0.000714  -0.001381  -0.000251  -0.000147  -0.000045  -0.001762
               7          8          9         10         11         12
     1  C   -0.060168  -0.017456  -0.002442  -0.000183   0.019006   0.010185
     2  C    0.022178   0.040596   0.010477   0.000127  -0.027461   0.010396
     3  C    0.144527  -0.101215  -0.000618   0.004109  -0.036844  -0.066779
     4  C   -0.046143  -0.051536   0.010650  -0.001729   0.011126  -0.006393
     5  S   -0.021557   0.115915  -0.026126   0.003091  -0.076098  -0.003503
     6  C    0.223059  -0.727211   0.015066  -0.015025   0.366080  -0.055529
     7  N    6.637483  -0.276579   0.065938   0.009268   0.237084  -0.078724
     8  C   -0.276579  10.509668  -0.748913   0.051429  -2.766296   0.276584
     9  C    0.065938  -0.748913   5.854439   0.122462   0.005319   0.027434
    10  O    0.009268   0.051429   0.122462   7.929624   0.270972  -0.161690
    11  C    0.237084  -2.766296   0.005319   0.270972   8.143989  -0.524356
    12  C   -0.078724   0.276584   0.027434  -0.161690  -0.524356   6.116879
    13  C   -0.004896   0.064130  -0.018187   0.012134   0.017862   0.050050
    14  H    0.000486  -0.000119  -0.000038  -0.000000   0.000512  -0.000753
    15  H   -0.006289   0.001336  -0.000075   0.000011  -0.001325   0.001152
    16  H    0.001710   0.000597  -0.000264  -0.000000   0.000319  -0.000497
    17  H    0.001052   0.006130   0.000008   0.000002  -0.001871   0.000502
    18  H    0.002966   0.001238  -0.000103  -0.000001   0.000437  -0.000042
    19  H   -0.008509   0.022048  -0.003268  -0.000005  -0.002665   0.000362
    20  H    0.001964   0.000022   0.000575  -0.000003   0.000880   0.000025
    21  H    0.002087  -0.000950  -0.000620   0.000002  -0.000363  -0.000082
    22  H   -0.076209  -0.025139   0.004796  -0.000798  -0.003942   0.019381
    23  H    0.299059  -0.027153  -0.000651  -0.000661   0.011049   0.006294
    24  H   -0.019192   0.208009   0.024552   0.008312   0.019396   0.007181
    25  H    0.012010  -0.312731   0.449589  -0.029526   0.123963  -0.012893
    26  H    0.008928  -0.051722   0.370142  -0.054302   0.064449   0.021348
    27  H   -0.005192  -0.028871   0.062481  -0.022789   0.218973  -0.032441
    28  H    0.000789  -0.020401   0.001952   0.002465  -0.062464   0.430865
    29  H   -0.004051   0.084968  -0.004687   0.006923  -0.164021   0.406313
    30  H   -0.000007   0.003745   0.001659   0.000681   0.020242  -0.095995
    31  H    0.000862   0.001153   0.000185   0.000176  -0.000671  -0.054693
    32  H   -0.002824   0.008889   0.000821   0.000224  -0.000894  -0.061882
              13         14         15         16         17         18
     1  C   -0.000752   0.431620   0.458801   0.445327   0.030640  -0.007699
     2  C   -0.005383  -0.082231  -0.127393  -0.112947   0.324171   0.386175
     3  C    0.002568   0.020350   0.027764   0.015324  -0.100743  -0.024655
     4  C    0.002073  -0.002260  -0.008443  -0.004591  -0.035294  -0.033422
     5  S   -0.001303  -0.000047   0.002925  -0.000526  -0.006874   0.000032
     6  C   -0.000857  -0.006848   0.011284   0.009630   0.083876  -0.008154
     7  N   -0.004896   0.000486  -0.006289   0.001710   0.001052   0.002966
     8  C    0.064130  -0.000119   0.001336   0.000597   0.006130   0.001238
     9  C   -0.018187  -0.000038  -0.000075  -0.000264   0.000008  -0.000103
    10  O    0.012134  -0.000000   0.000011  -0.000000   0.000002  -0.000001
    11  C    0.017862   0.000512  -0.001325   0.000319  -0.001871   0.000437
    12  C    0.050050  -0.000753   0.001152  -0.000497   0.000502  -0.000042
    13  C    5.303693   0.000417  -0.003753   0.001137  -0.000021  -0.000035
    14  H    0.000417   0.539402  -0.027473  -0.028146  -0.002441  -0.002793
    15  H   -0.003753  -0.027473   0.513943  -0.028812  -0.003227   0.004523
    16  H    0.001137  -0.028146  -0.028812   0.537890   0.004618  -0.003900
    17  H   -0.000021  -0.002441  -0.003227   0.004618   0.581008  -0.032655
    18  H   -0.000035  -0.002793   0.004523  -0.003900  -0.032655   0.572547
    19  H    0.000105   0.000013  -0.000294   0.002975   0.005785  -0.002391
    20  H    0.000028  -0.000002  -0.000002   0.000002   0.002276  -0.000200
    21  H    0.000014   0.000002  -0.000001   0.000004  -0.000044   0.000490
    22  H   -0.001797  -0.000025  -0.000223   0.000035   0.002326   0.000098
    23  H   -0.000808  -0.000003  -0.000029   0.000007   0.000006  -0.000003
    24  H   -0.006256  -0.000000   0.000003   0.000000   0.000000  -0.000000
    25  H   -0.000067   0.000000  -0.000000   0.000000   0.000000   0.000000
    26  H   -0.000961  -0.000000   0.000000  -0.000000   0.000000   0.000000
    27  H    0.006899   0.000002   0.000152   0.000001   0.000007  -0.000000
    28  H   -0.031649  -0.000000  -0.000001   0.000000   0.000000   0.000000
    29  H   -0.020325   0.000000   0.000000   0.000000   0.000000  -0.000000
    30  H    0.422884  -0.000002   0.000299  -0.000005   0.000000  -0.000000
    31  H    0.412490  -0.000000   0.000008  -0.000000  -0.000000   0.000000
    32  H    0.415353  -0.000000   0.000176  -0.000007   0.000000  -0.000000
              19         20         21         22         23         24
     1  C   -0.005689  -0.002434  -0.005643   0.004382   0.000128   0.000258
     2  C    0.028729   0.049505  -0.009713   0.009581   0.000856   0.000729
     3  C    0.104910  -0.148270  -0.012500  -0.081708  -0.043952   0.001868
     4  C    0.041876   0.413943   0.431172   0.000398   0.004997   0.001218
     5  S   -0.022115  -0.023366  -0.030467  -0.021394  -0.005572  -0.003616
     6  C    0.094528   0.015799  -0.035122   0.416957   0.020744   0.023671
     7  N   -0.008509   0.001964   0.002087  -0.076209   0.299059  -0.019192
     8  C    0.022048   0.000022  -0.000950  -0.025139  -0.027153   0.208009
     9  C   -0.003268   0.000575  -0.000620   0.004796  -0.000651   0.024552
    10  O   -0.000005  -0.000003   0.000002  -0.000798  -0.000661   0.008312
    11  C   -0.002665   0.000880  -0.000363  -0.003942   0.011049   0.019396
    12  C    0.000362   0.000025  -0.000082   0.019381   0.006294   0.007181
    13  C    0.000105   0.000028   0.000014  -0.001797  -0.000808  -0.006256
    14  H    0.000013  -0.000002   0.000002  -0.000025  -0.000003  -0.000000
    15  H   -0.000294  -0.000002  -0.000001  -0.000223  -0.000029   0.000003
    16  H    0.002975   0.000002   0.000004   0.000035   0.000007   0.000000
    17  H    0.005785   0.002276  -0.000044   0.002326   0.000006   0.000000
    18  H   -0.002391  -0.000200   0.000490   0.000098  -0.000003  -0.000000
    19  H    0.628081   0.004597  -0.008050   0.004920   0.004681  -0.000002
    20  H    0.004597   0.560116  -0.040012   0.001943   0.000007  -0.000000
    21  H   -0.008050  -0.040012   0.545183  -0.000455  -0.000069  -0.000000
    22  H    0.004920   0.001943  -0.000455   0.587868   0.006803   0.000009
    23  H    0.004681   0.000007  -0.000069   0.006803   0.459170  -0.008337
    24  H   -0.000002  -0.000000  -0.000000   0.000009  -0.008337   0.619855
    25  H   -0.000002  -0.000007   0.000000  -0.000841  -0.000074   0.004541
    26  H    0.000000   0.000000   0.000000   0.000072   0.000166  -0.007342
    27  H   -0.000000  -0.000000  -0.000000   0.002553  -0.000144   0.005468
    28  H    0.000000  -0.000000  -0.000000   0.000008   0.000004   0.000097
    29  H   -0.000000   0.000000   0.000000  -0.000001  -0.000003   0.002706
    30  H    0.000000  -0.000000   0.000000   0.000005   0.000002   0.000052
    31  H   -0.000000   0.000000   0.000000  -0.000000  -0.000001  -0.000030
    32  H   -0.000001  -0.000000   0.000000   0.000006   0.000044   0.000444
              25         26         27         28         29         30
     1  C   -0.000131   0.000109  -0.001750   0.000069  -0.000005   0.000493
     2  C   -0.000458  -0.000004   0.002038  -0.000078  -0.000039  -0.001314
     3  C    0.000289  -0.004285  -0.002736  -0.000770  -0.000393  -0.000204
     4  C    0.009920  -0.001429   0.003547   0.000017   0.000009  -0.000023
     5  S   -0.018878   0.000624   0.001890  -0.000181   0.000241  -0.000061
     6  C    0.093864  -0.015709   0.027752   0.001347  -0.000415   0.001652
     7  N    0.012010   0.008928  -0.005192   0.000789  -0.004051  -0.000007
     8  C   -0.312731  -0.051722  -0.028871  -0.020401   0.084968   0.003745
     9  C    0.449589   0.370142   0.062481   0.001952  -0.004687   0.001659
    10  O   -0.029526  -0.054302  -0.022789   0.002465   0.006923   0.000681
    11  C    0.123963   0.064449   0.218973  -0.062464  -0.164021   0.020242
    12  C   -0.012893   0.021348  -0.032441   0.430865   0.406313  -0.095995
    13  C   -0.000067  -0.000961   0.006899  -0.031649  -0.020325   0.422884
    14  H    0.000000  -0.000000   0.000002  -0.000000   0.000000  -0.000002
    15  H   -0.000000   0.000000   0.000152  -0.000001   0.000000   0.000299
    16  H    0.000000  -0.000000   0.000001   0.000000   0.000000  -0.000005
    17  H    0.000000   0.000000   0.000007   0.000000   0.000000   0.000000
    18  H    0.000000   0.000000  -0.000000   0.000000  -0.000000  -0.000000
    19  H   -0.000002   0.000000  -0.000000   0.000000  -0.000000   0.000000
    20  H   -0.000007   0.000000  -0.000000  -0.000000   0.000000  -0.000000
    21  H    0.000000   0.000000  -0.000000  -0.000000   0.000000   0.000000
    22  H   -0.000841   0.000072   0.002553   0.000008  -0.000001   0.000005
    23  H   -0.000074   0.000166  -0.000144   0.000004  -0.000003   0.000002
    24  H    0.004541  -0.007342   0.005468   0.000097   0.002706   0.000052
    25  H    0.572989  -0.042542   0.002542   0.000006  -0.000014  -0.000000
    26  H   -0.042542   0.570219  -0.000875   0.000029  -0.000158   0.000000
    27  H    0.002542  -0.000875   0.658398  -0.004017   0.005758   0.002948
    28  H    0.000006   0.000029  -0.004017   0.559382  -0.030753  -0.003660
    29  H   -0.000014  -0.000158   0.005758  -0.030753   0.573523   0.004598
    30  H   -0.000000   0.000000   0.002948  -0.003660   0.004598   0.533924
    31  H   -0.000000  -0.000000  -0.000047  -0.002470  -0.002118  -0.026543
    32  H    0.000001   0.000000  -0.000120   0.004425  -0.003399  -0.029657
              31         32
     1  C    0.000027   0.000714
     2  C   -0.000005  -0.001381
     3  C    0.000091  -0.000251
     4  C    0.000004  -0.000147
     5  S    0.000022  -0.000045
     6  C    0.001019  -0.001762
     7  N    0.000862  -0.002824
     8  C    0.001153   0.008889
     9  C    0.000185   0.000821
    10  O    0.000176   0.000224
    11  C   -0.000671  -0.000894
    12  C   -0.054693  -0.061882
    13  C    0.412490   0.415353
    14  H   -0.000000  -0.000000
    15  H    0.000008   0.000176
    16  H   -0.000000  -0.000007
    17  H   -0.000000   0.000000
    18  H    0.000000  -0.000000
    19  H   -0.000000  -0.000001
    20  H    0.000000  -0.000000
    21  H    0.000000   0.000000
    22  H   -0.000000   0.000006
    23  H   -0.000001   0.000044
    24  H   -0.000030   0.000444
    25  H   -0.000000   0.000001
    26  H   -0.000000   0.000000
    27  H   -0.000047  -0.000120
    28  H   -0.002470   0.004425
    29  H   -0.002118  -0.003399
    30  H   -0.026543  -0.029657
    31  H    0.531797  -0.025943
    32  H   -0.025943   0.524471
 Mulliken charges:
               1
     1  C   -0.686029
     2  C   -0.198127
     3  C    0.180234
     4  C   -0.275683
     5  S   -0.457138
     6  C   -0.160692
     7  N   -0.061111
     8  C   -0.240168
     9  C   -0.222556
    10  O   -0.135300
    11  C    0.137611
    12  C   -0.228698
    13  C   -0.614787
    14  H    0.160378
    15  H    0.184961
    16  H    0.160117
    17  H    0.140761
    18  H    0.147546
    19  H    0.109379
    20  H    0.162613
    21  H    0.165137
    22  H    0.150394
    23  H    0.273441
    24  H    0.116406
    25  H    0.148449
    26  H    0.143243
    27  H    0.097573
    28  H    0.154989
    29  H    0.145342
    30  H    0.164287
    31  H    0.164684
    32  H    0.172744
 Sum of Mulliken charges =  -0.00000
 Mulliken charges with hydrogens summed into heavy atoms:
               1
     1  C   -0.180573
     2  C    0.090180
     3  C    0.289614
     4  C    0.052067
     5  S   -0.457138
     6  C   -0.010298
     7  N    0.212330
     8  C   -0.123762
     9  C    0.069136
    10  O   -0.135300
    11  C    0.235185
    12  C    0.071633
    13  C   -0.113073
 Electronic spatial extent (au):  <R**2>=           3443.3147
 Charge=             -0.0000 electrons
 Dipole moment (field-independent basis, Debye):
    X=             -0.8239    Y=              2.7651    Z=              1.4912  Tot=              3.2478
[...]
 Predicted change in Energy=-8.881779D-03
 GradGradGradGradGradGradGradGradGradGradGradGradGradGradGradGradGradGrad

                          Input orientation:                          
 ---------------------------------------------------------------------
 Center     Atomic      Atomic             Coordinates (Angstroms)
 Number     Number       Type             X           Y           Z
 ---------------------------------------------------------------------
      1          6           0        2.890895    1.203844   -0.812602
      2          6           0        3.459366    0.379749    0.348563
      3          6           0        3.596160   -1.118662    0.052182
      4          6           0        4.204731   -1.997579    1.171262
      5         16           0        3.133921   -3.525739    0.848902
      6          6           0        2.296493   -1.940696   -0.083826
      7          7           0        1.786846   -2.159150   -1.391930
      8          6           0        0.445899   -2.661322   -1.631858
      9          6           0       -0.256558   -3.729780   -0.750554
     10          8           0       -1.454826   -2.919620   -0.694768
     11          6           0       -0.775119   -1.773390   -1.258336
     12          6           0       -1.566690   -1.097751   -2.364575
     13          6           0       -0.838334    0.113263   -2.960452
     14          1           0        2.800556    2.259990   -0.536224
     15          1           0        1.902102    0.843254   -1.111803
     16          1           0        3.541954    1.144014   -1.692691
     17          1           0        2.826262    0.504991    1.238219
     18          1           0        4.446202    0.777332    0.622291
     19          1           0        4.183208   -1.254414   -0.866202
     20          1           0        4.003252   -1.624119    2.184119
     21          1           0        5.266927   -2.240459    1.097389
     22          1           0        1.512539   -1.556929    0.576873
     23          1           0        2.473674   -2.612943   -1.989042
     24          1           0        0.397558   -2.937139   -2.688751
     25          1           0        0.196023   -3.869730    0.237998
     26          1           0       -0.434815   -4.710648   -1.205304
     27          1           0       -0.536586   -1.042816   -0.469058
     28          1           0       -2.535637   -0.790297   -1.951640
     29          1           0       -1.782132   -1.838888   -3.144694
     30          1           0       -0.661075    0.884081   -2.201604
     31          1           0       -1.427256    0.567558   -3.763121
     32          1           0        0.134699   -0.168346   -3.377944
 ---------------------------------------------------------------------
                    Distance matrix (angstroms):
                    1          2          3          4          5
     1  C    0.000000
     2  C    1.533165   0.000000
     3  C    2.576681   1.533555   0.000000
     4  C    3.988858   2.623755   1.547641   0.000000
     5  S    5.018825   3.950834   2.577294   1.893627   0.000000
     6  C    3.282157   2.631292   1.543817   2.284700   2.020799
     7  N    3.586680   3.503234   2.538049   3.527354   2.950170
     8  C    4.646363   4.717114   3.891007   4.735700   3.758570
     9  C    5.852431   5.648395   4.722897   5.157227   3.754362
    10  O    5.991839   6.010296   5.414227   6.030159   4.879231
    11  C    4.743654   5.014877   4.610228   5.545458   4.774072
    12  C    5.251287   5.899607   5.700541   6.827967   6.190097
    13  C    4.439569   5.430545   5.500759   6.852680   6.597903
    14  H    1.095440   2.179950   3.520582   4.797302   5.958553
    15  H    1.094192   2.184623   2.841445   4.311012   4.944678
    16  H    1.096365   2.181201   2.857835   4.302453   5.332238
    17  H    2.167588   1.099088   2.153062   2.857887   4.061158
    18  H    2.158659   1.098565   2.154620   2.838980   4.504425
    19  H    2.777765   2.161039   1.098401   2.168875   3.033398
    20  H    4.267909   2.771383   2.228534   1.098156   2.480867
    21  H    4.599654   3.270093   2.267675   1.092112   2.502680
    22  H    3.384135   2.755537   2.192910   2.792018   2.564973
    23  H    4.015713   3.923288   2.767571   3.655510   3.053366
    24  H    5.185018   5.440744   4.588097   5.502458   4.511000
    25  H    5.840141   5.359077   4.377652   4.521689   3.020394
    26  H    6.796747   6.594792   5.543680   5.876580   4.284816
    27  H    4.112557   4.319702   4.166178   5.107085   4.623262
    28  H    5.892474   6.526868   6.459262   7.526129   6.889816
    29  H    6.044340   6.678210   6.297997   7.382085   6.554529
    30  H    3.827279   4.871934   5.216761   6.584548   6.569178
    31  H    5.268477   6.389076   6.529517   7.915007   7.670082
    32  H    4.007556   5.024010   4.964936   6.372326   6.175244
                    6          7          8          9         10
     6  C    0.000000
     7  N    1.420774   0.000000
     8  C    2.518016   1.451854   0.000000
     9  C    3.188011   2.655888   1.552979   0.000000
    10  O    3.924785   3.401880   2.134856   1.447521   0.000000
    11  C    3.292759   2.594286   1.555257   2.086674   1.446878
    12  C    4.564707   3.649494   2.651818   3.353966   2.473859
    13  C    4.724497   3.809947   3.333578   4.471140   3.835593
    14  H    4.254939   4.613961   5.564542   6.728240   6.705354
    15  H    2.993770   3.017646   3.830540   5.069808   5.059853
    16  H    3.695274   3.752566   4.906102   6.250614   6.517422
    17  H    2.830166   3.885321   4.891728   5.602881   5.813099
    18  H    3.536598   4.444343   5.736545   6.656929   7.086906
    19  H    2.154714   2.614860   4.066092   5.084519   5.881304
    20  H    2.856015   4.241090   5.319044   5.584988   6.305310
    21  H    3.210702   4.279520   5.555918   6.011809   6.989639
    22  H    1.094707   2.077041   2.689962   3.100491   3.504177
    23  H    2.028092   1.016958   2.059561   3.199272   4.147567
    24  H    3.374091   2.053566   1.093360   2.193800   2.721692
    25  H    2.869968   2.848415   2.240323   1.096198   2.120864
    26  H    4.048505   3.388325   2.270978   1.095754   2.123405
    27  H    2.996820   2.737924   2.221923   2.716142   2.101548
    28  H    5.306753   4.568467   3.534480   3.908628   2.698500
    29  H    5.100437   3.989029   2.815882   3.410976   2.697638
    30  H    4.605601   3.988627   3.757644   4.853544   4.167582
    31  H    5.804727   4.836107   4.298448   5.377100   4.644993
    32  H    4.320393   3.261463   3.059508   4.442980   4.158790
                   11         12         13         14         15
    11  C    0.000000
    12  C    1.518828   0.000000
    13  C    2.541782   1.533665   0.000000
    14  H    5.438295   5.804320   4.871020   0.000000
    15  H    3.746440   4.167668   3.385318   1.773598   0.000000
    16  H    5.228482   5.619180   4.675104   1.769884   1.765503
    17  H    4.939003   5.903129   5.586730   2.495862   2.547763
    18  H    6.107792   6.970808   6.418984   2.499716   3.079590
    19  H    5.000811   5.943988   5.610019   3.790995   3.108694
    20  H    5.891146   7.210543   7.275030   4.892141   4.622323
    21  H    6.501839   7.745276   7.699370   5.385696   5.070687
    22  H    2.940787   4.283061   4.563860   4.179335   2.960451
    23  H    3.434157   4.331440   4.398322   5.095391   3.611308
    24  H    2.185308   2.710481   3.302455   6.117019   4.363690
    25  H    2.752594   4.190992   5.211930   6.704959   5.190847
    26  H    2.957381   3.959554   5.149125   7.713953   6.026255
    27  H    1.101633   2.158035   2.763080   4.695696   3.149219
    28  H    2.132268   1.097224   2.171395   6.307345   4.802847
    29  H    2.139325   1.097399   2.176142   6.678768   4.990001
    30  H    2.822218   2.185030   1.096098   4.080381   2.785536
    31  H    3.489881   2.179134   1.094299   5.581361   4.264988
    32  H    2.810102   2.187563   1.095627   4.591186   3.046711
                   16         17         18         19         20
    16  H    0.000000
    17  H    3.083958   0.000000
    18  H    2.512222   1.754350   0.000000
    19  H    2.616628   3.060294   2.532344   0.000000
    20  H    4.785918   2.610200   2.898703   3.077910   0.000000
    21  H    4.713251   3.676164   3.163285   2.449984   1.777001
    22  H    4.069956   2.532738   3.749295   3.050648   2.965030
    23  H    3.917112   4.501227   4.712100   2.455378   4.553313
    24  H    5.247397   5.759163   6.414968   4.525969   6.202413
    25  H    6.329332   5.201614   6.309270   4.894567   4.829612
    26  H    7.094314   6.618785   7.568510   5.778121   6.380540
    27  H    4.786856   4.076671   5.415917   4.741198   5.290312
    28  H    6.383238   6.372043   7.604515   6.821764   7.781827
    29  H    6.273110   6.777978   7.734787   6.412364   7.868484
    30  H    4.241700   4.913005   5.836957   5.461094   6.876161
    31  H    5.414059   6.565800   7.333032   6.571836   8.346468
    32  H    4.021412   5.385801   5.956950   4.886596   6.929757
                   21         22         23         24         25
    21  H    0.000000
    22  H    3.851439   0.000000
    23  H    4.179362   2.936472   0.000000
    24  H    6.207333   3.716513   2.214713   0.000000
    25  H    5.395104   2.682741   3.424458   3.078344   0.000000
    26  H    6.626771   4.112698   3.670683   2.457395   1.785558
    27  H    6.129346   2.357372   3.719854   3.064004   3.004678
    28  H    8.501739   4.834133   5.330725   3.708894   4.662552
    29  H    8.236854   4.978396   4.477340   2.482959   4.413618
    30  H    7.469091   4.289880   4.701172   3.994965   5.411562
    31  H    8.736224   5.656093   5.336684   4.094767   6.191406
    32  H    7.117726   4.412164   3.657309   2.865362   5.174847
                   26         27         28         29         30
    26  H    0.000000
    27  H    3.742379   0.000000
    28  H    4.509947   2.501603   0.000000
    29  H    3.717997   3.056819   1.758036   0.000000
    30  H    5.687249   2.594252   2.525867   3.092046   0.000000
    31  H    5.948682   3.773254   2.520662   2.509855   1.767923
    32  H    5.067269   3.110778   3.090608   2.553303   1.767664
                   31         32
    31  H    0.000000
    32  H    1.769073   0.000000
 Stoichiometry    C10H19NOS
 Framework group  C1[X(C10H19NOS)]
 Deg. of freedom    90
 Full point group                 C1      NOp   1
 Largest Abelian subgroup         C1      NOp   1
 Largest concise Abelian subgroup C1      NOp   1
                         Standard orientation:                         
 ---------------------------------------------------------------------
 Center     Atomic      Atomic             Coordinates (Angstroms)
 Number     Number       Type             X           Y           Z
 ---------------------------------------------------------------------
      1          6           0       -1.176431    3.041519   -0.094075
      2          6           0       -2.235716    2.033785   -0.555577
      3          6           0       -2.224221    0.707856    0.214857
      4          6           0       -3.299004   -0.334706   -0.176421
      5         16           0       -2.214261   -1.865801    0.078343
      6          6           0       -1.022744   -0.235880   -0.006927
      7          7           0        0.048179   -0.172047    0.924549
      8          6           0        1.337640   -0.789938    0.672788
      9          6           0        1.527051   -2.148912   -0.054574
     10          8           0        2.558562   -1.575234   -0.892546
     11          6           0        2.237943   -0.230553   -0.465354
     12          6           0        3.466052    0.587289   -0.105187
     13          6           0        3.118541    2.009649    0.351162
     14          1           0       -1.222092    3.959001   -0.690843
     15          1           0       -0.167155    2.627782   -0.180338
     16          1           0       -1.328660    3.318669    0.955701
     17          1           0       -2.103402    1.819060   -1.625335
     18          1           0       -3.230867    2.489229   -0.460243
     19          1           0       -2.302420    0.913242    1.291047
     20          1           0       -3.603125   -0.280431   -1.230229
     21          1           0       -4.198603   -0.384442    0.440795
     22          1           0       -0.646878   -0.166418   -1.032736
     23          1           0       -0.273169   -0.339907    1.874687
     24          1           0        1.882926   -0.777559    1.620388
     25          1           0        0.656491   -2.477163   -0.634253
     26          1           0        1.894367   -2.988011    0.546814
     27          1           0        1.656305    0.290218   -1.242586
     28          1           0        4.122256    0.622133   -0.983870
     29          1           0        4.022961    0.057536    0.678075
     30          1           0        2.605532    2.567515   -0.440695
     31          1           0        4.022204    2.566646    0.616941
     32          1           0        2.461093    2.001238    1.227568
 ---------------------------------------------------------------------
 Rotational constants (GHZ):           0.8816371           0.4598083           0.3255612
 Standard basis: 6-31+G(2df,p) (6D, 7F)
 There are   554 symmetry adapted cartesian basis functions of A   symmetry.
 There are   515 symmetry adapted basis functions of A   symmetry.
   515 basis functions,   781 primitive gaussians,   554 cartesian basis functions
    55 alpha electrons       55 beta electrons
       nuclear repulsion energy       953.4796195940 Hartrees.
 NAtoms=   32 NActive=   32 NUniq=   32 SFac= 1.00D+00 NAtFMM=   60 NAOKFM=F Big=F
 Integral buffers will be    131072 words long.
 Regular integral format.
 Two-electron integral symmetry is turned on.
 One-electron integrals computed using PRISM.
 PrsmSu:  requested number of processors reduced to:  12 ShMem   1 Linda.
 NBasis=   515 RedAO= T EigKep=  9.44D-06  NBF=   515
 NBsUse=   515 1.00D-06 EigRej= -1.00D+00 NBFU=   515
 Initial guess from the checkpoint file:  "CCC1CSC1NC1COC1CC.chk"
 B after Tr=    -0.000000    0.000000    0.000000
         Rot=    0.999900   -0.006312    0.001091    0.012644 Ang=  -1.62 deg.
 ExpMin= 4.05D-02 ExpMax= 2.19D+04 ExpMxC= 3.30D+03 IAcc=2 IRadAn=         4 AccDes= 0.00D+00
 Harris functional with IExCor=  402 and IRadAn=       4 diagonalized for initial guess.
 HarFok:  IExCor=  402 AccDes= 0.00D+00 IRadAn=         4 IDoV= 1 UseB2=F ITyADJ=14
 ICtDFT=  3500011 ScaDFX=  1.000000  1.000000  1.000000  1.000000
 FoFCou: FMM=F IPFlag=           0 FMFlag=      100000 FMFlg1=           0
         NFxFlg=           0 DoJE=T BraDBF=F KetDBF=T FulRan=T
         wScrn=  0.000000 ICntrl=       500 IOpCl=  0 I1Cent=   200000004 NGrid=           0
         NMat0=    1 NMatS0=      1 NMatT0=    0 NMatD0=    1 NMtDS0=    0 NMtDT0=    0
 Petite list used in FoFCou.
 Requested convergence on RMS density matrix=1.00D-08 within 128 cycles.
 Requested convergence on MAX density matrix=1.00D-06.
 Requested convergence on             energy=1.00D-06.
 No special actions if energy rises.
 SCF Done:  E(RB3LYP) =  -920.676427634     A.U. after   12 cycles
            NFock= 12  Conv=0.41D-08     -V/T= 2.0062
 DoSCS=F DFT=T ScalE2(SS,OS)=  1.000000  1.000000
 ExpMin= 4.05D-02 ExpMax= 2.19D+04 ExpMxC= 3.30D+03 IAcc=3 IRadAn=         5 AccDes= 0.00D+00
 HarFok:  IExCor=  205 AccDes= 0.00D+00 IRadAn=         5 IDoV=-2 UseB2=F ITyADJ=14
 ICtDFT= 12500011 ScaDFX=  1.000000  1.000000  1.000000  1.000000
 Range of M.O.s used for correlation:    18   515
 NBasis=   515 NAE=    55 NBE=    55 NFC=    17 NFV=     0
 NROrb=    498 NOA=    38 NOB=    38 NVA=   460 NVB=   460

 **** Warning!!: The largest alpha MO coefficient is  0.65230227D+02

 Orbital symmetries:
       Occupied  (A) (A) (A) (A) (A) (A) (A) (A) (A) (A) (A) (A)
                 (A) (A) (A) (A) (A) (A) (A) (A) (A) (A) (A) (A)
                 (A) (A) (A) (A) (A) (A) (A) (A) (A) (A) (A) (A)
                 (A) (A) (A) (A) (A) (A) (A) (A) (A) (A) (A) (A)
                 (A) (A) (A) (A) (A) (A) (A)
       Virtual   (A) (A) (A) (A) (A) (A) (A) (A) (A) (A) (A) (A)
                 (A) (A) (A) (A) (A) (A) (A) (A) (A) (A) (A) (A)
                 (A) (A) (A) (A) (A) (A) (A) (A) (A) (A) (A) (A)
                 (A) (A) (A) (A) (A) (A) (A) (A) (A) (A) (A) (A)
                 (A) (A) (A) (A) (A) (A) (A) (A) (A) (A) (A) (A)
                 (A) (A) (A) (A) (A) (A) (A) (A) (A) (A) (A) (A)
                 (A) (A) (A) (A) (A) (A) (A) (A) (A) (A) (A) (A)
                 (A) (A) (A) (A) (A) (A) (A) (A) (A) (A) (A) (A)
                 (A) (A) (A) (A) (A) (A) (A) (A) (A) (A) (A) (A)
                 (A) (A) (A) (A) (A) (A) (A) (A) (A) (A) (A) (A)
                 (A) (A) (A) (A) (A) (A) (A) (A) (A) (A) (A) (A)
                 (A) (A) (A) (A) (A) (A) (A) (A) (A) (A) (A) (A)
                 (A) (A) (A) (A) (A) (A) (A) (A) (A) (A) (A) (A)
                 (A) (A) (A) (A) (A) (A) (A) (A) (A) (A) (A) (A)
                 (A) (A) (A) (A) (A) (A) (A) (A) (A) (A) (A) (A)
                 (A) (A) (A) (A) (A) (A) (A) (A) (A) (A) (A) (A)
                 (A) (A) (A) (A) (A) (A) (A) (A) (A) (A) (A) (A)
                 (A) (A) (A) (A) (A) (A) (A) (A) (A) (A) (A) (A)
                 (A) (A) (A) (A) (A) (A) (A) (A) (A) (A) (A) (A)
                 (A) (A) (A) (A) (A) (A) (A) (A) (A) (A) (A) (A)
                 (A) (A) (A) (A) (A) (A) (A) (A) (A) (A) (A) (A)
                 (A) (A) (A) (A) (A) (A) (A) (A) (A) (A) (A) (A)
                 (A) (A) (A) (A) (A) (A) (A) (A) (A) (A) (A) (A)
                 (A) (A) (A) (A) (A) (A) (A) (A) (A) (A) (A) (A)
                 (A) (A) (A) (A) (A) (A) (A) (A) (A) (A) (A) (A)
                 (A) (A) (A) (A) (A) (A) (A) (A) (A) (A) (A) (A)
                 (A) (A) (A) (A) (A) (A) (A) (A) (A) (A) (A) (A)
                 (A) (A) (A) (A) (A) (A) (A) (A) (A) (A) (A) (A)
                 (A) (A) (A) (A) (A) (A) (A) (A) (A) (A) (A) (A)
                 (A) (A) (A) (A) (A) (A) (A) (A) (A) (A) (A) (A)
                 (A) (A) (A) (A) (A) (A) (A) (A) (A) (A) (A) (A)
                 (A) (A) (A) (A) (A) (A) (A) (A) (A) (A) (A) (A)
                 (A) (A) (A) (A) (A) (A) (A) (A) (A) (A) (A) (A)
                 (A) (A) (A) (A) (A) (A) (A) (A) (A) (A) (A) (A)
                 (A) (A) (A) (A) (A) (A) (A) (A) (A) (A) (A) (A)
                 (A) (A) (A) (A) (A) (A) (A) (A) (A) (A) (A) (A)
                 (A) (A) (A) (A) (A) (A) (A) (A) (A) (A) (A) (A)
                 (A) (A) (A) (A) (A) (A) (A) (A) (A) (A) (A) (A)
                 (A) (A) (A) (A)
 Generating guess from densities on rwf.
 Convergence on wavefunction:    0.000001000000000
 Iteration     1 Dimension    20 NMult     0 NNew     20
 CISAX will form     4 AO SS matrices at one time.
 New state      4 was old state      6
 New state      6 was old state     10
 New state      7 was old state      9
 New state      8 was old state      7
 New state      9 was old state      4
 New state     10 was old state      8
 Iteration     2 Dimension    40 NMult    20 NNew     20
 New state      4 was old state      9
 New state      5 was old state      4
 New state      9 was old state     10
 New state     10 was old state      5
 Iteration     3 Dimension    60 NMult    40 NNew     20
 New state      7 was old state      8
 New state      8 was old state      7
 Iteration     4 Dimension    80 NMult    60 NNew     20
 Iteration     5 Dimension   100 NMult    80 NNew     20
 Iteration     6 Dimension   120 NMult   100 NNew     20
 Iteration     7 Dimension   140 NMult   120 NNew     20
 Iteration     8 Dimension   160 NMult   140 NNew     20
slurmstepd: error: *** JOB 27501050 ON lewis4-r630-hpc4-node236 CANCELLED AT 2023-05-26T18:10:05 DUE TO TIME LIMIT ***
