### Starting Gaussian ###
 Entering Gaussian System, Link 0=g16
 Initial command:
 /cluster/software/gaussian/gaussian-16-A.03/avx2/g16/l1.exe "/local/scratch/yxie/Gau-9396.inp" -scrdir="/local/scratch/yxie/"
 Entering Link 1 = /cluster/software/gaussian/gaussian-16-A.03/avx2/g16/l1.exe PID=      9397.
  
 Copyright (c) 1988,1990,1992,1993,1995,1998,2003,2009,2016,
            Gaussian, Inc.  All Rights Reserved.
  
 This is part of the Gaussian(R) 16 program.  It is based on
 the Gaussian(R) 09 system (copyright 2009, Gaussian, Inc.),
 the Gaussian(R) 03 system (copyright 2003, Gaussian, Inc.),
 the Gaussian(R) 98 system (copyright 1998, Gaussian, Inc.),
 the Gaussian(R) 94 system (copyright 1995, Gaussian, Inc.),
 the Gaussian 92(TM) system (copyright 1992, Gaussian, Inc.),
 the Gaussian 90(TM) system (copyright 1990, Gaussian, Inc.),
 the Gaussian 88(TM) system (copyright 1988, Gaussian, Inc.),
 the Gaussian 86(TM) system (copyright 1986, Carnegie Mellon
 University), and the Gaussian 82(TM) system (copyright 1983,
 Carnegie Mellon University). Gaussian is a federally registered
 trademark of Gaussian, Inc.
  
 This software contains proprietary and confidential information,
 including trade secrets, belonging to Gaussian, Inc.
  
 This software is provided under written license and may be
 used, copied, transmitted, or stored only in accord with that
 written license.
  
 The following legend is applicable only to US Government
 contracts under FAR:
  
                    RESTRICTED RIGHTS LEGEND
  
 Use, reproduction and disclosure by the US Government is
 subject to restrictions as set forth in subparagraphs (a)
 and (c) of the Commercial Computer Software - Restricted
 Rights clause in FAR 52.227-19.
  
 Gaussian, Inc.
 340 Quinnipiac St., Bldg. 40, Wallingford CT 06492
  
  
 ---------------------------------------------------------------
 Warning -- This program may not be used in any manner that
 competes with the business of Gaussian, Inc. or will provide
 assistance to any competitor of Gaussian, Inc.  The licensee
 of this program is prohibited from giving any competitor of
 Gaussian, Inc. access to this program.  By using this program,
 the user acknowledges that Gaussian, Inc. is engaged in the
 business of creating and licensing software in the field of
 computational chemistry and represents and warrants to the
 licensee that it is not a competitor of Gaussian, Inc. and that
 it will not use this program in any manner prohibited above.
 ---------------------------------------------------------------
  

 Cite this work as:
 Gaussian 16, Revision A.03,
 M. J. Frisch, G. W. Trucks, H. B. Schlegel, G. E. Scuseria, 
 M. A. Robb, J. R. Cheeseman, G. Scalmani, V. Barone, 
 G. A. Petersson, H. Nakatsuji, X. Li, M. Caricato, A. V. Marenich, 
 J. Bloino, B. G. Janesko, R. Gomperts, B. Mennucci, H. P. Hratchian, 
 J. V. Ortiz, A. F. Izmaylov, J. L. Sonnenberg, D. Williams-Young, 
 F. Ding, F. Lipparini, F. Egidi, J. Goings, B. Peng, A. Petrone, 
 T. Henderson, D. Ranasinghe, V. G. Zakrzewski, J. Gao, N. Rega, 
 G. Zheng, W. Liang, M. Hada, M. Ehara, K. Toyota, R. Fukuda, 
 J. Hasegawa, M. Ishida, T. Nakajima, Y. Honda, O. Kitao, H. Nakai, 
 T. Vreven, K. Throssell, J. A. Montgomery, Jr., J. E. Peralta, 
 F. Ogliaro, M. J. Bearpark, J. J. Heyd, E. N. Brothers, K. N. Kudin, 
 V. N. Staroverov, T. A. Keith, R. Kobayashi, J. Normand, 
 K. Raghavachari, A. P. Rendell, J. C. Burant, S. S. Iyengar, 
 J. Tomasi, M. Cossi, J. M. Millam, M. Klene, C. Adamo, R. Cammi, 
 J. W. Ochterski, R. L. Martin, K. Morokuma, O. Farkas, 
 J. B. Foresman, and D. J. Fox, Gaussian, Inc., Wallingford CT, 2016.
 
 ******************************************
 Gaussian 16:  ES64L-G16RevA.03 25-Dec-2016
                28-May-2023 
 ******************************************
 %chk=CCC1CNCCCCCqCrCCC1C.chk
 %NProcShared=20
 Will use up to   20 processors via shared memory.
 -----------------------------
 # opt freq b3lyp/6-31g(2df,p)
 -----------------------------
 1/18=20,19=15,26=3,38=1/1,3;
 2/9=110,12=2,17=6,18=5,40=1/2;
 3/5=1,6=6,7=104,11=2,25=1,30=1,71=1,74=-5/1,2,3;
 4//1;
 5/5=2,38=5/2;
 6/7=2,8=2,9=2,10=2,28=1/1;
 7//1,2,3,16;
 1/18=20,19=15,26=3/3(2);
 2/9=110/2;
 99//99;
 2/9=110/2;
 3/5=1,6=6,7=104,11=2,25=1,30=1,71=1,74=-5/1,2,3;
 4/5=5,16=3,69=1/1;
 5/5=2,38=5/2;
 7//1,2,3,16;
 1/18=20,19=15,26=3/3(-5);
 2/9=110/2;
 6/7=2,8=2,9=2,10=2,19=2,28=1/1;
 99/9=1/99;
 -------------------
 Title Card Required
 -------------------
 Symbolic Z-matrix:
 Charge =  0 Multiplicity = 1
 C                     0.96911  -0.03739   0.33891 
 C                     2.48546  -0.09963   0.1742 
 C                     2.94547  -0.89175  -1.0702 
 C                     2.14038  -2.2291   -1.1249 
 N                     2.82925  -3.32181  -1.81184 
 C                     2.12116  -3.75094  -3.02183 
 C                     3.04593  -4.60014  -3.90575 
 C                     4.32865  -3.86245  -4.29151 
 C                     4.08692  -2.59829  -5.12522 
 C                     5.08403  -1.43505  -4.90653 
 C                     6.25153  -1.7546   -3.96732 
 C                     4.35202  -0.12415  -4.52497 
 C                     4.2806    0.18399  -3.01999 
 C                     2.87768  -0.07072  -2.41857 
 C                     2.22982   1.32531  -2.3504 
 H                     0.69522   0.70543   1.08994 
 H                     0.57096  -1.00292   0.66505 
 H                     0.45145   0.20724  -0.58906 
 H                     2.89934  -0.58513   1.06821 
 H                     2.92072   0.90453   0.171 
 H                     3.99345  -1.16538  -0.87881 
 H                     1.1454   -2.04973  -1.54501 
 H                     1.97854  -2.58285  -0.09787 
 H                     2.88024  -4.12228  -1.18541 
 H                     1.76678  -2.88604  -3.58302 
 H                     1.23543  -4.33706  -2.75168 
 H                     2.51023  -4.91273  -4.80896 
 H                     3.32702  -5.51362  -3.36704 
 H                     4.9935   -4.5328   -4.84879 
 H                     4.84388  -3.64824  -3.35534 
 H                     3.06303  -2.23227  -5.01286 
 H                     4.13434  -2.89092  -6.18439 
 H                     5.52962  -1.23985  -5.89259 
 H                     5.91181  -2.01672  -2.95912 
 H                     6.91894  -0.8942   -3.86397 
 H                     6.83439  -2.60181  -4.33668 
 H                     3.35225  -0.08723  -4.98027 
 H                     4.89147   0.70369  -5.00497 
 H                     4.54807   1.2447   -2.90648 
 H                     5.05278  -0.3155   -2.44094 
 H                     2.2869   -0.65896  -3.12786 
 H                     2.77974   1.99151  -1.67507 
 H                     1.1861    1.30029  -2.04889 
 H                     2.24683   1.79919  -3.33885 
 

 GradGradGradGradGradGradGradGradGradGradGradGradGradGradGradGradGradGrad
 Berny optimization.
 Initialization pass.
                           ----------------------------
                           !    Initial Parameters    !
                           ! (Angstroms and Degrees)  !
 --------------------------                            --------------------------
 ! Name  Definition              Value          Derivative Info.                !
 --------------------------------------------------------------------------------
 ! R1    R(1,2)                  1.5265         estimate D2E/DX2                !
 ! R2    R(1,16)                 1.0913         estimate D2E/DX2                !
 ! R3    R(1,17)                 1.0941         estimate D2E/DX2                !
 ! R4    R(1,18)                 1.0904         estimate D2E/DX2                !
 ! R5    R(2,3)                  1.5452         estimate D2E/DX2                !
 ! R6    R(2,19)                 1.0983         estimate D2E/DX2                !
 ! R7    R(2,20)                 1.0944         estimate D2E/DX2                !
 ! R8    R(3,4)                  1.5619         estimate D2E/DX2                !
 ! R9    R(3,14)                 1.5801         estimate D2E/DX2                !
 ! R10   R(3,21)                 1.0999         estimate D2E/DX2                !
 ! R11   R(4,5)                  1.463          estimate D2E/DX2                !
 ! R12   R(4,22)                 1.0948         estimate D2E/DX2                !
 ! R13   R(4,23)                 1.0982         estimate D2E/DX2                !
 ! R14   R(5,6)                  1.4662         estimate D2E/DX2                !
 ! R15   R(5,24)                 1.0177         estimate D2E/DX2                !
 ! R16   R(6,7)                  1.5355         estimate D2E/DX2                !
 ! R17   R(6,25)                 1.0902         estimate D2E/DX2                !
 ! R18   R(6,26)                 1.0959         estimate D2E/DX2                !
 ! R19   R(7,8)                  1.5292         estimate D2E/DX2                !
 ! R20   R(7,27)                 1.0957         estimate D2E/DX2                !
 ! R21   R(7,28)                 1.0971         estimate D2E/DX2                !
 ! R22   R(8,9)                  1.5335         estimate D2E/DX2                !
 ! R23   R(8,29)                 1.0963         estimate D2E/DX2                !
 ! R24   R(8,30)                 1.0898         estimate D2E/DX2                !
 ! R25   R(9,10)                 1.5476         estimate D2E/DX2                !
 ! R26   R(9,31)                 1.0931         estimate D2E/DX2                !
 ! R27   R(9,32)                 1.0999         estimate D2E/DX2                !
 ! R28   R(10,11)                1.5321         estimate D2E/DX2                !
 ! R29   R(10,12)                1.5492         estimate D2E/DX2                !
 ! R30   R(10,33)                1.0995         estimate D2E/DX2                !
 ! R31   R(11,34)                1.0957         estimate D2E/DX2                !
 ! R32   R(11,35)                1.0938         estimate D2E/DX2                !
 ! R33   R(11,36)                1.0927         estimate D2E/DX2                !
 ! R34   R(12,13)                1.5379         estimate D2E/DX2                !
 ! R35   R(12,37)                1.0992         estimate D2E/DX2                !
 ! R36   R(12,38)                1.0985         estimate D2E/DX2                !
 ! R37   R(13,14)                1.5475         estimate D2E/DX2                !
 ! R38   R(13,39)                1.0998         estimate D2E/DX2                !
 ! R39   R(13,40)                1.0868         estimate D2E/DX2                !
 ! R40   R(14,15)                1.5405         estimate D2E/DX2                !
 ! R41   R(14,41)                1.0946         estimate D2E/DX2                !
 ! R42   R(15,42)                1.0965         estimate D2E/DX2                !
 ! R43   R(15,43)                1.0867         estimate D2E/DX2                !
 ! R44   R(15,44)                1.0963         estimate D2E/DX2                !
 ! A1    A(2,1,16)             110.5682         estimate D2E/DX2                !
 ! A2    A(2,1,17)             110.9558         estimate D2E/DX2                !
 ! A3    A(2,1,18)             112.8862         estimate D2E/DX2                !
 ! A4    A(16,1,17)            107.7107         estimate D2E/DX2                !
 ! A5    A(16,1,18)            108.2908         estimate D2E/DX2                !
 ! A6    A(17,1,18)            106.1947         estimate D2E/DX2                !
 ! A7    A(1,2,3)              113.7981         estimate D2E/DX2                !
 ! A8    A(1,2,19)             107.7291         estimate D2E/DX2                !
 ! A9    A(1,2,20)             110.9746         estimate D2E/DX2                !
 ! A10   A(3,2,19)             108.4663         estimate D2E/DX2                !
 ! A11   A(3,2,20)             110.4627         estimate D2E/DX2                !
 ! A12   A(19,2,20)            104.957          estimate D2E/DX2                !
 ! A13   A(2,3,4)              108.2811         estimate D2E/DX2                !
 ! A14   A(2,3,14)             114.0846         estimate D2E/DX2                !
 ! A15   A(2,3,21)             105.7269         estimate D2E/DX2                !
 ! A16   A(4,3,14)             113.1343         estimate D2E/DX2                !
 ! A17   A(4,3,21)             106.5111         estimate D2E/DX2                !
 ! A18   A(14,3,21)            108.58           estimate D2E/DX2                !
 ! A19   A(3,4,5)              114.4082         estimate D2E/DX2                !
 ! A20   A(3,4,22)             109.9741         estimate D2E/DX2                !
 ! A21   A(3,4,23)             108.6024         estimate D2E/DX2                !
 ! A22   A(5,4,22)             111.7221         estimate D2E/DX2                !
 ! A23   A(5,4,23)             105.5394         estimate D2E/DX2                !
 ! A24   A(22,4,23)            106.1224         estimate D2E/DX2                !
 ! A25   A(4,5,6)              112.2532         estimate D2E/DX2                !
 ! A26   A(4,5,24)             108.7856         estimate D2E/DX2                !
 ! A27   A(6,5,24)             107.5756         estimate D2E/DX2                !
 ! A28   A(5,6,7)              110.2484         estimate D2E/DX2                !
 ! A29   A(5,6,25)             110.4629         estimate D2E/DX2                !
 ! A30   A(5,6,26)             110.086          estimate D2E/DX2                !
 ! A31   A(7,6,25)             109.7673         estimate D2E/DX2                !
 ! A32   A(7,6,26)             109.4438         estimate D2E/DX2                !
 ! A33   A(25,6,26)            106.7662         estimate D2E/DX2                !
 ! A34   A(6,7,8)              112.5586         estimate D2E/DX2                !
 ! A35   A(6,7,27)             109.7472         estimate D2E/DX2                !
 ! A36   A(6,7,28)             109.3979         estimate D2E/DX2                !
 ! A37   A(8,7,27)             109.8649         estimate D2E/DX2                !
 ! A38   A(8,7,28)             108.0965         estimate D2E/DX2                !
 ! A39   A(27,7,28)            107.0076         estimate D2E/DX2                !
 ! A40   A(7,8,9)              113.7411         estimate D2E/DX2                !
 ! A41   A(7,8,29)             109.996          estimate D2E/DX2                !
 ! A42   A(7,8,30)             105.9433         estimate D2E/DX2                !
 ! A43   A(9,8,29)             108.8624         estimate D2E/DX2                !
 ! A44   A(9,8,30)             112.3026         estimate D2E/DX2                !
 ! A45   A(29,8,30)            105.6716         estimate D2E/DX2                !
 ! A46   A(8,9,10)             116.1823         estimate D2E/DX2                !
 ! A47   A(8,9,31)             111.5795         estimate D2E/DX2                !
 ! A48   A(8,9,32)             107.3028         estimate D2E/DX2                !
 ! A49   A(10,9,31)            109.7108         estimate D2E/DX2                !
 ! A50   A(10,9,32)            107.9553         estimate D2E/DX2                !
 ! A51   A(31,9,32)            103.2059         estimate D2E/DX2                !
 ! A52   A(9,10,11)            114.8863         estimate D2E/DX2                !
 ! A53   A(9,10,12)            111.4934         estimate D2E/DX2                !
 ! A54   A(9,10,33)            105.534          estimate D2E/DX2                !
 ! A55   A(11,10,12)           112.6799         estimate D2E/DX2                !
 ! A56   A(11,10,33)           106.1393         estimate D2E/DX2                !
 ! A57   A(12,10,33)           105.1976         estimate D2E/DX2                !
 ! A58   A(10,11,34)           112.1911         estimate D2E/DX2                !
 ! A59   A(10,11,35)           111.0284         estimate D2E/DX2                !
 ! A60   A(10,11,36)           111.1607         estimate D2E/DX2                !
 ! A61   A(34,11,35)           106.8829         estimate D2E/DX2                !
 ! A62   A(34,11,36)           106.9143         estimate D2E/DX2                !
 ! A63   A(35,11,36)           108.4432         estimate D2E/DX2                !
 ! A64   A(10,12,13)           115.6284         estimate D2E/DX2                !
 ! A65   A(10,12,37)           110.8662         estimate D2E/DX2                !
 ! A66   A(10,12,38)           107.3396         estimate D2E/DX2                !
 ! A67   A(13,12,37)           110.8786         estimate D2E/DX2                !
 ! A68   A(13,12,38)           107.4228         estimate D2E/DX2                !
 ! A69   A(37,12,38)           103.9074         estimate D2E/DX2                !
 ! A70   A(12,13,14)           112.9204         estimate D2E/DX2                !
 ! A71   A(12,13,39)           106.4369         estimate D2E/DX2                !
 ! A72   A(12,13,40)           113.3495         estimate D2E/DX2                !
 ! A73   A(14,13,39)           109.8229         estimate D2E/DX2                !
 ! A74   A(14,13,40)           111.1876         estimate D2E/DX2                !
 ! A75   A(39,13,40)           102.4441         estimate D2E/DX2                !
 ! A76   A(3,14,13)            112.2264         estimate D2E/DX2                !
 ! A77   A(3,14,15)            116.8168         estimate D2E/DX2                !
 ! A78   A(3,14,41)            107.2699         estimate D2E/DX2                !
 ! A79   A(13,14,15)           104.4356         estimate D2E/DX2                !
 ! A80   A(13,14,41)           109.0211         estimate D2E/DX2                !
 ! A81   A(15,14,41)           106.7796         estimate D2E/DX2                !
 ! A82   A(14,15,42)           111.5258         estimate D2E/DX2                !
 ! A83   A(14,15,43)           113.2863         estimate D2E/DX2                !
 ! A84   A(14,15,44)           110.199          estimate D2E/DX2                !
 ! A85   A(42,15,43)           108.9533         estimate D2E/DX2                !
 ! A86   A(42,15,44)           106.5529         estimate D2E/DX2                !
 ! A87   A(43,15,44)           105.963          estimate D2E/DX2                !
 ! D1    D(16,1,2,3)          -167.4452         estimate D2E/DX2                !
 ! D2    D(16,1,2,19)           72.261          estimate D2E/DX2                !
 ! D3    D(16,1,2,20)          -42.1167         estimate D2E/DX2                !
 ! D4    D(17,1,2,3)            73.1059         estimate D2E/DX2                !
 ! D5    D(17,1,2,19)          -47.1879         estimate D2E/DX2                !
 ! D6    D(17,1,2,20)         -161.5657         estimate D2E/DX2                !
 ! D7    D(18,1,2,3)           -45.9618         estimate D2E/DX2                !
 ! D8    D(18,1,2,19)         -166.2556         estimate D2E/DX2                !
 ! D9    D(18,1,2,20)           79.3666         estimate D2E/DX2                !
 ! D10   D(1,2,3,4)            -46.3317         estimate D2E/DX2                !
 ! D11   D(1,2,3,14)            80.6023         estimate D2E/DX2                !
 ! D12   D(1,2,3,21)          -160.1584         estimate D2E/DX2                !
 ! D13   D(19,2,3,4)            73.5463         estimate D2E/DX2                !
 ! D14   D(19,2,3,14)         -159.5197         estimate D2E/DX2                !
 ! D15   D(19,2,3,21)          -40.2805         estimate D2E/DX2                !
 ! D16   D(20,2,3,4)          -171.9319         estimate D2E/DX2                !
 ! D17   D(20,2,3,14)          -44.9979         estimate D2E/DX2                !
 ! D18   D(20,2,3,21)           74.2413         estimate D2E/DX2                !
 ! D19   D(2,3,4,5)           -153.1678         estimate D2E/DX2                !
 ! D20   D(2,3,4,22)            80.1499         estimate D2E/DX2                !
 ! D21   D(2,3,4,23)           -35.5772         estimate D2E/DX2                !
 ! D22   D(14,3,4,5)            79.3511         estimate D2E/DX2                !
 ! D23   D(14,3,4,22)          -47.3312         estimate D2E/DX2                !
 ! D24   D(14,3,4,23)         -163.0583         estimate D2E/DX2                !
 ! D25   D(21,3,4,5)           -39.8606         estimate D2E/DX2                !
 ! D26   D(21,3,4,22)         -166.5429         estimate D2E/DX2                !
 ! D27   D(21,3,4,23)           77.73           estimate D2E/DX2                !
 ! D28   D(2,3,14,13)          114.0296         estimate D2E/DX2                !
 ! D29   D(2,3,14,15)           -6.5224         estimate D2E/DX2                !
 ! D30   D(2,3,14,41)         -126.252          estimate D2E/DX2                !
 ! D31   D(4,3,14,13)         -121.595          estimate D2E/DX2                !
 ! D32   D(4,3,14,15)          117.8531         estimate D2E/DX2                !
 ! D33   D(4,3,14,41)           -1.8765         estimate D2E/DX2                !
 ! D34   D(21,3,14,13)          -3.5825         estimate D2E/DX2                !
 ! D35   D(21,3,14,15)        -124.1345         estimate D2E/DX2                !
 ! D36   D(21,3,14,41)         116.1359         estimate D2E/DX2                !
 ! D37   D(3,4,5,6)           -116.1884         estimate D2E/DX2                !
 ! D38   D(3,4,5,24)           124.8775         estimate D2E/DX2                !
 ! D39   D(22,4,5,6)             9.5852         estimate D2E/DX2                !
 ! D40   D(22,4,5,24)         -109.3489         estimate D2E/DX2                !
 ! D41   D(23,4,5,6)           124.4853         estimate D2E/DX2                !
 ! D42   D(23,4,5,24)            5.5513         estimate D2E/DX2                !
 ! D43   D(4,5,6,7)            164.2891         estimate D2E/DX2                !
 ! D44   D(4,5,6,25)            42.7953         estimate D2E/DX2                !
 ! D45   D(4,5,6,26)           -74.8686         estimate D2E/DX2                !
 ! D46   D(24,5,6,7)           -76.0683         estimate D2E/DX2                !
 ! D47   D(24,5,6,25)          162.4378         estimate D2E/DX2                !
 ! D48   D(24,5,6,26)           44.774          estimate D2E/DX2                !
 ! D49   D(5,6,7,8)            -57.0779         estimate D2E/DX2                !
 ! D50   D(5,6,7,27)          -179.7665         estimate D2E/DX2                !
 ! D51   D(5,6,7,28)            63.112          estimate D2E/DX2                !
 ! D52   D(25,6,7,8)            64.8284         estimate D2E/DX2                !
 ! D53   D(25,6,7,27)          -57.8602         estimate D2E/DX2                !
 ! D54   D(25,6,7,28)         -174.9817         estimate D2E/DX2                !
 ! D55   D(26,6,7,8)          -178.3038         estimate D2E/DX2                !
 ! D56   D(26,6,7,27)           59.0076         estimate D2E/DX2                !
 ! D57   D(26,6,7,28)          -58.1139         estimate D2E/DX2                !
 ! D58   D(6,7,8,9)            -62.3467         estimate D2E/DX2                !
 ! D59   D(6,7,8,29)           175.249          estimate D2E/DX2                !
 ! D60   D(6,7,8,30)            61.4891         estimate D2E/DX2                !
 ! D61   D(27,7,8,9)            60.2757         estimate D2E/DX2                !
 ! D62   D(27,7,8,29)          -62.1285         estimate D2E/DX2                !
 ! D63   D(27,7,8,30)         -175.8885         estimate D2E/DX2                !
 ! D64   D(28,7,8,9)           176.7154         estimate D2E/DX2                !
 ! D65   D(28,7,8,29)           54.3112         estimate D2E/DX2                !
 ! D66   D(28,7,8,30)          -59.4488         estimate D2E/DX2                !
 ! D67   D(7,8,9,10)           147.105          estimate D2E/DX2                !
 ! D68   D(7,8,9,31)            20.3332         estimate D2E/DX2                !
 ! D69   D(7,8,9,32)           -92.0331         estimate D2E/DX2                !
 ! D70   D(29,8,9,10)          -89.8682         estimate D2E/DX2                !
 ! D71   D(29,8,9,31)          143.36           estimate D2E/DX2                !
 ! D72   D(29,8,9,32)           30.9937         estimate D2E/DX2                !
 ! D73   D(30,8,9,10)           26.7901         estimate D2E/DX2                !
 ! D74   D(30,8,9,31)          -99.9817         estimate D2E/DX2                !
 ! D75   D(30,8,9,32)          147.6521         estimate D2E/DX2                !
 ! D76   D(8,9,10,11)            4.9573         estimate D2E/DX2                !
 ! D77   D(8,9,10,12)         -124.7963         estimate D2E/DX2                !
 ! D78   D(8,9,10,33)          121.5081         estimate D2E/DX2                !
 ! D79   D(31,9,10,11)         132.6556         estimate D2E/DX2                !
 ! D80   D(31,9,10,12)           2.902          estimate D2E/DX2                !
 ! D81   D(31,9,10,33)        -110.7936         estimate D2E/DX2                !
 ! D82   D(32,9,10,11)        -115.5552         estimate D2E/DX2                !
 ! D83   D(32,9,10,12)         114.6911         estimate D2E/DX2                !
 ! D84   D(32,9,10,33)           0.9955         estimate D2E/DX2                !
 ! D85   D(9,10,11,34)         -60.9011         estimate D2E/DX2                !
 ! D86   D(9,10,11,35)         179.5713         estimate D2E/DX2                !
 ! D87   D(9,10,11,36)          58.7574         estimate D2E/DX2                !
 ! D88   D(12,10,11,34)         68.2676         estimate D2E/DX2                !
 ! D89   D(12,10,11,35)        -51.26           estimate D2E/DX2                !
 ! D90   D(12,10,11,36)       -172.0739         estimate D2E/DX2                !
 ! D91   D(33,10,11,34)       -177.1056         estimate D2E/DX2                !
 ! D92   D(33,10,11,35)         63.3668         estimate D2E/DX2                !
 ! D93   D(33,10,11,36)        -57.4471         estimate D2E/DX2                !
 ! D94   D(9,10,12,13)          96.8796         estimate D2E/DX2                !
 ! D95   D(9,10,12,37)         -30.4132         estimate D2E/DX2                !
 ! D96   D(9,10,12,38)        -143.2735         estimate D2E/DX2                !
 ! D97   D(11,10,12,13)        -34.0197         estimate D2E/DX2                !
 ! D98   D(11,10,12,37)       -161.3124         estimate D2E/DX2                !
 ! D99   D(11,10,12,38)         85.8273         estimate D2E/DX2                !
 ! D100  D(33,10,12,13)       -149.2152         estimate D2E/DX2                !
 ! D101  D(33,10,12,37)         83.492          estimate D2E/DX2                !
 ! D102  D(33,10,12,38)        -29.3682         estimate D2E/DX2                !
 ! D103  D(10,12,13,14)       -105.1024         estimate D2E/DX2                !
 ! D104  D(10,12,13,39)        134.326          estimate D2E/DX2                !
 ! D105  D(10,12,13,40)         22.4829         estimate D2E/DX2                !
 ! D106  D(37,12,13,14)         22.1841         estimate D2E/DX2                !
 ! D107  D(37,12,13,39)        -98.3875         estimate D2E/DX2                !
 ! D108  D(37,12,13,40)        149.7695         estimate D2E/DX2                !
 ! D109  D(38,12,13,14)        135.096          estimate D2E/DX2                !
 ! D110  D(38,12,13,39)         14.5245         estimate D2E/DX2                !
 ! D111  D(38,12,13,40)        -97.3186         estimate D2E/DX2                !
 ! D112  D(12,13,14,3)         133.0173         estimate D2E/DX2                !
 ! D113  D(12,13,14,15)        -99.5068         estimate D2E/DX2                !
 ! D114  D(12,13,14,41)         14.3256         estimate D2E/DX2                !
 ! D115  D(39,13,14,3)        -108.3635         estimate D2E/DX2                !
 ! D116  D(39,13,14,15)         19.1125         estimate D2E/DX2                !
 ! D117  D(39,13,14,41)        132.9448         estimate D2E/DX2                !
 ! D118  D(40,13,14,3)           4.3048         estimate D2E/DX2                !
 ! D119  D(40,13,14,15)        131.7807         estimate D2E/DX2                !
 ! D120  D(40,13,14,41)       -114.3869         estimate D2E/DX2                !
 ! D121  D(3,14,15,42)          61.4387         estimate D2E/DX2                !
 ! D122  D(3,14,15,43)         -61.9194         estimate D2E/DX2                !
 ! D123  D(3,14,15,44)         179.5669         estimate D2E/DX2                !
 ! D124  D(13,14,15,42)        -63.1579         estimate D2E/DX2                !
 ! D125  D(13,14,15,43)        173.4839         estimate D2E/DX2                !
 ! D126  D(13,14,15,44)         54.9702         estimate D2E/DX2                !
 ! D127  D(41,14,15,42)       -178.5701         estimate D2E/DX2                !
 ! D128  D(41,14,15,43)         58.0717         estimate D2E/DX2                !
 ! D129  D(41,14,15,44)        -60.442          estimate D2E/DX2                !
 --------------------------------------------------------------------------------
 Trust Radius=3.00D-01 FncErr=1.00D-07 GrdErr=1.00D-06 EigMax=2.50D+02 EigMin=1.00D-04
 Number of steps in this run=    264 maximum allowed number of steps=    264.
 GradGradGradGradGradGradGradGradGradGradGradGradGradGradGradGradGradGrad

                          Input orientation:                          
 ---------------------------------------------------------------------
 Center     Atomic      Atomic             Coordinates (Angstroms)
 Number     Number       Type             X           Y           Z
 ---------------------------------------------------------------------
      1          6           0        0.969110   -0.037390    0.338910
      2          6           0        2.485460   -0.099630    0.174200
      3          6           0        2.945470   -0.891750   -1.070200
      4          6           0        2.140380   -2.229100   -1.124900
      5          7           0        2.829250   -3.321810   -1.811840
      6          6           0        2.121160   -3.750940   -3.021830
      7          6           0        3.045930   -4.600140   -3.905750
      8          6           0        4.328650   -3.862450   -4.291510
      9          6           0        4.086920   -2.598290   -5.125220
     10          6           0        5.084030   -1.435050   -4.906530
     11          6           0        6.251530   -1.754600   -3.967320
     12          6           0        4.352020   -0.124150   -4.524970
     13          6           0        4.280600    0.183990   -3.019990
     14          6           0        2.877680   -0.070720   -2.418570
     15          6           0        2.229820    1.325310   -2.350400
     16          1           0        0.695220    0.705430    1.089940
     17          1           0        0.570960   -1.002920    0.665050
     18          1           0        0.451450    0.207240   -0.589060
     19          1           0        2.899340   -0.585130    1.068210
     20          1           0        2.920720    0.904530    0.171000
     21          1           0        3.993450   -1.165380   -0.878810
     22          1           0        1.145400   -2.049730   -1.545010
     23          1           0        1.978540   -2.582850   -0.097870
     24          1           0        2.880240   -4.122280   -1.185410
     25          1           0        1.766780   -2.886040   -3.583020
     26          1           0        1.235430   -4.337060   -2.751680
     27          1           0        2.510230   -4.912730   -4.808960
     28          1           0        3.327020   -5.513620   -3.367040
     29          1           0        4.993500   -4.532800   -4.848790
     30          1           0        4.843880   -3.648240   -3.355340
     31          1           0        3.063030   -2.232270   -5.012860
     32          1           0        4.134340   -2.890920   -6.184390
     33          1           0        5.529620   -1.239850   -5.892590
     34          1           0        5.911810   -2.016720   -2.959120
     35          1           0        6.918940   -0.894200   -3.863970
     36          1           0        6.834390   -2.601810   -4.336680
     37          1           0        3.352250   -0.087230   -4.980270
     38          1           0        4.891470    0.703690   -5.004970
     39          1           0        4.548070    1.244700   -2.906480
     40          1           0        5.052780   -0.315500   -2.440940
     41          1           0        2.286900   -0.658960   -3.127860
     42          1           0        2.779740    1.991510   -1.675070
     43          1           0        1.186100    1.300290   -2.048890
     44          1           0        2.246830    1.799190   -3.338850
 ---------------------------------------------------------------------
                    Distance matrix (angstroms):
                    1          2          3          4          5
     1  C    0.000000
     2  C    1.526539   0.000000
     3  C    2.573232   1.545184   0.000000
     4  C    2.884130   2.518210   1.561943   0.000000
     5  N    4.344337   3.800657   2.543370   1.463025   0.000000
     6  C    5.139285   4.866147   3.558555   2.432018   1.466158
     7  C    6.568790   6.100386   4.669325   3.764967   2.462831
     8  C    6.881743   6.123621   4.595115   4.181361   2.947754
     9  C    6.792324   6.073864   4.545148   4.464065   3.617140
    10  C    6.811803   5.860864   4.425612   4.857604   4.268607
    11  C    7.028256   5.837328   4.479715   5.020563   4.337539
    12  C    5.925279   5.056367   3.808284   4.569753   4.461494
    13  C    4.721989   3.675026   2.596434   3.740977   3.982044
    14  C    3.353721   2.622428   1.580123   2.622174   3.307575
    15  C    3.267833   2.910225   2.658274   3.760808   4.716470
    16  H    1.091258   2.166024   3.504399   3.950376   5.403061
    17  H    1.094138   2.173057   2.943085   2.677782   4.075795
    18  H    1.090387   2.194067   2.767564   3.012534   4.427563
    19  H    2.134874   1.098299   2.160773   2.844009   3.973540
    20  H    2.173520   1.094440   2.183532   3.479644   4.669258
    21  H    3.449904   2.125720   1.099893   2.150797   2.622231
    22  H    2.762199   2.924779   2.192399   1.094829   2.127143
    23  H    2.772921   2.548994   2.177200   1.098236   2.051210
    24  H    4.760493   4.264517   3.233242   2.033515   1.017726
    25  H    4.912496   4.732577   3.417714   2.571673   2.110881
    26  H    5.301871   5.298977   4.197830   2.812267   2.110520
    27  H    7.255657   6.928090   5.507816   4.572850   3.408156
    28  H    7.020178   6.523794   5.175204   4.150106   2.733213
    29  H    7.957176   7.153579   5.632887   5.226345   3.920911
    30  H    6.457520   5.532850   4.052661   3.781234   2.558844
    31  H    6.151702   5.638026   4.165979   3.995939   3.389436
    32  H    7.791967   7.137350   5.618277   5.478350   4.583462
    33  H    7.815098   6.882801   5.482194   5.932658   5.317807
    34  H    6.262989   5.023226   3.692255   4.199185   3.538600
    35  H    7.334767   6.049289   4.857326   5.667371   5.179777
    36  H    7.927099   6.747009   5.358908   5.699840   4.788984
    37  H    5.828852   5.226858   4.012651   4.573851   4.557958
    38  H    6.670169   5.766976   4.670627   5.587906   5.536559
    39  H    4.998526   3.943624   3.241091   4.586751   5.000559
    40  H    4.947855   3.671061   2.579098   3.725037   3.791801
    41  H    3.760507   3.354978   2.172986   2.549246   3.019408
    42  H    3.383923   2.807003   2.950682   4.304070   5.315311
    43  H    2.745553   2.930911   2.976282   3.771074   4.911206
    44  H    4.304824   4.000498   3.588318   4.597828   5.375464
                    6          7          8          9         10
     6  C    0.000000
     7  C    1.535466   0.000000
     8  C    2.549026   1.529172   0.000000
     9  C    3.101139   2.564794   1.533495   0.000000
    10  C    4.206428   3.895280   2.615553   1.547637   0.000000
    11  C    4.683939   4.286812   2.871515   2.595782   1.532085
    12  C    4.515504   4.703593   3.745656   2.559677   1.549156
    13  C    4.488525   5.019649   4.241786   3.494365   2.612628
    14  C    3.805294   4.770289   4.471066   3.895745   3.594346
    15  C    5.121615   6.180300   5.923331   5.151998   4.722277
    16  H    6.228900   7.657142   7.938976   7.813220   7.733108
    17  H    4.852609   6.321209   6.845775   6.959483   7.183108
    18  H    4.936952   6.390826   6.730765   6.454796   6.542053
    19  H    5.230329   6.393909   6.442853   6.619799   6.418158
    20  H    5.701479   6.851055   6.679847   6.455983   5.994569
    21  H    3.844883   4.675226   4.362690   4.482629   4.181461
    22  H    2.455040   3.961022   4.578460   4.665979   5.214447
    23  H    3.151875   4.439452   4.974637   5.451583   5.838212
    24  H    2.021518   2.766957   3.437042   4.393259   5.091623
    25  H    1.090216   2.162988   2.831698   2.800755   3.855022
    26  H    1.095918   2.163099   3.487742   4.097317   5.279845
    27  H    2.166787   1.095662   2.162751   2.818263   4.327612
    28  H    2.163402   1.097117   2.141091   3.488237   4.700196
    29  H    3.492768   2.164922   1.096337   2.154212   3.099610
    30  H    2.744992   2.107531   1.089845   2.192683   2.713314
    31  H    2.675384   2.613961   2.186236   1.093136   2.175157
    32  H    3.846338   3.049306   2.136498   1.099874   2.157405
    33  H    5.115118   4.626856   3.299063   2.124994   1.099531
    34  H    4.168990   3.972837   2.772792   2.891442   2.194531
    35  H    5.647022   5.360592   3.962689   3.537656   2.178611
    36  H    5.026317   4.304817   2.805350   2.858391   2.179408
    37  H    4.332879   4.649170   3.959802   2.620338   2.195705
    38  H    5.608136   5.722317   4.655687   3.400711   2.149646
    39  H    5.555143   6.116953   5.296172   4.461394   3.386519
    40  H    4.553469   4.952904   4.065689   3.653680   2.708044
    41  H    3.098234   4.088293   3.973056   3.315195   3.404397
    42  H    5.934916   6.963953   6.596494   5.888847   5.243415
    43  H    5.228372   6.459255   6.446615   5.751303   5.553562
    44  H    5.560597   6.473898   6.107021   5.090666   4.579043
                   11         12         13         14         15
    11  C    0.000000
    12  C    2.564660   0.000000
    13  C    2.922350   1.537861   0.000000
    14  C    4.076388   2.571664   1.547504   0.000000
    15  C    5.317370   3.366515   2.440627   1.540542   0.000000
    16  H    7.905707   6.751859   5.478903   4.204186   3.817746
    17  H    7.368361   6.481123   5.361875   3.962154   4.155167
    18  H    6.993024   5.551185   4.535675   3.051387   2.741350
    19  H    6.161282   5.797107   4.383241   3.524588   3.973026
    20  H    5.940619   5.015868   3.542721   2.767461   2.647991
    21  H    3.871046   3.808834   2.547137   2.194102   3.388142
    22  H    5.659262   4.782304   4.122445   2.771350   3.635315
    23  H    5.823838   5.592658   4.636127   3.536227   4.517826
    24  H    4.970969   5.413302   4.885760   4.235071   5.608608
    25  H    4.641209   3.898560   4.007665   3.242849   4.412395
    26  H    5.771320   5.532296   5.457558   4.583623   5.763009
    27  H    4.967843   5.138418   5.684292   5.412397   6.710908
    28  H    4.800346   5.606943   5.787272   5.543164   7.000598
    29  H    3.174590   4.466828   5.108898   5.503891   6.942430
    30  H    2.437595   3.745553   3.887895   4.188333   5.707838
    31  H    3.389374   2.518671   3.360405   3.381862   4.520985
    32  H    3.269421   3.233586   4.414736   4.869715   6.008600
    33  H    2.119619   2.121771   3.440814   4.524209   5.478671
    34  H    1.095712   2.909751   2.740014   3.644867   5.009666
    35  H    1.093803   2.760249   2.972479   4.370250   5.404162
    36  H    1.092665   3.512323   4.002024   5.073570   6.369430
    37  H    3.494569   1.099182   2.185885   2.605340   3.189253
    38  H    2.994941   1.098511   2.140887   3.368164   3.810188
    39  H    3.608734   2.128778   1.099787   2.181419   2.385373
    40  H    2.416164   2.207003   1.086762   2.188944   3.266429
    41  H    4.198025   2.550031   2.167266   1.094596   2.131908
    42  H    5.598310   3.882011   2.707124   2.194351   1.096497
    43  H    6.218626   4.264159   3.430028   2.208568   1.086686
    44  H    5.390920   3.088356   2.616632   2.177487   1.096305
                   16         17         18         19         20
    16  H    0.000000
    17  H    1.764775   0.000000
    18  H    1.768236   1.746872   0.000000
    19  H    2.554244   2.399675   3.060484   0.000000
    20  H    2.415976   3.066565   2.676042   1.739118   0.000000
    21  H    4.272497   3.758103   3.809699   2.307521   2.556830
    22  H    3.838819   2.512003   2.547414   3.471351   3.850208
    23  H    3.724324   2.249335   3.218365   2.489679   3.622404
    24  H    5.767002   4.299696   4.999940   4.194115   5.206756
    25  H    5.990280   4.798148   4.501363   5.311386   5.458266
    26  H    6.362120   4.819964   5.093350   5.606883   6.233500
    27  H    8.345957   7.000869   6.946958   7.308944   7.668704
    28  H    8.091207   6.648310   6.979564   6.644123   7.339990
    29  H    9.010149   7.900718   7.825822   7.414883   7.685003
    30  H    7.478391   6.435767   6.466102   5.721160   6.071353
    31  H    7.175010   6.321422   5.686965   6.302323   6.060707
    32  H    8.813465   7.948399   7.380379   7.709870   7.501286
    33  H    8.712707   8.224785   7.483937   7.469924   6.940594
    34  H    7.142674   6.533535   6.354425   5.229131   5.222832
    35  H    8.113860   7.798762   7.332573   6.370173   5.958370
    36  H    8.836031   8.173390   7.916902   6.983155   6.923179
    37  H    6.673497   6.359536   5.271060   6.085815   5.263591
    38  H    7.399760   7.329969   6.281759   6.520211   5.542099
    39  H    5.577333   5.798709   4.819653   4.675976   3.497837
    40  H    5.700679   5.496038   4.987480   4.126032   3.585580
    41  H    4.710079   4.177191   3.250336   4.241172   3.705227
    42  H    3.693847   4.395621   3.127934   3.765496   2.146946
    43  H    3.232194   3.612291   1.966106   4.025706   2.844898
    44  H    4.818504   5.166389   3.649526   5.053012   3.684236
                   21         22         23         24         25
    21  H    0.000000
    22  H    3.055697   0.000000
    23  H    2.584367   1.752870   0.000000
    24  H    3.174350   2.726618   2.089414   0.000000
    25  H    3.902753   2.288889   3.504716   2.918324   0.000000
    26  H    4.601507   2.587670   3.266829   2.281388   1.754685
    27  H    5.629268   4.551143   5.282557   3.727175   2.482563
    28  H    5.053970   4.480825   4.592960   2.625823   3.063523
    29  H    5.300977   5.646988   5.955126   4.249088   3.837410
    30  H    3.608466   4.417158   4.467252   2.964657   3.178259
    31  H    4.369703   3.966940   5.045409   4.272578   2.037676
    32  H    5.580907   5.582581   6.464372   5.298945   3.517455
    33  H    5.244364   6.227258   6.927669   6.122513   4.712008
    34  H    2.955093   4.971867   4.896720   4.095100   4.280916
    35  H    4.188462   6.328237   6.437593   5.822910   5.530923
    36  H    4.700121   6.361039   6.445708   5.279927   5.131224
    37  H    4.289000   4.530188   5.652701   5.559261   3.507044
    38  H    4.617906   5.795316   6.585297   6.474880   4.967071
    39  H    3.198052   4.927985   5.398232   5.877773   5.025564
    40  H    2.069958   4.367821   4.481273   4.559371   4.325485
    41  H    2.868275   2.396388   3.602399   4.014941   2.331862
    42  H    3.474633   4.361147   4.904513   6.134191   5.334497
    43  H    3.915333   3.387947   4.417377   5.746301   4.496232
    44  H    4.229794   4.386935   5.456941   6.332639   4.716084
                   26         27         28         29         30
    26  H    0.000000
    27  H    2.487752   0.000000
    28  H    2.477440   1.762767   0.000000
    29  H    4.308048   2.512481   2.436134   0.000000
    30  H    3.722874   3.026197   2.404297   1.742190   0.000000
    31  H    3.589317   2.744454   3.680445   3.007669   2.814919
    32  H    4.720010   2.935516   3.932910   2.284240   3.013388
    33  H    6.156143   4.876578   5.430926   3.495778   3.564859
    34  H    5.224513   4.835238   4.367591   3.277927   1.989805
    35  H    6.737415   6.039728   5.872637   4.232800   3.485587
    36  H    6.072205   4.925623   4.660524   2.716589   2.453604
    37  H    5.244864   4.901407   5.661171   4.740684   4.188812
    38  H    6.622168   6.103515   6.617043   5.239812   4.654335
    39  H    6.492580   6.759154   6.883166   6.111504   4.922382
    40  H    5.553527   5.762517   5.554850   4.856632   3.462214
    41  H    3.843894   4.579359   4.970592   5.029306   3.940265
    42  H    6.602634   7.586991   7.712928   7.585503   6.236246
    43  H    5.681203   6.926249   7.262949   7.507375   6.290796
    44  H    6.246700   6.876080   7.392212   7.065282   6.034852
                   31         32         33         34         35
    31  H    0.000000
    32  H    1.718723   0.000000
    33  H    2.800516   2.181281   0.000000
    34  H    3.518502   3.784969   3.058569   0.000000
    35  H    4.240097   4.138265   2.482938   1.758726   0.000000
    36  H    3.849277   3.284492   2.445039   1.758168   1.773848
    37  H    2.164696   3.149960   2.627128   3.789370   3.823428
    38  H    3.458774   3.858173   2.229900   3.553481   2.822369
    39  H    4.327990   5.293318   4.006655   3.535452   3.333572
    40  H    3.774637   4.635703   3.604953   1.974992   2.417118
    41  H    2.575055   4.211538   4.300744   3.874527   4.696061
    42  H    5.390864   6.782848   5.982558   5.246385   5.500144
    43  H    4.978651   6.584886   6.331864   5.844947   6.401231
    44  H    4.440851   5.801459   5.151122   5.304474   5.418368
                   36         37         38         39         40
    36  H    0.000000
    37  H    4.343112   0.000000
    38  H    3.892028   1.730712   0.000000
    39  H    4.697698   2.739458   2.194146   0.000000
    40  H    3.463406   3.064654   2.763878   1.704607   0.000000
    41  H    5.090734   2.212073   3.487713   2.964088   2.870525
    42  H    6.680041   3.946299   4.148026   2.280589   3.327997
    43  H    7.236266   3.900052   4.777458   3.470071   4.209002
    44  H    6.435074   2.734007   3.312129   2.406264   3.626501
                   41         42         43         44
    41  H    0.000000
    42  H    3.062431   0.000000
    43  H    2.492909   1.776855   0.000000
    44  H    2.467514   1.757596   1.742999   0.000000
 Stoichiometry    C14H29N
 Framework group  C1[X(C14H29N)]
 Deg. of freedom   126
 Full point group                 C1      NOp   1
 Largest Abelian subgroup         C1      NOp   1
 Largest concise Abelian subgroup C1      NOp   1
                         Standard orientation:                         
 ---------------------------------------------------------------------
 Center     Atomic      Atomic             Coordinates (Angstroms)
 Number     Number       Type             X           Y           Z
 ---------------------------------------------------------------------
      1          6           0        4.065485    0.727900   -0.146465
      2          6           0        3.202368    0.054050    0.917150
      3          6           0        1.686006    0.130936    0.630217
      4          6           0        1.339357    1.596645    0.216455
      5          7           0       -0.038330    1.996272    0.504066
      6          6           0       -0.794655    2.298923   -0.714948
      7          6           0       -2.299854    2.328035   -0.412984
      8          6           0       -2.801673    1.017692    0.194918
      9          6           0       -2.638564   -0.194434   -0.730151
     10          6           0       -2.353687   -1.548720   -0.037376
     11          6           0       -2.391808   -1.510280    1.493752
     12          6           0       -1.063176   -2.206757   -0.586425
     13          6           0        0.209465   -1.969517    0.243707
     14          6           0        1.170399   -0.945029   -0.405753
     15          6           0        2.239897   -1.808803   -1.100978
     16          1           0        5.114672    0.457309   -0.016732
     17          1           0        3.991766    1.817382   -0.077679
     18          1           0        3.767746    0.466480   -1.162317
     19          1           0        3.400974    0.553659    1.874859
     20          1           0        3.510421   -0.984773    1.071256
     21          1           0        1.190462   -0.046757    1.595944
     22          1           0        1.597351    1.759378   -0.835024
     23          1           0        1.971744    2.282975    0.795384
     24          1           0       -0.022854    2.839658    1.073477
     25          1           0       -0.587593    1.556638   -1.486122
     26          1           0       -0.484784    3.269391   -1.118938
     27          1           0       -2.857095    2.550627   -1.329723
     28          1           0       -2.513522    3.136855    0.296820
     29          1           0       -3.858325    1.113040    0.471234
     30          1           0       -2.261587    0.897075    1.133812
     31          1           0       -1.888779   -0.011389   -1.504271
     32          1           0       -3.571740   -0.296449   -1.303298
     33          1           0       -3.171357   -2.215521   -0.346825
     34          1           0       -1.642327   -0.827552    1.909378
     35          1           0       -2.190088   -2.498786    1.916327
     36          1           0       -3.365632   -1.171777    1.855690
     37          1           0       -0.901262   -1.933022   -1.638591
     38          1           0       -1.237020   -3.290923   -0.619408
     39          1           0        0.709236   -2.945126    0.332847
     40          1           0        0.006210   -1.714918    1.280490
     41          1           0        0.636979   -0.406385   -1.195351
     42          1           0        2.808114   -2.405255   -0.377320
     43          1           0        2.934328   -1.229892   -1.703898
     44          1           0        1.764920   -2.519694   -1.787211
 ---------------------------------------------------------------------
 Rotational constants (GHZ):           0.7427770           0.4310995           0.3164950
 Standard basis: 6-31G(2df,p) (6D, 7F)
 There are   610 symmetry adapted cartesian basis functions of A   symmetry.
 There are   565 symmetry adapted basis functions of A   symmetry.
   565 basis functions,   863 primitive gaussians,   610 cartesian basis functions
    60 alpha electrons       60 beta electrons
       nuclear repulsion energy      1140.5948336815 Hartrees.
 NAtoms=   44 NActive=   44 NUniq=   44 SFac= 1.00D+00 NAtFMM=   60 NAOKFM=F Big=F
 Integral buffers will be    131072 words long.
 Raffenetti 2 integral format.
 Two-electron integral symmetry is turned on.
 One-electron integrals computed using PRISM.
 PrsmSu:  requested number of processors reduced to:  12 ShMem   1 Linda.
 NBasis=   565 RedAO= T EigKep=  3.43D-04  NBF=   565
 NBsUse=   565 1.00D-06 EigRej= -1.00D+00 NBFU=   565
 ExpMin= 1.61D-01 ExpMax= 4.17D+03 ExpMxC= 6.27D+02 IAcc=3 IRadAn=         5 AccDes= 0.00D+00
 Harris functional with IExCor=  402 and IRadAn=       5 diagonalized for initial guess.
 HarFok:  IExCor=  402 AccDes= 0.00D+00 IRadAn=         5 IDoV= 1 UseB2=F ITyADJ=14
 ICtDFT=  3500011 ScaDFX=  1.000000  1.000000  1.000000  1.000000
 FoFCou: FMM=F IPFlag=           0 FMFlag=      100000 FMFlg1=           0
         NFxFlg=           0 DoJE=T BraDBF=F KetDBF=T FulRan=T
         wScrn=  0.000000 ICntrl=       500 IOpCl=  0 I1Cent=   200000004 NGrid=           0
         NMat0=    1 NMatS0=      1 NMatT0=    0 NMatD0=    1 NMtDS0=    0 NMtDT0=    0
 Petite list used in FoFCou.
 Requested convergence on RMS density matrix=1.00D-08 within 128 cycles.
 Requested convergence on MAX density matrix=1.00D-06.
 Requested convergence on             energy=1.00D-06.
 No special actions if energy rises.
 Integral accuracy reduced to 1.0D-05 until final iterations.
 Initial convergence to 1.0D-05 achieved.  Increase integral accuracy.
 SCF Done:  E(RB3LYP) =  -605.715354491     A.U. after   12 cycles
            NFock= 12  Conv=0.50D-08     -V/T= 2.0085

 **********************************************************************

            Population analysis using the SCF density.

 **********************************************************************

 Orbital symmetries:
       Occupied  (A) (A) (A) (A) (A) (A) (A) (A) (A) (A) (A) (A)
                 (A) (A) (A) (A) (A) (A) (A) (A) (A) (A) (A) (A)
                 (A) (A) (A) (A) (A) (A) (A) (A) (A) (A) (A) (A)
                 (A) (A) (A) (A) (A) (A) (A) (A) (A) (A) (A) (A)
                 (A) (A) (A) (A) (A) (A) (A) (A) (A) (A) (A) (A)
       Virtual   (A) (A) (A) (A) (A) (A) (A) (A) (A) (A) (A) (A)
                 (A) (A) (A) (A) (A) (A) (A) (A) (A) (A) (A) (A)
                 (A) (A) (A) (A) (A) (A) (A) (A) (A) (A) (A) (A)
                 (A) (A) (A) (A) (A) (A) (A) (A) (A) (A) (A) (A)
                 (A) (A) (A) (A) (A) (A) (A) (A) (A) (A) (A) (A)
                 (A) (A) (A) (A) (A) (A) (A) (A) (A) (A) (A) (A)
                 (A) (A) (A) (A) (A) (A) (A) (A) (A) (A) (A) (A)
                 (A) (A) (A) (A) (A) (A) (A) (A) (A) (A) (A) (A)
                 (A) (A) (A) (A) (A) (A) (A) (A) (A) (A) (A) (A)
                 (A) (A) (A) (A) (A) (A) (A) (A) (A) (A) (A) (A)
                 (A) (A) (A) (A) (A) (A) (A) (A) (A) (A) (A) (A)
                 (A) (A) (A) (A) (A) (A) (A) (A) (A) (A) (A) (A)
                 (A) (A) (A) (A) (A) (A) (A) (A) (A) (A) (A) (A)
                 (A) (A) (A) (A) (A) (A) (A) (A) (A) (A) (A) (A)
                 (A) (A) (A) (A) (A) (A) (A) (A) (A) (A) (A) (A)
                 (A) (A) (A) (A) (A) (A) (A) (A) (A) (A) (A) (A)
                 (A) (A) (A) (A) (A) (A) (A) (A) (A) (A) (A) (A)
                 (A) (A) (A) (A) (A) (A) (A) (A) (A) (A) (A) (A)
                 (A) (A) (A) (A) (A) (A) (A) (A) (A) (A) (A) (A)
                 (A) (A) (A) (A) (A) (A) (A) (A) (A) (A) (A) (A)
                 (A) (A) (A) (A) (A) (A) (A) (A) (A) (A) (A) (A)
                 (A) (A) (A) (A) (A) (A) (A) (A) (A) (A) (A) (A)
                 (A) (A) (A) (A) (A) (A) (A) (A) (A) (A) (A) (A)
                 (A) (A) (A) (A) (A) (A) (A) (A) (A) (A) (A) (A)
                 (A) (A) (A) (A) (A) (A) (A) (A) (A) (A) (A) (A)
                 (A) (A) (A) (A) (A) (A) (A) (A) (A) (A) (A) (A)
                 (A) (A) (A) (A) (A) (A) (A) (A) (A) (A) (A) (A)
                 (A) (A) (A) (A) (A) (A) (A) (A) (A) (A) (A) (A)
                 (A) (A) (A) (A) (A) (A) (A) (A) (A) (A) (A) (A)
                 (A) (A) (A) (A) (A) (A) (A) (A) (A) (A) (A) (A)
                 (A) (A) (A) (A) (A) (A) (A) (A) (A) (A) (A) (A)
                 (A) (A) (A) (A) (A) (A) (A) (A) (A) (A) (A) (A)
                 (A) (A) (A) (A) (A) (A) (A) (A) (A) (A) (A) (A)
                 (A) (A) (A) (A) (A) (A) (A) (A) (A) (A) (A) (A)
                 (A) (A) (A) (A) (A) (A) (A) (A) (A) (A) (A) (A)
                 (A) (A) (A) (A) (A) (A) (A) (A) (A) (A) (A) (A)
                 (A) (A) (A) (A) (A) (A) (A) (A) (A) (A) (A) (A)
                 (A) (A) (A) (A) (A) (A) (A) (A) (A) (A) (A) (A)
                 (A) (A) (A) (A) (A) (A) (A) (A) (A) (A) (A) (A)
                 (A) (A) (A) (A) (A) (A) (A) (A) (A) (A) (A) (A)
                 (A) (A) (A) (A) (A) (A) (A) (A) (A) (A) (A) (A)
                 (A) (A) (A) (A) (A) (A) (A) (A) (A) (A) (A) (A)
                 (A)
 The electronic state is 1-A.
 Alpha  occ. eigenvalues --  -14.30496 -10.19483 -10.19468 -10.17530 -10.17279
 Alpha  occ. eigenvalues --  -10.17239 -10.16975 -10.16790 -10.16463 -10.16451
 Alpha  occ. eigenvalues --  -10.16364 -10.16198 -10.16048 -10.15958 -10.15811
 Alpha  occ. eigenvalues --   -0.89625  -0.81337  -0.80221  -0.76401  -0.75317
 Alpha  occ. eigenvalues --   -0.70998  -0.68938  -0.67793  -0.64617  -0.63010
 Alpha  occ. eigenvalues --   -0.61499  -0.58089  -0.56101  -0.53154  -0.52572
 Alpha  occ. eigenvalues --   -0.48402  -0.47000  -0.46358  -0.45452  -0.44286
 Alpha  occ. eigenvalues --   -0.43843  -0.42451  -0.41292  -0.40423  -0.39558
 Alpha  occ. eigenvalues --   -0.39133  -0.38798  -0.38089  -0.37512  -0.36628
 Alpha  occ. eigenvalues --   -0.36101  -0.35183  -0.34335  -0.33663  -0.33394
 Alpha  occ. eigenvalues --   -0.32945  -0.32483  -0.31603  -0.30893  -0.30230
 Alpha  occ. eigenvalues --   -0.29899  -0.29278  -0.27854  -0.26979  -0.21281
 Alpha virt. eigenvalues --    0.07179   0.08055   0.08722   0.08891   0.11235
 Alpha virt. eigenvalues --    0.11637   0.12160   0.12980   0.13309   0.13948
 Alpha virt. eigenvalues --    0.14394   0.14944   0.15558   0.15884   0.16249
 Alpha virt. eigenvalues --    0.17396   0.17810   0.17946   0.18552   0.19159
 Alpha virt. eigenvalues --    0.19718   0.19960   0.20684   0.21098   0.21325
 Alpha virt. eigenvalues --    0.22200   0.22648   0.23488   0.23629   0.24272
 Alpha virt. eigenvalues --    0.24886   0.25064   0.25966   0.26969   0.27238
 Alpha virt. eigenvalues --    0.27643   0.28654   0.29217   0.30233   0.32759
 Alpha virt. eigenvalues --    0.32761   0.34227   0.34815   0.36166   0.44537
 Alpha virt. eigenvalues --    0.45699   0.46957   0.47917   0.48296   0.48927
 Alpha virt. eigenvalues --    0.48987   0.50152   0.50406   0.51024   0.51833
 Alpha virt. eigenvalues --    0.52689   0.53735   0.54411   0.54727   0.55859
 Alpha virt. eigenvalues --    0.56746   0.57656   0.58419   0.59280   0.59317
 Alpha virt. eigenvalues --    0.59966   0.60532   0.61096   0.61691   0.62655
 Alpha virt. eigenvalues --    0.63109   0.63863   0.64810   0.66730   0.67582
 Alpha virt. eigenvalues --    0.67989   0.68683   0.70178   0.70482   0.71293
 Alpha virt. eigenvalues --    0.71547   0.72780   0.73554   0.73827   0.74535
 Alpha virt. eigenvalues --    0.74925   0.75094   0.75828   0.76193   0.76569
 Alpha virt. eigenvalues --    0.77143   0.77359   0.78292   0.78610   0.79081
 Alpha virt. eigenvalues --    0.80004   0.80317   0.81254   0.81393   0.82013
 Alpha virt. eigenvalues --    0.82637   0.83429   0.83865   0.84113   0.84889
 Alpha virt. eigenvalues --    0.85497   0.86023   0.87170   0.87872   0.88687
 Alpha virt. eigenvalues --    0.89269   0.90576   0.91407   0.92426   0.93448
 Alpha virt. eigenvalues --    0.94362   0.95353   0.96324   0.96787   0.99889
 Alpha virt. eigenvalues --    1.01112   1.03764   1.05057   1.05987   1.06911
 Alpha virt. eigenvalues --    1.08066   1.10934   1.11950   1.13508   1.14742
 Alpha virt. eigenvalues --    1.15434   1.17020   1.18925   1.19649   1.20965
 Alpha virt. eigenvalues --    1.21410   1.24338   1.25954   1.27383   1.29330
 Alpha virt. eigenvalues --    1.31080   1.32232   1.32833   1.33931   1.35089
 Alpha virt. eigenvalues --    1.35699   1.36186   1.37345   1.39424   1.40354
 Alpha virt. eigenvalues --    1.42064   1.42618   1.44199   1.45362   1.46068
 Alpha virt. eigenvalues --    1.47347   1.48220   1.49085   1.50506   1.51820
 Alpha virt. eigenvalues --    1.53362   1.54216   1.54963   1.56088   1.56452
 Alpha virt. eigenvalues --    1.57470   1.58769   1.59931   1.60688   1.61753
 Alpha virt. eigenvalues --    1.63183   1.64396   1.64784   1.66126   1.67034
 Alpha virt. eigenvalues --    1.67453   1.69326   1.69584   1.70556   1.72072
 Alpha virt. eigenvalues --    1.73530   1.74127   1.75292   1.76178   1.77022
 Alpha virt. eigenvalues --    1.78430   1.79324   1.80109   1.81813   1.82643
 Alpha virt. eigenvalues --    1.83867   1.84251   1.86330   1.87767   1.89972
 Alpha virt. eigenvalues --    1.90270   1.92595   1.95128   1.97068   1.97688
 Alpha virt. eigenvalues --    1.99161   2.00171   2.00366   2.01135   2.03167
 Alpha virt. eigenvalues --    2.05303   2.06999   2.07860   2.13866   2.15119
 Alpha virt. eigenvalues --    2.18216   2.18794   2.20458   2.21299   2.23097
 Alpha virt. eigenvalues --    2.24470   2.25235   2.27369   2.27867   2.29124
 Alpha virt. eigenvalues --    2.31324   2.32193   2.33192   2.33656   2.34774
 Alpha virt. eigenvalues --    2.35647   2.36896   2.39022   2.39875   2.41046
 Alpha virt. eigenvalues --    2.41770   2.43068   2.43327   2.44391   2.44796
 Alpha virt. eigenvalues --    2.46038   2.47722   2.48318   2.49592   2.51263
 Alpha virt. eigenvalues --    2.51870   2.53621   2.54336   2.56161   2.56607
 Alpha virt. eigenvalues --    2.58008   2.60058   2.61552   2.62442   2.63583
 Alpha virt. eigenvalues --    2.64184   2.66477   2.68329   2.70862   2.71464
 Alpha virt. eigenvalues --    2.73000   2.73292   2.74135   2.74988   2.77000
 Alpha virt. eigenvalues --    2.78191   2.79673   2.80278   2.80762   2.83227
 Alpha virt. eigenvalues --    2.83364   2.84312   2.85007   2.85730   2.86832
 Alpha virt. eigenvalues --    2.88439   2.88720   2.90011   2.91353   2.92005
 Alpha virt. eigenvalues --    2.92376   2.94151   2.94253   2.94794   2.94834
 Alpha virt. eigenvalues --    2.95983   2.96423   2.97177   2.97662   2.98400
 Alpha virt. eigenvalues --    2.99410   3.00700   3.02109   3.02629   3.03022
 Alpha virt. eigenvalues --    3.04207   3.05140   3.07765   3.08434   3.09358
 Alpha virt. eigenvalues --    3.11457   3.11674   3.12882   3.14142   3.15318
 Alpha virt. eigenvalues --    3.17376   3.19555   3.21682   3.23216   3.24320
 Alpha virt. eigenvalues --    3.25603   3.27382   3.27768   3.29159   3.29675
 Alpha virt. eigenvalues --    3.31816   3.32460   3.33568   3.35458   3.35831
 Alpha virt. eigenvalues --    3.38907   3.39071   3.40144   3.40920   3.42249
 Alpha virt. eigenvalues --    3.43259   3.44441   3.45585   3.46870   3.48514
 Alpha virt. eigenvalues --    3.49515   3.49734   3.51325   3.52222   3.53288
 Alpha virt. eigenvalues --    3.53924   3.54994   3.55422   3.57910   3.58584
 Alpha virt. eigenvalues --    3.59516   3.60051   3.61390   3.62785   3.62924
 Alpha virt. eigenvalues --    3.63868   3.64684   3.65339   3.67444   3.68246
 Alpha virt. eigenvalues --    3.68476   3.69008   3.70942   3.71791   3.72696
 Alpha virt. eigenvalues --    3.74569   3.77167   3.79232   3.79747   3.80893
 Alpha virt. eigenvalues --    3.81901   3.82599   3.83647   3.85561   3.89445
 Alpha virt. eigenvalues --    3.90256   3.91717   3.92658   3.95150   3.96966
 Alpha virt. eigenvalues --    3.97620   3.98343   4.00197   4.02398   4.02970
 Alpha virt. eigenvalues --    4.05417   4.08263   4.09108   4.11707   4.14780
 Alpha virt. eigenvalues --    4.16914   4.18538   4.19811   4.21846   4.24395
 Alpha virt. eigenvalues --    4.28425   4.31262   4.34034   4.37705   4.40754
 Alpha virt. eigenvalues --    4.41321   4.42650   4.44707   4.44981   4.45876
 Alpha virt. eigenvalues --    4.47116   4.48642   4.49137   4.49899   4.51100
 Alpha virt. eigenvalues --    4.52010   4.53317   4.53848   4.55026   4.56903
 Alpha virt. eigenvalues --    4.56933   4.58061   4.58397   4.59300   4.61322
 Alpha virt. eigenvalues --    4.62034   4.62798   4.63550   4.64361   4.65738
 Alpha virt. eigenvalues --    4.65921   4.67350   4.67553   4.68491   4.69491
 Alpha virt. eigenvalues --    4.69746   4.70486   4.70635   4.71514   4.72877
 Alpha virt. eigenvalues --    4.73503   4.73838   4.75098   4.76102   4.76626
 Alpha virt. eigenvalues --    4.76923   4.77668   4.78290   4.79704   4.80457
 Alpha virt. eigenvalues --    4.80769   4.81161   4.82381   4.83131   4.83647
 Alpha virt. eigenvalues --    4.84865   4.85931   4.86663   4.87659   4.88791
 Alpha virt. eigenvalues --    4.90216   4.90477   4.91622   4.92230   4.94024
 Alpha virt. eigenvalues --    4.94849   4.95610   4.96026   4.98018   4.98721
 Alpha virt. eigenvalues --    5.00230   5.00699   5.01208   5.02553   5.03770
 Alpha virt. eigenvalues --    5.05441   5.07641   5.10759   5.12195   5.16071
 Alpha virt. eigenvalues --    5.17421   5.20628   5.27707   5.27864   5.30180
 Alpha virt. eigenvalues --    5.33294   5.35069   5.37444   5.39551   5.40777
 Alpha virt. eigenvalues --    5.41559   5.42848   5.46201   5.47016   5.49315
 Alpha virt. eigenvalues --    5.51340   5.52588   5.55670   5.55809   5.59401
 Alpha virt. eigenvalues --    5.63728   5.66085   5.72951   5.83762   6.00536
 Alpha virt. eigenvalues --    6.21435   6.56904   6.95459   7.23977  10.79762
 Alpha virt. eigenvalues --   11.17846  11.33675  11.53658  11.67365  11.86498
 Alpha virt. eigenvalues --   11.98634  12.14584  12.24968  12.35338  12.44064
 Alpha virt. eigenvalues --   12.61982  12.79665  13.05371  13.17093  16.32138
          Condensed to atoms (all electrons):
               1          2          3          4          5          6
     1  C    4.949459   0.407834  -0.022609  -0.015758   0.000455  -0.000000
     2  C    0.407834   4.893226   0.356358  -0.030918   0.002228  -0.000146
     3  C   -0.022609   0.356358   4.781209   0.385043  -0.047107   0.003177
     4  C   -0.015758  -0.030918   0.385043   4.937127   0.388478  -0.068682
     5  N    0.000455   0.002228  -0.047107   0.388478   6.384085   0.367928
     6  C   -0.000000  -0.000146   0.003177  -0.068682   0.367928   4.854919
     7  C    0.000000  -0.000001  -0.000044   0.004321  -0.043988   0.408962
     8  C    0.000000   0.000000   0.000090   0.000608  -0.009618  -0.030329
     9  C   -0.000000   0.000002  -0.000058  -0.000086   0.000236  -0.004545
    10  C    0.000000  -0.000000   0.000043  -0.000008   0.000278   0.000342
    11  C   -0.000000  -0.000000  -0.000040   0.000017  -0.000926   0.000046
    12  C   -0.000000  -0.000029   0.002853  -0.000321  -0.000113   0.000011
    13  C   -0.000031   0.001220  -0.021370   0.004072   0.000105   0.000058
    14  C   -0.004967  -0.024977   0.409744  -0.019513   0.001307  -0.000226
    15  C   -0.003547  -0.014671  -0.025047   0.001333   0.000050   0.000014
    16  H    0.374058  -0.024546   0.002862   0.000031  -0.000008  -0.000000
    17  H    0.377204  -0.027597  -0.005160   0.002848   0.000061   0.000005
    18  H    0.381019  -0.033494  -0.004975  -0.000747   0.000029  -0.000008
    19  H   -0.040811   0.362116  -0.026707  -0.002933   0.000051  -0.000001
    20  H   -0.038927   0.366209  -0.022463   0.004548  -0.000048   0.000002
    21  H    0.005647  -0.037635   0.351813  -0.046410   0.004626  -0.000181
    22  H    0.002228   0.000118  -0.044437   0.356486  -0.032580  -0.014095
    23  H   -0.002900  -0.004505  -0.032119   0.343453  -0.022864   0.005571
    24  H    0.000016  -0.000408   0.004150  -0.042216   0.341712  -0.048670
    25  H    0.000003  -0.000059   0.000134  -0.004952  -0.027560   0.368713
    26  H   -0.000004   0.000028  -0.000257  -0.000536  -0.038466   0.359969
    27  H   -0.000000  -0.000000   0.000003  -0.000215   0.003269  -0.028566
    28  H   -0.000000  -0.000000  -0.000006  -0.000052  -0.004800  -0.030806
    29  H   -0.000000   0.000000  -0.000002  -0.000012   0.000415   0.004245
    30  H    0.000000   0.000005  -0.000084  -0.000505   0.020273  -0.012401
    31  H   -0.000000   0.000001   0.000108  -0.000189   0.000002   0.000727
    32  H    0.000000   0.000000  -0.000001   0.000004   0.000036  -0.000399
    33  H   -0.000000  -0.000000   0.000005  -0.000001   0.000001   0.000005
    34  H    0.000000   0.000004   0.000024  -0.000146   0.002194   0.000056
    35  H    0.000000  -0.000000  -0.000014   0.000000  -0.000001   0.000001
    36  H   -0.000000  -0.000000  -0.000002   0.000000   0.000003  -0.000002
    37  H    0.000000  -0.000011   0.000447  -0.000006  -0.000005  -0.000075
    38  H   -0.000000   0.000004  -0.000135   0.000003  -0.000000   0.000000
    39  H    0.000021  -0.000198   0.001458  -0.000087   0.000006  -0.000002
    40  H    0.000008   0.000142  -0.010943   0.000391  -0.000313   0.000001
    41  H    0.000289   0.004845  -0.050696  -0.011341  -0.000066  -0.001103
    42  H    0.000531   0.000155  -0.007489  -0.000043  -0.000002  -0.000000
    43  H   -0.003297   0.000883  -0.003690   0.000307  -0.000003   0.000000
    44  H    0.000169   0.000177   0.004123  -0.000087   0.000002   0.000001
               7          8          9         10         11         12
     1  C    0.000000   0.000000  -0.000000   0.000000  -0.000000  -0.000000
     2  C   -0.000001   0.000000   0.000002  -0.000000  -0.000000  -0.000029
     3  C   -0.000044   0.000090  -0.000058   0.000043  -0.000040   0.002853
     4  C    0.004321   0.000608  -0.000086  -0.000008   0.000017  -0.000321
     5  N   -0.043988  -0.009618   0.000236   0.000278  -0.000926  -0.000113
     6  C    0.408962  -0.030329  -0.004545   0.000342   0.000046   0.000011
     7  C    4.919999   0.401846  -0.032823   0.003445   0.000718  -0.000025
     8  C    0.401846   4.811190   0.429598  -0.034840  -0.013579   0.003013
     9  C   -0.032823   0.429598   4.868274   0.415702  -0.044844  -0.029671
    10  C    0.003445  -0.034840   0.415702   4.579685   0.421155   0.415508
    11  C    0.000718  -0.013579  -0.044844   0.421155   5.033392  -0.042787
    12  C   -0.000025   0.003013  -0.029671   0.415508  -0.042787   4.898432
    13  C    0.000003  -0.000048  -0.000522  -0.025707  -0.017113   0.408341
    14  C   -0.000086  -0.000024   0.000839   0.000352  -0.000100  -0.021834
    15  C   -0.000000   0.000001  -0.000003   0.000083  -0.000006   0.000537
    16  H   -0.000000   0.000000   0.000000  -0.000000   0.000000  -0.000000
    17  H   -0.000000   0.000000   0.000000   0.000000  -0.000000   0.000000
    18  H   -0.000000   0.000000   0.000000  -0.000000   0.000000   0.000001
    19  H   -0.000000  -0.000000  -0.000000  -0.000000   0.000000   0.000002
    20  H   -0.000000   0.000000  -0.000000   0.000000   0.000000  -0.000015
    21  H    0.000002  -0.000057  -0.000025   0.000029  -0.000501   0.000652
    22  H    0.000197   0.000043  -0.000007   0.000006  -0.000004   0.000004
    23  H   -0.000360  -0.000005  -0.000000   0.000000  -0.000001   0.000003
    24  H    0.003170  -0.000373   0.000020  -0.000005   0.000013   0.000000
    25  H   -0.028791  -0.007039   0.000358  -0.000379   0.000018  -0.000133
    26  H   -0.044779   0.005078   0.000241   0.000006  -0.000004  -0.000002
    27  H    0.353904  -0.031384  -0.004948   0.000014   0.000001  -0.000002
    28  H    0.356660  -0.027788   0.003780  -0.000188   0.000005   0.000002
    29  H   -0.033215   0.357620  -0.026835   0.001096   0.000336  -0.000087
    30  H   -0.034319   0.371150  -0.036232  -0.011532   0.001555   0.000379
    31  H   -0.009852  -0.044217   0.370852  -0.035827   0.004111  -0.015742
    32  H    0.003119  -0.029306   0.345261  -0.021298   0.003978   0.004244
    33  H   -0.000124   0.003894  -0.038526   0.358321  -0.051540  -0.039496
    34  H   -0.000192  -0.003466  -0.005609  -0.017464   0.370796  -0.006962
    35  H   -0.000023   0.000403   0.004993  -0.022834   0.366218  -0.003891
    36  H    0.000109   0.001772  -0.004079  -0.018996   0.366809   0.004581
    37  H   -0.000005   0.000307  -0.014607  -0.033382   0.004874   0.367341
    38  H    0.000001  -0.000152   0.004969  -0.025343   0.000674   0.344441
    39  H   -0.000000   0.000003  -0.000033   0.003811   0.000329  -0.029383
    40  H    0.000002   0.000072   0.000016  -0.015102   0.004064  -0.033695
    41  H   -0.000164   0.000098  -0.000018  -0.000548   0.000025  -0.009850
    42  H   -0.000000   0.000000   0.000000  -0.000012   0.000000  -0.000087
    43  H   -0.000000  -0.000000   0.000000   0.000004   0.000000  -0.000118
    44  H   -0.000000   0.000000  -0.000004   0.000018   0.000002   0.001130
              13         14         15         16         17         18
     1  C   -0.000031  -0.004967  -0.003547   0.374058   0.377204   0.381019
     2  C    0.001220  -0.024977  -0.014671  -0.024546  -0.027597  -0.033494
     3  C   -0.021370   0.409744  -0.025047   0.002862  -0.005160  -0.004975
     4  C    0.004072  -0.019513   0.001333   0.000031   0.002848  -0.000747
     5  N    0.000105   0.001307   0.000050  -0.000008   0.000061   0.000029
     6  C    0.000058  -0.000226   0.000014  -0.000000   0.000005  -0.000008
     7  C    0.000003  -0.000086  -0.000000  -0.000000  -0.000000  -0.000000
     8  C   -0.000048  -0.000024   0.000001   0.000000   0.000000   0.000000
     9  C   -0.000522   0.000839  -0.000003   0.000000   0.000000   0.000000
    10  C   -0.025707   0.000352   0.000083  -0.000000   0.000000  -0.000000
    11  C   -0.017113  -0.000100  -0.000006   0.000000  -0.000000   0.000000
    12  C    0.408341  -0.021834   0.000537  -0.000000   0.000000   0.000001
    13  C    4.881605   0.411306  -0.032135  -0.000001  -0.000003  -0.000019
    14  C    0.411306   4.665063   0.379371   0.000175  -0.000228   0.002487
    15  C   -0.032135   0.379371   5.054026  -0.000121   0.000275  -0.003154
    16  H   -0.000001   0.000175  -0.000121   0.612804  -0.031402  -0.032316
    17  H   -0.000003  -0.000228   0.000275  -0.031402   0.605583  -0.034222
    18  H   -0.000019   0.002487  -0.003154  -0.032316  -0.034222   0.592836
    19  H   -0.000085   0.005010   0.000008   0.000097  -0.008524   0.005901
    20  H    0.000687  -0.010954   0.002676  -0.005492   0.005320  -0.001186
    21  H   -0.017018  -0.044537   0.004894  -0.000162   0.000018   0.000040
    22  H    0.000003  -0.009382   0.000892   0.000050   0.000154   0.001780
    23  H   -0.000178   0.003649  -0.000136  -0.000034   0.002198   0.000359
    24  H    0.000014  -0.000083   0.000000  -0.000000  -0.000019   0.000001
    25  H    0.000108  -0.000897  -0.000039  -0.000000  -0.000003  -0.000002
    26  H   -0.000002   0.000027  -0.000001   0.000000   0.000008   0.000000
    27  H   -0.000000   0.000002   0.000000   0.000000   0.000000   0.000000
    28  H    0.000000  -0.000002   0.000000  -0.000000   0.000000  -0.000000
    29  H   -0.000001   0.000001   0.000000   0.000000  -0.000000   0.000000
    30  H    0.000048   0.000008  -0.000000   0.000000   0.000000   0.000000
    31  H    0.000469  -0.000479  -0.000011  -0.000000  -0.000000   0.000000
    32  H   -0.000051  -0.000004  -0.000001   0.000000   0.000000  -0.000000
    33  H    0.004727   0.000014   0.000001  -0.000000   0.000000   0.000000
    34  H   -0.001717   0.000304   0.000007  -0.000000   0.000000  -0.000000
    35  H   -0.000715   0.000200  -0.000001   0.000000  -0.000000   0.000000
    36  H    0.000636  -0.000024   0.000000  -0.000000  -0.000000   0.000000
    37  H   -0.040776  -0.012608   0.000472  -0.000000  -0.000000   0.000000
    38  H   -0.029081   0.003763  -0.000323   0.000000  -0.000000  -0.000000
    39  H    0.351842  -0.032337  -0.019133  -0.000000   0.000000   0.000003
    40  H    0.364238  -0.038492   0.003831  -0.000000  -0.000001  -0.000001
    41  H   -0.049650   0.367328  -0.049988   0.000010   0.000034  -0.000399
    42  H   -0.008633  -0.019638   0.372032  -0.000043   0.000011  -0.000184
    43  H    0.004989  -0.022427   0.363942   0.000420  -0.000008   0.006870
    44  H   -0.006805  -0.024610   0.371123  -0.000004  -0.000004  -0.000039
              19         20         21         22         23         24
     1  C   -0.040811  -0.038927   0.005647   0.002228  -0.002900   0.000016
     2  C    0.362116   0.366209  -0.037635   0.000118  -0.004505  -0.000408
     3  C   -0.026707  -0.022463   0.351813  -0.044437  -0.032119   0.004150
     4  C   -0.002933   0.004548  -0.046410   0.356486   0.343453  -0.042216
     5  N    0.000051  -0.000048   0.004626  -0.032580  -0.022864   0.341712
     6  C   -0.000001   0.000002  -0.000181  -0.014095   0.005571  -0.048670
     7  C   -0.000000  -0.000000   0.000002   0.000197  -0.000360   0.003170
     8  C   -0.000000   0.000000  -0.000057   0.000043  -0.000005  -0.000373
     9  C   -0.000000  -0.000000  -0.000025  -0.000007  -0.000000   0.000020
    10  C   -0.000000   0.000000   0.000029   0.000006   0.000000  -0.000005
    11  C    0.000000   0.000000  -0.000501  -0.000004  -0.000001   0.000013
    12  C    0.000002  -0.000015   0.000652   0.000004   0.000003   0.000000
    13  C   -0.000085   0.000687  -0.017018   0.000003  -0.000178   0.000014
    14  C    0.005010  -0.010954  -0.044537  -0.009382   0.003649  -0.000083
    15  C    0.000008   0.002676   0.004894   0.000892  -0.000136   0.000000
    16  H    0.000097  -0.005492  -0.000162   0.000050  -0.000034  -0.000000
    17  H   -0.008524   0.005320   0.000018   0.000154   0.002198  -0.000019
    18  H    0.005901  -0.001186   0.000040   0.001780   0.000359   0.000001
    19  H    0.667439  -0.041104  -0.008046  -0.000031   0.004900  -0.000001
    20  H   -0.041104   0.645462  -0.000411  -0.000284  -0.000082   0.000005
    21  H   -0.008046  -0.000411   0.693272   0.006705   0.000157   0.000143
    22  H   -0.000031  -0.000284   0.006705   0.657547  -0.037871   0.003995
    23  H    0.004900  -0.000082   0.000157  -0.037871   0.672081  -0.015006
    24  H   -0.000001   0.000005   0.000143   0.003995  -0.015006   0.540642
    25  H   -0.000000   0.000001  -0.000009   0.002150  -0.000019   0.006780
    26  H    0.000000  -0.000000   0.000040   0.007332   0.000698  -0.010709
    27  H    0.000000   0.000000   0.000001   0.000005   0.000006  -0.000262
    28  H    0.000000   0.000000  -0.000001   0.000006   0.000006   0.003543
    29  H    0.000000  -0.000000   0.000001   0.000001   0.000000  -0.000046
    30  H    0.000000  -0.000000   0.000301   0.000072   0.000045  -0.000459
    31  H    0.000000  -0.000000  -0.000000  -0.000098   0.000001  -0.000003
    32  H   -0.000000   0.000000  -0.000000   0.000000   0.000000   0.000001
    33  H    0.000000  -0.000000   0.000002  -0.000000   0.000000  -0.000000
    34  H    0.000000  -0.000001   0.001500   0.000009   0.000006  -0.000044
    35  H   -0.000000  -0.000000  -0.000023  -0.000000   0.000000  -0.000000
    36  H   -0.000000   0.000000   0.000006   0.000000  -0.000000  -0.000000
    37  H    0.000000  -0.000000   0.000038  -0.000005   0.000000   0.000000
    38  H   -0.000000   0.000001  -0.000020  -0.000000  -0.000000  -0.000000
    39  H    0.000008  -0.000183   0.000547   0.000004   0.000006  -0.000000
    40  H   -0.000066   0.000121   0.008014   0.000011  -0.000030   0.000004
    41  H   -0.000174  -0.000005   0.005468   0.005751   0.000300  -0.000067
    42  H   -0.000048   0.003850   0.000324   0.000008   0.000004  -0.000000
    43  H    0.000045  -0.000177  -0.000167   0.000001  -0.000018   0.000000
    44  H   -0.000006  -0.000103  -0.000132  -0.000038   0.000004  -0.000000
              25         26         27         28         29         30
     1  C    0.000003  -0.000004  -0.000000  -0.000000  -0.000000   0.000000
     2  C   -0.000059   0.000028  -0.000000  -0.000000   0.000000   0.000005
     3  C    0.000134  -0.000257   0.000003  -0.000006  -0.000002  -0.000084
     4  C   -0.004952  -0.000536  -0.000215  -0.000052  -0.000012  -0.000505
     5  N   -0.027560  -0.038466   0.003269  -0.004800   0.000415   0.020273
     6  C    0.368713   0.359969  -0.028566  -0.030806   0.004245  -0.012401
     7  C   -0.028791  -0.044779   0.353904   0.356660  -0.033215  -0.034319
     8  C   -0.007039   0.005078  -0.031384  -0.027788   0.357620   0.371150
     9  C    0.000358   0.000241  -0.004948   0.003780  -0.026835  -0.036232
    10  C   -0.000379   0.000006   0.000014  -0.000188   0.001096  -0.011532
    11  C    0.000018  -0.000004   0.000001   0.000005   0.000336   0.001555
    12  C   -0.000133  -0.000002  -0.000002   0.000002  -0.000087   0.000379
    13  C    0.000108  -0.000002  -0.000000   0.000000  -0.000001   0.000048
    14  C   -0.000897   0.000027   0.000002  -0.000002   0.000001   0.000008
    15  C   -0.000039  -0.000001   0.000000   0.000000   0.000000  -0.000000
    16  H   -0.000000   0.000000   0.000000  -0.000000   0.000000   0.000000
    17  H   -0.000003   0.000008   0.000000   0.000000  -0.000000   0.000000
    18  H   -0.000002   0.000000   0.000000  -0.000000   0.000000   0.000000
    19  H   -0.000000   0.000000   0.000000   0.000000   0.000000   0.000000
[...]
 00008265,0.00845945,-0.00823492,0.00585749,0.07612769,-0.07644545,0.10
 679663,-0.00006856,0.00000128,-0.00026988,0.00050423,-0.00031060,0.000
 97069,0.00014853,0.00112825,0.00297082,0.00085152,-0.00001549,0.000997
 07,-0.00023820,0.00004817,0.00017535,0.00043902,-0.00191451,0.00021768
 ,0.00017066,0.00044660,-0.00020261,-0.00022142,0.00102611,0.00037644,-
 0.00045991,0.00034121,0.00072950,-0.00055129,-0.00031654,0.00053693,-0
 .00000938,0.00009179,-0.00003108,0.00143643,0.00032348,-0.00083835,-0.
 01067716,-0.02719732,-0.01779853,-0.05401218,-0.03675263,-0.03302311,0
 .00235296,0.02070917,0.01422664,0.00003389,-0.00002162,0.00001792,0.00
 001909,-0.00003319,0.00004769,0.00010499,-0.00002172,-0.00002304,0.000
 11792,0.00017680,0.00024287,-0.00005244,0.00009838,0.00005611,-0.00000
 316,-0.00005782,-0.00002169,-0.00011540,0.00025097,-0.00002584,-0.0000
 8353,0.00004943,-0.00012113,-0.00013643,0.00001254,-0.00008494,-0.0008
 1048,-0.00148190,-0.00046476,-0.00014763,-0.00003369,0.00000195,-0.000
 07441,-0.00007232,-0.00000532,-0.00015513,-0.00002618,0.00009144,-0.00
 001813,-0.00029649,-0.00012922,-0.00044353,0.00053536,-0.00026810,0.00
 039994,0.00007584,0.00051338,0.00026282,-0.00001213,-0.00021467,0.0000
 5642,0.00014243,0.00000158,-0.00002548,-0.00005926,0.00001097,0.000073
 87,0.00002503,-0.00001649,-0.00001510,0.00002204,0.00002884,0.00017847
 ,0.00000852,0.00045058,0.00031496,0.00022689,-0.00033148,-0.00598990,-
 0.00189065,0.00086174,0.00046329,0.00044199,-0.00020425,0.06745359,0.0
 0025296,-0.00001196,0.00022392,-0.00002627,-0.00106536,0.00229879,0.00
 135742,0.00907047,0.00909738,-0.00073378,0.00054876,0.00058153,-0.0003
 1173,0.00049423,0.00024106,-0.00184543,-0.00328967,-0.00047784,0.00009
 703,-0.00020356,-0.00009247,0.00112008,-0.00073160,-0.00044944,0.00000
 968,-0.00047011,-0.00155197,-0.00042366,-0.00008597,0.00053226,0.00000
 917,0.00003794,-0.00006562,0.00002018,0.00066027,-0.00047698,-0.005001
 34,-0.00950007,-0.00591067,-0.03708583,-0.19395749,-0.12693620,-0.0018
 2388,-0.02236291,-0.01478307,-0.00009977,0.00005759,-0.00003076,-0.000
 02088,0.00002510,-0.00005168,-0.00019501,0.00003281,-0.00002622,-0.000
 00215,0.00046069,0.00058207,0.00011935,0.00006879,0.00005325,0.0001054
 7,0.00009940,-0.00055482,0.00022633,0.00016370,-0.00003518,0.00014474,
 0.00003315,-0.00005662,0.00018829,0.00007164,-0.00004896,-0.00129253,-
 0.00217282,0.00001802,0.00001343,-0.00039683,0.00011102,-0.00001701,0.
 00005843,0.00003837,-0.00003458,0.00001742,0.00004711,-0.00002425,-0.0
 0011529,-0.00010141,0.00059393,-0.00048443,-0.00034244,0.00096706,-0.0
 0011149,-0.00046871,0.00044074,-0.00032469,-0.00005831,-0.00000979,0.0
 0006922,0.00004105,0.00001372,-0.00003397,0.00002460,0.00003900,0.0000
 1279,0.00000601,0.00000498,-0.00000321,0.00001475,0.00008562,-0.000232
 95,0.00038945,0.00032438,0.00012490,-0.00000361,-0.00205962,0.00035817
 ,0.00040801,-0.00023273,0.00018784,0.00005691,0.04208840,0.22381031,-0
 .00046096,-0.00004775,-0.00010762,-0.00086664,0.00442657,-0.00373429,-
 0.00298204,-0.02110388,-0.02505415,0.00011514,-0.00165167,-0.00026893,
 -0.00004646,0.00080570,0.00027299,-0.00069594,-0.00005155,-0.00018105,
 -0.00010051,0.00015072,0.00014143,0.00042643,-0.00039412,0.00040750,0.
 00135309,-0.00149616,-0.00119390,-0.00006274,0.00005473,0.00018515,0.0
 0002595,-0.00008674,0.00002974,0.00015571,0.00071980,0.00066386,0.0021
 5236,0.00472037,0.00326523,-0.03293928,-0.12674482,-0.15191087,0.00080
 984,0.00556827,0.00405666,0.00022994,-0.00007847,-0.00002161,0.0001469
 1,0.00001270,-0.00005431,0.00019306,0.00000261,0.00005520,0.00027809,-
 0.00111816,-0.00160399,-0.00006045,0.00011932,0.00047003,-0.00032001,0
 .00018978,0.00028074,0.00056798,0.00035265,0.00012123,-0.00013515,-0.0
 0043759,0.00036742,-0.00033494,0.00001300,0.00004529,-0.00002522,-0.00
 106053,0.00098046,0.00008185,-0.00058787,0.00019135,-0.00001870,-0.000
 07201,-0.00006455,0.00011821,-0.00002100,-0.00004100,0.00003062,-0.000
 01322,-0.00034951,-0.00028152,0.00002353,-0.00022734,0.00060201,-0.000
 78575,-0.00167786,0.00008144,-0.00012135,-0.00013790,-0.00003919,0.000
 11930,0.00006500,-0.00003728,-0.00001064,-0.00004357,-0.00002394,0.000
 02528,-0.00002487,-0.00002445,0.00002327,0.00001157,-0.00018747,0.0000
 4692,0.00023710,-0.00009804,0.00001609,0.00008456,0.00166323,0.0012631
 6,0.00059695,-0.00036396,-0.00024810,-0.00002105,0.03118475,0.13615497
 ,0.17253347,0.00031108,-0.00038040,0.00023403,0.00061017,0.00026147,-0
 .00035039,0.00063009,-0.00086362,0.00018202,-0.00054527,-0.00002171,0.
 00002127,0.00011196,-0.00005800,0.00000290,0.00001263,0.00003888,0.000
 01363,-0.00000589,-0.00007464,0.00000821,-0.00008757,-0.00001981,-0.00
 006606,0.00004324,0.00001942,-0.00002013,0.00001052,0.00006148,-0.0000
 6285,-0.00000739,-0.00001904,0.00000484,-0.00012915,-0.00015234,0.0001
 0278,0.00231990,0.00133275,0.00087491,0.00248523,0.01839086,0.01395810
 ,-0.05344100,-0.03379804,-0.02346993,-0.00001642,0.00008048,-0.0001604
 4,-0.00010478,0.00014820,-0.00016150,-0.00070869,-0.00016720,0.0005137
 4,-0.00020264,-0.00006946,0.00007241,-0.00020030,-0.00013276,-0.000349
 17,0.00000569,-0.00010161,0.00017598,0.00026225,-0.00001250,0.00001953
 ,0.00011795,-0.00005656,0.00003157,0.00006562,-0.00000840,-0.00001066,
 -0.00008553,0.00005851,-0.00001609,-0.00000335,0.00005523,-0.00003270,
 0.00000756,0.00001242,0.00000632,0.00001100,0.00000264,-0.00000459,0.0
 0000553,0.00005315,0.00005176,0.00005146,0.00001302,0.00009633,-0.0000
 4696,-0.00000759,-0.00005710,-0.00004890,0.00000161,0.00002498,-0.0000
 0123,-0.00002920,-0.00001199,-0.00000054,0.00001623,-0.00000125,-0.000
 01120,-0.00000217,0.00000260,0.00000472,-0.00000473,-0.00001264,0.0000
 3599,0.00004900,-0.00007846,-0.00005345,-0.00001145,0.00003780,-0.0001
 9027,-0.00079481,-0.00029921,0.00024165,-0.00021598,-0.00010685,-0.002
 86513,0.00364769,-0.00100938,0.05624521,0.00048769,0.00013287,0.000410
 17,-0.00022565,-0.00058186,0.00018453,-0.00028620,0.00051708,-0.001436
 36,-0.00007467,-0.00001469,-0.00010403,0.00002157,0.00006455,0.0001668
 3,-0.00011138,0.00020116,-0.00012930,0.00000923,0.00007216,0.00006306,
 0.00006693,0.00005505,0.00004350,-0.00011605,-0.00001962,-0.00003027,-
 0.00011253,-0.00009375,0.00010604,0.00000685,0.00002866,-0.00000780,-0
 .00003049,0.00009487,0.00012149,-0.00172861,0.00073511,0.00023999,-0.0
 0333864,-0.02125737,-0.01408165,-0.03400054,-0.21437705,-0.11872987,-0
 .00011202,0.00011570,-0.00019975,0.00001449,0.00018283,-0.00038841,-0.
 00082337,0.00028437,-0.00008981,-0.00000533,0.00040165,-0.00001732,0.0
 0051810,0.00036015,0.00026822,0.00000842,0.00015563,0.00012084,0.00016
 837,0.00006476,-0.00005089,-0.00001310,-0.00015028,0.00015254,-0.00002
 975,0.00000645,0.00001286,0.00012107,-0.00001727,0.00010832,0.00001059
 ,-0.00009864,0.00005982,-0.00001302,-0.00000749,-0.00001114,0.00002632
 ,-0.00003572,-0.00000227,0.00001769,-0.00006693,-0.00005745,-0.0000775
 7,0.00002683,-0.00009400,0.00011643,-0.00003032,0.00009430,0.00009012,
 -0.00002923,-0.00004168,0.00001155,0.00002858,-0.00000461,-0.00001062,
 -0.00001068,-0.00000358,0.00002391,0.00001326,0.00000197,-0.00000432,-
 0.00000137,0.00000057,-0.00000046,-0.00006309,-0.00001846,0.00006036,0
 .00002542,-0.00006994,0.00096646,0.00082221,0.00005070,-0.00004980,0.0
 0030977,0.00022749,0.00401383,-0.00272892,0.00182353,0.03408493,0.2356
 1796,0.00049478,0.00036536,-0.00085859,0.00008558,0.00019638,-0.000309
 65,0.00055550,0.00008901,0.00046513,0.00018586,0.00013269,-0.00000747,
 -0.00001354,-0.00004162,-0.00004083,-0.00001713,0.00002709,-0.00001246
 ,-0.00000571,-0.00000153,0.00000644,0.00001375,0.00000794,-0.00004333,
 -0.00010515,0.00003850,0.00000539,0.00006827,0.00000873,0.00009438,0.0
 0000453,-0.00002885,-0.00002622,-0.00011553,0.00024641,-0.00048387,0.0
 0007062,-0.00034191,0.00009122,0.00164845,0.00554841,0.00404473,-0.024
 28825,-0.12018573,-0.13079534,0.00000283,0.00004472,-0.00010913,-0.000
 03948,-0.00001282,-0.00001055,0.00051811,0.00046382,-0.00101333,-0.000
 01827,-0.00005672,0.00013795,-0.00028428,0.00009079,-0.00047931,0.0000
 5622,-0.00017208,0.00011548,-0.00010916,-0.00001343,-0.00000205,-0.000
 04644,0.00002588,0.00001364,-0.00000075,0.00000451,0.00000242,0.000008
 52,-0.00002208,-0.00002490,-0.00000269,-0.00000237,-0.00000243,0.00000
 226,0.00000685,-0.00000082,0.00000421,-0.00000717,0.00000449,0.0000074
 9,-0.00000762,0.00002520,0.00000219,0.00000972,0.00003594,0.00002866,0
 .00004216,0.00002309,0.00001423,-0.00001041,0.00000009,-0.00001511,0.0
 0001435,0.00001352,0.00000613,-0.00000545,0.00000501,0.00000795,0.0000
 0505,-0.00000024,0.00001554,-0.00001151,0.00000574,0.00007664,-0.00019
 174,0.00019888,0.00020135,-0.00005935,0.00003925,0.00046540,-0.0000108
 6,0.00014035,0.00018174,0.00018635,0.00007054,-0.00093953,0.00134590,0
 .00076695,0.02616966,0.13200181,0.14263821,-0.00033434,0.00091804,0.00
 010183,-0.00036542,0.00008604,-0.00019200,0.00018448,-0.00083834,0.000
 62034,-0.00078093,0.00024993,-0.00036870,0.00039599,-0.00024512,-0.000
 05456,-0.00006840,0.00020722,0.00010889,-0.00005734,-0.00007086,0.0000
 5058,0.00001975,-0.00005824,-0.00005430,-0.00007751,-0.00001483,-0.000
 00217,-0.00001000,-0.00019906,-0.00005597,0.00001389,0.00012583,0.0000
 1122,0.00004759,0.00007829,-0.00068252,-0.00151344,0.00448883,-0.00151
 598,-0.01955979,-0.00814426,0.00369232,-0.27190200,-0.08009744,0.03861
 985,0.00022550,-0.00017257,0.00033136,0.00005225,-0.00003707,-0.000034
 26,0.00044982,-0.00062125,0.00045963,0.00015527,-0.00004825,-0.0001252
 6,0.00011944,0.00016826,0.00012129,0.00008084,-0.00005513,0.00005089,0
 .00087475,0.00020500,0.00007966,0.00024727,0.00004745,0.00002216,0.000
 08375,-0.00002513,-0.00002614,-0.00007442,0.00004459,0.00005411,0.0000
 1153,0.00000992,-0.00005931,0.00003221,0.00000832,-0.00001544,0.000050
 99,0.00001519,-0.00002287,0.00002233,0.00002418,0.00000296,-0.00002320
 ,-0.00006648,0.00007108,-0.00000832,-0.00002427,-0.00001887,0.00000754
 ,0.00005749,0.00002238,-0.00001681,0.00007961,0.00007645,0.00003531,-0
 .00006746,0.00002560,0.00002339,-0.00000578,-0.00000344,-0.00004731,0.
 00002658,0.00005255,0.00013384,-0.00003356,0.00001596,-0.00002954,-0.0
 0002145,0.00012976,0.00046247,0.00014786,-0.00000128,-0.00153191,-0.00
 024116,0.00048558,0.00080985,0.00000435,0.00034402,-0.00436745,-0.0013
 1429,0.00112926,0.29795303,-0.00029553,0.00055946,0.00002161,-0.000347
 20,-0.00014841,0.00016782,-0.00065202,0.00096563,0.00008755,0.00065706
 ,-0.00038164,0.00016996,-0.00014092,0.00013211,0.00003611,0.00005432,-
 0.00015573,-0.00001575,0.00002112,0.00002724,-0.00005267,-0.00000666,0
 .00002415,0.00002668,0.00002686,0.00000449,0.00000630,-0.00002784,0.00
 006209,-0.00001414,0.00000983,-0.00003881,0.00004080,0.00013941,0.0000
 0721,0.00049035,0.00245273,-0.00403652,0.00142141,0.02291844,0.0092546
 6,-0.00519988,-0.08009149,-0.07549115,0.01323484,0.00008128,-0.0001464
 1,0.00023026,0.00000317,-0.00006317,0.00009946,0.00009688,-0.00024411,
 -0.00009319,0.00015056,0.00006500,-0.00002999,0.00014258,0.00005276,-0
 .00005196,-0.00006424,0.00009356,-0.00033972,-0.00038587,-0.00043051,0
 .00023090,-0.00019860,0.00014461,-0.00010865,-0.00003356,-0.00000008,0
 .00000986,0.00003253,-0.00001211,-0.00006969,0.00000067,0.00002427,0.0
 0001716,-0.00001244,-0.00000174,0.00001505,-0.00002873,0.00000527,0.00
 001019,-0.00001501,-0.00000165,0.00000652,0.00002062,0.00004044,-0.000
 02149,-0.00000735,0.00000694,-0.00000498,-0.00000665,-0.00000376,0.000
 00020,0.00000151,-0.00002484,-0.00002198,-0.00001938,0.00004029,-0.000
 02701,-0.00000705,-0.00000166,0.00000120,-0.00000016,0.00000572,-0.000
 03256,-0.00020407,0.00001512,-0.00020503,0.00001013,0.00002794,-0.0001
 2410,0.00014505,0.00026026,0.00025116,0.00154659,0.00051146,-0.0001075
 5,-0.00083799,0.00105537,-0.00045168,-0.02358605,-0.00844340,0.0057533
 8,0.08614573,0.08003158,-0.00013523,0.00001416,-0.00051804,-0.00048723
 ,-0.00021259,-0.00009763,-0.00028287,-0.00045689,0.00046264,-0.0002003
 9,0.00029449,0.00004517,0.00006247,-0.00011111,-0.00009960,0.00008594,
 -0.00012219,0.00022944,-0.00000082,0.00002286,-0.00003867,-0.00000754,
 0.00000885,-0.00001259,0.00005164,-0.00001808,-0.00001457,0.00016806,0
 .00004946,0.00025954,0.00000075,-0.00010897,-0.00010235,-0.00021088,-0
 .00003371,-0.00017865,-0.00096329,0.00121316,-0.00024839,-0.00684044,-
 0.00308001,0.00009287,0.04012261,0.01365113,-0.05261254,0.00009439,-0.
 00003343,0.00012239,0.00005922,-0.00000695,-0.00001429,0.00004523,-0.0
 0058444,-0.00124649,0.00017255,0.00005857,-0.00003449,0.00014121,0.000
 16948,-0.00002876,0.00011595,-0.00009165,0.00005474,0.00014132,0.00035
 485,0.00001624,0.00001488,-0.00004799,-0.00000960,0.00000649,-0.000015
 76,-0.00003724,-0.00000441,0.00003995,-0.00003503,-0.00002944,-0.00000
 196,-0.00003542,0.00000891,-0.00000915,-0.00001821,-0.00002679,0.00001
 157,0.00001150,-0.00000483,0.00000538,0.00000125,-0.00000556,-0.000012
 68,0.00000927,0.00000146,0.00001839,-0.00001176,-0.00001141,-0.0000227
 0,-0.00000474,-0.00001189,0.00001662,0.00001127,0.00000691,-0.00001046
 ,0.00001502,-0.00001713,0.00000341,0.00000161,0.00005375,-0.00002971,0
 .00000841,-0.00000426,-0.00002241,0.00055430,0.00004983,-0.00002673,0.
 00008328,0.00024256,0.00026989,0.00000146,-0.00048861,0.00009907,0.000
 28543,0.00046655,0.00005694,0.00008919,-0.01803186,-0.00587428,0.00262
 162,-0.04387784,-0.01614878,0.05521478,-0.00032931,0.00051454,0.000130
 10,-0.00028537,0.00016226,0.00036177,-0.00342083,0.00269005,0.00046083
 ,-0.00047211,-0.00007967,-0.00031429,0.00013881,-0.00001314,0.00011816
 ,0.00001541,-0.00003379,-0.00005885,0.00002565,0.00000142,0.00001597,-
 0.00002478,-0.00000782,-0.00005542,0.00007380,0.00002235,-0.00000497,0
 .00017041,0.00018633,0.00028620,-0.00003131,-0.00015516,-0.00011319,-0
 .00138494,0.00065348,-0.00039899,0.00078129,-0.00047845,-0.00039813,0.
 00180130,0.00559892,-0.02236108,-0.04692317,-0.00566926,0.01646079,0.0
 0014984,-0.00014380,0.00022468,0.00001360,-0.00001216,-0.00002009,0.00
 025804,-0.00041988,0.00018269,0.00008838,-0.00000741,-0.00004603,0.000
 12604,-0.00002831,0.00006987,0.00000807,0.00073069,-0.00125778,0.00030
 829,0.00021178,0.00008491,0.00015825,0.00011095,0.00000156,0.00003523,
 0.00000538,-0.00000241,-0.00000967,0.00000126,0.00000265,-0.00000762,0
 .00001427,0.00001920,-0.00000404,0.00000217,0.00000202,-0.00002060,-0.
 00001418,0.00000940,-0.00000663,0.00000189,0.00001618,0.00003803,-0.00
 000239,-0.00001978,-0.00001372,0.00005803,0.00000815,-0.00002181,-0.00
 005756,-0.00000343,-0.00001139,-0.00000684,-0.00001152,0.00001145,0.00
 000573,0.00001621,-0.00003203,0.00000539,0.00000298,0.00007664,-0.0000
 5104,0.00000176,-0.00106274,0.00024843,0.00143746,0.00025459,-0.000128
 51,0.00012486,-0.00009447,-0.00010809,-0.00002756,0.00026029,-0.000061
 98,0.00011943,0.00098153,-0.00063374,0.00055360,-0.00046634,0.00163350
 ,-0.00602471,-0.00172493,-0.00768827,0.02953004,0.05057287,0.00024526,
 0.00019197,-0.00004895,-0.00001694,-0.00032011,-0.00038725,0.00441531,
 -0.00271744,-0.00120666,0.00036292,0.00065092,0.00018013,0.00005689,-0
 .00014696,-0.00025615,0.00002837,-0.00002563,0.00028716,-0.00003703,-0
 .00000651,-0.00002671,-0.00003970,0.00001397,0.00010143,0.00022358,-0.
 00011734,0.00003181,-0.00013979,-0.00002826,-0.00016782,-0.00000060,0.
 00006754,0.00009538,0.00042196,-0.00010694,0.00044536,-0.00065940,0.00
 052389,0.00000334,-0.00232349,-0.00806770,0.02387519,-0.00542500,-0.06
 603841,0.06842169,-0.00005202,0.00006982,-0.00005669,-0.00000884,0.000
 07978,-0.00018283,-0.00037262,0.00007609,-0.00002256,-0.00004166,0.000
 19945,0.00004754,0.00021809,0.00018496,0.00015973,0.00004490,-0.000722
 81,0.00156012,-0.00002070,0.00010278,-0.00010373,-0.00011376,-0.000113
 23,0.00004978,0.00000010,-0.00002469,-0.00004217,-0.00002350,-0.000000
 80,0.00003064,-0.00002422,-0.00002488,-0.00007182,0.00001071,-0.000026
 71,-0.00003450,0.00000986,0.00002760,-0.00000791,0.00000135,0.00002576
 ,-0.00005100,-0.00005366,0.00000658,0.00000365,-0.00009875,-0.00006579
 ,-0.00003699,-0.00003816,0.00004753,-0.00001172,0.00001743,0.00000424,
 -0.00001743,-0.00001778,0.00000664,-0.00002200,-0.00000448,-0.00000285
 ,-0.00000855,-0.00004811,0.00002991,-0.00000498,0.00022256,0.00048295,
 -0.00068194,-0.00025642,0.00010166,-0.00018079,0.00016108,0.00004974,-
 0.00017047,-0.00015731,-0.00007913,-0.00003252,-0.00093245,0.00076432,
 -0.00004922,0.00226009,0.00771058,-0.02547255,-0.00073672,-0.00379190,
 0.01072442,0.00294264,0.07100943,0.00036029,-0.00029129,0.00021892,0.0
 0017689,-0.00007361,0.00045761,-0.00098236,0.00052792,0.00139342,-0.00
 015945,-0.00035546,-0.00019063,-0.00003684,0.00021660,0.00025535,-0.00
 001967,-0.00002588,-0.00023334,0.00003019,-0.00000451,0.00001972,0.000
 00458,-0.00002166,-0.00008725,-0.00000902,0.00005524,0.00000666,0.0003
 3051,0.00008748,0.00037350,0.00001610,-0.00016193,-0.00016990,0.000567
 00,-0.00053606,-0.00063125,0.00051607,0.00049030,-0.00058508,-0.000186
 40,0.00153406,-0.00571814,0.01555772,0.06869527,-0.28649772,-0.0000241
 9,0.00007463,-0.00015928,-0.00001888,0.00009069,-0.00016110,-0.0003526
 3,0.00028870,-0.00034885,-0.00005356,0.00007611,-0.00004460,0.00012111
 ,-0.00001987,0.00012651,0.00013610,0.00032086,-0.00044383,0.00001460,0
 .00001421,0.00001407,0.00006864,0.00005475,0.00002661,0.00001965,0.000
 02356,0.00003401,-0.00000346,0.00001183,-0.00002591,0.00002060,0.00003
 481,0.00005497,-0.00000917,0.00002184,0.00003504,-0.00001617,-0.000016
 94,0.00000654,-0.00001125,0.00000275,0.00004046,0.00005084,-0.00000200
 ,0.00000778,-0.00000929,0.00002952,0.00000227,-0.00002976,-0.00004077,
 0.00001685,-0.00002295,0.00001015,0.00002137,0.00001041,-0.00000706,0.
 00003400,-0.00002278,0.00000002,0.00000340,0.00008755,-0.00004645,0.00
 001256,0.00127968,-0.00038070,0.00055283,-0.00000735,0.00000206,0.0001
 2933,-0.00012060,-0.00006471,-0.00006912,-0.00012507,-0.00012890,0.000
 04496,-0.00016347,0.00019960,0.00079931,0.00170787,0.00518430,-0.01734
 515,0.00043116,0.00079202,-0.00479237,-0.01912323,-0.07666147,0.312815
 48\\-0.00000022,0.00000085,0.00000056,0.00000175,-0.00000231,-0.000000
 89,-0.00000095,0.00000269,-0.00000056,0.00000038,-0.00000122,0.0000051
 1,-0.00000184,-0.00000229,-0.00000597,-0.00000200,0.00000978,-0.000009
 58,-0.00000953,0.00000356,0.00000222,-0.00000596,-0.00000437,-0.000000
 27,0.00000582,-0.00000081,-0.00000296,-0.00000543,-0.00000156,0.000005
 84,0.00000503,-0.00000214,-0.00000031,0.00000578,-0.00000029,-0.000000
 06,-0.00000285,0.00000406,-0.00001082,0.00000900,-0.00000019,0.0000002
 1,-0.00000165,0.00000537,-0.00000126,0.00000088,-0.00000085,-0.0000007
 0,-0.00000099,-0.00000004,-0.00000094,0.00000047,0.00000133,-0.0000010
 3,-0.00000062,-0.00000076,-0.00000020,0.00000087,-0.00000149,0.0000005
 4,-0.00000125,-0.00000250,0.00000337,0.00000279,-0.00000294,-0.0000016
 6,-0.00000582,-0.00000116,0.00000316,0.00000048,-0.00000014,0.00000716
 ,-0.00000348,0.,-0.00000395,-0.00000239,0.00000011,-0.00000275,-0.0000
 0073,0.00000104,-0.00000074,-0.00000048,-0.00000057,-0.00000129,-0.000
 00075,0.00000002,-0.00000074,-0.00000018,-0.00000380,-0.00000131,-0.00
 000025,-0.00000230,-0.00000121,-0.00000079,-0.00000043,-0.00000099,0.0
 0000139,-0.00000141,0.00000160,0.00000007,-0.00000099,0.00000060,0.000
 00132,-0.00000177,0.00000167,0.00000013,-0.00000094,0.00000182,0.00000
 409,0.00000105,0.00000336,0.00000231,0.00000136,0.00000318,0.00000242,
 -0.00000132,0.00000168,-0.00000169,0.00000209,0.00000396,0.00000108,0.
 00000411,0.00000144,0.00000270,-0.00000055,0.00000080,0.00000118,0.000
 00071,0.00000045,-0.00000010,0.00000098,0.00000147\\\@


 YOU SHOULDN'T LET PEOPLE DRIVE YOU CRAZY
 WHEN YOU KNOW IT'S WITHIN WALKING DISTANCE.
 Job cpu time:       0 days 19 hours 11 minutes  3.4 seconds.
 Elapsed time:       0 days  4 hours 47 minutes 47.4 seconds.
 File lengths (MBytes):  RWF=    955 Int=      0 D2E=      0 Chk=     27 Scr=      1
 Normal termination of Gaussian 16 at Sun May 28 12:16:54 2023.
### All Done ###
