### Starting Gaussian ###
 Entering Gaussian System, Link 0=g16
 Initial command:
 /cluster/software/gaussian/gaussian-16-A.03/avx2/g16/l1.exe "/local/scratch/cz9n3/Gau-29394.inp" -scrdir="/local/scratch/cz9n3/"
 Entering Link 1 = /cluster/software/gaussian/gaussian-16-A.03/avx2/g16/l1.exe PID=     29395.
  
 Copyright (c) 1988,1990,1992,1993,1995,1998,2003,2009,2016,
            Gaussian, Inc.  All Rights Reserved.
  
 This is part of the Gaussian(R) 16 program.  It is based on
 the Gaussian(R) 09 system (copyright 2009, Gaussian, Inc.),
 the Gaussian(R) 03 system (copyright 2003, Gaussian, Inc.),
 the Gaussian(R) 98 system (copyright 1998, Gaussian, Inc.),
 the Gaussian(R) 94 system (copyright 1995, Gaussian, Inc.),
 the Gaussian 92(TM) system (copyright 1992, Gaussian, Inc.),
 the Gaussian 90(TM) system (copyright 1990, Gaussian, Inc.),
 the Gaussian 88(TM) system (copyright 1988, Gaussian, Inc.),
 the Gaussian 86(TM) system (copyright 1986, Carnegie Mellon
 University), and the Gaussian 82(TM) system (copyright 1983,
 Carnegie Mellon University). Gaussian is a federally registered
 trademark of Gaussian, Inc.
  
 This software contains proprietary and confidential information,
 including trade secrets, belonging to Gaussian, Inc.
  
 This software is provided under written license and may be
 used, copied, transmitted, or stored only in accord with that
 written license.
  
 The following legend is applicable only to US Government
 contracts under FAR:
  
                    RESTRICTED RIGHTS LEGEND
  
 Use, reproduction and disclosure by the US Government is
 subject to restrictions as set forth in subparagraphs (a)
 and (c) of the Commercial Computer Software - Restricted
 Rights clause in FAR 52.227-19.
  
 Gaussian, Inc.
 340 Quinnipiac St., Bldg. 40, Wallingford CT 06492
  
  
 ---------------------------------------------------------------
 Warning -- This program may not be used in any manner that
 competes with the business of Gaussian, Inc. or will provide
 assistance to any competitor of Gaussian, Inc.  The licensee
 of this program is prohibited from giving any competitor of
 Gaussian, Inc. access to this program.  By using this program,
 the user acknowledges that Gaussian, Inc. is engaged in the
 business of creating and licensing software in the field of
 computational chemistry and represents and warrants to the
 licensee that it is not a competitor of Gaussian, Inc. and that
 it will not use this program in any manner prohibited above.
 ---------------------------------------------------------------
  

 Cite this work as:
 Gaussian 16, Revision A.03,
 M. J. Frisch, G. W. Trucks, H. B. Schlegel, G. E. Scuseria, 
 M. A. Robb, J. R. Cheeseman, G. Scalmani, V. Barone, 
 G. A. Petersson, H. Nakatsuji, X. Li, M. Caricato, A. V. Marenich, 
 J. Bloino, B. G. Janesko, R. Gomperts, B. Mennucci, H. P. Hratchian, 
 J. V. Ortiz, A. F. Izmaylov, J. L. Sonnenberg, D. Williams-Young, 
 F. Ding, F. Lipparini, F. Egidi, J. Goings, B. Peng, A. Petrone, 
 T. Henderson, D. Ranasinghe, V. G. Zakrzewski, J. Gao, N. Rega, 
 G. Zheng, W. Liang, M. Hada, M. Ehara, K. Toyota, R. Fukuda, 
 J. Hasegawa, M. Ishida, T. Nakajima, Y. Honda, O. Kitao, H. Nakai, 
 T. Vreven, K. Throssell, J. A. Montgomery, Jr., J. E. Peralta, 
 F. Ogliaro, M. J. Bearpark, J. J. Heyd, E. N. Brothers, K. N. Kudin, 
 V. N. Staroverov, T. A. Keith, R. Kobayashi, J. Normand, 
 K. Raghavachari, A. P. Rendell, J. C. Burant, S. S. Iyengar, 
 J. Tomasi, M. Cossi, J. M. Millam, M. Klene, C. Adamo, R. Cammi, 
 J. W. Ochterski, R. L. Martin, K. Morokuma, O. Farkas, 
 J. B. Foresman, and D. J. Fox, Gaussian, Inc., Wallingford CT, 2016.
 
 ******************************************
 Gaussian 16:  ES64L-G16RevA.03 25-Dec-2016
                26-May-2023 
 ******************************************
 %chk=CCC1CqNrC1CNOC1CCCCCN1.chk
 %NProcShared=20
 Will use up to   20 processors via shared memory.
 ----------------------------------------------------------------
 # opt freq b3lyp/6-31+g(2df,p) Geom=AllCheckpoint TD(NStates=10)
 ----------------------------------------------------------------
 1/18=20,19=15,26=3,29=7,38=1/1,3;
 2/9=110,12=2,40=1/2;
 3/5=1,6=6,7=114,11=9,14=-4,25=1,30=1,71=1,74=-5/1,2,3,8;
 4//1;
 5/5=2,38=5/2;
 8/6=1,10=2,108=10/1;
 9/15=2,41=10,42=1,70=2/14;
 10/5=4/2;
 6/7=2,8=2,9=2,10=2/1;
 7/12=6,13=5/1,2,3,16;
 1/18=20,19=15,26=3/3(2);
 2/9=110/2;
 99//99;
 2/9=110/2;
 3/5=1,6=6,7=114,11=9,14=-2,25=1,30=1,71=1,74=-5/1,2,3,8;
 4/5=5,16=3,69=1/1;
 5/5=2,38=5/2;
 8/6=1,10=2,108=10/1;
 9/15=2,41=10,42=1,49=4,70=2/14;
 10/5=4/2;
 7/12=6,13=5/1,2,3,16;
 1/18=20,19=15,26=3/3(-8);
 2/9=110/2;
 6/7=2,8=2,9=2,10=2/1;
 99//99;
 Structure from the checkpoint file:  "CCC1CqNrC1CNOC1CCCCCN1.chk"
 -------------------
 Title Card Required
 -------------------
 Charge =  0 Multiplicity = 1
 Redundant internal coordinates found in file.  (old form).
 C,0,2.7382738856,0.6934003832,-0.9316009984
 C,0,2.7330812796,-0.3533530942,0.1889400454
 C,0,3.0674444902,-1.746025363,-0.3013657119
 C,0,2.5495886401,-3.003044824,0.3839432687
 N,0,1.6770103691,-3.023049656,1.5340587986
 C,0,2.0065582704,-2.6159571773,-0.9608202196
 C,0,2.3155004157,-3.423937459,-2.1974709071
 N,0,2.1999421582,-2.5590773893,-3.3794230295
 O,0,2.6911129063,-3.2851549967,-4.5185340981
 C,0,1.6208145792,-3.6123385543,-5.3969936708
 C,0,2.2679961212,-4.4630072702,-6.4905015027
 C,0,1.2926269144,-5.0609242002,-7.5134630766
 C,0,0.3017873926,-4.0789102953,-8.1631486045
 C,0,-0.7907524896,-3.5983828075,-7.1925008151
 C,0,-0.386986365,-2.4438462569,-6.2514418464
 N,0,1.0460552415,-2.3925948499,-5.9555686783
 H,0,2.4915121496,1.6891885627,-0.5499345717
 H,0,2.00886896,0.4391649523,-1.7082286191
 H,0,3.7230495765,0.7561260323,-1.4081559737
 H,0,1.750499523,-0.3602837889,0.6760185889
 H,0,3.450719041,-0.0590918083,0.9666235976
 H,0,4.0689766683,-1.8404944701,-0.7206190361
 H,0,3.2426629433,-3.8416136158,0.3891234328
 H,0,0.8760219771,-2.4168189843,1.3984678785
 H,0,2.1637758972,-2.6880997255,2.3607677632
 H,0,1.0015549863,-2.1966564654,-0.9498396658
 H,0,1.5985277646,-4.244488478,-2.3128792119
 H,0,3.3179982248,-3.8717944633,-2.1244581542
 H,0,2.8841523471,-1.8112482538,-3.2788033189
 H,0,0.8673413763,-4.1989780069,-4.8347292417
 H,0,2.8338147017,-5.2705263225,-6.0120184011
 H,0,2.9885530365,-3.811810813,-6.9973472805
 H,0,0.7146257773,-5.8662411458,-7.0384264951
 H,0,1.8879863441,-5.5437004851,-8.2974974599
 H,0,-0.1825874155,-4.5940709153,-9.001135864
 H,0,0.8384264151,-3.2223885741,-8.5866616705
 H,0,-1.1189782607,-4.4603714038,-6.5978961549
 H,0,-1.6746995238,-3.276917149,-7.7547025382
 H,0,-1.0053242711,-2.5128458164,-5.337480424
 H,0,-0.6367471724,-1.487248574,-6.7252575662
 H,0,1.1947951242,-1.6668164774,-5.2620685671
 Recover connectivity data from disk.

 GradGradGradGradGradGradGradGradGradGradGradGradGradGradGradGradGradGrad
 Berny optimization.
 Initialization pass.
                           ----------------------------
                           !    Initial Parameters    !
                           ! (Angstroms and Degrees)  !
 --------------------------                            --------------------------
 ! Name  Definition              Value          Derivative Info.                !
 --------------------------------------------------------------------------------
 ! R1    R(1,2)                  1.5334         estimate D2E/DX2                !
 ! R2    R(1,17)                 1.0946         estimate D2E/DX2                !
 ! R3    R(1,18)                 1.0954         estimate D2E/DX2                !
 ! R4    R(1,19)                 1.0958         estimate D2E/DX2                !
 ! R5    R(2,3)                  1.5138         estimate D2E/DX2                !
 ! R6    R(2,20)                 1.0967         estimate D2E/DX2                !
 ! R7    R(2,21)                 1.0984         estimate D2E/DX2                !
 ! R8    R(3,4)                  1.5225         estimate D2E/DX2                !
 ! R9    R(3,6)                  1.5222         estimate D2E/DX2                !
 ! R10   R(3,22)                 1.0898         estimate D2E/DX2                !
 ! R11   R(4,5)                  1.4438         estimate D2E/DX2                !
 ! R12   R(4,6)                  1.501          estimate D2E/DX2                !
 ! R13   R(4,23)                 1.0879         estimate D2E/DX2                !
 ! R14   R(5,24)                 1.0136         estimate D2E/DX2                !
 ! R15   R(5,25)                 1.0162         estimate D2E/DX2                !
 ! R16   R(6,7)                  1.5092         estimate D2E/DX2                !
 ! R17   R(6,26)                 1.089          estimate D2E/DX2                !
 ! R18   R(7,8)                  1.4691         estimate D2E/DX2                !
 ! R19   R(7,27)                 1.0958         estimate D2E/DX2                !
 ! R20   R(7,28)                 1.1004         estimate D2E/DX2                !
 ! R21   R(8,9)                  1.4374         estimate D2E/DX2                !
 ! R22   R(8,29)                 1.0186         estimate D2E/DX2                !
 ! R23   R(9,10)                 1.4228         estimate D2E/DX2                !
 ! R24   R(10,11)                1.5291         estimate D2E/DX2                !
 ! R25   R(10,16)                1.4595         estimate D2E/DX2                !
 ! R26   R(10,30)                1.1082         estimate D2E/DX2                !
 ! R27   R(11,12)                1.5347         estimate D2E/DX2                !
 ! R28   R(11,31)                1.096          estimate D2E/DX2                !
 ! R29   R(11,32)                1.0955         estimate D2E/DX2                !
 ! R30   R(12,13)                1.5389         estimate D2E/DX2                !
 ! R31   R(12,33)                1.0992         estimate D2E/DX2                !
 ! R32   R(12,34)                1.0965         estimate D2E/DX2                !
 ! R33   R(13,14)                1.5384         estimate D2E/DX2                !
 ! R34   R(13,35)                1.0965         estimate D2E/DX2                !
 ! R35   R(13,36)                1.0959         estimate D2E/DX2                !
 ! R36   R(14,15)                1.5432         estimate D2E/DX2                !
 ! R37   R(14,37)                1.0974         estimate D2E/DX2                !
 ! R38   R(14,38)                1.0958         estimate D2E/DX2                !
 ! R39   R(15,16)                1.4642         estimate D2E/DX2                !
 ! R40   R(15,39)                1.1056         estimate D2E/DX2                !
 ! R41   R(15,40)                1.0963         estimate D2E/DX2                !
 ! R42   R(16,41)                1.0148         estimate D2E/DX2                !
 ! A1    A(2,1,17)             111.4351         estimate D2E/DX2                !
 ! A2    A(2,1,18)             110.9418         estimate D2E/DX2                !
 ! A3    A(2,1,19)             111.0947         estimate D2E/DX2                !
 ! A4    A(17,1,18)            107.9538         estimate D2E/DX2                !
 ! A5    A(17,1,19)            107.5869         estimate D2E/DX2                !
 ! A6    A(18,1,19)            107.6602         estimate D2E/DX2                !
 ! A7    A(1,2,3)              112.9898         estimate D2E/DX2                !
 ! A8    A(1,2,20)             109.3839         estimate D2E/DX2                !
 ! A9    A(1,2,21)             109.4089         estimate D2E/DX2                !
 ! A10   A(3,2,20)             109.6283         estimate D2E/DX2                !
 ! A11   A(3,2,21)             109.3584         estimate D2E/DX2                !
 ! A12   A(20,2,21)            105.8199         estimate D2E/DX2                !
 ! A13   A(2,3,4)              122.5911         estimate D2E/DX2                !
 ! A14   A(2,3,6)              120.8055         estimate D2E/DX2                !
 ! A15   A(2,3,22)             114.0359         estimate D2E/DX2                !
 ! A16   A(4,3,22)             114.4671         estimate D2E/DX2                !
 ! A17   A(6,3,22)             115.1043         estimate D2E/DX2                !
 ! A18   A(3,4,5)              125.14           estimate D2E/DX2                !
 ! A19   A(3,4,23)             114.9519         estimate D2E/DX2                !
 ! A20   A(5,4,6)              119.9067         estimate D2E/DX2                !
 ! A21   A(5,4,23)             111.7491         estimate D2E/DX2                !
 ! A22   A(6,4,23)             115.6905         estimate D2E/DX2                !
 ! A23   A(4,5,24)             111.2677         estimate D2E/DX2                !
 ! A24   A(4,5,25)             110.7324         estimate D2E/DX2                !
 ! A25   A(24,5,25)            106.8709         estimate D2E/DX2                !
 ! A26   A(3,6,7)              121.2175         estimate D2E/DX2                !
 ! A27   A(3,6,26)             114.7564         estimate D2E/DX2                !
 ! A28   A(4,6,7)              121.4661         estimate D2E/DX2                !
 ! A29   A(4,6,26)             115.0948         estimate D2E/DX2                !
 ! A30   A(7,6,26)             113.7856         estimate D2E/DX2                !
 ! A31   A(6,7,8)              109.1458         estimate D2E/DX2                !
 ! A32   A(6,7,27)             110.6879         estimate D2E/DX2                !
 ! A33   A(6,7,28)             110.4886         estimate D2E/DX2                !
 ! A34   A(8,7,27)             107.7362         estimate D2E/DX2                !
 ! A35   A(8,7,28)             111.3848         estimate D2E/DX2                !
 ! A36   A(27,7,28)            107.3563         estimate D2E/DX2                !
 ! A37   A(7,8,9)              108.2603         estimate D2E/DX2                !
 ! A38   A(7,8,29)             107.4513         estimate D2E/DX2                !
 ! A39   A(9,8,29)             102.6865         estimate D2E/DX2                !
 ! A40   A(8,9,10)             110.3905         estimate D2E/DX2                !
 ! A41   A(9,10,11)            104.5414         estimate D2E/DX2                !
 ! A42   A(9,10,16)            109.8989         estimate D2E/DX2                !
 ! A43   A(9,10,30)            108.66           estimate D2E/DX2                !
 ! A44   A(11,10,16)           110.9718         estimate D2E/DX2                !
 ! A45   A(11,10,30)           110.8617         estimate D2E/DX2                !
 ! A46   A(16,10,30)           111.6444         estimate D2E/DX2                !
 ! A47   A(10,11,12)           115.1138         estimate D2E/DX2                !
 ! A48   A(10,11,31)           108.4323         estimate D2E/DX2                !
 ! A49   A(10,11,32)           106.1735         estimate D2E/DX2                !
 ! A50   A(12,11,31)           109.3937         estimate D2E/DX2                !
 ! A51   A(12,11,32)           109.9512         estimate D2E/DX2                !
 ! A52   A(31,11,32)           107.4809         estimate D2E/DX2                !
 ! A53   A(11,12,13)           116.2311         estimate D2E/DX2                !
 ! A54   A(11,12,33)           109.3635         estimate D2E/DX2                !
 ! A55   A(11,12,34)           107.6425         estimate D2E/DX2                !
 ! A56   A(13,12,33)           108.1433         estimate D2E/DX2                !
 ! A57   A(13,12,34)           109.1896         estimate D2E/DX2                !
 ! A58   A(33,12,34)           105.7807         estimate D2E/DX2                !
 ! A59   A(12,13,14)           112.9674         estimate D2E/DX2                !
 ! A60   A(12,13,35)           107.8948         estimate D2E/DX2                !
 ! A61   A(12,13,36)           110.2801         estimate D2E/DX2                !
 ! A62   A(14,13,35)           108.375          estimate D2E/DX2                !
 ! A63   A(14,13,36)           110.3323         estimate D2E/DX2                !
 ! A64   A(35,13,36)           106.7492         estimate D2E/DX2                !
 ! A65   A(13,14,15)           115.6339         estimate D2E/DX2                !
 ! A66   A(13,14,37)           107.9942         estimate D2E/DX2                !
 ! A67   A(13,14,38)           109.9258         estimate D2E/DX2                !
 ! A68   A(15,14,37)           109.6021         estimate D2E/DX2                !
 ! A69   A(15,14,38)           107.7244         estimate D2E/DX2                !
 ! A70   A(37,14,38)           105.4945         estimate D2E/DX2                !
 ! A71   A(14,15,16)           113.9217         estimate D2E/DX2                !
 ! A72   A(14,15,39)           108.1238         estimate D2E/DX2                !
 ! A73   A(14,15,40)           109.2459         estimate D2E/DX2                !
 ! A74   A(16,15,39)           112.4894         estimate D2E/DX2                !
 ! A75   A(16,15,40)           106.246          estimate D2E/DX2                !
 ! A76   A(39,15,40)           106.5172         estimate D2E/DX2                !
 ! A77   A(10,16,15)           115.6912         estimate D2E/DX2                !
 ! A78   A(10,16,41)           106.1673         estimate D2E/DX2                !
 ! A79   A(15,16,41)           107.8536         estimate D2E/DX2                !
 ! D1    D(17,1,2,3)           179.8728         estimate D2E/DX2                !
 ! D2    D(17,1,2,20)           57.4543         estimate D2E/DX2                !
 ! D3    D(17,1,2,21)          -58.037          estimate D2E/DX2                !
 ! D4    D(18,1,2,3)            59.553          estimate D2E/DX2                !
 ! D5    D(18,1,2,20)          -62.8655         estimate D2E/DX2                !
 ! D6    D(18,1,2,21)         -178.3568         estimate D2E/DX2                !
 ! D7    D(19,1,2,3)           -60.1688         estimate D2E/DX2                !
 ! D8    D(19,1,2,20)          177.4127         estimate D2E/DX2                !
 ! D9    D(19,1,2,21)           61.9214         estimate D2E/DX2                !
 ! D10   D(1,2,3,4)           -151.7637         estimate D2E/DX2                !
 ! D11   D(1,2,3,6)            -80.9687         estimate D2E/DX2                !
 ! D12   D(1,2,3,22)            62.813          estimate D2E/DX2                !
 ! D13   D(20,2,3,4)           -29.4818         estimate D2E/DX2                !
 ! D14   D(20,2,3,6)            41.3132         estimate D2E/DX2                !
 ! D15   D(20,2,3,22)         -174.9051         estimate D2E/DX2                !
 ! D16   D(21,2,3,4)            86.1178         estimate D2E/DX2                !
 ! D17   D(21,2,3,6)           156.9128         estimate D2E/DX2                !
 ! D18   D(21,2,3,22)          -59.3054         estimate D2E/DX2                !
 ! D19   D(2,3,4,5)              1.4304         estimate D2E/DX2                !
 ! D20   D(2,3,4,23)          -144.3887         estimate D2E/DX2                !
 ! D21   D(22,3,4,5)           146.7194         estimate D2E/DX2                !
 ! D22   D(22,3,4,23)            0.9003         estimate D2E/DX2                !
 ! D23   D(2,3,6,7)            137.0569         estimate D2E/DX2                !
 ! D24   D(2,3,6,26)            -5.9585         estimate D2E/DX2                !
 ! D25   D(22,3,6,7)            -6.3647         estimate D2E/DX2                !
 ! D26   D(22,3,6,26)         -149.3801         estimate D2E/DX2                !
 ! D27   D(3,4,5,24)            49.5906         estimate D2E/DX2                !
 ! D28   D(3,4,5,25)           -69.1157         estimate D2E/DX2                !
 ! D29   D(6,4,5,24)           -23.5019         estimate D2E/DX2                !
 ! D30   D(6,4,5,25)          -142.2082         estimate D2E/DX2                !
 ! D31   D(23,4,5,24)         -163.6673         estimate D2E/DX2                !
 ! D32   D(23,4,5,25)           77.6264         estimate D2E/DX2                !
 ! D33   D(5,4,6,7)           -133.4828         estimate D2E/DX2                !
 ! D34   D(5,4,6,26)            10.4904         estimate D2E/DX2                !
 ! D35   D(23,4,6,7)             5.199          estimate D2E/DX2                !
 ! D36   D(23,4,6,26)          149.1722         estimate D2E/DX2                !
 ! D37   D(3,6,7,8)            -82.6712         estimate D2E/DX2                !
 ! D38   D(3,6,7,27)           158.9172         estimate D2E/DX2                !
 ! D39   D(3,6,7,28)            40.133          estimate D2E/DX2                !
 ! D40   D(4,6,7,8)           -154.9256         estimate D2E/DX2                !
 ! D41   D(4,6,7,27)            86.6628         estimate D2E/DX2                !
 ! D42   D(4,6,7,28)           -32.1214         estimate D2E/DX2                !
 ! D43   D(26,6,7,8)            60.6719         estimate D2E/DX2                !
 ! D44   D(26,6,7,27)          -57.7397         estimate D2E/DX2                !
 ! D45   D(26,6,7,28)         -176.5239         estimate D2E/DX2                !
 ! D46   D(6,7,8,9)            171.4006         estimate D2E/DX2                !
 ! D47   D(6,7,8,29)            61.1489         estimate D2E/DX2                !
 ! D48   D(27,7,8,9)           -68.3567         estimate D2E/DX2                !
 ! D49   D(27,7,8,29)         -178.6084         estimate D2E/DX2                !
 ! D50   D(28,7,8,9)            49.1338         estimate D2E/DX2                !
 ! D51   D(28,7,8,29)          -61.1178         estimate D2E/DX2                !
 ! D52   D(7,8,9,10)           110.4744         estimate D2E/DX2                !
 ! D53   D(29,8,9,10)         -136.0739         estimate D2E/DX2                !
 ! D54   D(8,9,10,11)         -175.8149         estimate D2E/DX2                !
 ! D55   D(8,9,10,16)           65.0335         estimate D2E/DX2                !
 ! D56   D(8,9,10,30)          -57.3965         estimate D2E/DX2                !
 ! D57   D(9,10,11,12)         174.6739         estimate D2E/DX2                !
 ! D58   D(9,10,11,31)          51.8012         estimate D2E/DX2                !
 ! D59   D(9,10,11,32)         -63.4343         estimate D2E/DX2                !
 ! D60   D(16,10,11,12)        -66.902          estimate D2E/DX2                !
 ! D61   D(16,10,11,31)        170.2252         estimate D2E/DX2                !
 ! D62   D(16,10,11,32)         54.9897         estimate D2E/DX2                !
 ! D63   D(30,10,11,12)         57.7644         estimate D2E/DX2                !
 ! D64   D(30,10,11,31)        -65.1083         estimate D2E/DX2                !
 ! D65   D(30,10,11,32)        179.6562         estimate D2E/DX2                !
 ! D66   D(9,10,16,15)        -148.3786         estimate D2E/DX2                !
 ! D67   D(9,10,16,41)         -28.7948         estimate D2E/DX2                !
 ! D68   D(11,10,16,15)         96.4892         estimate D2E/DX2                !
 ! D69   D(11,10,16,41)       -143.927          estimate D2E/DX2                !
 ! D70   D(30,10,16,15)        -27.7334         estimate D2E/DX2                !
 ! D71   D(30,10,16,41)         91.8504         estimate D2E/DX2                !
 ! D72   D(10,11,12,13)         50.8146         estimate D2E/DX2                !
 ! D73   D(10,11,12,33)        -71.9457         estimate D2E/DX2                !
 ! D74   D(10,11,12,34)        173.5816         estimate D2E/DX2                !
 ! D75   D(31,11,12,13)        173.1726         estimate D2E/DX2                !
 ! D76   D(31,11,12,33)         50.4123         estimate D2E/DX2                !
 ! D77   D(31,11,12,34)        -64.0604         estimate D2E/DX2                !
 ! D78   D(32,11,12,13)        -69.0149         estimate D2E/DX2                !
 ! D79   D(32,11,12,33)        168.2248         estimate D2E/DX2                !
 ! D80   D(32,11,12,34)         53.7521         estimate D2E/DX2                !
 ! D81   D(11,12,13,14)        -71.4043         estimate D2E/DX2                !
 ! D82   D(11,12,13,35)        168.8188         estimate D2E/DX2                !
 ! D83   D(11,12,13,36)         52.577          estimate D2E/DX2                !
 ! D84   D(33,12,13,14)         51.992          estimate D2E/DX2                !
 ! D85   D(33,12,13,35)        -67.7848         estimate D2E/DX2                !
 ! D86   D(33,12,13,36)        175.9734         estimate D2E/DX2                !
 ! D87   D(34,12,13,14)        166.6416         estimate D2E/DX2                !
 ! D88   D(34,12,13,35)         46.8648         estimate D2E/DX2                !
 ! D89   D(34,12,13,36)        -69.3771         estimate D2E/DX2                !
 ! D90   D(12,13,14,15)         81.8759         estimate D2E/DX2                !
 ! D91   D(12,13,14,37)        -41.2928         estimate D2E/DX2                !
 ! D92   D(12,13,14,38)       -155.9075         estimate D2E/DX2                !
 ! D93   D(35,13,14,15)       -158.6237         estimate D2E/DX2                !
 ! D94   D(35,13,14,37)         78.2077         estimate D2E/DX2                !
 ! D95   D(35,13,14,38)        -36.407          estimate D2E/DX2                !
 ! D96   D(36,13,14,15)        -42.0768         estimate D2E/DX2                !
 ! D97   D(36,13,14,37)       -165.2454         estimate D2E/DX2                !
 ! D98   D(36,13,14,38)         80.1399         estimate D2E/DX2                !
 ! D99   D(13,14,15,16)        -27.3408         estimate D2E/DX2                !
 ! D100  D(13,14,15,39)       -153.1788         estimate D2E/DX2                !
 ! D101  D(13,14,15,40)         91.2821         estimate D2E/DX2                !
 ! D102  D(37,14,15,16)         94.9767         estimate D2E/DX2                !
 ! D103  D(37,14,15,39)        -30.8613         estimate D2E/DX2                !
 ! D104  D(37,14,15,40)       -146.4004         estimate D2E/DX2                !
 ! D105  D(38,14,15,16)       -150.7221         estimate D2E/DX2                !
 ! D106  D(38,14,15,39)         83.4399         estimate D2E/DX2                !
 ! D107  D(38,14,15,40)        -32.0992         estimate D2E/DX2                !
 ! D108  D(14,15,16,10)        -55.6656         estimate D2E/DX2                !
 ! D109  D(14,15,16,41)       -174.3233         estimate D2E/DX2                !
 ! D110  D(39,15,16,10)         67.8359         estimate D2E/DX2                !
 ! D111  D(39,15,16,41)        -50.8218         estimate D2E/DX2                !
 ! D112  D(40,15,16,10)       -175.9875         estimate D2E/DX2                !
 ! D113  D(40,15,16,41)         65.3548         estimate D2E/DX2                !
 --------------------------------------------------------------------------------
 Trust Radius=3.00D-01 FncErr=1.00D-07 GrdErr=1.00D-06 EigMax=2.50D+02 EigMin=1.00D-04
 Number of steps in this run=    244 maximum allowed number of steps=    246.
 GradGradGradGradGradGradGradGradGradGradGradGradGradGradGradGradGradGrad

                          Input orientation:                          
 ---------------------------------------------------------------------
 Center     Atomic      Atomic             Coordinates (Angstroms)
 Number     Number       Type             X           Y           Z
 ---------------------------------------------------------------------
      1          6           0        2.738274    0.693400   -0.931601
      2          6           0        2.733081   -0.353353    0.188940
      3          6           0        3.067444   -1.746025   -0.301366
      4          6           0        2.549589   -3.003045    0.383943
      5          7           0        1.677010   -3.023050    1.534059
      6          6           0        2.006558   -2.615957   -0.960820
      7          6           0        2.315500   -3.423937   -2.197471
      8          7           0        2.199942   -2.559077   -3.379423
      9          8           0        2.691113   -3.285155   -4.518534
     10          6           0        1.620815   -3.612339   -5.396994
     11          6           0        2.267996   -4.463007   -6.490502
     12          6           0        1.292627   -5.060924   -7.513463
     13          6           0        0.301787   -4.078910   -8.163149
     14          6           0       -0.790752   -3.598383   -7.192501
     15          6           0       -0.386986   -2.443846   -6.251442
     16          7           0        1.046055   -2.392595   -5.955569
     17          1           0        2.491512    1.689189   -0.549935
     18          1           0        2.008869    0.439165   -1.708229
     19          1           0        3.723050    0.756126   -1.408156
     20          1           0        1.750500   -0.360284    0.676019
     21          1           0        3.450719   -0.059092    0.966624
     22          1           0        4.068977   -1.840494   -0.720619
     23          1           0        3.242663   -3.841614    0.389123
     24          1           0        0.876022   -2.416819    1.398468
     25          1           0        2.163776   -2.688100    2.360768
     26          1           0        1.001555   -2.196656   -0.949840
     27          1           0        1.598528   -4.244488   -2.312879
     28          1           0        3.317998   -3.871794   -2.124458
     29          1           0        2.884152   -1.811248   -3.278803
     30          1           0        0.867341   -4.198978   -4.834729
     31          1           0        2.833815   -5.270526   -6.012018
     32          1           0        2.988553   -3.811811   -6.997347
     33          1           0        0.714626   -5.866241   -7.038426
     34          1           0        1.887986   -5.543700   -8.297497
     35          1           0       -0.182587   -4.594071   -9.001136
     36          1           0        0.838426   -3.222389   -8.586662
     37          1           0       -1.118978   -4.460371   -6.597896
     38          1           0       -1.674700   -3.276917   -7.754703
     39          1           0       -1.005324   -2.512846   -5.337480
     40          1           0       -0.636747   -1.487249   -6.725258
     41          1           0        1.194795   -1.666816   -5.262069
 ---------------------------------------------------------------------
                    Distance matrix (angstroms):
                    1          2          3          4          5
     1  C    0.000000
     2  C    1.533405   0.000000
     3  C    2.540934   1.513848   0.000000
     4  C    3.928100   2.663186   1.522472   0.000000
     5  N    4.584513   3.170475   2.633037   1.443800   0.000000
     6  C    3.389411   2.639917   1.522216   1.501036   2.549264
     7  C    4.328237   3.911243   2.641216   2.625956   3.806927
     8  N    4.106123   4.228791   3.299705   3.805560   4.962966
     9  O    5.356978   5.545948   4.505003   4.912627   6.142555
    10  C    6.303002   6.562071   5.616163   5.886688   6.956285
    11  C    7.596781   7.856240   6.806358   7.033404   8.174124
    12  C    8.861324   9.141288   8.133442   8.257351   9.282151
    13  C    9.000372   9.462999   8.654412   8.902970   9.850985
    14  C    8.370920   8.799619   8.112007   8.301495   9.087007
    15  C    6.921725   7.455434   6.915450   7.277672   8.075245
    16  N    6.134103   6.690258   6.039377   6.543904   7.542552
    17  H    1.094603   2.185467   3.492017   4.784616   5.216477
    18  H    1.095362   2.179866   2.806226   4.064280   4.754944
    19  H    1.095820   2.182131   2.813461   4.326661   5.208174
    20  H    2.161108   1.096704   2.147069   2.776335   2.798563
    21  H    2.162656   1.098356   2.144864   3.133434   3.500439
    22  H    2.869827   2.196248   1.089846   2.209100   3.493352
    23  H    4.750271   3.530964   2.213361   1.087923   2.105277
    24  H    4.309370   3.028121   2.853372   2.042975   1.013648
    25  H    4.754396   3.239134   2.964975   2.038597   1.016159
    26  H    3.371788   2.773584   2.211670   2.196736   2.703501
    27  H    5.252590   4.763113   3.527920   3.117459   4.036955
    28  H    4.753945   4.251278   2.811643   2.763559   4.098531
    29  H    3.435681   3.764774   2.983787   3.866268   5.107768
    30  H    6.532240   6.595989   5.604357   5.612019   6.526855
    31  H    7.835062   7.914583   6.714778   6.791950   7.958180
    32  H    7.559950   7.979281   7.007843   7.438430   8.667594
    33  H    9.187892   9.311333   8.240141   8.164347   9.082809
    34  H    9.689213   9.983662   8.930374   9.069733  10.151733
    35  H   10.079989  10.532915   9.713911   9.903326  10.812795
    36  H    8.805838   9.425087   8.705992   9.134984  10.157359
    37  H    8.575935   8.818566   8.033686   8.020490   8.718494
    38  H    9.043919   9.543438   8.965701   9.173722   9.878233
    39  H    6.611075   7.012874   6.522109   6.753695   7.394138
    40  H    7.050706   7.774805   7.419864   7.936694   8.713694
    41  H    5.167775   5.814207   5.302986   5.958055   6.946888
                    6          7          8          9         10
     6  C    0.000000
     7  C    1.509166   0.000000
     8  N    2.426988   1.469132   0.000000
     9  O    3.684260   2.355351   1.437363   0.000000
    10  C    4.563026   3.279486   2.348476   1.422772   0.000000
    11  C    5.835865   4.417243   3.648067   2.335598   1.529131
    12  C    7.030270   5.655596   4.916579   3.752162   2.585643
    13  C    7.544535   6.330351   5.366276   4.429688   3.099860
    14  C    6.901011   5.884689   4.956205   4.401318   3.006609
    15  C    5.809420   4.969778   3.867036   3.631180   2.475221
    16  N    5.091166   4.098592   2.827667   2.359650   1.459496
    17  H    4.351814   5.374887   5.112610   6.366609   7.235903
    18  H    3.145218   3.906013   3.437856   4.715277   5.492928
    19  H    3.810170   4.480753   4.146845   5.203009   6.278033
    20  H    2.798726   4.238177   4.635008   6.035147   6.890149
    21  H    3.512577   4.756301   5.167445   6.408700   7.514635
    22  H    2.216441   2.786227   3.328497   4.290654   5.567891
    23  H    2.202847   2.779308   4.115107   4.969804   6.013494
    24  H    2.623739   4.002145   4.959964   6.249758   6.939905
    25  H    3.326089   4.619742   5.741755   6.925269   7.831468
    26  H    1.089020   2.188437   2.733195   4.095731   4.707953
    27  H    2.155613   1.095752   2.083225   2.641775   3.148313
    28  H    2.156631   1.100413   2.132654   2.543370   3.695570
    29  H    2.605911   2.023218   1.018585   1.935613   3.053961
    30  H    4.337158   3.106925   2.565739   2.064266   1.108156
    31  H    5.765908   4.269580   3.832011   2.488485   2.144577
    32  H    6.231696   4.862331   3.909044   2.551539   2.114623
    33  H    7.012185   5.653539   5.150903   4.113194   2.931818
    34  H    7.900163   6.471977   5.761315   4.475109   3.494919
    35  H    8.564576   7.341629   6.435938   5.483168   4.147999
    36  H    7.738588   6.560802   5.423010   4.470576   3.307291
    37  H    6.704287   5.677463   4.998872   4.496852   3.109307
    38  H    7.755344   6.842962   5.888227   5.434443   4.065921
    39  H    5.313871   4.660217   3.756309   3.864037   2.847636
    40  H    6.441256   5.741723   4.515554   4.379126   3.372963
    41  H    4.478902   3.706105   2.313181   2.326119   1.996185
                   11         12         13         14         15
    11  C    0.000000
    12  C    1.534699   0.000000
    13  C    2.609838   1.538898   0.000000
    14  C    3.255199   2.565641   1.538411   0.000000
    15  C    3.344113   3.356024   2.608154   1.543235   0.000000
    16  N    2.462905   3.099647   2.875935   2.521466   1.464164
    17  H    8.555104   9.772005   9.799331   9.102492   7.607556
    18  H    6.853362   8.028993   8.061831   7.363214   5.890048
    19  H    7.428780   8.776093   8.984016   8.531987   7.112639
    20  H    8.274005   9.453744   9.698341   8.880138   7.543195
    21  H    8.740825  10.079065  10.460758   9.853323   8.515604
    22  H    6.588828   8.013864   8.636751   8.282052   7.128088
    23  H    6.976055   8.230445   9.046901   8.591195   7.695792
    24  H    8.268030   9.305233   9.721975   8.830570   7.753518
    25  H    9.028074  10.192626  10.777484  10.041055   8.985333
    26  H    6.118754   7.167280   7.487615   6.644398   5.485994
    27  H    4.236563   5.273160   5.994548   5.471455   4.764122
    28  H    4.529279   5.878566   6.753237   6.530057   5.726949
    29  H    4.210283   5.570071   5.972247   5.658251   4.465099
    30  H    2.184749   2.845950   3.378260   2.944330   2.580872
    31  H    1.095985   2.161835   3.529656   4.162582   4.291970
    32  H    1.095514   2.168600   2.940943   3.790354   3.717791
    33  H    2.163850   1.099218   2.151740   2.726368   3.680446
    34  H    2.139519   1.096465   2.163258   3.490118   4.355564
    35  H    3.510815   2.146481   1.096463   2.152306   3.496579
    36  H    2.824304   2.176756   1.095890   2.176989   2.749730
    37  H    3.388678   2.648540   2.148046   1.097411   2.173066
    38  H    4.306955   3.470721   2.171755   1.095798   2.147558
    39  H    3.980856   4.063026   3.485039   2.159984   1.105635
    40  H    4.165067   4.137017   3.108873   2.167700   1.096340
    41  H    3.237204   4.074103   3.877103   3.376376   2.021056
                   16         17         18         19         20
    16  N    0.000000
    17  H    6.926123   0.000000
    18  H    5.194783   1.771200   0.000000
    19  H    6.144893   1.767437   1.768876   0.000000
    20  H    6.971691   2.500480   2.527945   3.079141   0.000000
    21  H    7.690539   2.505297   3.079290   2.525534   1.750975
    22  H    6.070220   3.869908   3.227424   2.708286   3.084956
    23  H    6.868760   5.660020   4.924043   4.959858   3.798489
    24  H    7.356042   4.823420   4.369388   5.103948   2.348613
    25  H    8.396313   5.266902   5.134249   5.338428   2.903085
    26  H    5.009760   4.180872   2.921881   4.041721   2.564488
    27  H    4.123581   6.254112   4.740316   5.508018   4.903433
    28  H    4.693311   5.838385   4.524537   4.700511   4.757145
    29  H    3.298733   4.455777   2.880484   3.285496   4.362463
    30  H    2.133363   7.461093   5.708806   6.667048   6.773764
    31  H    3.388475   8.853765   7.197480   7.635891   8.367430
    32  H    2.621598   8.489828   6.856045   7.255659   8.504491
    33  H    3.653580  10.116441   8.357285   9.198169   9.534215
    34  H    4.015339  10.616198   8.900997   9.514110  10.363913
    35  H    3.953674  10.865218   9.128113  10.076306  10.738207
    36  H    2.766644   9.562702   7.879705   8.699458   9.737596
    37  H    3.061969   9.350431   7.595902   8.808546   8.829182
    38  H    3.379558   9.691657   7.996111   9.256338   9.555930
    39  H    2.145845   7.266743   5.565177   6.962994   6.956311
    40  H    2.060072   7.616454   5.990070   7.232712   7.857982
    41  H    1.014801   5.928613   4.210422   5.207241   6.105466
                   21         22         23         24         25
    21  H    0.000000
    22  H    2.530301   0.000000
    23  H    3.832005   2.432859   0.000000
    24  H    3.517731   3.875260   2.941055   0.000000
    25  H    3.242151   3.720641   2.526257   1.630314   0.000000
    26  H    3.773648   3.096525   3.085656   2.361944   3.542936
    27  H    5.630568   3.797051   3.188465   4.199582   4.958309
    28  H    4.910102   2.580874   2.514891   4.526722   4.780232
    29  H    4.627602   2.819392   4.207683   5.126029   5.752614
    30  H    7.580778   5.721784   5.749652   6.482971   7.465834
    31  H    8.731613   6.425702   6.571420   8.178747   8.787572
    32  H    8.815970   6.667137   7.390900   8.769179   9.461358
    33  H   10.261092   8.208106   8.102999   9.116235  10.027236
    34  H   10.878741   8.710886   8.954866  10.237832  11.037624
    35  H   11.537902   9.706953  10.023747  10.677679  11.757168
    36  H   10.396912   8.615144   9.312814  10.017643  11.040300
    37  H    9.872961   8.265653   8.259856   8.491052   9.704385
    38  H   10.615359   9.194099   9.530018   9.540780  10.835282
    39  H    8.100553   6.893185   7.252931   6.994404   8.326880
    40  H    8.826780   7.637035   8.438440   8.315497   9.583362
    41  H    6.816933   5.377346   6.392142   6.710206   7.751747
                   26         27         28         29         30
    26  H    0.000000
    27  H    2.531377   0.000000
    28  H    3.090587   1.769458   0.000000
    29  H    3.019401   2.916590   2.401372   0.000000
    30  H    4.372605   2.626106   3.668561   3.491373   0.000000
    31  H    6.199315   4.032656   4.159809   4.409037   2.530068
    32  H    6.567285   4.905469   4.884381   4.223828   3.053908
    33  H    7.114708   5.073673   5.907830   5.940082   2.767557
    34  H    8.122594   6.130856   6.553367   6.333312   3.852370
    35  H    8.483700   6.930177   7.750128   7.063574   4.314788
    36  H    7.707126   6.401780   6.951984   5.860859   3.877056
    37  H    6.443726   5.078663   6.328099   5.836033   2.668811
    38  H    7.391580   6.423679   7.548547   6.554768   3.979750
    39  H    4.835176   4.350499   5.555301   4.456279   2.569568
    40  H    6.045060   5.662853   6.518698   4.937586   3.631784
    41  H    4.348953   3.937653   4.383437   2.609239   2.588762
                   31         32         33         34         35
    31  H    0.000000
    32  H    1.767107   0.000000
    33  H    2.428858   3.064819   0.000000
    34  H    2.488500   2.429214   1.751019   0.000000
    35  H    4.300128   3.831870   2.505122   2.384152   0.000000
    36  H    3.847757   2.737952   3.066319   2.563919   1.759480
    37  H    4.077276   4.177560   2.352157   3.619956   2.582686
    38  H    5.228587   4.754537   3.595348   4.257425   2.348380
    39  H    4.774808   4.515919   4.134816   5.130207   4.293107
    40  H    5.183310   4.315139   4.593458   5.030012   3.877915
    41  H    4.029334   3.290860   4.584886   4.972381   4.944353
                   36         37         38         39         40
    36  H    0.000000
    37  H    3.052740   0.000000
    38  H    2.647816   1.745735   0.000000
    39  H    3.802637   2.322589   2.621990   0.000000
    40  H    2.941373   3.014669   2.310847   1.764546   0.000000
    41  H    3.687780   3.865479   4.127911   2.358385   2.351109
                   41
    41  H    0.000000
 Stoichiometry    C12H25N3O
 Framework group  C1[X(C12H25N3O)]
 Deg. of freedom   117
 Full point group                 C1      NOp   1
 Largest Abelian subgroup         C1      NOp   1
 Largest concise Abelian subgroup C1      NOp   1
                         Standard orientation:                         
 ---------------------------------------------------------------------
 Center     Atomic      Atomic             Coordinates (Angstroms)
 Number     Number       Type             X           Y           Z
 ---------------------------------------------------------------------
      1          6           0        3.698082    2.430436   -0.733276
      2          6           0        4.432871    1.170701   -0.259477
      3          6           0        3.653056   -0.100923   -0.517537
      4          6           0        3.802431   -1.344459    0.348042
      5          7           0        4.658049   -1.453153    1.505911
      6          6           0        2.539318   -0.537066    0.424010
      7          6           0        1.230676   -1.069897   -0.106207
      8          7           0        0.357757    0.058472   -0.457123
      9          8           0       -0.793750   -0.459552   -1.143924
     10          6           0       -1.955523   -0.327215   -0.333338
     11          6           0       -3.064107   -1.007689   -1.137226
     12          6           0       -4.416055   -1.117126   -0.419201
     13          6           0       -4.967371    0.181937    0.194551
     14          6           0       -4.184930    0.637505    1.438316
     15          6           0       -2.882199    1.416358    1.159293
     16          7           0       -2.255428    1.085396   -0.121877
     17          1           0        4.282694    3.333827   -0.532608
     18          1           0        2.732193    2.533957   -0.227155
     19          1           0        3.506089    2.392996   -1.811497
     20          1           0        4.651318    1.257933    0.811706
     21          1           0        5.408572    1.107334   -0.759854
     22          1           0        3.472594   -0.304549   -1.572873
     23          1           0        3.727346   -2.288316   -0.187749
     24          1           0        4.519396   -0.674521    2.139938
     25          1           0        5.636658   -1.440198    1.232531
     26          1           0        2.434400    0.073178    1.319867
     27          1           0        0.716917   -1.664456    0.657484
     28          1           0        1.404642   -1.726883   -0.971662
     29          1           0        0.829002    0.594820   -1.183605
     30          1           0       -1.781433   -0.855992    0.624836
     31          1           0       -2.721103   -2.008946   -1.421859
     32          1           0       -3.175824   -0.424105   -2.057607
     33          1           0       -4.344954   -1.869543    0.378981
     34          1           0       -5.143114   -1.512931   -1.138200
     35          1           0       -6.008121    0.000643    0.488157
     36          1           0       -4.985573    0.979280   -0.557039
     37          1           0       -3.960526   -0.251083    2.041943
     38          1           0       -4.821410    1.267366    2.069934
     39          1           0       -2.199981    1.263586    2.015838
     40          1           0       -3.103232    2.489619    1.124431
     41          1           0       -1.366688    1.573021   -0.168619
 ---------------------------------------------------------------------
 Rotational constants (GHZ):           1.0783655           0.1839700           0.1758685
 Standard basis: 6-31+G(2df,p) (6D, 7F)
 There are   685 symmetry adapted cartesian basis functions of A   symmetry.
 There are   637 symmetry adapted basis functions of A   symmetry.
   637 basis functions,   943 primitive gaussians,   685 cartesian basis functions
    63 alpha electrons       63 beta electrons
       nuclear repulsion energy      1158.2051215756 Hartrees.
 NAtoms=   41 NActive=   41 NUniq=   41 SFac= 1.00D+00 NAtFMM=   60 NAOKFM=F Big=F
 Integral buffers will be    131072 words long.
 Regular integral format.
 Two-electron integral symmetry is turned on.
 One-electron integrals computed using PRISM.
 PrsmSu:  requested number of processors reduced to:  12 ShMem   1 Linda.
 NBasis=   637 RedAO= T EigKep=  1.19D-05  NBF=   637
 NBsUse=   637 1.00D-06 EigRej= -1.00D+00 NBFU=   637
 ExpMin= 4.38D-02 ExpMax= 5.48D+03 ExpMxC= 8.25D+02 IAcc=3 IRadAn=         5 AccDes= 0.00D+00
 Harris functional with IExCor=  402 and IRadAn=       5 diagonalized for initial guess.
 HarFok:  IExCor=  402 AccDes= 0.00D+00 IRadAn=         5 IDoV= 1 UseB2=F ITyADJ=14
 ICtDFT=  3500011 ScaDFX=  1.000000  1.000000  1.000000  1.000000
 FoFCou: FMM=F IPFlag=           0 FMFlag=      100000 FMFlg1=           0
         NFxFlg=           0 DoJE=T BraDBF=F KetDBF=T FulRan=T
         wScrn=  0.000000 ICntrl=       500 IOpCl=  0 I1Cent=   200000004 NGrid=           0
         NMat0=    1 NMatS0=      1 NMatT0=    0 NMatD0=    1 NMtDS0=    0 NMtDT0=    0
 Petite list used in FoFCou.
 Requested convergence on RMS density matrix=1.00D-08 within 128 cycles.
 Requested convergence on MAX density matrix=1.00D-06.
 Requested convergence on             energy=1.00D-06.
 No special actions if energy rises.
 SCF Done:  E(RB3LYP) =  -711.792120756     A.U. after   13 cycles
            NFock= 13  Conv=0.20D-08     -V/T= 2.0082
 DoSCS=F DFT=T ScalE2(SS,OS)=  1.000000  1.000000
 ExpMin= 4.38D-02 ExpMax= 5.48D+03 ExpMxC= 8.25D+02 IAcc=3 IRadAn=         5 AccDes= 0.00D+00
 HarFok:  IExCor=  205 AccDes= 0.00D+00 IRadAn=         5 IDoV=-2 UseB2=F ITyADJ=14
 ICtDFT= 12500011 ScaDFX=  1.000000  1.000000  1.000000  1.000000
 Range of M.O.s used for correlation:    17   637
 NBasis=   637 NAE=    63 NBE=    63 NFC=    16 NFV=     0
 NROrb=    621 NOA=    47 NOB=    47 NVA=   574 NVB=   574

 **** Warning!!: The largest alpha MO coefficient is  0.65245675D+02

 Orbital symmetries:
       Occupied  (A) (A) (A) (A) (A) (A) (A) (A) (A) (A) (A) (A)
                 (A) (A) (A) (A) (A) (A) (A) (A) (A) (A) (A) (A)
                 (A) (A) (A) (A) (A) (A) (A) (A) (A) (A) (A) (A)
                 (A) (A) (A) (A) (A) (A) (A) (A) (A) (A) (A) (A)
                 (A) (A) (A) (A) (A) (A) (A) (A) (A) (A) (A) (A)
                 (A) (A) (A)
       Virtual   (A) (A) (A) (A) (A) (A) (A) (A) (A) (A) (A) (A)
                 (A) (A) (A) (A) (A) (A) (A) (A) (A) (A) (A) (A)
                 (A) (A) (A) (A) (A) (A) (A) (A) (A) (A) (A) (A)
                 (A) (A) (A) (A) (A) (A) (A) (A) (A) (A) (A) (A)
                 (A) (A) (A) (A) (A) (A) (A) (A) (A) (A) (A) (A)
                 (A) (A) (A) (A) (A) (A) (A) (A) (A) (A) (A) (A)
                 (A) (A) (A) (A) (A) (A) (A) (A) (A) (A) (A) (A)
                 (A) (A) (A) (A) (A) (A) (A) (A) (A) (A) (A) (A)
                 (A) (A) (A) (A) (A) (A) (A) (A) (A) (A) (A) (A)
                 (A) (A) (A) (A) (A) (A) (A) (A) (A) (A) (A) (A)
                 (A) (A) (A) (A) (A) (A) (A) (A) (A) (A) (A) (A)
                 (A) (A) (A) (A) (A) (A) (A) (A) (A) (A) (A) (A)
                 (A) (A) (A) (A) (A) (A) (A) (A) (A) (A) (A) (A)
                 (A) (A) (A) (A) (A) (A) (A) (A) (A) (A) (A) (A)
                 (A) (A) (A) (A) (A) (A) (A) (A) (A) (A) (A) (A)
                 (A) (A) (A) (A) (A) (A) (A) (A) (A) (A) (A) (A)
                 (A) (A) (A) (A) (A) (A) (A) (A) (A) (A) (A) (A)
                 (A) (A) (A) (A) (A) (A) (A) (A) (A) (A) (A) (A)
                 (A) (A) (A) (A) (A) (A) (A) (A) (A) (A) (A) (A)
                 (A) (A) (A) (A) (A) (A) (A) (A) (A) (A) (A) (A)
                 (A) (A) (A) (A) (A) (A) (A) (A) (A) (A) (A) (A)
                 (A) (A) (A) (A) (A) (A) (A) (A) (A) (A) (A) (A)
                 (A) (A) (A) (A) (A) (A) (A) (A) (A) (A) (A) (A)
                 (A) (A) (A) (A) (A) (A) (A) (A) (A) (A) (A) (A)
                 (A) (A) (A) (A) (A) (A) (A) (A) (A) (A) (A) (A)
                 (A) (A) (A) (A) (A) (A) (A) (A) (A) (A) (A) (A)
                 (A) (A) (A) (A) (A) (A) (A) (A) (A) (A) (A) (A)
                 (A) (A) (A) (A) (A) (A) (A) (A) (A) (A) (A) (A)
                 (A) (A) (A) (A) (A) (A) (A) (A) (A) (A) (A) (A)
                 (A) (A) (A) (A) (A) (A) (A) (A) (A) (A) (A) (A)
                 (A) (A) (A) (A) (A) (A) (A) (A) (A) (A) (A) (A)
                 (A) (A) (A) (A) (A) (A) (A) (A) (A) (A) (A) (A)
                 (A) (A) (A) (A) (A) (A) (A) (A) (A) (A) (A) (A)
                 (A) (A) (A) (A) (A) (A) (A) (A) (A) (A) (A) (A)
                 (A) (A) (A) (A) (A) (A) (A) (A) (A) (A) (A) (A)
                 (A) (A) (A) (A) (A) (A) (A) (A) (A) (A) (A) (A)
                 (A) (A) (A) (A) (A) (A) (A) (A) (A) (A) (A) (A)
                 (A) (A) (A) (A) (A) (A) (A) (A) (A) (A) (A) (A)
                 (A) (A) (A) (A) (A) (A) (A) (A) (A) (A) (A) (A)
                 (A) (A) (A) (A) (A) (A) (A) (A) (A) (A) (A) (A)
                 (A) (A) (A) (A) (A) (A) (A) (A) (A) (A) (A) (A)
                 (A) (A) (A) (A) (A) (A) (A) (A) (A) (A) (A) (A)
                 (A) (A) (A) (A) (A) (A) (A) (A) (A) (A) (A) (A)
                 (A) (A) (A) (A) (A) (A) (A) (A) (A) (A) (A) (A)
                 (A) (A) (A) (A) (A) (A) (A) (A) (A) (A) (A) (A)
                 (A) (A) (A) (A) (A) (A) (A) (A) (A) (A) (A) (A)
                 (A) (A) (A) (A) (A) (A) (A) (A) (A) (A) (A) (A)
                 (A) (A) (A) (A) (A) (A) (A) (A) (A) (A)
    40 initial guesses have been made.
 Convergence on wavefunction:    0.000001000000000
 Iteration     1 Dimension    40 NMult     0 NNew     40
 CISAX will form     2 AO SS matrices at one time.
 New state      1 was old state      2
 New state      2 was old state      5
 New state      3 was old state      1
 New state      4 was old state      3
 New state      5 was old state      4
 New state      6 was old state     10
 New state      7 was old state      6
 New state      8 was old state      7
 New state      9 was old state      8
 New state     10 was old state      9
 Iteration     2 Dimension    60 NMult    40 NNew     20
 Iteration     3 Dimension    80 NMult    60 NNew     20
 Iteration     4 Dimension   100 NMult    80 NNew     20
 Iteration     5 Dimension   120 NMult   100 NNew     20
 Iteration     6 Dimension   140 NMult   120 NNew     20
 Iteration     7 Dimension   160 NMult   140 NNew     20
 Iteration     8 Dimension   180 NMult   160 NNew     20
 Iteration     9 Dimension   200 NMult   180 NNew     20
 Iteration    10 Dimension   220 NMult   200 NNew     20
 Iteration    11 Dimension   230 NMult   220 NNew     10
 Iteration    12 Dimension   232 NMult   230 NNew      2
 Iteration    13 Dimension   234 NMult   232 NNew      2
 ***********************************************************************
 Excited states from <AA,BB:AA,BB> singles matrix:
 ***********************************************************************
 
 Ground to excited state transition densities written to RWF  633
 Ground to excited state transition electric dipole moments (Au):
       state          X           Y           Z        Dip. S.      Osc.
         1         0.0115      0.0165      0.1094      0.0124      0.0016
         2         0.1744      0.3526     -0.2085      0.1982      0.0262
         3         0.0081      0.1039     -0.1925      0.0479      0.0065
         4        -0.1308      0.1821     -0.3274      0.1575      0.0215
         5         0.0145      0.1024      0.2202      0.0592      0.0082
         6         0.1012      0.1110      0.0145      0.0228      0.0032
         7        -0.1857      0.1421     -0.1501      0.0772      0.0109
         8        -0.0820      0.0941     -0.1403      0.0353      0.0051
         9         0.0012      0.0832      0.1622      0.0333      0.0048
        10         0.0475     -0.2457     -0.1158      0.0761      0.0113
 Ground to excited state transition velocity dipole moments (Au):
       state          X           Y           Z        Dip. S.      Osc.
         1        -0.0005     -0.0047     -0.0191      0.0004      0.0013
         2        -0.0367     -0.0707      0.0439      0.0083      0.0278
         3        -0.0030     -0.0200      0.0377      0.0018      0.0060
         4         0.0277     -0.0376      0.0679      0.0068      0.0221
         5        -0.0041     -0.0211     -0.0467      0.0026      0.0084
         6        -0.0206     -0.0247     -0.0034      0.0010      0.0033
         7         0.0396     -0.0299      0.0331      0.0036      0.0112
         8         0.0184     -0.0191      0.0293      0.0016      0.0048
         9        -0.0009     -0.0198     -0.0351      0.0016      0.0050
        10        -0.0122      0.0551      0.0286      0.0040      0.0119
 Ground to excited state transition magnetic dipole moments (Au):
       state          X           Y           Z
         1        -0.0913     -0.2924     -0.0944
         2         0.1831     -0.6685     -0.7475
         3         0.0352      0.2626      0.0649
         4         0.0634      0.2965      0.0535
         5        -0.0464     -0.2105      0.0547
         6        -0.0297      0.2529     -0.3880
         7         0.1085      0.2293      0.1227
         8        -0.2726     -0.1543      0.0450
         9        -0.1330     -0.1309      0.1170
        10         0.2725      0.0123      0.2062
 Ground to excited state transition velocity quadrupole moments (Au):
       state          XX          YY          ZZ          XY          XZ          YZ
         1         0.1051      0.0333     -0.2778     -0.0011      0.0326      0.0238
         2        -0.7535      0.2386      0.2506     -0.7028      0.3114     -0.3152
         3        -0.0697     -0.0289      0.1905      0.0994     -0.1806      0.0360
         4        -0.1662     -0.0054      0.0899      0.1049     -0.2176      0.0603
         5         0.0102      0.1029      0.0124     -0.0045      0.0823     -0.0091
         6        -0.2217     -0.0743      0.0914     -0.1970     -0.1189      0.0342
         7        -0.2607      0.0625      0.0577      0.0695     -0.1059      0.0166
         8         0.3930     -0.2758     -0.1493     -0.1601      0.1803      0.1817
         9        -0.1063      0.1599     -0.1184      0.1312      0.2073     -0.0443
        10        -0.0659      0.2062      0.0288      0.1473     -0.1221      0.0965
 <0|del|b> * <b|rxdel|0> + <0|del|b> * <b|delr+rdel|0>
 Rotatory Strengths (R) in cgs (10**-40 erg-esu-cm/Gauss)
       state          XX          YY          ZZ    R(velocity)    E-M Angle
         1         6.1392      3.3189      2.3420      3.9334       59.24
         2         9.8615      5.1494     12.3425      9.1178       85.25
         3        -4.6314     -2.6392     -2.8503     -3.3736      104.42
         4       -14.8461     -0.1162     -4.9796     -6.6473      103.16
         5         6.4912     -4.2812      4.8327      2.3476       79.50
         6       -12.0087      0.9121     -3.3129     -4.8032      106.77
         7        -6.0814     11.1696     -0.0890      1.6664       84.87
         8         4.9538      7.0656    -14.4180     -0.7995       93.37
         9        -3.2487      1.0660     -2.3173     -1.5000       99.01
        10        27.7107     -4.4671    -12.9728      3.4236       81.37
 1/2[<0|r|b>*<b|rxdel|0> + (<0|rxdel|b>*<b|r|0>)*]
 Rotatory Strengths (R) in cgs (10**-40 erg-esu-cm/Gauss)
       state          XX          YY          ZZ     R(length)
         1         0.7442      3.4180      7.3027      3.8216
         2       -22.5804    166.6941   -110.2216     11.2974
         3        -0.2022    -19.3021      8.8261     -3.5594
         4         5.8640    -38.1786     12.3866     -6.6427
         5         0.4754     15.2351     -8.5103      2.4001
         6         2.1242    -19.8534      3.9694     -4.5866
         7        14.2539    -23.0457     13.0200      1.4094
         8       -15.8053     10.2726      4.4692     -0.3545
         9         0.1165      7.7054    -13.4271     -1.8684
        10        -9.1593      2.1384     16.8850      3.2880
  1/2[<0|del|b>*<b|r|0> + (<0|r|b>*<b|del|0>)*] (Au)
       state          X           Y           Z        Dip. S.   Osc.(frdel)
         1        -0.0000     -0.0001     -0.0021      0.0022      0.0014
         2        -0.0064     -0.0249     -0.0092      0.0405      0.0270
         3        -0.0000     -0.0021     -0.0073      0.0094      0.0062
         4        -0.0036     -0.0069     -0.0222      0.0327      0.0218
         5        -0.0001     -0.0022     -0.0103      0.0125      0.0083
         6        -0.0021     -0.0027     -0.0000      0.0049      0.0032
         7        -0.0073     -0.0042     -0.0050      0.0166      0.0110
         8        -0.0015     -0.0018     -0.0041      0.0074      0.0049
         9        -0.0000     -0.0016     -0.0057      0.0073      0.0049
        10        -0.0006     -0.0135     -0.0033      0.0174      0.0116

 Excitation energies and oscillator strengths:
 
 Excited State   1:      Singlet-A      5.2587 eV  235.77 nm  f=0.0016  <S**2>=0.000
      63 -> 64         0.45627
      63 -> 65         0.50708
      63 -> 69         0.11013
 This state for optimization and/or second-order correction.
 Total Energy, E(TD-HF/TD-DFT) =  -711.598866527    
 Copying the excited state density for this state as the 1-particle RhoCI density.
 
 Excited State   2:      Singlet-A      5.3996 eV  229.62 nm  f=0.0262  <S**2>=0.000
      62 -> 64         0.64367
      62 -> 65        -0.23715
      62 -> 66        -0.12475
 
 Excited State   3:      Singlet-A      5.5300 eV  224.20 nm  f=0.0065  <S**2>=0.000
      63 -> 64         0.42074
      63 -> 65        -0.33118
      63 -> 66         0.39074
      63 -> 67         0.21867
 
 Excited State   4:      Singlet-A      5.5726 eV  222.49 nm  f=0.0215  <S**2>=0.000
      63 -> 64        -0.30205
      63 -> 65         0.26202
      63 -> 66         0.50956
      63 -> 68         0.19282
      63 -> 70        -0.15185
 
 Excited State   5:      Singlet-A      5.6902 eV  217.89 nm  f=0.0082  <S**2>=0.000
      63 -> 65         0.11811
      63 -> 66        -0.14907
      63 -> 67         0.62089
      63 -> 68        -0.20860
      63 -> 69         0.13128
 
 Excited State   6:      Singlet-A      5.7736 eV  214.74 nm  f=0.0032  <S**2>=0.000
      62 -> 65         0.33496
      62 -> 66        -0.25753
      62 -> 67         0.54210
 
 Excited State   7:      Singlet-A      5.7821 eV  214.43 nm  f=0.0109  <S**2>=0.000
      63 -> 64         0.11211
      63 -> 66        -0.19465
      63 -> 67         0.16626
      63 -> 68         0.61645
      63 -> 69         0.12956
 
 Excited State   8:      Singlet-A      5.9036 eV  210.01 nm  f=0.0051  <S**2>=0.000
      62 -> 64         0.26302
      62 -> 65         0.45309
      62 -> 66         0.42056
      62 -> 67        -0.12184
 
 Excited State   9:      Singlet-A      5.9464 eV  208.50 nm  f=0.0048  <S**2>=0.000
      63 -> 65        -0.15106
      63 -> 67        -0.13757
      63 -> 68        -0.10830
      63 -> 69         0.65199
 
 Excited State  10:      Singlet-A      6.0774 eV  204.01 nm  f=0.0113  <S**2>=0.000
      61 -> 64         0.52851
      61 -> 65         0.31852
      61 -> 66         0.17710
      61 -> 68        -0.11173
      62 -> 66        -0.17281
 SavETr:  write IOETrn=   770 NScale= 10 NData=  16 NLR=1 NState=   10 LETran=     190.
          IDoAtm=11111111111111111111111111111111111111111
          Differentiating once with respect to electric field.
                with respect to dipole field.
          Differentiating once with respect to nuclear coordinates.
          There are     1 degrees of freedom in the 1st order CPHF.  IDoFFX=0 NUNeed=     1.
 LinEq1:  Iter=  0 NonCon=     1 RMS=7.52D-03 Max=2.06D-01 NDo=     1
 AX will form     1 AO Fock derivatives at one time.
 LinEq1:  Iter=  1 NonCon=     1 RMS=2.30D-03 Max=1.13D-01 NDo=     1
 LinEq1:  Iter=  2 NonCon=     1 RMS=9.19D-04 Max=3.28D-02 NDo=     1
 LinEq1:  Iter=  3 NonCon=     1 RMS=4.54D-04 Max=2.19D-02 NDo=     1
 LinEq1:  Iter=  4 NonCon=     1 RMS=2.06D-04 Max=7.61D-03 NDo=     1
slurmstepd: error: *** JOB 27501017 ON lewis4-r630-hpc4rc-node375 CANCELLED AT 2023-05-26T10:14:00 DUE TO TIME LIMIT ***
