### Starting Gaussian ###
 Entering Gaussian System, Link 0=g16
 Initial command:
 /cluster/software/gaussian/gaussian-16-A.03/avx2/g16/l1.exe "/local/scratch/linjian/Gau-1231.inp" -scrdir="/local/scratch/linjian/"
 Entering Link 1 = /cluster/software/gaussian/gaussian-16-A.03/avx2/g16/l1.exe PID=      1232.
  
 Copyright (c) 1988,1990,1992,1993,1995,1998,2003,2009,2016,
            Gaussian, Inc.  All Rights Reserved.
  
 This is part of the Gaussian(R) 16 program.  It is based on
 the Gaussian(R) 09 system (copyright 2009, Gaussian, Inc.),
 the Gaussian(R) 03 system (copyright 2003, Gaussian, Inc.),
 the Gaussian(R) 98 system (copyright 1998, Gaussian, Inc.),
 the Gaussian(R) 94 system (copyright 1995, Gaussian, Inc.),
 the Gaussian 92(TM) system (copyright 1992, Gaussian, Inc.),
 the Gaussian 90(TM) system (copyright 1990, Gaussian, Inc.),
 the Gaussian 88(TM) system (copyright 1988, Gaussian, Inc.),
 the Gaussian 86(TM) system (copyright 1986, Carnegie Mellon
 University), and the Gaussian 82(TM) system (copyright 1983,
 Carnegie Mellon University). Gaussian is a federally registered
 trademark of Gaussian, Inc.
  
 This software contains proprietary and confidential information,
 including trade secrets, belonging to Gaussian, Inc.
  
 This software is provided under written license and may be
 used, copied, transmitted, or stored only in accord with that
 written license.
  
 The following legend is applicable only to US Government
 contracts under FAR:
  
                    RESTRICTED RIGHTS LEGEND
  
 Use, reproduction and disclosure by the US Government is
 subject to restrictions as set forth in subparagraphs (a)
 and (c) of the Commercial Computer Software - Restricted
 Rights clause in FAR 52.227-19.
  
 Gaussian, Inc.
 340 Quinnipiac St., Bldg. 40, Wallingford CT 06492
  
  
 ---------------------------------------------------------------
 Warning -- This program may not be used in any manner that
 competes with the business of Gaussian, Inc. or will provide
 assistance to any competitor of Gaussian, Inc.  The licensee
 of this program is prohibited from giving any competitor of
 Gaussian, Inc. access to this program.  By using this program,
 the user acknowledges that Gaussian, Inc. is engaged in the
 business of creating and licensing software in the field of
 computational chemistry and represents and warrants to the
 licensee that it is not a competitor of Gaussian, Inc. and that
 it will not use this program in any manner prohibited above.
 ---------------------------------------------------------------
  

 Cite this work as:
 Gaussian 16, Revision A.03,
 M. J. Frisch, G. W. Trucks, H. B. Schlegel, G. E. Scuseria, 
 M. A. Robb, J. R. Cheeseman, G. Scalmani, V. Barone, 
 G. A. Petersson, H. Nakatsuji, X. Li, M. Caricato, A. V. Marenich, 
 J. Bloino, B. G. Janesko, R. Gomperts, B. Mennucci, H. P. Hratchian, 
 J. V. Ortiz, A. F. Izmaylov, J. L. Sonnenberg, D. Williams-Young, 
 F. Ding, F. Lipparini, F. Egidi, J. Goings, B. Peng, A. Petrone, 
 T. Henderson, D. Ranasinghe, V. G. Zakrzewski, J. Gao, N. Rega, 
 G. Zheng, W. Liang, M. Hada, M. Ehara, K. Toyota, R. Fukuda, 
 J. Hasegawa, M. Ishida, T. Nakajima, Y. Honda, O. Kitao, H. Nakai, 
 T. Vreven, K. Throssell, J. A. Montgomery, Jr., J. E. Peralta, 
 F. Ogliaro, M. J. Bearpark, J. J. Heyd, E. N. Brothers, K. N. Kudin, 
 V. N. Staroverov, T. A. Keith, R. Kobayashi, J. Normand, 
 K. Raghavachari, A. P. Rendell, J. C. Burant, S. S. Iyengar, 
 J. Tomasi, M. Cossi, J. M. Millam, M. Klene, C. Adamo, R. Cammi, 
 J. W. Ochterski, R. L. Martin, K. Morokuma, O. Farkas, 
 J. B. Foresman, and D. J. Fox, Gaussian, Inc., Wallingford CT, 2016.
 
 ******************************************
 Gaussian 16:  ES64L-G16RevA.03 25-Dec-2016
                28-May-2023 
 ******************************************
 %chk=CCC1CCCCC1.chk
 %NProcShared=20
 Will use up to   20 processors via shared memory.
 -----------------------------
 # opt freq b3lyp/6-31g(2df,p)
 -----------------------------
 1/18=20,19=15,26=3,38=1/1,3;
 2/9=110,12=2,17=6,18=5,40=1/2;
 3/5=1,6=6,7=104,11=2,25=1,30=1,71=1,74=-5/1,2,3;
 4//1;
 5/5=2,38=5/2;
 6/7=2,8=2,9=2,10=2,28=1/1;
 7//1,2,3,16;
 1/18=20,19=15,26=3/3(2);
 2/9=110/2;
 99//99;
 2/9=110/2;
 3/5=1,6=6,7=104,11=2,25=1,30=1,71=1,74=-5/1,2,3;
 4/5=5,16=3,69=1/1;
 5/5=2,38=5/2;
 7//1,2,3,16;
 1/18=20,19=15,26=3/3(-5);
 2/9=110/2;
 6/7=2,8=2,9=2,10=2,19=2,28=1/1;
 99/9=1/99;
 -------------------
 Title Card Required
 -------------------
 Symbolic Z-matrix:
 Charge =  0 Multiplicity = 1
 C                     0.89865  -0.20903  -0.04295 
 C                     2.41681  -0.08149   0.00454 
 C                     2.93803   1.29495   0.46297 
 C                     2.56406   2.40529  -0.53385 
 C                     3.02574   3.7822   -0.06414 
 C                     2.50602   4.09081   1.3361 
 C                     2.94207   3.01939   2.32993 
 C                     2.46893   1.63842   1.88678 
 H                     0.61431  -1.20616  -0.39091 
 H                     0.4528    0.51742  -0.72786 
 H                     0.45139  -0.06971   0.94527 
 H                     2.81936  -0.30352  -0.99177 
 H                     2.81117  -0.85441   0.67622 
 H                     4.0348    1.23039   0.48424 
 H                     1.48006   2.44142  -0.67823 
 H                     3.00835   2.18829  -1.51364 
 H                     2.66689   4.54469  -0.76581 
 H                     4.12013   3.82784  -0.07115 
 H                     1.41131   4.14811   1.316 
 H                     2.87307   5.07063   1.66133 
 H                     2.52807   3.24523   3.31988 
 H                     4.03301   3.02429   2.42751 
 H                     1.37628   1.62292   1.94452 
 H                     2.83697   0.8822    2.59158 
 

 GradGradGradGradGradGradGradGradGradGradGradGradGradGradGradGradGradGrad
 Berny optimization.
 Initialization pass.
                           ----------------------------
                           !    Initial Parameters    !
                           ! (Angstroms and Degrees)  !
 --------------------------                            --------------------------
 ! Name  Definition              Value          Derivative Info.                !
 --------------------------------------------------------------------------------
 ! R1    R(1,2)                  1.5242         estimate D2E/DX2                !
 ! R2    R(1,9)                  1.0937         estimate D2E/DX2                !
 ! R3    R(1,10)                 1.0934         estimate D2E/DX2                !
 ! R4    R(1,11)                 1.0936         estimate D2E/DX2                !
 ! R5    R(2,3)                  1.5416         estimate D2E/DX2                !
 ! R6    R(2,12)                 1.0973         estimate D2E/DX2                !
 ! R7    R(2,13)                 1.0973         estimate D2E/DX2                !
 ! R8    R(3,4)                  1.5383         estimate D2E/DX2                !
 ! R9    R(3,8)                  1.5379         estimate D2E/DX2                !
 ! R10   R(3,14)                 1.0989         estimate D2E/DX2                !
 ! R11   R(4,5)                  1.5263         estimate D2E/DX2                !
 ! R12   R(4,15)                 1.0942         estimate D2E/DX2                !
 ! R13   R(4,16)                 1.0975         estimate D2E/DX2                !
 ! R14   R(5,6)                  1.5251         estimate D2E/DX2                !
 ! R15   R(5,17)                 1.0966         estimate D2E/DX2                !
 ! R16   R(5,18)                 1.0954         estimate D2E/DX2                !
 ! R17   R(6,7)                  1.5251         estimate D2E/DX2                !
 ! R18   R(6,19)                 1.0964         estimate D2E/DX2                !
 ! R19   R(6,20)                 1.0957         estimate D2E/DX2                !
 ! R20   R(7,8)                  1.5256         estimate D2E/DX2                !
 ! R21   R(7,21)                 1.0965         estimate D2E/DX2                !
 ! R22   R(7,22)                 1.0953         estimate D2E/DX2                !
 ! R23   R(8,23)                 1.0943         estimate D2E/DX2                !
 ! R24   R(8,24)                 1.0973         estimate D2E/DX2                !
 ! A1    A(2,1,9)              110.1902         estimate D2E/DX2                !
 ! A2    A(2,1,10)             111.7185         estimate D2E/DX2                !
 ! A3    A(2,1,11)             111.6245         estimate D2E/DX2                !
 ! A4    A(9,1,10)             107.4827         estimate D2E/DX2                !
 ! A5    A(9,1,11)             107.2957         estimate D2E/DX2                !
 ! A6    A(10,1,11)            108.3375         estimate D2E/DX2                !
 ! A7    A(1,2,3)              114.8812         estimate D2E/DX2                !
 ! A8    A(1,2,12)             108.6739         estimate D2E/DX2                !
 ! A9    A(1,2,13)             108.5473         estimate D2E/DX2                !
 ! A10   A(3,2,12)             109.0658         estimate D2E/DX2                !
 ! A11   A(3,2,13)             108.989          estimate D2E/DX2                !
 ! A12   A(12,2,13)            106.3451         estimate D2E/DX2                !
 ! A13   A(2,3,4)              111.6899         estimate D2E/DX2                !
 ! A14   A(2,3,8)              111.8137         estimate D2E/DX2                !
 ! A15   A(2,3,14)             106.9036         estimate D2E/DX2                !
 ! A16   A(4,3,8)              111.3806         estimate D2E/DX2                !
 ! A17   A(4,3,14)             107.3129         estimate D2E/DX2                !
 ! A18   A(8,3,14)             107.4357         estimate D2E/DX2                !
 ! A19   A(3,4,5)              112.2217         estimate D2E/DX2                !
 ! A20   A(3,4,15)             110.4988         estimate D2E/DX2                !
 ! A21   A(3,4,16)             109.7172         estimate D2E/DX2                !
 ! A22   A(5,4,15)             108.0886         estimate D2E/DX2                !
 ! A23   A(5,4,16)             109.3086         estimate D2E/DX2                !
 ! A24   A(15,4,16)            106.8453         estimate D2E/DX2                !
 ! A25   A(4,5,6)              111.2234         estimate D2E/DX2                !
 ! A26   A(4,5,17)             109.3518         estimate D2E/DX2                !
 ! A27   A(4,5,18)             109.7446         estimate D2E/DX2                !
 ! A28   A(6,5,17)             109.588          estimate D2E/DX2                !
 ! A29   A(6,5,18)             109.7497         estimate D2E/DX2                !
 ! A30   A(17,5,18)            107.0907         estimate D2E/DX2                !
 ! A31   A(5,6,7)              111.0211         estimate D2E/DX2                !
 ! A32   A(5,6,19)             109.5112         estimate D2E/DX2                !
 ! A33   A(5,6,20)             109.8351         estimate D2E/DX2                !
 ! A34   A(7,6,19)             109.5208         estimate D2E/DX2                !
 ! A35   A(7,6,20)             109.8181         estimate D2E/DX2                !
 ! A36   A(19,6,20)            107.0487         estimate D2E/DX2                !
 ! A37   A(6,7,8)              110.9765         estimate D2E/DX2                !
 ! A38   A(6,7,21)             109.6138         estimate D2E/DX2                !
 ! A39   A(6,7,22)             109.8585         estimate D2E/DX2                !
 ! A40   A(8,7,21)             109.3653         estimate D2E/DX2                !
 ! A41   A(8,7,22)             109.8059         estimate D2E/DX2                !
 ! A42   A(21,7,22)            107.1393         estimate D2E/DX2                !
 ! A43   A(3,8,7)              112.1166         estimate D2E/DX2                !
 ! A44   A(3,8,23)             110.5025         estimate D2E/DX2                !
 ! A45   A(3,8,24)             109.7808         estimate D2E/DX2                !
 ! A46   A(7,8,23)             107.889          estimate D2E/DX2                !
 ! A47   A(7,8,24)             109.4659         estimate D2E/DX2                !
 ! A48   A(23,8,24)            106.9329         estimate D2E/DX2                !
 ! D1    D(9,1,2,3)            179.1429         estimate D2E/DX2                !
 ! D2    D(9,1,2,12)            56.6747         estimate D2E/DX2                !
 ! D3    D(9,1,2,13)           -58.5855         estimate D2E/DX2                !
 ! D4    D(10,1,2,3)            59.7351         estimate D2E/DX2                !
 ! D5    D(10,1,2,12)          -62.7331         estimate D2E/DX2                !
 ! D6    D(10,1,2,13)         -177.9933         estimate D2E/DX2                !
 ! D7    D(11,1,2,3)           -61.7445         estimate D2E/DX2                !
 ! D8    D(11,1,2,12)          175.7873         estimate D2E/DX2                !
 ! D9    D(11,1,2,13)           60.5271         estimate D2E/DX2                !
 ! D10   D(1,2,3,4)            -64.9115         estimate D2E/DX2                !
 ! D11   D(1,2,3,8)             60.6656         estimate D2E/DX2                !
 ! D12   D(1,2,3,14)           177.9851         estimate D2E/DX2                !
 ! D13   D(12,2,3,4)            57.3454         estimate D2E/DX2                !
 ! D14   D(12,2,3,8)          -177.0775         estimate D2E/DX2                !
 ! D15   D(12,2,3,14)          -59.7581         estimate D2E/DX2                !
 ! D16   D(13,2,3,4)           173.0557         estimate D2E/DX2                !
 ! D17   D(13,2,3,8)           -61.3672         estimate D2E/DX2                !
 ! D18   D(13,2,3,14)           55.9522         estimate D2E/DX2                !
 ! D19   D(2,3,4,5)            177.7083         estimate D2E/DX2                !
 ! D20   D(2,3,4,15)            56.9908         estimate D2E/DX2                !
 ! D21   D(2,3,4,16)           -60.5665         estimate D2E/DX2                !
 ! D22   D(8,3,4,5)             51.8926         estimate D2E/DX2                !
 ! D23   D(8,3,4,15)           -68.8249         estimate D2E/DX2                !
 ! D24   D(8,3,4,16)           173.6178         estimate D2E/DX2                !
 ! D25   D(14,3,4,5)           -65.4357         estimate D2E/DX2                !
 ! D26   D(14,3,4,15)          173.8468         estimate D2E/DX2                !
 ! D27   D(14,3,4,16)           56.2895         estimate D2E/DX2                !
 ! D28   D(2,3,8,7)           -178.0916         estimate D2E/DX2                !
 ! D29   D(2,3,8,23)           -57.6965         estimate D2E/DX2                !
 ! D30   D(2,3,8,24)            60.0091         estimate D2E/DX2                !
 ! D31   D(4,3,8,7)            -52.3444         estimate D2E/DX2                !
 ! D32   D(4,3,8,23)            68.0507         estimate D2E/DX2                !
 ! D33   D(4,3,8,24)          -174.2437         estimate D2E/DX2                !
 ! D34   D(14,3,8,7)            64.9094         estimate D2E/DX2                !
 ! D35   D(14,3,8,23)         -174.6955         estimate D2E/DX2                !
 ! D36   D(14,3,8,24)          -56.9899         estimate D2E/DX2                !
 ! D37   D(3,4,5,6)            -54.3503         estimate D2E/DX2                !
 ! D38   D(3,4,5,17)          -175.52           estimate D2E/DX2                !
 ! D39   D(3,4,5,18)            67.2864         estimate D2E/DX2                !
 ! D40   D(15,4,5,6)            67.7491         estimate D2E/DX2                !
 ! D41   D(15,4,5,17)          -53.4205         estimate D2E/DX2                !
 ! D42   D(15,4,5,18)         -170.6142         estimate D2E/DX2                !
 ! D43   D(16,4,5,6)          -176.3086         estimate D2E/DX2                !
 ! D44   D(16,4,5,17)           62.5217         estimate D2E/DX2                !
 ! D45   D(16,4,5,18)          -54.672          estimate D2E/DX2                !
 ! D46   D(4,5,6,7)             56.7887         estimate D2E/DX2                !
 ! D47   D(4,5,6,19)           -64.2722         estimate D2E/DX2                !
 ! D48   D(4,5,6,20)           178.4388         estimate D2E/DX2                !
 ! D49   D(17,5,6,7)           177.8199         estimate D2E/DX2                !
 ! D50   D(17,5,6,19)           56.759          estimate D2E/DX2                !
 ! D51   D(17,5,6,20)          -60.53           estimate D2E/DX2                !
 ! D52   D(18,5,6,7)           -64.845          estimate D2E/DX2                !
 ! D53   D(18,5,6,19)          174.0941         estimate D2E/DX2                !
 ! D54   D(18,5,6,20)           56.8051         estimate D2E/DX2                !
 ! D55   D(5,6,7,8)            -57.1649         estimate D2E/DX2                !
 ! D56   D(5,6,7,21)          -178.0704         estimate D2E/DX2                !
 ! D57   D(5,6,7,22)            64.4563         estimate D2E/DX2                !
 ! D58   D(19,6,7,8)            63.8904         estimate D2E/DX2                !
 ! D59   D(19,6,7,21)          -57.0151         estimate D2E/DX2                !
 ! D60   D(19,6,7,22)         -174.4884         estimate D2E/DX2                !
 ! D61   D(20,6,7,8)          -178.8249         estimate D2E/DX2                !
 ! D62   D(20,6,7,21)           60.2696         estimate D2E/DX2                !
 ! D63   D(20,6,7,22)          -57.2037         estimate D2E/DX2                !
 ! D64   D(6,7,8,3)             55.1762         estimate D2E/DX2                !
 ! D65   D(6,7,8,23)           -66.7246         estimate D2E/DX2                !
 ! D66   D(6,7,8,24)           177.2552         estimate D2E/DX2                !
 ! D67   D(21,7,8,3)           176.2282         estimate D2E/DX2                !
 ! D68   D(21,7,8,23)           54.3274         estimate D2E/DX2                !
 ! D69   D(21,7,8,24)          -61.6928         estimate D2E/DX2                !
 ! D70   D(22,7,8,3)           -66.4758         estimate D2E/DX2                !
 ! D71   D(22,7,8,23)          171.6234         estimate D2E/DX2                !
 ! D72   D(22,7,8,24)           55.6032         estimate D2E/DX2                !
 --------------------------------------------------------------------------------
 Trust Radius=3.00D-01 FncErr=1.00D-07 GrdErr=1.00D-06 EigMax=2.50D+02 EigMin=1.00D-04
 Number of steps in this run=    144 maximum allowed number of steps=    144.
 GradGradGradGradGradGradGradGradGradGradGradGradGradGradGradGradGradGrad

                          Input orientation:                          
 ---------------------------------------------------------------------
 Center     Atomic      Atomic             Coordinates (Angstroms)
 Number     Number       Type             X           Y           Z
 ---------------------------------------------------------------------
      1          6           0        0.898650   -0.209030   -0.042950
      2          6           0        2.416810   -0.081490    0.004540
      3          6           0        2.938030    1.294950    0.462970
      4          6           0        2.564060    2.405290   -0.533850
      5          6           0        3.025740    3.782200   -0.064140
      6          6           0        2.506020    4.090810    1.336100
      7          6           0        2.942070    3.019390    2.329930
      8          6           0        2.468930    1.638420    1.886780
      9          1           0        0.614310   -1.206160   -0.390910
     10          1           0        0.452800    0.517420   -0.727860
     11          1           0        0.451390   -0.069710    0.945270
     12          1           0        2.819360   -0.303520   -0.991770
     13          1           0        2.811170   -0.854410    0.676220
     14          1           0        4.034800    1.230390    0.484240
     15          1           0        1.480060    2.441420   -0.678230
     16          1           0        3.008350    2.188290   -1.513640
     17          1           0        2.666890    4.544690   -0.765810
     18          1           0        4.120130    3.827840   -0.071150
     19          1           0        1.411310    4.148110    1.316000
     20          1           0        2.873070    5.070630    1.661330
     21          1           0        2.528070    3.245230    3.319880
     22          1           0        4.033010    3.024290    2.427510
     23          1           0        1.376280    1.622920    1.944520
     24          1           0        2.836970    0.882200    2.591580
 ---------------------------------------------------------------------
                    Distance matrix (angstroms):
                    1          2          3          4          5
     1  C    0.000000
     2  C    1.524248   0.000000
     3  C    2.583986   1.541563   0.000000
     4  C    3.138350   2.548651   1.538297   0.000000
     5  C    4.522707   3.911983   2.544003   1.526321   0.000000
     6  C    4.793124   4.380536   2.960713   2.518146   1.525130
     7  C    4.497646   3.911367   2.541505   2.953176   2.514051
     8  C    3.098824   2.550222   1.537941   2.540982   2.951596
     9  H    1.093706   2.161081   3.519139   4.106644   5.550271
    10  H    1.093441   2.180009   2.863389   2.838857   4.209434
    11  H    1.093632   2.178988   2.877202   3.574464   4.741666
    12  H    2.144368   1.097259   2.164592   2.759080   4.194782
    13  H    2.142768   1.097305   2.163635   3.485825   4.700247
    14  H    3.490744   2.137530   1.098874   2.140087   2.798331
    15  H    2.786845   2.776464   2.177707   1.094170   2.136334
    16  H    3.515808   2.794046   2.170251   1.097484   2.154507
    17  H    5.123188   4.696543   3.484857   2.154394   1.096588
    18  H    5.164789   4.264961   2.845729   2.158493   1.095364
    19  H    4.592846   4.540977   3.346499   2.790735   2.155240
    20  H    5.888779   5.431157   3.961824   3.466748   2.158844
    21  H    5.088767   4.697970   3.483331   3.944367   3.462312
    22  H    5.136316   4.257788   2.837079   3.363128   2.792372
    23  H    2.744851   2.784105   2.177526   2.857489   3.379042
    24  H    3.447987   2.792492   2.170612   3.487491   3.936811
                    6          7          8          9         10
     6  C    0.000000
     7  C    1.525050   0.000000
     8  C    2.513730   1.525556   0.000000
     9  H    5.883793   5.538656   4.088902   0.000000
    10  H    4.609204   4.669732   3.486798   1.763618   0.000000
    11  H    4.656627   4.202774   2.806175   1.761658   1.773158
    12  H    4.982700   4.700051   3.489983   2.457242   2.518769
    13  H    4.998376   4.214050   2.792272   2.467527   3.068431
    14  H    3.353332   2.793054   2.141391   4.289804   3.848147
    15  H    2.798322   3.394193   2.863905   3.759909   2.181628
    16  H    3.463082   3.932957   3.486572   4.302818   3.152791
    17  H    2.156365   3.462062   3.939775   6.117672   4.595926
    18  H    2.157512   2.794030   3.369497   6.142815   4.983920
    19  H    1.096393   2.155293   2.782606   5.675998   4.275280
    20  H    1.095695   2.158558   3.463268   6.979382   5.683103
    21  H    2.156589   1.096540   2.153860   6.103058   5.303951
    22  H    2.158782   1.095306   2.158558   6.125986   5.390609
    23  H    2.781541   2.133159   1.094284   3.746802   3.035879
    24  H    3.461349   2.155711   1.097299   4.265760   4.103171
                   11         12         13         14         15
    11  H    0.000000
    12  H    3.068236   0.000000
    13  H    2.501340   1.756627   0.000000
    14  H    3.839744   2.451281   2.424978   0.000000
    15  H    3.162228   3.070298   3.803799   3.056898   0.000000
    16  H    4.205098   2.552877   3.753983   2.441863   1.760016
    17  H    5.397122   4.855867   5.590219   3.797155   2.416605
    18  H    5.448271   4.428056   4.918882   2.657534   3.043136
    19  H    4.341531   5.208207   5.233940   4.010937   2.625732
    20  H    5.727161   5.993606   6.006694   4.181220   3.785071
    21  H    4.576046   5.591851   4.886321   3.790867   4.210620
    22  H    4.959624   4.923286   4.427666   2.644689   4.062378
    23  H    2.172307   3.796768   3.131239   3.058468   2.749460
    24  H    3.050813   3.774472   2.585553   2.448860   3.868337
                   16         17         18         19         20
    16  H    0.000000
    17  H    2.495689   0.000000
    18  H    2.450501   1.763046   0.000000
    19  H    3.794508   2.463268   3.060141   0.000000
    20  H    4.290294   2.492014   2.470055   1.762679   0.000000
    21  H    4.970986   4.289607   3.791197   2.465336   2.490361
    22  H    4.157101   3.791463   2.626135   3.061329   2.473863
    23  H    3.865510   4.189069   4.056268   2.602470   3.769255
    24  H    4.311389   4.971401   4.172940   3.784941   4.290643
                   21         22         23         24
    21  H    0.000000
    22  H    1.763514   0.000000
    23  H    2.418703   3.042258   0.000000
    24  H    2.491937   2.458858   1.760957   0.000000
 Stoichiometry    C8H16
 Framework group  C1[X(C8H16)]
 Deg. of freedom    66
 Full point group                 C1      NOp   1
 Largest Abelian subgroup         C1      NOp   1
 Largest concise Abelian subgroup C1      NOp   1
                         Standard orientation:                         
 ---------------------------------------------------------------------
 Center     Atomic      Atomic             Coordinates (Angstroms)
 Number     Number       Type             X           Y           Z
 ---------------------------------------------------------------------
      1          6           0       -2.630238   -0.026434    0.832172
      2          6           0       -2.071914    0.031206   -0.584967
      3          6           0       -0.533157    0.017427   -0.676903
      4          6           0        0.085275    1.277682   -0.047890
      5          6           0        1.610973    1.250683   -0.082145
      6          6           0        2.155301   -0.019708    0.562708
      7          6           0        1.589065   -1.263058   -0.114961
      8          6           0        0.064180   -1.263118   -0.069734
      9          1           0       -3.723304    0.002744    0.808723
     10          1           0       -2.291880    0.820655    1.435138
     11          1           0       -2.340488   -0.949402    1.342276
     12          1           0       -2.452221    0.935831   -1.075882
     13          1           0       -2.471119   -0.819034   -1.152247
     14          1           0       -0.276830    0.025800   -1.745431
     15          1           0       -0.229374    1.379198    0.995133
     16          1           0       -0.273848    2.169799   -0.576690
     17          1           0        2.001900    2.128073    0.446880
     18          1           0        1.959094    1.318131   -1.118525
     19          1           0        1.893261   -0.031228    1.627264
     20          1           0        3.249222   -0.028634    0.501032
     21          1           0        1.967771   -2.160991    0.387732
     22          1           0        1.929510   -1.307583   -1.155062
     23          1           0       -0.241095   -1.370168    0.975640
     24          1           0       -0.317513   -2.141271   -0.605666
 ---------------------------------------------------------------------
 Rotational constants (GHZ):           3.4512479           1.3917570           1.1802923
 Standard basis: 6-31G(2df,p) (6D, 7F)
 There are   328 symmetry adapted cartesian basis functions of A   symmetry.
 There are   304 symmetry adapted basis functions of A   symmetry.
   304 basis functions,   464 primitive gaussians,   328 cartesian basis functions
    32 alpha electrons       32 beta electrons
       nuclear repulsion energy       407.7444919844 Hartrees.
 NAtoms=   24 NActive=   24 NUniq=   24 SFac= 1.00D+00 NAtFMM=   60 NAOKFM=F Big=F
 Integral buffers will be    131072 words long.
 Raffenetti 2 integral format.
 Two-electron integral symmetry is turned on.
 One-electron integrals computed using PRISM.
 PrsmSu:  requested number of processors reduced to:  13 ShMem   1 Linda.
 NBasis=   304 RedAO= T EigKep=  6.35D-04  NBF=   304
 NBsUse=   304 1.00D-06 EigRej= -1.00D+00 NBFU=   304
 ExpMin= 1.61D-01 ExpMax= 3.05D+03 ExpMxC= 4.57D+02 IAcc=3 IRadAn=         5 AccDes= 0.00D+00
 Harris functional with IExCor=  402 and IRadAn=       5 diagonalized for initial guess.
 HarFok:  IExCor=  402 AccDes= 0.00D+00 IRadAn=         5 IDoV= 1 UseB2=F ITyADJ=14
 ICtDFT=  3500011 ScaDFX=  1.000000  1.000000  1.000000  1.000000
 FoFCou: FMM=F IPFlag=           0 FMFlag=      100000 FMFlg1=           0
         NFxFlg=           0 DoJE=T BraDBF=F KetDBF=T FulRan=T
         wScrn=  0.000000 ICntrl=       500 IOpCl=  0 I1Cent=   200000004 NGrid=           0
         NMat0=    1 NMatS0=      1 NMatT0=    0 NMatD0=    1 NMtDS0=    0 NMtDT0=    0
 Petite list used in FoFCou.
 Requested convergence on RMS density matrix=1.00D-08 within 128 cycles.
 Requested convergence on MAX density matrix=1.00D-06.
 Requested convergence on             energy=1.00D-06.
 No special actions if energy rises.
 Integral accuracy reduced to 1.0D-05 until final iterations.
 Initial convergence to 1.0D-05 achieved.  Increase integral accuracy.
 SCF Done:  E(RB3LYP) =  -314.530055281     A.U. after   11 cycles
            NFock= 11  Conv=0.92D-08     -V/T= 2.0089

 **********************************************************************

            Population analysis using the SCF density.

 **********************************************************************

 Orbital symmetries:
       Occupied  (A) (A) (A) (A) (A) (A) (A) (A) (A) (A) (A) (A)
                 (A) (A) (A) (A) (A) (A) (A) (A) (A) (A) (A) (A)
                 (A) (A) (A) (A) (A) (A) (A) (A)
       Virtual   (A) (A) (A) (A) (A) (A) (A) (A) (A) (A) (A) (A)
                 (A) (A) (A) (A) (A) (A) (A) (A) (A) (A) (A) (A)
                 (A) (A) (A) (A) (A) (A) (A) (A) (A) (A) (A) (A)
                 (A) (A) (A) (A) (A) (A) (A) (A) (A) (A) (A) (A)
                 (A) (A) (A) (A) (A) (A) (A) (A) (A) (A) (A) (A)
                 (A) (A) (A) (A) (A) (A) (A) (A) (A) (A) (A) (A)
                 (A) (A) (A) (A) (A) (A) (A) (A) (A) (A) (A) (A)
                 (A) (A) (A) (A) (A) (A) (A) (A) (A) (A) (A) (A)
                 (A) (A) (A) (A) (A) (A) (A) (A) (A) (A) (A) (A)
                 (A) (A) (A) (A) (A) (A) (A) (A) (A) (A) (A) (A)
                 (A) (A) (A) (A) (A) (A) (A) (A) (A) (A) (A) (A)
                 (A) (A) (A) (A) (A) (A) (A) (A) (A) (A) (A) (A)
                 (A) (A) (A) (A) (A) (A) (A) (A) (A) (A) (A) (A)
                 (A) (A) (A) (A) (A) (A) (A) (A) (A) (A) (A) (A)
                 (A) (A) (A) (A) (A) (A) (A) (A) (A) (A) (A) (A)
                 (A) (A) (A) (A) (A) (A) (A) (A) (A) (A) (A) (A)
                 (A) (A) (A) (A) (A) (A) (A) (A) (A) (A) (A) (A)
                 (A) (A) (A) (A) (A) (A) (A) (A) (A) (A) (A) (A)
                 (A) (A) (A) (A) (A) (A) (A) (A) (A) (A) (A) (A)
                 (A) (A) (A) (A) (A) (A) (A) (A) (A) (A) (A) (A)
                 (A) (A) (A) (A) (A) (A) (A) (A) (A) (A) (A) (A)
                 (A) (A) (A) (A) (A) (A) (A) (A) (A) (A) (A) (A)
                 (A) (A) (A) (A) (A) (A) (A) (A)
 The electronic state is 1-A.
 Alpha  occ. eigenvalues --  -10.17530 -10.17101 -10.16915 -10.16896 -10.16882
 Alpha  occ. eigenvalues --  -10.16798 -10.16788 -10.16592  -0.82978  -0.77141
 Alpha  occ. eigenvalues --   -0.73480  -0.70809  -0.62750  -0.60105  -0.56803
 Alpha  occ. eigenvalues --   -0.53555  -0.46378  -0.44684  -0.43940  -0.43105
 Alpha  occ. eigenvalues --   -0.43095  -0.38403  -0.36939  -0.36844  -0.36753
 Alpha  occ. eigenvalues --   -0.33949  -0.33913  -0.32351  -0.32105  -0.30446
 Alpha  occ. eigenvalues --   -0.28520  -0.28457
 Alpha virt. eigenvalues --    0.08573   0.10228   0.10828   0.11973   0.15345
 Alpha virt. eigenvalues --    0.15698   0.16099   0.16409   0.16552   0.17103
 Alpha virt. eigenvalues --    0.18191   0.18294   0.19191   0.19730   0.21071
 Alpha virt. eigenvalues --    0.21596   0.24014   0.24475   0.25579   0.27192
 Alpha virt. eigenvalues --    0.27913   0.28606   0.28668   0.28935   0.46736
 Alpha virt. eigenvalues --    0.46873   0.47870   0.49217   0.50621   0.51532
 Alpha virt. eigenvalues --    0.51824   0.52247   0.54975   0.55725   0.57011
 Alpha virt. eigenvalues --    0.58228   0.61121   0.62045   0.62363   0.63036
 Alpha virt. eigenvalues --    0.63890   0.66534   0.67364   0.69641   0.71792
 Alpha virt. eigenvalues --    0.73329   0.73858   0.74641   0.75622   0.75844
 Alpha virt. eigenvalues --    0.76561   0.77485   0.77692   0.78840   0.80725
 Alpha virt. eigenvalues --    0.81844   0.82375   0.84065   0.85089   0.86864
 Alpha virt. eigenvalues --    0.87039   0.88229   0.89701   0.91387   0.94108
 Alpha virt. eigenvalues --    0.95733   1.03662   1.05597   1.06566   1.10556
 Alpha virt. eigenvalues --    1.15920   1.17614   1.20422   1.24602   1.25618
 Alpha virt. eigenvalues --    1.27427   1.29155   1.30869   1.33338   1.36231
 Alpha virt. eigenvalues --    1.38091   1.40170   1.40719   1.41228   1.43708
 Alpha virt. eigenvalues --    1.47542   1.48266   1.49746   1.52489   1.54276
 Alpha virt. eigenvalues --    1.54646   1.59556   1.60824   1.61998   1.64584
 Alpha virt. eigenvalues --    1.65746   1.68402   1.70508   1.72384   1.73766
 Alpha virt. eigenvalues --    1.77801   1.80604   1.81935   1.86357   1.87610
 Alpha virt. eigenvalues --    1.90190   1.91840   1.93308   1.93507   1.97383
 Alpha virt. eigenvalues --    1.98069   1.99313   1.99439   2.18116   2.20420
 Alpha virt. eigenvalues --    2.21490   2.25642   2.25979   2.26125   2.26612
 Alpha virt. eigenvalues --    2.27791   2.33494   2.35405   2.37499   2.39949
 Alpha virt. eigenvalues --    2.40853   2.43632   2.46751   2.49388   2.49540
 Alpha virt. eigenvalues --    2.50317   2.52657   2.52803   2.60468   2.68648
 Alpha virt. eigenvalues --    2.70031   2.70895   2.74919   2.75745   2.77550
 Alpha virt. eigenvalues --    2.78015   2.79491   2.79910   2.82542   2.84821
 Alpha virt. eigenvalues --    2.86649   2.86866   2.90041   2.90831   2.90986
 Alpha virt. eigenvalues --    2.92376   2.93816   2.93939   2.97567   2.98371
 Alpha virt. eigenvalues --    2.98716   3.00211   3.04561   3.05427   3.08610
 Alpha virt. eigenvalues --    3.08756   3.11159   3.14313   3.14836   3.19362
 Alpha virt. eigenvalues --    3.22184   3.24405   3.28629   3.28823   3.33055
 Alpha virt. eigenvalues --    3.36048   3.38045   3.39599   3.43039   3.44004
 Alpha virt. eigenvalues --    3.44556   3.46232   3.49062   3.51139   3.54071
 Alpha virt. eigenvalues --    3.55461   3.59772   3.59956   3.60348   3.62757
 Alpha virt. eigenvalues --    3.67572   3.71249   3.72386   3.72892   3.74981
 Alpha virt. eigenvalues --    3.77316   3.78700   3.79636   3.81666   3.84365
 Alpha virt. eigenvalues --    3.85006   3.90298   3.92251   3.96643   4.03913
 Alpha virt. eigenvalues --    4.05401   4.09227   4.10390   4.15697   4.17860
 Alpha virt. eigenvalues --    4.18607   4.20799   4.30130   4.41168   4.43122
 Alpha virt. eigenvalues --    4.44679   4.46653   4.49514   4.56155   4.56217
 Alpha virt. eigenvalues --    4.57505   4.57827   4.58746   4.60433   4.62265
 Alpha virt. eigenvalues --    4.62533   4.63297   4.66568   4.67355   4.68019
 Alpha virt. eigenvalues --    4.69040   4.71121   4.72906   4.74288   4.76361
 Alpha virt. eigenvalues --    4.77018   4.79895   4.80059   4.80638   4.82192
 Alpha virt. eigenvalues --    4.86120   4.87911   4.88312   4.91855   4.91904
 Alpha virt. eigenvalues --    4.93447   4.93729   4.94588   4.96691   4.97866
 Alpha virt. eigenvalues --    4.98749   5.02124   5.05619   5.08861   5.19442
 Alpha virt. eigenvalues --    5.26799   5.30787   5.32026   5.40487   5.40620
 Alpha virt. eigenvalues --    5.46617   5.47435   5.48577   5.55478   5.60658
 Alpha virt. eigenvalues --    5.80137   6.03603   6.08775   6.43102  11.09303
 Alpha virt. eigenvalues --   11.45127  11.87416  11.92650  12.29188  12.43052
 Alpha virt. eigenvalues --   12.64411  12.85720
          Condensed to atoms (all electrons):
               1          2          3          4          5          6
     1  C    4.935629   0.419773  -0.028030  -0.008439   0.000359  -0.000042
     2  C    0.419773   4.847659   0.411262  -0.034561   0.002805   0.000700
     3  C   -0.028030   0.411262   4.583687   0.433001  -0.021549  -0.016198
     4  C   -0.008439  -0.034561   0.433001   4.838527   0.414057  -0.026684
     5  C    0.000359   0.002805  -0.021549   0.414057   4.822777   0.427431
     6  C   -0.000042   0.000700  -0.016198  -0.026684   0.427431   4.789776
     7  C    0.000403   0.002829  -0.020927  -0.012925  -0.030505   0.427162
     8  C   -0.009227  -0.035339   0.432581  -0.029965  -0.012960  -0.026080
     9  H    0.374544  -0.025181   0.003126   0.000186  -0.000004   0.000000
    10  H    0.380183  -0.030607  -0.004711   0.001208  -0.000189   0.000004
    11  H    0.380726  -0.030056  -0.004947  -0.000162  -0.000004   0.000003
    12  H   -0.039936   0.359675  -0.023394  -0.005425   0.000107  -0.000006
    13  H   -0.040069   0.359026  -0.022948   0.004626  -0.000190  -0.000005
    14  H    0.004958  -0.034246   0.353826  -0.048267  -0.002365  -0.000862
    15  H    0.001220  -0.006289  -0.031180   0.362107  -0.034904  -0.004836
    16  H   -0.000308  -0.003325  -0.029755   0.360225  -0.030809   0.004258
    17  H    0.000003  -0.000153   0.003353  -0.028239   0.363127  -0.031901
    18  H   -0.000002   0.000033  -0.005103  -0.033244   0.365424  -0.035558
    19  H   -0.000023  -0.000010  -0.001093  -0.004993  -0.036026   0.366874
    20  H    0.000001   0.000002   0.000660   0.003903  -0.031240   0.365296
    21  H    0.000004  -0.000155   0.003318   0.000493   0.004349  -0.031847
    22  H   -0.000001   0.000023  -0.005312  -0.000975  -0.005218  -0.035449
    23  H    0.001559  -0.006840  -0.030493  -0.006894  -0.000373  -0.005122
    24  H   -0.000457  -0.003003  -0.030145   0.004859   0.000320   0.004243
               7          8          9         10         11         12
     1  C    0.000403  -0.009227   0.374544   0.380183   0.380726  -0.039936
     2  C    0.002829  -0.035339  -0.025181  -0.030607  -0.030056   0.359675
     3  C   -0.020927   0.432581   0.003126  -0.004711  -0.004947  -0.023394
     4  C   -0.012925  -0.029965   0.000186   0.001208  -0.000162  -0.005425
     5  C   -0.030505  -0.012960  -0.000004  -0.000189  -0.000004   0.000107
     6  C    0.427162  -0.026080   0.000000   0.000004   0.000003  -0.000006
     7  C    4.823246   0.414236  -0.000005  -0.000010  -0.000161  -0.000182
     8  C    0.414236   4.838623   0.000211  -0.000301   0.001258   0.004659
     9  H   -0.000005   0.000211   0.608559  -0.031343  -0.031404  -0.003134
    10  H   -0.000010  -0.000301  -0.031343   0.596126  -0.034408  -0.003833
    11  H   -0.000161   0.001258  -0.031404  -0.034408   0.595602   0.005739
    12  H   -0.000182   0.004659  -0.003134  -0.003833   0.005739   0.656976
    13  H    0.000073  -0.004492  -0.002745   0.005808  -0.004295  -0.039058
    14  H   -0.002446  -0.048667  -0.000169   0.000028   0.000031  -0.003030
    15  H   -0.000343  -0.006942  -0.000163   0.004739   0.000331  -0.000103
    16  H    0.000312   0.004903  -0.000030   0.000418   0.000036   0.004987
    17  H    0.004361   0.000495  -0.000000   0.000012   0.000000  -0.000002
    18  H   -0.005178  -0.001023   0.000000   0.000001   0.000000  -0.000003
    19  H   -0.035935  -0.005272   0.000000  -0.000002  -0.000006  -0.000000
    20  H   -0.031365   0.003885   0.000000  -0.000000  -0.000000  -0.000000
    21  H    0.363093  -0.028259  -0.000000   0.000000   0.000012   0.000003
    22  H    0.365255  -0.033239   0.000000  -0.000000   0.000001  -0.000002
    23  H   -0.035074   0.362148  -0.000153   0.000539   0.004127   0.000024
    24  H   -0.031079   0.360433  -0.000034   0.000060   0.000642  -0.000050
              13         14         15         16         17         18
     1  C   -0.040069   0.004958   0.001220  -0.000308   0.000003  -0.000002
     2  C    0.359026  -0.034246  -0.006289  -0.003325  -0.000153   0.000033
     3  C   -0.022948   0.353826  -0.031180  -0.029755   0.003353  -0.005103
     4  C    0.004626  -0.048267   0.362107   0.360225  -0.028239  -0.033244
     5  C   -0.000190  -0.002365  -0.034904  -0.030809   0.363127   0.365424
     6  C   -0.000005  -0.000862  -0.004836   0.004258  -0.031901  -0.035558
     7  C    0.000073  -0.002446  -0.000343   0.000312   0.004361  -0.005178
     8  C   -0.004492  -0.048667  -0.006942   0.004903   0.000495  -0.001023
     9  H   -0.002745  -0.000169  -0.000163  -0.000030  -0.000000   0.000000
    10  H    0.005808   0.000028   0.004739   0.000418   0.000012   0.000001
    11  H   -0.004295   0.000031   0.000331   0.000036   0.000000   0.000000
    12  H   -0.039058  -0.003030  -0.000103   0.004987  -0.000002  -0.000003
    13  H    0.657932  -0.004024   0.000019  -0.000032   0.000003  -0.000001
    14  H   -0.004024   0.713488   0.007033  -0.006042  -0.000099   0.004535
    15  H    0.000019   0.007033   0.648050  -0.040575  -0.004905   0.006382
    16  H   -0.000032  -0.006042  -0.040575   0.659236  -0.002229  -0.004588
    17  H    0.000003  -0.000099  -0.004905  -0.002229   0.658718  -0.039336
    18  H   -0.000001   0.004535   0.006382  -0.004588  -0.039336   0.652110
    19  H    0.000000   0.000157   0.004753  -0.000047  -0.004142   0.006410
    20  H   -0.000000  -0.000001  -0.000048  -0.000212  -0.002759  -0.003936
    21  H   -0.000001  -0.000092  -0.000016   0.000018  -0.000207  -0.000054
    22  H   -0.000004   0.004659   0.000131  -0.000027  -0.000053   0.004765
    23  H   -0.000113   0.006999   0.003775  -0.000076  -0.000021   0.000134
    24  H    0.004719  -0.005866  -0.000080  -0.000181   0.000018  -0.000024
              19         20         21         22         23         24
     1  C   -0.000023   0.000001   0.000004  -0.000001   0.001559  -0.000457
     2  C   -0.000010   0.000002  -0.000155   0.000023  -0.006840  -0.003003
     3  C   -0.001093   0.000660   0.003318  -0.005312  -0.030493  -0.030145
     4  C   -0.004993   0.003903   0.000493  -0.000975  -0.006894   0.004859
     5  C   -0.036026  -0.031240   0.004349  -0.005218  -0.000373   0.000320
     6  C    0.366874   0.365296  -0.031847  -0.035449  -0.005122   0.004243
     7  C   -0.035935  -0.031365   0.363093   0.365255  -0.035074  -0.031079
     8  C   -0.005272   0.003885  -0.028259  -0.033239   0.362148   0.360433
     9  H    0.000000   0.000000  -0.000000   0.000000  -0.000153  -0.000034
    10  H   -0.000002  -0.000000   0.000000  -0.000000   0.000539   0.000060
    11  H   -0.000006  -0.000000   0.000012   0.000001   0.004127   0.000642
    12  H   -0.000000  -0.000000   0.000003  -0.000002   0.000024  -0.000050
    13  H    0.000000  -0.000000  -0.000001  -0.000004  -0.000113   0.004719
    14  H    0.000157  -0.000001  -0.000092   0.004659   0.006999  -0.005866
    15  H    0.004753  -0.000048  -0.000016   0.000131   0.003775  -0.000080
    16  H   -0.000047  -0.000212   0.000018  -0.000027  -0.000076  -0.000181
    17  H   -0.004142  -0.002759  -0.000207  -0.000053  -0.000021   0.000018
    18  H    0.006410  -0.003936  -0.000054   0.004765   0.000134  -0.000024
    19  H    0.652848  -0.038939  -0.004073   0.006397   0.004995  -0.000040
    20  H   -0.038939   0.657739  -0.002805  -0.003821  -0.000038  -0.000215
    21  H   -0.004073  -0.002805   0.658910  -0.039337  -0.004699  -0.002413
    22  H    0.006397  -0.003821  -0.039337   0.652015   0.006409  -0.004312
    23  H    0.004995  -0.000038  -0.004699   0.006409   0.647720  -0.040775
    24  H   -0.000040  -0.000215  -0.002413  -0.004312  -0.040775   0.660231
 Mulliken charges:
               1
     1  C   -0.372825
     2  C   -0.194022
     3  C    0.050970
     4  C   -0.182419
     5  C   -0.194420
     6  C   -0.171157
     7  C   -0.194836
     8  C   -0.181666
     9  H    0.107738
    10  H    0.116278
    11  H    0.116936
    12  H    0.085985
    13  H    0.085772
    14  H    0.060460
    15  H    0.091844
    16  H    0.083843
    17  H    0.083956
    18  H    0.088258
    19  H    0.088167
    20  H    0.083893
    21  H    0.083758
    22  H    0.088096
    23  H    0.092241
    24  H    0.083148
 Sum of Mulliken charges =  -0.00000
 Mulliken charges with hydrogens summed into heavy atoms:
               1
     1  C   -0.031872
     2  C   -0.022265
     3  C    0.111430
     4  C   -0.006732
     5  C   -0.022205
     6  C    0.000904
     7  C   -0.022982
     8  C   -0.006277
 Electronic spatial extent (au):  <R**2>=           1157.8008
 Charge=             -0.0000 electrons
 Dipole moment (field-independent basis, Debye):
    X=              0.0183    Y=             -0.0012    Z=             -0.0445  Tot=              0.0481
 Quadrupole moment (field-independent basis, Debye-Ang):
   XX=            -53.7353   YY=            -53.0613   ZZ=            -52.6693
   XY=              0.0058   XZ=              0.1023   YZ=              0.0066
 Traceless Quadrupole moment (field-independent basis, Debye-Ang):
   XX=             -0.5800   YY=              0.0939   ZZ=              0.4860
   XY=              0.0058   XZ=              0.1023   YZ=              0.0066
 Octapole moment (field-independent basis, Debye-Ang**2):
  XXX=             -0.1724  YYY=             -0.0587  ZZZ=             -0.5263  XYY=             -0.9077
  XXY=              0.0205  XXZ=             -1.2652  XZZ=              1.2037  YZZ=              0.0413
  YYZ=              0.1846  XYZ=             -0.0517
 Hexadecapole moment (field-independent basis, Debye-Ang**3):
 XXXX=          -1015.0913 YYYY=           -384.9642 ZZZZ=           -197.4824 XXXY=             -0.2482
 XXXZ=              1.0124 YYYX=              0.0381 YYYZ=             -0.2991 ZZZX=              0.2018
 ZZZY=              0.2687 XXYY=           -235.1540 XXZZ=           -206.6384 YYZZ=            -94.9221
 XXYZ=              0.1470 YYXZ=              2.5149 ZZXY=              0.0975
 N-N= 4.077444919844D+02 E-N=-1.542241119396D+03  KE= 3.117640717691D+02
 PrsmSu:  requested number of processors reduced to:  13 ShMem   1 Linda.
 Calling FoFJK, ICntrl=      2127 FMM=F ISym2X=0 I1Cent= 0 IOpClX= 0 NMat=1 NMatS=1 NMatT=0.
 ***** Axes restored to original set *****
 -------------------------------------------------------------------
 Center     Atomic                   Forces (Hartrees/Bohr)
 Number     Number              X              Y              Z
 -------------------------------------------------------------------
      1        6          -0.003462519   -0.003025224   -0.000714103
      2        6           0.003283303   -0.000175495    0.000402869
      3        6          -0.004072370   -0.003897065   -0.001821906
      4        6           0.003762399   -0.000044427   -0.001076875
      5        6          -0.002951767    0.003842985   -0.003487561
      6        6           0.004450118    0.005073026    0.001743121
      7        6          -0.003345884    0.001213824    0.004859428
      8        6           0.003662572   -0.000827864    0.001043344
      9        1          -0.000957539   -0.000501906   -0.000385400
     10        1          -0.001340593   -0.000263797    0.000280779
     11        1          -0.001216784    0.000044132   -0.000619092
     12        1           0.001296836    0.000129867   -0.000021396
     13        1           0.001161849   -0.000059178    0.000049913
     14        1           0.000954456    0.000756394    0.000364036
     15        1          -0.001947696   -0.001367334    0.000017407
     16        1          -0.001448825   -0.001576254   -0.000213657
     17        1           0.002074544    0.000529802   -0.000727840
     18        1           0.002010412    0.000599913    0.000320434
     19        1          -0.001503148    0.000375028    0.000150320
     20        1          -0.001395080    0.001115433    0.000209601
     21        1           0.001999636    0.000012318    0.001028162
     22        1           0.002038147    0.000728676    0.000232751
     23        1          -0.001678595   -0.001239262   -0.000931344
     24        1          -0.001373471   -0.001443591   -0.000702991
 -------------------------------------------------------------------
 Cartesian Forces:  Max     0.005073026 RMS     0.001949263

 GradGradGradGradGradGradGradGradGradGradGradGradGradGradGradGradGradGrad
 Berny optimization.
 FormGI is forming the generalized inverse of G from B-inverse, IUseBI=4.
 Internal  Forces:  Max     0.008071920 RMS     0.001740376
 Search for a local minimum.
 Step number   1 out of a maximum of  144
 All quantities printed in internal units (Hartrees-Bohrs-Radians)
 Mixed Optimization -- RFO/linear search
 Second derivative matrix not updated -- first step.
 ITU=  0
     Eigenvalues ---    0.00230   0.00445   0.00492   0.00576   0.00695
     Eigenvalues ---    0.01908   0.01919   0.03308   0.03417   0.03711
     Eigenvalues ---    0.03974   0.04288   0.04593   0.04765   0.04795
     Eigenvalues ---    0.04816   0.04896   0.05432   0.05491   0.05561
     Eigenvalues ---    0.05652   0.05966   0.06449   0.08080   0.08092
     Eigenvalues ---    0.08118   0.08229   0.08249   0.08309   0.08694
     Eigenvalues ---    0.08766   0.12035   0.12107   0.12464   0.14338
     Eigenvalues ---    0.15948   0.16000   0.16000   0.16000   0.17541
     Eigenvalues ---    0.20750   0.21951   0.27463   0.27692   0.28381
     Eigenvalues ---    0.28412   0.29443   0.29448   0.29802   0.29961
     Eigenvalues ---    0.33807   0.33962   0.33982   0.33983   0.33987
     Eigenvalues ---    0.34062   0.34068   0.34084   0.34163   0.34200
     Eigenvalues ---    0.34207   0.34322   0.34335   0.34388   0.34396
     Eigenvalues ---    0.34418
 RFO step:  Lambda=-3.24089903D-03 EMin= 2.30000000D-03
 Linear search not attempted -- first point.
 Iteration  1 RMS(Cart)=  0.07516997 RMS(Int)=  0.00157434
 Iteration  2 RMS(Cart)=  0.00249709 RMS(Int)=  0.00018291
 Iteration  3 RMS(Cart)=  0.00000202 RMS(Int)=  0.00018291
 Iteration  4 RMS(Cart)=  0.00000000 RMS(Int)=  0.00018291
 Variable       Old X    -DE/DX   Delta X   Delta X   Delta X     New X
                                 (Linear)    (Quad)   (Total)
    R1        2.88041   0.00730   0.00000   0.02411   0.02411   2.90452
    R2        2.06681   0.00083   0.00000   0.00239   0.00239   2.06920
    R3        2.06630   0.00019   0.00000   0.00056   0.00056   2.06686
    R4        2.06666  -0.00006   0.00000  -0.00017  -0.00017   2.06650
    R5        2.91313   0.00416   0.00000   0.01448   0.01448   2.92761
    R6        2.07352   0.00047   0.00000   0.00137   0.00137   2.07489
    R7        2.07361   0.00049   0.00000   0.00143   0.00143   2.07504
    R8        2.90696   0.00245   0.00000   0.00414   0.00429   2.91125
    R9        2.90629   0.00243   0.00000   0.00413   0.00428   2.91057
   R10        2.07657   0.00092   0.00000   0.00268   0.00268   2.07925
   R11        2.88433   0.00714   0.00000   0.02347   0.02346   2.90779
   R12        2.06768   0.00188   0.00000   0.00543   0.00543   2.07311
   R13        2.07394  -0.00008   0.00000  -0.00025  -0.00025   2.07370
   R14        2.88208   0.00478   0.00000   0.01994   0.01979   2.90187
   R15        2.07225   0.00016   0.00000   0.00045   0.00045   2.07270
   R16        2.06994   0.00203   0.00000   0.00588   0.00588   2.07582
   R17        2.88193   0.00485   0.00000   0.02015   0.02000   2.90193
   R18        2.07188   0.00152   0.00000   0.00442   0.00442   2.07630
   R19        2.07056   0.00059   0.00000   0.00172   0.00172   2.07228
   R20        2.88288   0.00736   0.00000   0.02475   0.02476   2.90764
   R21        2.07216   0.00018   0.00000   0.00051   0.00051   2.07267
   R22        2.06983   0.00205   0.00000   0.00594   0.00594   2.07577
   R23        2.06790   0.00164   0.00000   0.00475   0.00475   2.07264
   R24        2.07359   0.00008   0.00000   0.00024   0.00024   2.07384
    A1        1.92318   0.00051   0.00000   0.00307   0.00306   1.92624
    A2        1.94985   0.00142   0.00000   0.00839   0.00837   1.95822
    A3        1.94821   0.00144   0.00000   0.00918   0.00915   1.95737
    A4        1.87593  -0.00109   0.00000  -0.00742  -0.00742   1.86850
    A5        1.87266  -0.00094   0.00000  -0.00514  -0.00516   1.86751
    A6        1.89085  -0.00156   0.00000  -0.00939  -0.00943   1.88142
    A7        2.00505   0.00807   0.00000   0.04079   0.04072   2.04577
    A8        1.89672  -0.00176   0.00000  -0.00228  -0.00215   1.89457
    A9        1.89451  -0.00176   0.00000   0.00001   0.00001   1.89452
   A10        1.90356  -0.00309   0.00000  -0.01732  -0.01753   1.88603
   A11        1.90222  -0.00283   0.00000  -0.01310  -0.01343   1.88879
   A12        1.85607   0.00091   0.00000  -0.01182  -0.01206   1.84402
   A13        1.94936   0.00143   0.00000   0.02992   0.02941   1.97876
   A14        1.95152   0.00171   0.00000   0.03200   0.03152   1.98304
   A15        1.86582  -0.00142   0.00000  -0.02099  -0.02039   1.84543
   A16        1.94396  -0.00092   0.00000  -0.00714  -0.00804   1.93592
   A17        1.87296  -0.00043   0.00000  -0.01829  -0.01840   1.85457
   A18        1.87511  -0.00059   0.00000  -0.02067  -0.02074   1.85437
   A19        1.95864   0.00158   0.00000   0.00039   0.00056   1.95920
   A20        1.92857  -0.00121   0.00000  -0.01067  -0.01067   1.91790
   A21        1.91493  -0.00130   0.00000  -0.00689  -0.00705   1.90787
   A22        1.88650   0.00071   0.00000   0.01213   0.01206   1.89857
   A23        1.90780   0.00030   0.00000   0.01246   0.01242   1.92021
   A24        1.86480  -0.00013   0.00000  -0.00734  -0.00749   1.85732
   A25        1.94121   0.00012   0.00000   0.00637   0.00607   1.94729
   A26        1.90855   0.00059   0.00000   0.01159   0.01150   1.92005
   A27        1.91540  -0.00013   0.00000  -0.00643  -0.00642   1.90899
   A28        1.91267   0.00050   0.00000   0.01301   0.01281   1.92548
   A29        1.91549  -0.00047   0.00000  -0.01285  -0.01270   1.90279
   A30        1.86908  -0.00063   0.00000  -0.01224  -0.01218   1.85690
   A31        1.93768  -0.00074   0.00000   0.00551   0.00535   1.94303
   A32        1.91133  -0.00017   0.00000  -0.00848  -0.00849   1.90284
   A33        1.91698   0.00086   0.00000   0.01050   0.01040   1.92739
   A34        1.91150  -0.00026   0.00000  -0.00943  -0.00944   1.90205
   A35        1.91669   0.00097   0.00000   0.01163   0.01155   1.92824
   A36        1.86835  -0.00066   0.00000  -0.01043  -0.01036   1.85799
   A37        1.93691   0.00015   0.00000   0.00814   0.00782   1.94472
   A38        1.91312   0.00045   0.00000   0.01278   0.01256   1.92568
   A39        1.91739  -0.00051   0.00000  -0.01433  -0.01417   1.90322
   A40        1.90878   0.00064   0.00000   0.01192   0.01180   1.92058
   A41        1.91647  -0.00011   0.00000  -0.00640  -0.00635   1.91012
   A42        1.86993  -0.00064   0.00000  -0.01266  -0.01260   1.85733
   A43        1.95680   0.00148   0.00000   0.00051   0.00070   1.95750
   A44        1.92863  -0.00120   0.00000  -0.01124  -0.01125   1.91739
   A45        1.91604  -0.00126   0.00000  -0.00652  -0.00669   1.90935
   A46        1.88302   0.00074   0.00000   0.01336   0.01329   1.89631
   A47        1.91054   0.00040   0.00000   0.01207   0.01203   1.92257
   A48        1.86633  -0.00019   0.00000  -0.00812  -0.00827   1.85806
    D1        3.12663  -0.00019   0.00000  -0.00614  -0.00616   3.12047
    D2        0.98916  -0.00043   0.00000  -0.01020  -0.01028   0.97888
    D3       -1.02251   0.00036   0.00000   0.00497   0.00506  -1.01745
    D4        1.04257  -0.00008   0.00000  -0.00430  -0.00430   1.03827
    D5       -1.09490  -0.00032   0.00000  -0.00836  -0.00843  -1.10332
    D6       -3.10657   0.00047   0.00000   0.00681   0.00691  -3.09966
    D7       -1.07765  -0.00010   0.00000  -0.00466  -0.00468  -1.08233
    D8        3.06807  -0.00034   0.00000  -0.00872  -0.00880   3.05926
    D9        1.05640   0.00045   0.00000   0.00645   0.00653   1.06293
   D10       -1.13292  -0.00048   0.00000  -0.00519  -0.00570  -1.13862
   D11        1.05881   0.00074   0.00000   0.03339   0.03393   1.09275
   D12        3.10643   0.00011   0.00000   0.01321   0.01324   3.11966
   D13        1.00087   0.00052   0.00000   0.00716   0.00649   1.00735
   D14       -3.09059   0.00174   0.00000   0.04574   0.04612  -3.04447
   D15       -1.04298   0.00111   0.00000   0.02557   0.02542  -1.01755
   D16        3.02039  -0.00165   0.00000  -0.02362  -0.02402   2.99638
   D17       -1.07106  -0.00043   0.00000   0.01497   0.01561  -1.05545
   D18        0.97655  -0.00106   0.00000  -0.00521  -0.00508   0.97147
   D19        3.10159   0.00195   0.00000   0.08621   0.08620  -3.09539
   D20        0.99468   0.00081   0.00000   0.07792   0.07789   1.07257
   D21       -1.05709   0.00249   0.00000   0.09750   0.09742  -0.95967
   D22        0.90570  -0.00071   0.00000   0.02635   0.02651   0.93220
   D23       -1.20122  -0.00185   0.00000   0.01806   0.01820  -1.18302
   D24        3.03020  -0.00017   0.00000   0.03763   0.03773   3.06793
   D25       -1.14207   0.00076   0.00000   0.06627   0.06618  -1.07589
   D26        3.03420  -0.00037   0.00000   0.05798   0.05788   3.09207
   D27        0.98244   0.00130   0.00000   0.07756   0.07740   1.05984
   D28       -3.10829  -0.00173   0.00000  -0.08212  -0.08212   3.09278
   D29       -1.00699  -0.00062   0.00000  -0.07255  -0.07254  -1.07954
   D30        1.04736  -0.00235   0.00000  -0.09326  -0.09320   0.95415
   D31       -0.91358   0.00077   0.00000  -0.02336  -0.02351  -0.93710
   D32        1.18771   0.00188   0.00000  -0.01379  -0.01394   1.17377
   D33       -3.04113   0.00016   0.00000  -0.03450  -0.03460  -3.07572
   D34        1.13288  -0.00061   0.00000  -0.06188  -0.06176   1.07112
   D35       -3.04901   0.00050   0.00000  -0.05231  -0.05219  -3.10120
   D36       -0.99466  -0.00122   0.00000  -0.07302  -0.07285  -1.06751
   D37       -0.94859   0.00017   0.00000   0.00043   0.00031  -0.94828
   D38       -3.06340  -0.00093   0.00000  -0.02769  -0.02781  -3.09121
   D39        1.17437  -0.00043   0.00000  -0.01591  -0.01601   1.15836
   D40        1.18245   0.00015   0.00000  -0.00439  -0.00444   1.17800
   D41       -0.93236  -0.00094   0.00000  -0.03251  -0.03256  -0.96492
   D42       -2.97778  -0.00044   0.00000  -0.02073  -0.02076  -2.99854
   D43       -3.07717   0.00055   0.00000   0.00020   0.00017  -3.07700
   D44        1.09121  -0.00055   0.00000  -0.02792  -0.02795   1.06326
   D45       -0.95421  -0.00005   0.00000  -0.01614  -0.01615  -0.97036
   D46        0.99115  -0.00145   0.00000  -0.03570  -0.03585   0.95530
   D47       -1.12176  -0.00053   0.00000  -0.02184  -0.02190  -1.14366
   D48        3.11434  -0.00013   0.00000  -0.01034  -0.01036   3.10399
   D49        3.10354  -0.00030   0.00000  -0.00835  -0.00843   3.09511
   D50        0.99063   0.00062   0.00000   0.00550   0.00553   0.99616
   D51       -1.05645   0.00102   0.00000   0.01700   0.01706  -1.03938
   D52       -1.13176  -0.00105   0.00000  -0.02309  -0.02321  -1.15497
   D53        3.03852  -0.00013   0.00000  -0.00924  -0.00925   3.02926
   D54        0.99144   0.00027   0.00000   0.00226   0.00229   0.99372
   D55       -0.99772   0.00145   0.00000   0.03787   0.03803  -0.95969
   D56       -3.10791   0.00026   0.00000   0.00929   0.00936  -3.09855
   D57        1.12497   0.00107   0.00000   0.02556   0.02567   1.15064
   D58        1.11510   0.00059   0.00000   0.02458   0.02463   1.13973
   D59       -0.99510  -0.00060   0.00000  -0.00401  -0.00403  -0.99913
   D60       -3.04540   0.00021   0.00000   0.01226   0.01227  -3.03312
   D61       -3.12108   0.00020   0.00000   0.01318   0.01319  -3.10789
   D62        1.05190  -0.00099   0.00000  -0.01540  -0.01547   1.03643
   D63       -0.99839  -0.00018   0.00000   0.00087   0.00083  -0.99756
   D64        0.96301  -0.00019   0.00000  -0.00543  -0.00532   0.95768
   D65       -1.16456  -0.00013   0.00000  -0.00077  -0.00073  -1.16530
   D66        3.09369  -0.00053   0.00000  -0.00492  -0.00489   3.08880
   D67        3.07576   0.00089   0.00000   0.02360   0.02372   3.09948
   D68        0.94819   0.00095   0.00000   0.02825   0.02831   0.97650
   D69       -1.07674   0.00055   0.00000   0.02411   0.02415  -1.05259
   D70       -1.16022   0.00043   0.00000   0.01153   0.01161  -1.14861
   D71        2.99539   0.00049   0.00000   0.01618   0.01621   3.01160
   D72        0.97046   0.00009   0.00000   0.01204   0.01205   0.98251
         Item               Value     Threshold  Converged?
 Maximum Force            0.008072     0.000450     NO 
 RMS     Force            0.001740     0.000300     NO 
 Maximum Displacement     0.304887     0.001800     NO 
 RMS     Displacement     0.075160     0.001200     NO 
 Predicted change in Energy=-1.798536D-03
 GradGradGradGradGradGradGradGradGradGradGradGradGradGradGradGradGradGrad

                          Input orientation:                          
 ---------------------------------------------------------------------
 Center     Atomic      Atomic             Coordinates (Angstroms)
 Number     Number       Type             X           Y           Z
 ---------------------------------------------------------------------
      1          6           0        0.896075   -0.331022   -0.091476
      2          6           0        2.410739   -0.089468    0.007668
      3          6           0        2.875556    1.314043    0.470483
      4          6           0        2.510556    2.436185   -0.519934
      5          6           0        3.040478    3.808062   -0.067328
      6          6           0        2.578339    4.150051    1.356591
      7          6           0        2.962157    3.043106    2.349331
      8          6           0        2.425276    1.673309    1.898912
      9          1           0        0.694683   -1.346765   -0.447385
     10          1           0        0.413038    0.356081   -0.792065
     11          1           0        0.397720   -0.226649    0.876298
     12          1           0        2.861561   -0.291159   -0.972968
     13          1           0        2.839485   -0.835405    0.689941
     14          1           0        3.974716    1.271033    0.495851
     15          1           0        1.420719    2.497222   -0.629627
     16          1           0        2.908708    2.188324   -1.512016
     17          1           0        2.717034    4.585765   -0.769889
     18          1           0        4.138574    3.802002   -0.095590
     19          1           0        1.486158    4.269796    1.359614
     20          1           0        2.997224    5.112432    1.674232
     21          1           0        2.586591    3.282967    3.351535
     22          1           0        4.056682    2.998117    2.430496
     23          1           0        1.329858    1.691623    1.950729
     24          1           0        2.756351    0.890519    2.593156
 ---------------------------------------------------------------------
                    Distance matrix (angstroms):
                    1          2          3          4          5
     1  C    0.000000
     2  C    1.537005   0.000000
     3  C    2.634460   1.549225   0.000000
     4  C    3.232269   2.582103   1.540570   0.000000
     5  C    4.661659   3.948790   2.556672   1.538738   0.000000
     6  C    5.000693   4.452101   2.986045   2.542298   1.535602
     7  C    4.648760   3.949743   2.554843   2.967318   2.536046
     8  C    3.212078   2.585420   1.540205   2.537730   2.966773
     9  H    1.094971   2.175480   3.560700   4.196828   5.676217
    10  H    1.093737   2.197475   2.928432   2.966559   4.398280
    11  H    1.093544   2.196721   2.945860   3.674810   4.914621
    12  H    2.154472   1.097983   2.158801   2.786907   4.201882
    13  H    2.154497   1.098062   2.160923   3.503612   4.709102
    14  H    3.519881   2.129627   1.100294   2.129123   2.761610
    15  H    2.926401   2.842051   2.174098   1.097043   2.158264
    16  H    3.523596   2.783119   2.166972   1.097354   2.174406
    17  H    5.286864   4.749339   3.502544   2.173891   1.096828
    18  H    5.253161   4.259062   2.847032   2.167017   1.098476
    19  H    4.860184   4.656801   3.384886   2.818550   2.159924
    20  H    6.096208   5.493739   3.986424   3.494783   2.176300
    21  H    5.270018   4.752440   3.501517   3.963722   3.488604
    22  H    5.237648   4.255868   2.841270   3.378064   2.815636
    23  H    2.906865   2.848873   2.173218   2.837711   3.387933
    24  H    3.487124   2.786497   2.167792   3.484369   3.958656
                    6          7          8          9         10
     6  C    0.000000
     7  C    1.535635   0.000000
     8  C    2.540038   1.538656   0.000000
     9  H    6.084198   5.677501   4.197726   0.000000
    10  H    4.868210   4.856592   3.609093   1.760060   0.000000
    11  H    4.913378   4.408794   2.960838   1.759256   1.767271
    12  H    5.023087   4.707984   3.506733   2.466961   2.539076
    13  H    5.036605   4.220363   2.815462   2.480963   3.082795
    14  H    3.313531   2.756974   2.128655   4.301299   3.896334
    15  H    2.831429   3.398266   2.842794   3.916194   2.371981
    16  H    3.490906   3.955187   3.483300   4.304903   3.178649
    17  H    2.175086   3.488469   3.961064   6.276051   4.816546
    18  H    2.159699   2.817360   3.383011   6.204348   5.122408
    19  H    1.098730   2.159370   2.813278   5.952935   4.593309
    20  H    1.096603   2.176947   3.493590   7.178034   5.948405
    21  H    2.175248   1.096812   2.174197   6.280567   5.519096
    22  H    2.160029   1.098452   2.167761   6.201874   5.535468
    23  H    2.820562   2.156337   1.096796   3.922525   3.185460
    24  H    3.490749   2.176106   1.097426   4.301255   4.151682
                   11         12         13         14         15
    11  H    0.000000
    12  H    3.081308   0.000000
    13  H    2.523396   1.749845   0.000000
    14  H    3.896498   2.415986   2.400729   0.000000
    15  H    3.276250   3.157369   3.854939   3.048466   0.000000
    16  H    4.223884   2.537840   3.741168   2.451393   1.757310
    17  H    5.590034   4.883290   5.615619   3.764481   2.462137
    18  H    5.582883   4.376587   4.879572   2.604315   3.061761
    19  H    4.651485   5.304242   5.323818   3.991440   2.665217
    20  H    5.991653   6.018710   6.030794   4.135266   3.825240
    21  H    4.820307   5.617055   4.910094   3.758949   4.222120
    22  H    5.118853   4.881724   4.382578   2.594685   4.069835
    23  H    2.388107   3.850396   3.202254   3.047760   2.704715
    24  H    3.123908   3.758280   2.570593   2.455176   3.840799
                   16         17         18         19         20
    16  H    0.000000
    17  H    2.516986   0.000000
    18  H    2.474427   1.757766   0.000000
    19  H    3.821314   2.479854   3.061333   0.000000
    20  H    4.325555   2.515872   2.480359   1.758505   0.000000
    21  H    4.995611   4.324400   3.815851   2.480430   2.515732
    22  H    4.185333   3.815462   2.652178   3.061299   2.482884
    23  H    3.837979   4.207384   4.065711   2.649683   3.815559
    24  H    4.308125   4.996645   4.197216   3.815040   4.327469
                   21         22         23         24
    21  H    0.000000
    22  H    1.758016   0.000000
    23  H    2.464551   3.061483   0.000000
    24  H    2.515505   2.481792   1.757658   0.000000
 Stoichiometry    C8H16
 Framework group  C1[X(C8H16)]
 Deg. of freedom    66
 Full point group                 C1      NOp   1
 Largest Abelian subgroup         C1      NOp   1
 Largest concise Abelian subgroup C1      NOp   1
                         Standard orientation:                         
 ---------------------------------------------------------------------
 Center     Atomic      Atomic             Coordinates (Angstroms)
 Number     Number       Type             X           Y           Z
 ---------------------------------------------------------------------
      1          6           0       -2.766049   -0.014435    0.772159
      2          6           0       -2.079497    0.017356   -0.602621
      3          6           0       -0.530416    0.007731   -0.621337
      4          6           0        0.096180    1.271903   -0.002788
      5          6           0        1.632234    1.265022   -0.093383
      6          6           0        2.228341   -0.009733    0.521214
      7          6           0        1.621710   -1.270941   -0.110868
      8          6           0        0.086184   -1.265787   -0.012906
      9          1           0       -3.854316    0.017439    0.655447
     10          1           0       -2.484941    0.840080    1.394287
     11          1           0       -2.530808   -0.925407    1.329502
     12          1           0       -2.420926    0.910086   -1.143017
     13          1           0       -2.435272   -0.839053   -1.190606
     14          1           0       -0.244812    0.010670   -1.683914
     15          1           0       -0.195051    1.355125    1.051613
     16          1           0       -0.305891    2.159984   -0.506609
     17          1           0        2.041408    2.154018    0.401889
     18          1           0        1.935464    1.330048   -1.147172
     19          1           0        2.023015   -0.016815    1.600565
     20          1           0        3.319544   -0.012977    0.412567
     21          1           0        2.025981   -2.170233    0.369585
     22          1           0        1.920547   -1.322016   -1.166654
     23          1           0       -0.198194   -1.349574    1.043064
     24          1           0       -0.327864   -2.148072   -0.517369
 ---------------------------------------------------------------------
 Rotational constants (GHZ):           3.5029832           1.3326644           1.1289029
 Standard basis: 6-31G(2df,p) (6D, 7F)
 There are   328 symmetry adapted cartesian basis functions of A   symmetry.
 There are   304 symmetry adapted basis functions of A   symmetry.
   304 basis functions,   464 primitive gaussians,   328 cartesian basis functions
    32 alpha electrons       32 beta electrons
       nuclear repulsion energy       404.0436565293 Hartrees.
 NAtoms=   24 NActive=   24 NUniq=   24 SFac= 1.00D+00 NAtFMM=   60 NAOKFM=F Big=F
 Integral buffers will be    131072 words long.
 Raffenetti 2 integral format.
 Two-electron integral symmetry is turned on.
 One-electron integrals computed using PRISM.
 PrsmSu:  requested number of processors reduced to:  13 ShMem   1 Linda.
 NBasis=   304 RedAO= T EigKep=  6.79D-04  NBF=   304
 NBsUse=   304 1.00D-06 EigRej= -1.00D+00 NBFU=   304
 Initial guess from the checkpoint file:  "CCC1CCCCC1.chk"
 B after Tr=    -0.000000    0.000000    0.000000
         Rot=    0.999986    0.003868    0.003397   -0.001009 Ang=   0.60 deg.
 ExpMin= 1.61D-01 ExpMax= 3.05D+03 ExpMxC= 4.57D+02 IAcc=2 IRadAn=         4 AccDes= 0.00D+00
 Harris functional with IExCor=  402 and IRadAn=       4 diagonalized for initial guess.
 HarFok:  IExCor=  402 AccDes= 0.00D+00 IRadAn=         4 IDoV= 1 UseB2=F ITyADJ=14
 ICtDFT=  3500011 ScaDFX=  1.000000  1.000000  1.000000  1.000000
 FoFCou: FMM=F IPFlag=           0 FMFlag=      100000 FMFlg1=           0
         NFxFlg=           0 DoJE=T BraDBF=F KetDBF=T FulRan=T
         wScrn=  0.000000 ICntrl=       500 IOpCl=  0 I1Cent=   200000004 NGrid=           0
         NMat0=    1 NMatS0=      1 NMatT0=    0 NMatD0=    1 NMtDS0=    0 NMtDT0=    0
 Petite list used in FoFCou.
 Requested convergence on RMS density matrix=1.00D-08 within 128 cycles.
 Requested convergence on MAX density matrix=1.00D-06.
 Requested convergence on             energy=1.00D-06.
 No special actions if energy rises.
 Integral accuracy reduced to 1.0D-05 until final iterations.
 Initial convergence to 1.0D-05 achieved.  Increase integral accuracy.
 SCF Done:  E(RB3LYP) =  -314.531281561     A.U. after   10 cycles
            NFock= 10  Conv=0.22D-08     -V/T= 2.0094
 PrsmSu:  requested number of processors reduced to:  13 ShMem   1 Linda.
 Calling FoFJK, ICntrl=      2127 FMM=F ISym2X=0 I1Cent= 0 IOpClX= 0 NMat=1 NMatS=1 NMatT=0.
 ***** Axes restored to original set *****
 -------------------------------------------------------------------
 Center     Atomic                   Forces (Hartrees/Bohr)
 Number     Number              X              Y              Z
 -------------------------------------------------------------------
      1        6           0.001147810    0.000456756    0.000177206
      2        6           0.000135772    0.001526948    0.000517873
      3        6           0.000160416   -0.000975482   -0.000424804
      4        6           0.000282085   -0.000108319    0.000204151
      5        6          -0.000280950   -0.000740389    0.000273298
      6        6          -0.000673705   -0.000421618   -0.000148294
      7        6          -0.000277993   -0.000427055   -0.000688377
      8        6           0.000321758   -0.000036092   -0.000216703
      9        1           0.000563552   -0.000018844   -0.000024134
     10        1           0.000034248    0.000838698   -0.000171465
     11        1          -0.000024731    0.000725541    0.000722984
     12        1           0.000111455    0.000348121   -0.000103661
     13        1          -0.000031869    0.000294119    0.000329004
     14        1           0.000891681   -0.000387787   -0.000160538
     15        1          -0.001074681   -0.000147572    0.000221696
     16        1          -0.000460597    0.000346424   -0.000165343
     17        1           0.000184875   -0.000344173    0.000275728
     18        1           0.000385108   -0.000342752   -0.000160223
     19        1          -0.000385326    0.000304087    0.000067342
     20        1           0.000037394   -0.000460229   -0.000124585
     21        1           0.000179880   -0.000129898   -0.000425250
     22        1           0.000387236   -0.000413903    0.000003087
     23        1          -0.001208425   -0.000157696   -0.000268685
     24        1          -0.000404994    0.000271115    0.000289691
 -------------------------------------------------------------------
 Cartesian Forces:  Max     0.001526948 RMS     0.000473325

 GradGradGradGradGradGradGradGradGradGradGradGradGradGradGradGradGradGrad
 Berny optimization.
 Using GEDIIS/GDIIS optimizer.
 FormGI is forming the generalized inverse of G from B-inverse, IUseBI=4.
 Internal  Forces:  Max     0.004792753 RMS     0.000697183
 Search for a local minimum.
 Step number   2 out of a maximum of  144
 All quantities printed in internal units (Hartrees-Bohrs-Radians)
 Mixed Optimization -- En-DIIS/RFO-DIIS
 Update second derivatives using D2CorX and points    1    2
 DE= -1.23D-03 DEPred=-1.80D-03 R= 6.82D-01
 TightC=F SS=  1.41D+00  RLast= 3.21D-01 DXNew= 5.0454D-01 9.6402D-01
 Trust test= 6.82D-01 RLast= 3.21D-01 DXMaxT set to 5.05D-01
 ITU=  1  0
 Use linear search instead of GDIIS.
     Eigenvalues ---    0.00230   0.00445   0.00508   0.00575   0.00679
     Eigenvalues ---    0.01886   0.01953   0.03089   0.03380   0.03692
     Eigenvalues ---    0.03894   0.04187   0.04539   0.04799   0.04807
     Eigenvalues ---    0.04871   0.04961   0.05360   0.05499   0.05594
     Eigenvalues ---    0.05616   0.05973   0.06538   0.08145   0.08165
     Eigenvalues ---    0.08191   0.08223   0.08261   0.08417   0.08790
     Eigenvalues ---    0.09045   0.12097   0.12152   0.12744   0.14454
     Eigenvalues ---    0.15985   0.16000   0.16045   0.16290   0.17767
     Eigenvalues ---    0.21013   0.23209   0.27516   0.27691   0.28105
     Eigenvalues ---    0.28419   0.29477   0.29531   0.29890   0.32353
     Eigenvalues ---    0.33865   0.33962   0.33966   0.33983   0.33986
     Eigenvalues ---    0.34027   0.34065   0.34105   0.34129   0.34195
     Eigenvalues ---    0.34204   0.34329   0.34354   0.34388   0.34412
     Eigenvalues ---    0.35097
 RFO step:  Lambda=-2.43316442D-04 EMin= 2.29906236D-03
 Quartic linear search produced a step of -0.18173.
 Iteration  1 RMS(Cart)=  0.01641918 RMS(Int)=  0.00010467
 Iteration  2 RMS(Cart)=  0.00014062 RMS(Int)=  0.00003762
 Iteration  3 RMS(Cart)=  0.00000001 RMS(Int)=  0.00003762
 Variable       Old X    -DE/DX   Delta X   Delta X   Delta X     New X
                                 (Linear)    (Quad)   (Total)
    R1        2.90452  -0.00205  -0.00438   0.00017  -0.00422   2.90030
    R2        2.06920  -0.00008  -0.00043   0.00038  -0.00005   2.06915
    R3        2.06686   0.00062  -0.00010   0.00161   0.00151   2.06837
    R4        2.06650   0.00072   0.00003   0.00167   0.00170   2.06820
    R5        2.92761  -0.00479  -0.00263  -0.01031  -0.01294   2.91467
    R6        2.07489   0.00007  -0.00025   0.00050   0.00026   2.07514
    R7        2.07504  -0.00001  -0.00026   0.00032   0.00006   2.07510
    R8        2.91125  -0.00068  -0.00078  -0.00163  -0.00246   2.90879
    R9        2.91057  -0.00069  -0.00078  -0.00145  -0.00227   2.90830
   R10        2.07925   0.00090  -0.00049   0.00281   0.00233   2.08158
   R11        2.90779  -0.00152  -0.00426   0.00130  -0.00297   2.90483
   R12        2.07311   0.00104  -0.00099   0.00376   0.00277   2.07588
   R13        2.07370  -0.00010   0.00004  -0.00029  -0.00024   2.07345
   R14        2.90187  -0.00046  -0.00360   0.00396   0.00041   2.90227
   R15        2.07270  -0.00048  -0.00008  -0.00103  -0.00111   2.07159
   R16        2.07582   0.00039  -0.00107   0.00234   0.00127   2.07709
   R17        2.90193  -0.00052  -0.00364   0.00405   0.00046   2.90239
   R18        2.07630   0.00042  -0.00080   0.00205   0.00124   2.07754
   R19        2.07228  -0.00043  -0.00031  -0.00061  -0.00092   2.07136
   R20        2.90764  -0.00156  -0.00450   0.00177  -0.00272   2.90492
   R21        2.07267  -0.00048  -0.00009  -0.00102  -0.00112   2.07156
   R22        2.07577   0.00040  -0.00108   0.00238   0.00130   2.07707
   R23        2.07264   0.00119  -0.00086   0.00396   0.00310   2.07574
   R24        2.07384  -0.00013  -0.00004  -0.00026  -0.00030   2.07353
    A1        1.92624  -0.00047  -0.00056  -0.00035  -0.00090   1.92534
    A2        1.95822  -0.00044  -0.00152  -0.00107  -0.00259   1.95564
    A3        1.95737  -0.00045  -0.00166  -0.00067  -0.00233   1.95504
    A4        1.86850   0.00061   0.00135   0.00230   0.00365   1.87216
    A5        1.86751   0.00067   0.00094   0.00366   0.00461   1.87211
    A6        1.88142   0.00020   0.00171  -0.00359  -0.00188   1.87954
    A7        2.04577  -0.00360  -0.00740  -0.00549  -0.01288   2.03289
    A8        1.89457   0.00121   0.00039   0.00418   0.00453   1.89909
    A9        1.89452   0.00121  -0.00000   0.00385   0.00382   1.89834
   A10        1.88603   0.00094   0.00319  -0.00191   0.00133   1.88735
   A11        1.88879   0.00086   0.00244  -0.00228   0.00022   1.88900
   A12        1.84402  -0.00035   0.00219   0.00238   0.00459   1.84861
   A13        1.97876  -0.00049  -0.00534  -0.00017  -0.00550   1.97326
   A14        1.98304  -0.00093  -0.00573  -0.00183  -0.00753   1.97550
   A15        1.84543   0.00029   0.00371   0.00070   0.00432   1.84975
   A16        1.93592   0.00054   0.00146  -0.00922  -0.00778   1.92814
   A17        1.85457   0.00030   0.00334   0.00633   0.00974   1.86430
   A18        1.85437   0.00044   0.00377   0.00600   0.00983   1.86419
   A19        1.95920  -0.00073  -0.00010  -0.00673  -0.00696   1.95224
   A20        1.91790  -0.00001   0.00194  -0.00413  -0.00218   1.91572
   A21        1.90787   0.00051   0.00128   0.00378   0.00513   1.91300
[...]
 ,0.00367908,-0.00352853,-0.01278408,-0.00064834,-0.00212384,-0.0001654
 6,-0.00003846,-0.00001763,0.00019105,0.00001696,0.00131900,-0.00066059
 ,0.00002968,-0.00005909,-0.00001836,-0.00015307,0.00007889,0.00010670,
 0.00001509,0.00012481,-0.00013194,0.00012569,-0.00018699,0.00010060,-0
 .00008710,-0.00016225,-0.00011269,0.00059472,-0.00067331,0.00010562,-0
 .01133148,0.00730481,0.02965777,0.08134516,-0.00004283,-0.00006938,-0.
 00010765,-0.00058316,0.00160598,0.00109597,-0.00934684,0.00448848,0.02
 231549,0.01946578,-0.05848973,-0.05077127,0.01120365,-0.00707119,-0.02
 818104,-0.00358208,-0.00556749,-0.00001218,0.00001829,-0.00057010,0.00
 017386,0.00187953,-0.00412766,0.00272504,-0.00004073,-0.00000861,-0.00
 003910,-0.00003591,0.00000814,-0.00000918,0.00012925,0.00004925,-0.000
 03410,0.00023840,-0.00025749,-0.00048578,0.00016320,0.00028099,-0.0002
 1419,-0.00003026,0.00079210,-0.00082530,0.00061269,-0.00080539,-0.0015
 4022,-0.02061971,0.06712577,0.00011530,0.00033657,0.00011662,0.0002335
 9,-0.00145263,0.00038320,0.00814365,-0.00441587,-0.02079851,0.07896782
 ,-0.05071547,-0.25645578,0.00314821,-0.00192895,-0.00814593,-0.0014933
 8,-0.00190746,0.00128012,0.00026672,0.00035358,0.00059269,-0.00254044,
 0.00427806,-0.00086063,0.00006208,0.00004418,0.00002089,0.00016454,0.0
 0000992,-0.00012970,-0.00015960,-0.00010465,0.00009022,-0.00011238,0.0
 0098349,0.00071857,-0.00029192,-0.00005695,0.00040203,-0.00050769,-0.0
 0036082,0.00067303,-0.00025764,0.00045830,0.00158026,-0.08597221,0.055
 15754,0.28144324,0.00007353,0.00010294,0.00005141,0.00056435,-0.000441
 52,0.00042940,-0.00086023,-0.00156937,-0.00136738,0.00308804,-0.010393
 31,0.00868934,-0.07260532,0.05636672,-0.05047065,0.00243368,-0.0081219
 3,0.00786314,-0.00025974,0.00079023,0.00161278,0.00000418,0.00017487,-
 0.00016124,0.00001198,0.00001889,-0.00001152,-0.00003283,0.00001150,-0
 .00002757,-0.00000691,-0.00000423,0.00000073,-0.00000376,0.00000096,-0
 .00000887,-0.00008342,-0.00025996,-0.00004138,0.00048038,-0.00028885,0
 .00018983,0.00065820,0.00045316,0.00054052,0.00016834,0.00070834,-0.00
 001718,0.07518461,0.00020133,-0.00011612,-0.00000604,0.00066831,-0.000
 66979,0.00189274,-0.00361375,-0.00397355,-0.00416523,0.00958327,-0.021
 76624,0.01913145,0.05526102,-0.17464383,0.11517686,-0.00297027,0.00645
 901,-0.00591319,0.00052218,0.00015498,-0.00166882,0.00014790,0.0000504
 3,-0.00068643,-0.00011719,-0.00002780,-0.00002798,-0.00005278,0.000064
 01,-0.00003225,-0.00004123,0.00001102,0.00002481,0.00003856,0.00005540
 ,-0.00004391,-0.00020220,-0.00075696,-0.00011916,-0.00000726,0.0003130
 8,-0.00028445,-0.00036207,0.00130957,0.00016577,0.00058544,0.00085723,
 -0.00038970,-0.05965870,0.19208630,0.00004703,0.00002318,-0.00002460,0
 .00006055,-0.00045668,0.00053105,-0.00088764,-0.00195859,-0.00029361,0
 .00359554,-0.00809673,0.00704280,-0.04946160,0.11511677,-0.14965353,-0
 .01023159,0.02262561,-0.02023579,0.00326075,-0.00375726,-0.00506769,-0
 .00019026,-0.00073803,0.00003819,-0.00001595,0.00000737,0.00000909,-0.
 00001583,-0.00000055,0.00000329,-0.00003472,-0.00001344,0.00001229,0.0
 0002426,0.00006956,0.00004136,-0.00003574,-0.00024517,-0.00004248,-0.0
 0005043,0.00005262,-0.00010446,0.00035176,0.00056518,0.00027998,0.0003
 8476,0.00055613,0.00066258,0.05377391,-0.12426858,0.16508899,-0.000070
 30,0.00019211,-0.00010569,0.00037586,-0.00015664,0.00001936,-0.0000305
 8,0.00113535,-0.00017888,-0.01334816,-0.00051050,-0.00042357,-0.293670
 32,0.00643492,0.00662672,-0.01110400,0.00102399,0.00093967,0.00019470,
 0.00002304,-0.00081716,0.00023484,-0.00011802,0.00011883,0.00008272,-0
 .00003969,0.00003412,0.00008835,-0.00001488,0.00010801,0.00001552,-0.0
 0000128,0.00000176,-0.00002040,0.00000044,-0.00002567,-0.00000332,-0.0
 0008729,0.00002188,0.00076392,-0.00063705,0.00056265,0.00048991,-0.002
 51789,-0.00094411,0.00070587,-0.00017997,-0.00046260,-0.01031244,0.000
 60313,-0.00002883,0.32309817,-0.00012087,-0.00000666,-0.00016117,0.000
 13483,0.00010953,-0.00026221,-0.00137224,0.00201886,-0.00054478,-0.031
 24700,-0.00144372,0.00029839,0.00711574,-0.04811140,0.00176799,0.00900
 608,-0.00107267,-0.00093412,-0.00073305,0.00008192,0.00040002,0.000002
 46,-0.00020614,0.00003702,0.00007016,-0.00009334,0.00009486,0.00020603
 ,-0.00000244,0.00016821,0.00000454,-0.00000838,0.00002280,-0.00001171,
 -0.00000805,-0.00001111,0.00005422,-0.00000607,0.00001468,0.00076106,-
 0.00032353,0.00021025,-0.00253452,-0.00521337,-0.00157499,0.00072399,0
 .00130964,0.00020559,0.02303874,-0.00073761,-0.00089443,-0.00566520,0.
 05282073,-0.00005258,0.00000255,-0.00011750,-0.00002525,0.00006161,-0.
 00003576,0.00059513,0.00060105,-0.00002791,-0.01116145,-0.00063224,-0.
 00051598,0.00608034,0.00186891,-0.04795755,0.03295639,-0.00153422,-0.0
 0299577,0.00094872,-0.00054765,0.00195817,-0.00003490,0.00004097,-0.00
 024356,0.00001916,-0.00004320,0.00002736,0.00006240,-0.00000173,0.0000
 7459,-0.00000052,-0.00000123,0.00001251,0.00000041,-0.00001643,-0.0000
 2621,0.00001641,-0.00001506,0.00000207,0.00023565,0.00005586,0.0002460
 4,-0.00072447,-0.00243801,0.00028720,-0.00012875,0.00053411,0.00025757
 ,-0.02070273,0.00027242,0.00038753,-0.00837212,0.00280882,0.05324198,-
 0.00004076,0.00003671,0.00001016,-0.00004305,0.00001025,-0.00000138,0.
 00024142,0.00008683,0.00004110,0.00026603,-0.00035469,-0.00071894,-0.0
 1127897,0.00081666,0.00101902,-0.29081812,0.02732004,0.00155024,-0.009
 58178,0.00118417,-0.00086153,0.00025283,-0.00061963,0.00036708,0.00002
 718,0.00000180,0.00000129,0.00000264,-0.00000478,0.00003123,0.00000486
 ,0.00001404,-0.00002820,0.00001579,0.00002004,0.00000876,0.00001627,0.
 00002346,0.00000494,0.00000965,-0.00019139,-0.00005584,0.00062855,0.00
 072639,0.00025957,0.00036935,-0.00002091,0.00007320,0.00062525,-0.0003
 4662,0.00040699,0.00086611,0.00038820,0.00225587,0.31940701,0.00002959
 ,-0.00001147,-0.00000489,0.00001493,-0.00001328,-0.00004081,-0.0000485
 2,-0.00027033,-0.00001359,0.00109018,0.00037402,0.00040158,0.00709578,
 -0.00130401,-0.00020304,0.02660120,-0.05253562,-0.00135253,0.02501921,
 -0.00410420,0.00082213,0.00131240,0.00147904,-0.00038901,-0.00002251,0
 .00002134,0.00000519,-0.00001662,-0.00000609,-0.00003361,-0.00001243,-
 0.00002348,0.00002168,-0.00000916,-0.00002028,-0.00000191,-0.00000492,
 0.00000748,-0.00001327,-0.00022470,0.00007607,0.00006518,-0.00022023,-
 0.00003362,-0.00020536,-0.00020708,0.00008220,0.00005698,-0.00052064,0
 .00028125,0.00008576,0.00060616,0.00057105,-0.00124198,-0.03233038,0.0
 5437816,0.00000798,-0.00000475,0.00000561,0.00000007,-0.00004093,0.000
 10420,-0.00000164,-0.00000973,-0.00023473,0.00065775,0.00113758,0.0015
 5933,0.03325143,-0.00386868,-0.00266685,0.00132314,-0.00133188,-0.0462
 0465,-0.02357471,0.00361671,-0.00156311,0.00005806,-0.00122254,0.00046
 732,-0.00000641,0.00000590,0.00000452,0.00000474,-0.00000285,-0.000006
 74,-0.00001386,-0.00000792,0.00000841,0.00000355,0.00002700,0.00002888
 ,-0.00000805,-0.00004051,0.00000065,-0.00006643,0.00006616,-0.00013169
 ,-0.00079113,-0.00034649,-0.00005047,-0.00034387,0.00038010,0.00010766
 ,-0.00046334,0.00050451,0.00139868,0.00213559,-0.00212040,-0.00593557,
 -0.00258365,-0.00124932,0.05490355,-0.00001344,-0.00000525,0.00000019,
 -0.00000381,0.00000221,-0.00000720,-0.00002987,-0.00017973,-0.00003140
 ,-0.00027493,0.00015222,0.00176162,0.00369731,0.01040068,0.00382486,-0
 .09161402,-0.09173494,-0.03030778,0.00303021,0.00925549,0.00258746,-0.
 00003991,0.00096982,-0.00112203,0.00000485,-0.00001337,-0.00000520,-0.
 00000535,0.00000016,0.00002305,-0.00000029,0.00001488,-0.00002047,0.00
 001057,-0.00001448,0.00000100,0.00001132,-0.00000079,-0.00000991,-0.00
 003177,-0.00001659,-0.00001031,0.00040086,0.00031751,0.00021841,0.0004
 5325,0.00034625,0.00026011,0.00008414,-0.00028162,-0.00059712,0.000713
 14,0.00019973,-0.00065178,-0.01362102,-0.02794895,-0.00921596,0.095672
 57,0.00000941,-0.00002620,0.00001711,0.00002605,0.00013547,-0.00004167
 ,-0.00019476,0.00063702,0.00048307,0.00110716,0.00113450,-0.00142030,-
 0.00265090,-0.00577731,-0.00182346,-0.09025371,-0.23825743,-0.06327905
 ,-0.01018492,-0.02095380,-0.00694789,0.00259141,-0.00177616,0.00453898
 ,-0.00002141,-0.00003354,-0.00002352,0.00000363,0.00001584,-0.00001159
 ,0.00004508,0.00002208,0.00000237,-0.00002329,-0.00003537,-0.00008491,
 -0.00002200,0.00003907,0.00003330,0.00008732,-0.00006692,-0.00006401,-
 0.00008865,0.00005250,0.00005439,-0.00026689,-0.00041376,-0.00005742,0
 .00007665,0.00061205,-0.00038810,0.00042958,0.00015928,0.00011809,0.00
 115621,0.00332144,0.00122408,0.09850890,0.26080164,0.00000485,0.000016
 75,-0.00007400,0.00000034,-0.00004241,0.00025629,-0.00003618,0.0004835
 3,-0.00075721,0.00338597,0.00032058,-0.00592016,-0.01385140,-0.0279779
 5,-0.00929332,-0.02983966,-0.06332201,-0.06721592,0.00999267,0.0201465
 3,0.00654942,-0.00193186,0.00272336,-0.00324439,-0.00000776,-0.0000232
 7,0.00003128,0.00007269,0.00000992,0.00003993,-0.00005949,-0.00002021,
 0.00002872,-0.00000284,0.00013962,0.00011078,-0.00001554,-0.00019036,0
 .00003555,0.00002253,-0.00006700,0.00012300,0.00003565,0.00039124,0.00
 011695,-0.00051896,-0.00212892,-0.00061832,-0.00060755,0.00060769,0.00
 089712,0.00026268,0.00042113,0.00139525,-0.00001554,0.00038242,-0.0003
 2468,0.03236211,0.06840535,0.07597718,0.00007323,0.00011433,0.00002375
 ,0.00058447,-0.00013627,-0.00057876,-0.00088601,-0.00205197,0.00010560
 ,-0.00001823,0.00002585,0.00019772,-0.00003426,0.00127163,-0.00078751,
 0.00241766,-0.00182899,-0.00956013,-0.08014917,0.02009212,0.08263404,0
 .00374037,-0.00358410,-0.01296274,0.00001218,0.00000985,0.00002063,-0.
 00000792,-0.00000351,-0.00000418,-0.00003423,-0.00000640,0.00002616,-0
 .00007953,-0.00023517,-0.00011956,-0.00000349,-0.00000037,0.00000681,0
 .00049102,-0.00013753,-0.00029625,-0.00001285,0.00001486,0.00001757,-0
 .00000103,0.00000457,0.00000563,0.00044158,0.00003818,-0.00034849,0.00
 038086,-0.00000845,-0.00041942,0.00063831,-0.00066473,0.00006025,0.000
 02647,-0.00029048,0.00049470,0.08331184,0.00019054,-0.00008277,-0.0000
 2176,0.00068185,0.00039407,-0.00194014,-0.00356213,-0.00554554,0.00022
 410,-0.00001012,-0.00062424,0.00021805,0.00210868,-0.00418294,0.002462
 35,-0.00951359,0.00568086,0.02369327,0.01977143,-0.05868005,-0.0511814
 8,0.01124107,-0.00717538,-0.02826460,-0.00010571,-0.00002371,-0.000002
 00,-0.00005212,0.00001776,-0.00002430,-0.00005381,0.00002942,0.0000467
 2,-0.00017819,-0.00068539,-0.00034489,0.00004344,0.00006210,0.00006118
 ,-0.00006311,0.00006912,0.00040679,-0.00000819,0.00012721,-0.00004753,
 0.00003248,0.00024104,-0.00010302,-0.00026055,0.00041978,0.00173031,-0
 .00000580,-0.00008629,-0.00023388,-0.00000070,0.00093982,-0.00083755,-
 0.00052480,0.00082336,-0.00070671,-0.02101378,0.06691293,0.00008324,-0
 .00005579,-0.00005764,0.00039958,0.00035364,-0.00055312,-0.00149764,-0
 .00188038,0.00130476,0.00020682,0.00027140,0.00073529,-0.00225533,0.00
 453451,-0.00095530,0.00773503,-0.00477161,-0.01944234,0.08117344,-0.05
 108026,-0.25806992,0.00313135,-0.00204217,-0.00820185,-0.00005449,-0.0
 0003014,0.00000483,0.00000428,0.00001636,0.00000656,-0.00002091,0.0000
 1815,0.00003925,-0.00008895,-0.00022223,-0.00011796,-0.00000058,-0.000
 05464,0.00003436,0.00005659,0.00005944,0.00012873,-0.00008116,-0.00003
 162,-0.00006156,0.00003088,-0.00008071,-0.00002214,0.00039750,-0.00044
 598,-0.00141820,0.00006675,0.00001155,0.00024636,-0.00054511,-0.000443
 12,0.00072728,0.00029690,0.00030620,0.00074328,-0.08829370,0.05521328,
 0.28213333,-0.00007963,0.00009547,0.00019561,0.00037476,-0.00012033,-0
 .00008733,-0.00000415,0.00082718,0.00079062,0.00023966,-0.00003531,-0.
 00013813,0.00021831,-0.00042344,0.00059725,-0.00946477,0.00140040,-0.0
 0059895,-0.29248684,0.01318695,-0.01452333,-0.01338875,-0.00046375,-0.
 00063022,0.00008478,-0.00001488,-0.00004664,0.00001545,-0.00000005,-0.
 00000138,0.00009373,0.00004908,-0.00009301,-0.00000074,-0.00005937,-0.
 00006836,-0.00002149,-0.00001535,0.00002069,0.00080151,-0.00019833,-0.
 00078716,0.00002475,0.00003465,0.00021766,-0.00002733,-0.00001892,-0.0
 0009090,0.00036227,0.00002603,-0.00005561,0.00053531,-0.00017796,-0.00
 075059,0.00106413,0.00148376,-0.00115998,0.00068364,0.00053150,0.00001
 544,-0.01176086,0.00071343,-0.00026296,0.32158421,-0.00013771,-0.00011
 761,0.00015057,0.00007503,-0.00003231,0.00027031,-0.00083626,0.0013687
 5,0.00147033,-0.00002538,-0.00018095,0.00000774,0.00002294,0.00063971,
 -0.00134274,0.02634151,-0.00332921,0.00241516,0.01342390,-0.04672341,0
 .00009439,-0.03169214,-0.00075629,-0.00251488,0.00007349,-0.00003006,-
 0.00013006,0.00000463,0.00000870,-0.00002494,0.00021175,0.00009727,-0.
 00013705,0.00005466,-0.00000349,-0.00001466,-0.00000994,-0.00002664,0.
 00000967,0.00076407,-0.00001942,-0.00033682,0.00004761,-0.00013994,0.0
 0001994,0.00000414,0.00013190,-0.00003187,-0.00024246,-0.00007737,-0.0
 0025339,-0.00059922,0.00027362,0.00032814,0.00132868,-0.00321114,0.004
 16865,-0.00016548,0.00081588,-0.00083460,0.00710613,-0.00078486,0.0005
 2842,-0.01379066,0.05598770,-0.00003022,0.00000263,0.00000260,0.000111
 30,-0.00006762,0.00010694,-0.00130162,0.00044535,0.00059598,0.00005671
 ,-0.00000002,-0.00027359,-0.00126655,-0.00038611,0.00137660,-0.0222082
 4,0.00206160,-0.00237859,-0.01368715,-0.00003299,-0.05053071,-0.009480
 42,0.00020818,-0.00116222,0.00003105,0.00000233,-0.00003791,0.00000409
 ,-0.00000148,-0.00000438,0.00007400,0.00002197,-0.00003047,0.00001788,
 0.00000770,-0.00000308,-0.00000755,0.00001518,-0.00000655,0.00028605,-
 0.00025055,-0.00009583,0.00020813,0.00002251,0.00005715,0.00000682,-0.
 00004185,-0.00005926,0.00034489,-0.00000014,0.00025599,0.00055516,0.00
 003282,-0.00027880,-0.00139806,0.00330088,-0.00235126,0.00063686,-0.00
 050481,0.00076841,0.02952395,-0.00147127,0.00188320,0.01785724,-0.0019
 4103,0.05158976,-0.00078424,-0.00071767,0.00029454,-0.00042254,-0.0006
 0475,-0.00001918,-0.01194094,0.00120107,0.00133698,0.00023863,0.000299
 21,-0.00085748,0.00018443,-0.00017345,0.00008462,0.00025111,0.00095339
 ,0.00007743,-0.01356196,-0.00026333,-0.00050713,-0.29404479,0.00907895
 ,0.00547439,0.00041164,-0.00009488,-0.00039624,0.00003951,0.00001221,-
 0.00000770,0.00050125,-0.00043440,-0.00118728,0.00019125,0.00015815,0.
 00012540,0.00004373,-0.00003864,0.00003184,0.00045877,0.00041986,0.002
 37435,0.00062441,-0.00056564,0.00052787,0.00036343,0.00001398,0.000085
 24,-0.00001632,-0.00005835,0.00006043,0.00004573,0.00016195,-0.0001407
 9,0.00059060,-0.00065065,0.00054363,0.00040908,-0.00005735,-0.00005710
 ,0.00070213,-0.00011303,-0.00047078,0.00048786,-0.00245941,-0.00088037
 ,0.32510893,0.00007707,-0.00018496,-0.00075704,0.00068392,0.00025807,0
 .00032563,0.00834852,-0.00081305,-0.00009803,-0.00075443,0.00007178,0.
 00040307,-0.00001048,-0.00021991,0.00002736,-0.00094943,0.00193270,-0.
 00022770,-0.03134644,-0.00118853,-0.00012053,0.00913000,-0.04764175,0.
 00173519,-0.00009157,0.00001573,0.00026258,-0.00004464,0.00004178,0.00
 013891,-0.00082605,-0.00099145,-0.00048839,-0.00027227,0.00006601,0.00
 004575,-0.00000010,0.00002146,-0.00006546,0.00019253,0.00021852,-0.001
 90020,-0.00016651,0.00031244,0.00002552,-0.00001264,-0.00007248,-0.000
 00481,0.00001800,0.00002820,0.00009430,0.00015695,-0.00006010,-0.00009
 067,0.00071863,-0.00030014,0.00020173,0.00039718,0.00027777,-0.0002526
 0,0.00068227,0.00130374,0.00020456,-0.00261727,-0.00519929,-0.00159783
 ,-0.00657181,0.05304074,-0.00033647,-0.00037030,-0.00010377,0.00005131
 ,0.00063242,0.00101918,0.03250372,-0.00100187,-0.00188484,0.00102331,-
 0.00059134,0.00203739,-0.00001657,0.00003185,-0.00021808,0.00069622,0.
 00050456,0.00006641,-0.01137269,-0.00062018,-0.00066371,0.00506649,0.0
 0197727,-0.04807897,-0.00012446,0.00009730,0.00012777,-0.00009423,-0.0
 0001341,-0.00012154,-0.00052130,-0.00078965,-0.00018447,-0.00022808,0.
 00016492,0.00012262,-0.00004331,-0.00011360,-0.00005387,0.00237673,-0.
 00151851,-0.00577904,-0.00070549,0.00034458,-0.00024985,-0.00041352,-0
 .00019251,0.00024529,-0.00000687,0.00010733,0.00004092,-0.00015603,-0.
 00008760,-0.00004366,0.00022504,-0.00000638,0.00025401,0.00003216,0.00
 005934,-0.00011659,-0.00015051,0.00055731,0.00024225,-0.00070547,-0.00
 245683,0.00027535,-0.00643516,0.00286410,0.05282456,0.00000115,-0.0001
 1033,-0.00004701,0.00020343,-0.00005584,-0.00056308,0.00258034,-0.0078
 9101,0.00788767,-0.00021347,0.00088936,0.00152984,-0.00001336,0.000134
 76,-0.00017423,-0.00063473,-0.00178705,-0.00117743,0.00303713,-0.01023
 885,0.00857195,-0.07144918,0.05462462,-0.04851225,0.00003352,-0.000056
 44,-0.00001667,-0.00000386,0.00002391,0.00017171,-0.00014005,0.0001241
 0,-0.00004336,-0.00010670,-0.00018752,-0.00003121,0.00012524,-0.000024
 87,-0.00018858,0.00058656,-0.00049718,-0.00050108,0.00034583,-0.000243
 59,0.00033675,0.00046784,-0.00028261,0.00037986,0.00000045,0.00003668,
 -0.00001217,-0.00003148,0.00000327,-0.00000510,0.00035771,-0.00037169,
 0.00018282,0.00043702,-0.00051852,0.00029426,0.00016746,0.00068271,-0.
 00001077,0.00066420,0.00050013,0.00054606,-0.00988171,0.02325858,-0.02
 066479,0.07346667,0.00002784,0.00010152,0.00009823,-0.00029522,0.00103
 958,-0.00064621,-0.00268971,0.00472206,-0.00477770,0.00018619,0.000230
 24,-0.00196452,0.00019811,0.00005719,-0.00053411,-0.00364123,-0.004116
 35,-0.00401958,0.00956813,-0.02158962,0.01913783,0.05379693,-0.1735523
 7,0.11423003,0.00000048,0.00000441,0.00002726,0.00001565,-0.00000313,-
 0.00003323,0.00006314,-0.00004017,0.00007830,-0.00003286,0.00019714,0.
 00006626,0.00012312,0.00029795,0.00020103,-0.00034842,0.00020854,0.000
 48004,0.00005478,-0.00005720,-0.00002468,0.00000573,0.00048056,-0.0003
 5458,0.00000052,0.00006695,0.00014415,-0.00007223,0.00003515,0.0001038
 1,0.00003699,0.00030178,-0.00024887,0.00032098,-0.00150739,0.00151793,
 0.00060195,0.00084994,-0.00037887,-0.00041282,0.00130845,0.00017455,0.
 00050458,-0.00091726,0.00042122,-0.05801262,0.19188202,-0.00012195,-0.
 00035247,-0.00006180,-0.00053384,0.00191738,0.00089898,-0.01043196,0.0
 2202507,-0.02106908,0.00336432,-0.00351363,-0.00498805,-0.00021852,-0.
 00071665,-0.00005969,-0.00089667,-0.00202819,-0.00018437,0.00355864,-0
 .00811325,0.00701381,-0.04783534,0.11420708,-0.14867631,-0.00007381,-0
 .00005818,0.00000415,0.00019798,0.00003747,0.00016184,-0.00015776,0.00
 006400,-0.00009493,0.00029992,-0.00010493,0.00050529,0.00020593,-0.001
 28455,0.00016315,0.00036265,-0.00000724,0.00126464,-0.00005935,-0.0002
 2171,0.00024743,-0.00034202,0.00172579,-0.00148370,-0.00000714,0.00016
 830,0.00015049,0.00006147,0.00009666,0.00004164,-0.00004625,0.00005701
 ,-0.00010036,-0.00002558,-0.00059554,0.00049144,0.00040444,0.00056576,
 0.00067055,0.00030551,0.00055554,0.00030067,-0.00005747,-0.00072545,0.
 00024264,0.05204682,-0.12369828,0.16456155\\-0.00001182,-0.00000030,-0
 .00000159,0.00001203,0.00000592,0.00000458,0.00000148,-0.00003987,-0.0
 0001636,-0.00000063,0.00001768,-0.00000516,-0.00000001,-0.00000625,0.0
 0000309,0.00000003,-0.00000122,0.00000134,0.00000114,-0.00000585,-0.00
 000873,-0.00000266,0.00001715,0.00001861,-0.00000657,0.00000477,0.0000
 0024,0.00000070,0.00000015,0.00000053,0.00000218,-0.00000377,-0.000001
 54,-0.00000142,-0.00000172,0.00000343,0.00000068,0.00000151,-0.0000011
 1,-0.00000415,0.00000387,0.00000018,0.00000091,-0.00000124,-0.00000085
 ,-0.00000226,0.00000187,0.00000132,0.00000034,0.00000157,-0.00000213,-
 0.00000136,0.00000111,0.00000079,0.00000682,-0.00000033,-0.00000052,0.
 00000467,0.00000313,0.00000179,-0.00000130,-0.00000010,0.00000274,-0.0
 0000155,0.00000171,0.00000068,0.00000388,-0.00000141,-0.00000187,-0.00
 000114,0.00000164,0.00000052\\\@


 ONE BIG VICE IN A MAN IS APT TO KEEP OUT MANY SMALLER ONES.

                           -- BRET HARTE
 Job cpu time:       0 days  2 hours 10 minutes 47.0 seconds.
 Elapsed time:       0 days  0 hours 32 minutes 42.8 seconds.
 File lengths (MBytes):  RWF=    162 Int=      0 D2E=      0 Chk=      9 Scr=      1
 Normal termination of Gaussian 16 at Sun May 28 16:07:27 2023.
### All Done ###
