### Starting Gaussian ###
 Entering Gaussian System, Link 0=g16
 Initial command:
 /cluster/software/gaussian/gaussian-16-A.03/avx2/g16/l1.exe "/local/scratch/ks29c/Gau-15210.inp" -scrdir="/local/scratch/ks29c/"
 Entering Link 1 = /cluster/software/gaussian/gaussian-16-A.03/avx2/g16/l1.exe PID=     15211.
  
 Copyright (c) 1988,1990,1992,1993,1995,1998,2003,2009,2016,
            Gaussian, Inc.  All Rights Reserved.
  
 This is part of the Gaussian(R) 16 program.  It is based on
 the Gaussian(R) 09 system (copyright 2009, Gaussian, Inc.),
 the Gaussian(R) 03 system (copyright 2003, Gaussian, Inc.),
 the Gaussian(R) 98 system (copyright 1998, Gaussian, Inc.),
 the Gaussian(R) 94 system (copyright 1995, Gaussian, Inc.),
 the Gaussian 92(TM) system (copyright 1992, Gaussian, Inc.),
 the Gaussian 90(TM) system (copyright 1990, Gaussian, Inc.),
 the Gaussian 88(TM) system (copyright 1988, Gaussian, Inc.),
 the Gaussian 86(TM) system (copyright 1986, Carnegie Mellon
 University), and the Gaussian 82(TM) system (copyright 1983,
 Carnegie Mellon University). Gaussian is a federally registered
 trademark of Gaussian, Inc.
  
 This software contains proprietary and confidential information,
 including trade secrets, belonging to Gaussian, Inc.
  
 This software is provided under written license and may be
 used, copied, transmitted, or stored only in accord with that
 written license.
  
 The following legend is applicable only to US Government
 contracts under FAR:
  
                    RESTRICTED RIGHTS LEGEND
  
 Use, reproduction and disclosure by the US Government is
 subject to restrictions as set forth in subparagraphs (a)
 and (c) of the Commercial Computer Software - Restricted
 Rights clause in FAR 52.227-19.
  
 Gaussian, Inc.
 340 Quinnipiac St., Bldg. 40, Wallingford CT 06492
  
  
 ---------------------------------------------------------------
 Warning -- This program may not be used in any manner that
 competes with the business of Gaussian, Inc. or will provide
 assistance to any competitor of Gaussian, Inc.  The licensee
 of this program is prohibited from giving any competitor of
 Gaussian, Inc. access to this program.  By using this program,
 the user acknowledges that Gaussian, Inc. is engaged in the
 business of creating and licensing software in the field of
 computational chemistry and represents and warrants to the
 licensee that it is not a competitor of Gaussian, Inc. and that
 it will not use this program in any manner prohibited above.
 ---------------------------------------------------------------
  

 Cite this work as:
 Gaussian 16, Revision A.03,
 M. J. Frisch, G. W. Trucks, H. B. Schlegel, G. E. Scuseria, 
 M. A. Robb, J. R. Cheeseman, G. Scalmani, V. Barone, 
 G. A. Petersson, H. Nakatsuji, X. Li, M. Caricato, A. V. Marenich, 
 J. Bloino, B. G. Janesko, R. Gomperts, B. Mennucci, H. P. Hratchian, 
 J. V. Ortiz, A. F. Izmaylov, J. L. Sonnenberg, D. Williams-Young, 
 F. Ding, F. Lipparini, F. Egidi, J. Goings, B. Peng, A. Petrone, 
 T. Henderson, D. Ranasinghe, V. G. Zakrzewski, J. Gao, N. Rega, 
 G. Zheng, W. Liang, M. Hada, M. Ehara, K. Toyota, R. Fukuda, 
 J. Hasegawa, M. Ishida, T. Nakajima, Y. Honda, O. Kitao, H. Nakai, 
 T. Vreven, K. Throssell, J. A. Montgomery, Jr., J. E. Peralta, 
 F. Ogliaro, M. J. Bearpark, J. J. Heyd, E. N. Brothers, K. N. Kudin, 
 V. N. Staroverov, T. A. Keith, R. Kobayashi, J. Normand, 
 K. Raghavachari, A. P. Rendell, J. C. Burant, S. S. Iyengar, 
 J. Tomasi, M. Cossi, J. M. Millam, M. Klene, C. Adamo, R. Cammi, 
 J. W. Ochterski, R. L. Martin, K. Morokuma, O. Farkas, 
 J. B. Foresman, and D. J. Fox, Gaussian, Inc., Wallingford CT, 2016.
 
 ******************************************
 Gaussian 16:  ES64L-G16RevA.03 25-Dec-2016
                22-May-2023 
 ******************************************
 %chk=CCC1CCC2CCC2qCrCCCqCrC1.chk
 %NProcShared=20
 Will use up to   20 processors via shared memory.
 -----------------------------
 # opt freq b3lyp/6-31g(2df,p)
 -----------------------------
 1/18=20,19=15,26=3,38=1/1,3;
 2/9=110,12=2,17=6,18=5,40=1/2;
 3/5=1,6=6,7=104,11=2,25=1,30=1,71=1,74=-5/1,2,3;
 4//1;
 5/5=2,38=5/2;
 6/7=2,8=2,9=2,10=2,28=1/1;
 7//1,2,3,16;
 1/18=20,19=15,26=3/3(2);
 2/9=110/2;
 99//99;
 2/9=110/2;
 3/5=1,6=6,7=104,11=2,25=1,30=1,71=1,74=-5/1,2,3;
 4/5=5,16=3,69=1/1;
 5/5=2,38=5/2;
 7//1,2,3,16;
 1/18=20,19=15,26=3/3(-5);
 2/9=110/2;
 6/7=2,8=2,9=2,10=2,19=2,28=1/1;
 99/9=1/99;
 -------------------
 Title Card Required
 -------------------
 Symbolic Z-matrix:
 Charge =  0 Multiplicity = 1
 C                     1.11143   0.03278  -0.14823 
 C                     2.64362   0.01473  -0.12718 
 C                     3.12147  -0.9492    0.9698 
 C                     3.44471  -2.38862   0.55789 
 C                     3.17769  -3.33417   1.75975 
 C                     4.35904  -3.55517   2.77454 
 C                     3.93972  -4.82478   3.59531 
 C                     3.51382  -3.88616   4.73692 
 C                     4.6837   -2.9135    4.35462 
 C                     6.03016  -3.27145   5.05494 
 C                     4.3351   -1.54835   4.98605 
 C                     4.87148  -0.3515    4.20945 
 C                     3.87357   0.16796   3.16322 
 C                     2.42086  -0.0874    3.60331 
 C                     4.28666  -0.38559   1.78312 
 H                     0.73437   0.70465  -0.92462 
 H                     0.7165    0.38961   0.81074 
 H                     0.70924  -0.96943  -0.31939 
 H                     2.97223   1.03861   0.0906 
 H                     3.03613  -0.2601   -1.10831 
 H                     2.2483   -1.07514   1.58726 
 H                     4.4584   -2.50076   0.1694 
 H                     2.76225  -2.66516  -0.26174 
 H                     2.92151  -4.30098   1.29825 
 H                     2.27013  -3.03385   2.28943 
 H                     5.25871  -3.76753   2.1844 
 H                     4.77326  -5.49225   3.8438 
 H                     3.13218  -5.44683   3.20271 
 H                     3.50583  -4.30172   5.73882 
 H                     2.51687  -3.45216   4.552 
 H                     6.44805  -4.2398    4.80761 
 H                     5.88985  -3.25231   6.15079 
 H                     6.78647  -2.49683   4.84936 
 H                     4.79189  -1.47055   5.98701 
 H                     3.28482  -1.48574   5.25152 
 H                     5.85026  -0.57284   3.76928 
 H                     5.06184   0.46281   4.9211 
 H                     3.9938    1.25791   3.10917 
 H                     2.18103  -1.15983   3.59347 
 H                     1.69692   0.40992   2.95658 
 H                     2.24084   0.27081   4.62099 
 H                     5.05421  -1.15798   1.90265 
 H                     4.81598   0.39793   1.22713 
 

 GradGradGradGradGradGradGradGradGradGradGradGradGradGradGradGradGradGrad
 Berny optimization.
 Initialization pass.
                           ----------------------------
                           !    Initial Parameters    !
                           ! (Angstroms and Degrees)  !
 --------------------------                            --------------------------
 ! Name  Definition              Value          Derivative Info.                !
 --------------------------------------------------------------------------------
 ! R1    R(1,2)                  1.5324         estimate D2E/DX2                !
 ! R2    R(1,16)                 1.0938         estimate D2E/DX2                !
 ! R3    R(1,17)                 1.0968         estimate D2E/DX2                !
 ! R4    R(1,18)                 1.0934         estimate D2E/DX2                !
 ! R5    R(2,3)                  1.5365         estimate D2E/DX2                !
 ! R6    R(2,19)                 1.0972         estimate D2E/DX2                !
 ! R7    R(2,20)                 1.0919         estimate D2E/DX2                !
 ! R8    R(3,4)                  1.5317         estimate D2E/DX2                !
 ! R9    R(3,15)                 1.5287         estimate D2E/DX2                !
 ! R10   R(3,21)                 1.0768         estimate D2E/DX2                !
 ! R11   R(4,5)                  1.5524         estimate D2E/DX2                !
 ! R12   R(4,22)                 1.0914         estimate D2E/DX2                !
 ! R13   R(4,23)                 1.1018         estimate D2E/DX2                !
 ! R14   R(5,6)                  1.573          estimate D2E/DX2                !
 ! R15   R(5,24)                 1.1015         estimate D2E/DX2                !
 ! R16   R(5,25)                 1.0929         estimate D2E/DX2                !
 ! R17   R(6,7)                  1.5689         estimate D2E/DX2                !
 ! R18   R(6,9)                  1.736          estimate D2E/DX2                !
 ! R19   R(6,26)                 1.0967         estimate D2E/DX2                !
 ! R20   R(7,8)                  1.5381         estimate D2E/DX2                !
 ! R21   R(7,27)                 1.0964         estimate D2E/DX2                !
 ! R22   R(7,28)                 1.0923         estimate D2E/DX2                !
 ! R23   R(8,9)                  1.5687         estimate D2E/DX2                !
 ! R24   R(8,29)                 1.0847         estimate D2E/DX2                !
 ! R25   R(8,30)                 1.1029         estimate D2E/DX2                !
 ! R26   R(9,10)                 1.5593         estimate D2E/DX2                !
 ! R27   R(9,11)                 1.544          estimate D2E/DX2                !
 ! R28   R(10,31)                1.0833         estimate D2E/DX2                !
 ! R29   R(10,32)                1.105          estimate D2E/DX2                !
 ! R30   R(10,33)                1.102          estimate D2E/DX2                !
 ! R31   R(11,12)                1.5242         estimate D2E/DX2                !
 ! R32   R(11,34)                1.103          estimate D2E/DX2                !
 ! R33   R(11,35)                1.0851         estimate D2E/DX2                !
 ! R34   R(12,13)                1.5363         estimate D2E/DX2                !
 ! R35   R(12,36)                1.0958         estimate D2E/DX2                !
 ! R36   R(12,37)                1.0981         estimate D2E/DX2                !
 ! R37   R(13,14)                1.5392         estimate D2E/DX2                !
 ! R38   R(13,15)                1.5433         estimate D2E/DX2                !
 ! R39   R(13,38)                1.0979         estimate D2E/DX2                !
 ! R40   R(14,39)                1.099          estimate D2E/DX2                !
 ! R41   R(14,40)                1.0907         estimate D2E/DX2                !
 ! R42   R(14,41)                1.0938         estimate D2E/DX2                !
 ! R43   R(15,42)                1.0954         estimate D2E/DX2                !
 ! R44   R(15,43)                1.0969         estimate D2E/DX2                !
 ! A1    A(2,1,16)             111.2021         estimate D2E/DX2                !
 ! A2    A(2,1,17)             110.6002         estimate D2E/DX2                !
 ! A3    A(2,1,18)             111.0471         estimate D2E/DX2                !
 ! A4    A(16,1,17)            107.2568         estimate D2E/DX2                !
 ! A5    A(16,1,18)            108.9729         estimate D2E/DX2                !
 ! A6    A(17,1,18)            107.616          estimate D2E/DX2                !
 ! A7    A(1,2,3)              109.156          estimate D2E/DX2                !
 ! A8    A(1,2,19)             106.9297         estimate D2E/DX2                !
 ! A9    A(1,2,20)             110.4899         estimate D2E/DX2                !
 ! A10   A(3,2,19)             110.5235         estimate D2E/DX2                !
 ! A11   A(3,2,20)             111.828          estimate D2E/DX2                !
 ! A12   A(19,2,20)            107.7934         estimate D2E/DX2                !
 ! A13   A(2,3,4)              117.5932         estimate D2E/DX2                !
 ! A14   A(2,3,15)             112.681          estimate D2E/DX2                !
 ! A15   A(2,3,21)             103.3308         estimate D2E/DX2                !
 ! A16   A(4,3,15)             109.1903         estimate D2E/DX2                !
 ! A17   A(4,3,21)             102.44           estimate D2E/DX2                !
 ! A18   A(15,3,21)            110.8617         estimate D2E/DX2                !
 ! A19   A(3,4,5)              109.1417         estimate D2E/DX2                !
 ! A20   A(3,4,22)             112.8492         estimate D2E/DX2                !
 ! A21   A(3,4,23)             107.7702         estimate D2E/DX2                !
 ! A22   A(5,4,22)             111.8869         estimate D2E/DX2                !
 ! A23   A(5,4,23)             108.4519         estimate D2E/DX2                !
 ! A24   A(22,4,23)            106.5422         estimate D2E/DX2                !
 ! A25   A(4,5,6)              117.1211         estimate D2E/DX2                !
 ! A26   A(4,5,24)             104.4923         estimate D2E/DX2                !
 ! A27   A(4,5,25)             110.5295         estimate D2E/DX2                !
 ! A28   A(6,5,24)             108.7625         estimate D2E/DX2                !
 ! A29   A(6,5,25)             110.4632         estimate D2E/DX2                !
 ! A30   A(24,5,25)            104.5435         estimate D2E/DX2                !
 ! A31   A(5,6,7)              104.5058         estimate D2E/DX2                !
 ! A32   A(5,6,9)              132.5094         estimate D2E/DX2                !
 ! A33   A(5,6,26)             107.2267         estimate D2E/DX2                !
 ! A34   A(7,6,9)               82.7            estimate D2E/DX2                !
 ! A35   A(7,6,26)             110.1248         estimate D2E/DX2                !
 ! A36   A(9,6,26)             114.0743         estimate D2E/DX2                !
 ! A37   A(6,7,8)               88.1929         estimate D2E/DX2                !
 ! A38   A(6,7,27)             114.0815         estimate D2E/DX2                !
 ! A39   A(6,7,28)             118.0601         estimate D2E/DX2                !
 ! A40   A(8,7,27)             114.4449         estimate D2E/DX2                !
 ! A41   A(8,7,28)             114.1784         estimate D2E/DX2                !
 ! A42   A(27,7,28)            107.2666         estimate D2E/DX2                !
 ! A43   A(7,8,9)               89.4839         estimate D2E/DX2                !
 ! A44   A(7,8,29)             116.9892         estimate D2E/DX2                !
 ! A45   A(7,8,30)             111.4683         estimate D2E/DX2                !
 ! A46   A(9,8,29)             117.9137         estimate D2E/DX2                !
 ! A47   A(9,8,30)             112.9082         estimate D2E/DX2                !
 ! A48   A(29,8,30)            107.3952         estimate D2E/DX2                !
 ! A49   A(6,9,8)               81.5565         estimate D2E/DX2                !
 ! A50   A(6,9,10)             119.039          estimate D2E/DX2                !
 ! A51   A(6,9,11)             131.0572         estimate D2E/DX2                !
 ! A52   A(8,9,10)             113.0895         estimate D2E/DX2                !
 ! A53   A(8,9,11)             106.271          estimate D2E/DX2                !
 ! A54   A(10,9,11)            102.3716         estimate D2E/DX2                !
 ! A55   A(9,10,31)            115.8335         estimate D2E/DX2                !
 ! A56   A(9,10,32)            109.3773         estimate D2E/DX2                !
 ! A57   A(9,10,33)            110.3337         estimate D2E/DX2                !
 ! A58   A(31,10,32)           106.9119         estimate D2E/DX2                !
 ! A59   A(31,10,33)           108.7242         estimate D2E/DX2                !
 ! A60   A(32,10,33)           105.0699         estimate D2E/DX2                !
 ! A61   A(9,11,12)            113.9821         estimate D2E/DX2                !
 ! A62   A(9,11,34)            109.8762         estimate D2E/DX2                !
 ! A63   A(9,11,35)            111.6909         estimate D2E/DX2                !
 ! A64   A(12,11,34)           105.1441         estimate D2E/DX2                !
 ! A65   A(12,11,35)           114.8313         estimate D2E/DX2                !
 ! A66   A(34,11,35)           100.0643         estimate D2E/DX2                !
 ! A67   A(11,12,13)           112.5751         estimate D2E/DX2                !
 ! A68   A(11,12,36)           111.1238         estimate D2E/DX2                !
 ! A69   A(11,12,37)           108.2462         estimate D2E/DX2                !
 ! A70   A(13,12,36)           112.0203         estimate D2E/DX2                !
 ! A71   A(13,12,37)           107.6503         estimate D2E/DX2                !
 ! A72   A(36,12,37)           104.79           estimate D2E/DX2                !
 ! A73   A(12,13,14)           111.2373         estimate D2E/DX2                !
 ! A74   A(12,13,15)           108.2914         estimate D2E/DX2                !
 ! A75   A(12,13,38)           107.3417         estimate D2E/DX2                !
 ! A76   A(14,13,15)           116.6666         estimate D2E/DX2                !
 ! A77   A(14,13,38)           106.3873         estimate D2E/DX2                !
 ! A78   A(15,13,38)           106.4244         estimate D2E/DX2                !
 ! A79   A(13,14,39)           111.426          estimate D2E/DX2                !
 ! A80   A(13,14,40)           112.4106         estimate D2E/DX2                !
 ! A81   A(13,14,41)           111.5317         estimate D2E/DX2                !
 ! A82   A(39,14,40)           107.145          estimate D2E/DX2                !
 ! A83   A(39,14,41)           106.9776         estimate D2E/DX2                !
 ! A84   A(40,14,41)           107.0446         estimate D2E/DX2                !
 ! A85   A(3,15,13)            113.8289         estimate D2E/DX2                !
 ! A86   A(3,15,42)            109.4001         estimate D2E/DX2                !
 ! A87   A(3,15,43)            111.1922         estimate D2E/DX2                !
 ! A88   A(13,15,42)           110.0521         estimate D2E/DX2                !
 ! A89   A(13,15,43)           109.0403         estimate D2E/DX2                !
 ! A90   A(42,15,43)           102.7583         estimate D2E/DX2                !
 ! D1    D(16,1,2,3)          -179.5635         estimate D2E/DX2                !
 ! D2    D(16,1,2,19)           60.8529         estimate D2E/DX2                !
 ! D3    D(16,1,2,20)          -56.1958         estimate D2E/DX2                !
 ! D4    D(17,1,2,3)            61.3756         estimate D2E/DX2                !
 ! D5    D(17,1,2,19)          -58.208          estimate D2E/DX2                !
 ! D6    D(17,1,2,20)         -175.2567         estimate D2E/DX2                !
 ! D7    D(18,1,2,3)           -58.0348         estimate D2E/DX2                !
 ! D8    D(18,1,2,19)         -177.6183         estimate D2E/DX2                !
 ! D9    D(18,1,2,20)           65.333          estimate D2E/DX2                !
 ! D10   D(1,2,3,4)             94.5479         estimate D2E/DX2                !
 ! D11   D(1,2,3,15)          -137.1067         estimate D2E/DX2                !
 ! D12   D(1,2,3,21)           -17.3922         estimate D2E/DX2                !
 ! D13   D(19,2,3,4)          -148.1166         estimate D2E/DX2                !
 ! D14   D(19,2,3,15)          -19.7712         estimate D2E/DX2                !
 ! D15   D(19,2,3,21)           99.9433         estimate D2E/DX2                !
 ! D16   D(20,2,3,4)           -28.0213         estimate D2E/DX2                !
 ! D17   D(20,2,3,15)          100.324          estimate D2E/DX2                !
 ! D18   D(20,2,3,21)         -139.9615         estimate D2E/DX2                !
 ! D19   D(2,3,4,5)           -150.6079         estimate D2E/DX2                !
 ! D20   D(2,3,4,22)            84.331          estimate D2E/DX2                !
 ! D21   D(2,3,4,23)           -33.0232         estimate D2E/DX2                !
 ! D22   D(15,3,4,5)            79.4069         estimate D2E/DX2                !
 ! D23   D(15,3,4,22)          -45.6542         estimate D2E/DX2                !
 ! D24   D(15,3,4,23)         -163.0084         estimate D2E/DX2                !
 ! D25   D(21,3,4,5)           -38.1682         estimate D2E/DX2                !
 ! D26   D(21,3,4,22)         -163.2292         estimate D2E/DX2                !
 ! D27   D(21,3,4,23)           79.4165         estimate D2E/DX2                !
 ! D28   D(2,3,15,13)          101.9251         estimate D2E/DX2                !
 ! D29   D(2,3,15,42)         -134.5072         estimate D2E/DX2                !
 ! D30   D(2,3,15,43)          -21.6988         estimate D2E/DX2                !
 ! D31   D(4,3,15,13)         -125.4647         estimate D2E/DX2                !
 ! D32   D(4,3,15,42)           -1.897          estimate D2E/DX2                !
 ! D33   D(4,3,15,43)          110.9114         estimate D2E/DX2                !
 ! D34   D(21,3,15,13)         -13.3331         estimate D2E/DX2                !
 ! D35   D(21,3,15,42)         110.2345         estimate D2E/DX2                !
 ! D36   D(21,3,15,43)        -136.957          estimate D2E/DX2                !
 ! D37   D(3,4,5,6)            -87.7883         estimate D2E/DX2                !
 ! D38   D(3,4,5,24)           151.8374         estimate D2E/DX2                !
 ! D39   D(3,4,5,25)            39.8905         estimate D2E/DX2                !
 ! D40   D(22,4,5,6)            37.8312         estimate D2E/DX2                !
 ! D41   D(22,4,5,24)          -82.5431         estimate D2E/DX2                !
 ! D42   D(22,4,5,25)          165.51           estimate D2E/DX2                !
 ! D43   D(23,4,5,6)           155.0577         estimate D2E/DX2                !
 ! D44   D(23,4,5,24)           34.6835         estimate D2E/DX2                !
 ! D45   D(23,4,5,25)          -77.2635         estimate D2E/DX2                !
 ! D46   D(4,5,6,7)           -164.3513         estimate D2E/DX2                !
 ! D47   D(4,5,6,9)            102.2598         estimate D2E/DX2                !
 ! D48   D(4,5,6,26)           -47.4595         estimate D2E/DX2                !
 ! D49   D(24,5,6,7)           -46.2563         estimate D2E/DX2                !
 ! D50   D(24,5,6,9)          -139.6452         estimate D2E/DX2                !
 ! D51   D(24,5,6,26)           70.6355         estimate D2E/DX2                !
 ! D52   D(25,5,6,7)            67.9378         estimate D2E/DX2                !
 ! D53   D(25,5,6,9)           -25.4511         estimate D2E/DX2                !
 ! D54   D(25,5,6,26)         -175.1704         estimate D2E/DX2                !
 ! D55   D(5,6,7,8)           -101.5075         estimate D2E/DX2                !
 ! D56   D(5,6,7,27)           142.4274         estimate D2E/DX2                !
 ! D57   D(5,6,7,28)            15.0791         estimate D2E/DX2                !
 ! D58   D(9,6,7,8)             30.5998         estimate D2E/DX2                !
 ! D59   D(9,6,7,27)           -85.4653         estimate D2E/DX2                !
 ! D60   D(9,6,7,28)           147.1864         estimate D2E/DX2                !
 ! D61   D(26,6,7,8)           143.6199         estimate D2E/DX2                !
 ! D62   D(26,6,7,27)           27.5548         estimate D2E/DX2                !
 ! D63   D(26,6,7,28)          -99.7935         estimate D2E/DX2                !
 ! D64   D(5,6,9,8)             72.725          estimate D2E/DX2                !
 ! D65   D(5,6,9,10)          -175.4942         estimate D2E/DX2                !
 ! D66   D(5,6,9,11)           -31.5359         estimate D2E/DX2                !
 ! D67   D(7,6,9,8)            -30.286          estimate D2E/DX2                !
 ! D68   D(7,6,9,10)            81.4949         estimate D2E/DX2                !
 ! D69   D(7,6,9,11)          -134.5469         estimate D2E/DX2                !
 ! D70   D(26,6,9,8)          -139.1117         estimate D2E/DX2                !
 ! D71   D(26,6,9,10)          -27.3309         estimate D2E/DX2                !
 ! D72   D(26,6,9,11)          116.6274         estimate D2E/DX2                !
 ! D73   D(6,7,8,9)            -33.9722         estimate D2E/DX2                !
 ! D74   D(6,7,8,29)          -155.3575         estimate D2E/DX2                !
 ! D75   D(6,7,8,30)            80.5315         estimate D2E/DX2                !
 ! D76   D(27,7,8,9)            81.7555         estimate D2E/DX2                !
 ! D77   D(27,7,8,29)          -39.6298         estimate D2E/DX2                !
 ! D78   D(27,7,8,30)         -163.7409         estimate D2E/DX2                !
 ! D79   D(28,7,8,9)          -154.0862         estimate D2E/DX2                !
 ! D80   D(28,7,8,29)           84.5285         estimate D2E/DX2                !
 ! D81   D(28,7,8,30)          -39.5826         estimate D2E/DX2                !
 ! D82   D(7,8,9,6)             30.6818         estimate D2E/DX2                !
 ! D83   D(7,8,9,10)           -87.3637         estimate D2E/DX2                !
 ! D84   D(7,8,9,11)           161.102          estimate D2E/DX2                !
 ! D85   D(29,8,9,6)           151.2674         estimate D2E/DX2                !
 ! D86   D(29,8,9,10)           33.2218         estimate D2E/DX2                !
 ! D87   D(29,8,9,11)          -78.3125         estimate D2E/DX2                !
 ! D88   D(30,8,9,6)           -82.4927         estimate D2E/DX2                !
 ! D89   D(30,8,9,10)          159.4618         estimate D2E/DX2                !
 ! D90   D(30,8,9,11)           47.9275         estimate D2E/DX2                !
 ! D91   D(6,9,10,31)          -30.5639         estimate D2E/DX2                !
 ! D92   D(6,9,10,32)         -151.4201         estimate D2E/DX2                !
 ! D93   D(6,9,10,33)           93.476          estimate D2E/DX2                !
 ! D94   D(8,9,10,31)           62.5385         estimate D2E/DX2                !
 ! D95   D(8,9,10,32)          -58.3176         estimate D2E/DX2                !
 ! D96   D(8,9,10,33)         -173.4216         estimate D2E/DX2                !
 ! D97   D(11,9,10,31)         176.4505         estimate D2E/DX2                !
 ! D98   D(11,9,10,32)          55.5943         estimate D2E/DX2                !
 ! D99   D(11,9,10,33)         -59.5096         estimate D2E/DX2                !
 ! D100  D(6,9,11,12)          -57.0574         estimate D2E/DX2                !
 ! D101  D(6,9,11,34)         -174.7591         estimate D2E/DX2                !
 ! D102  D(6,9,11,35)           75.1332         estimate D2E/DX2                !
 ! D103  D(8,9,11,12)         -150.0026         estimate D2E/DX2                !
 ! D104  D(8,9,11,34)           92.2957         estimate D2E/DX2                !
 ! D105  D(8,9,11,35)          -17.812          estimate D2E/DX2                !
 ! D106  D(10,9,11,12)          91.164          estimate D2E/DX2                !
 ! D107  D(10,9,11,34)         -26.5377         estimate D2E/DX2                !
 ! D108  D(10,9,11,35)        -136.6454         estimate D2E/DX2                !
 ! D109  D(9,11,12,13)          90.7522         estimate D2E/DX2                !
 ! D110  D(9,11,12,36)         -35.826          estimate D2E/DX2                !
 ! D111  D(9,11,12,37)        -150.3783         estimate D2E/DX2                !
 ! D112  D(34,11,12,13)       -148.8568         estimate D2E/DX2                !
 ! D113  D(34,11,12,36)         84.565          estimate D2E/DX2                !
 ! D114  D(34,11,12,37)        -29.9873         estimate D2E/DX2                !
 ! D115  D(35,11,12,13)        -39.9083         estimate D2E/DX2                !
 ! D116  D(35,11,12,36)       -166.4865         estimate D2E/DX2                !
 ! D117  D(35,11,12,37)         78.9612         estimate D2E/DX2                !
 ! D118  D(11,12,13,14)         29.7647         estimate D2E/DX2                !
 ! D119  D(11,12,13,15)        -99.6984         estimate D2E/DX2                !
 ! D120  D(11,12,13,38)        145.7698         estimate D2E/DX2                !
 ! D121  D(36,12,13,14)        155.861          estimate D2E/DX2                !
 ! D122  D(36,12,13,15)         26.398          estimate D2E/DX2                !
 ! D123  D(36,12,13,38)        -88.1338         estimate D2E/DX2                !
 ! D124  D(37,12,13,14)        -89.4524         estimate D2E/DX2                !
 ! D125  D(37,12,13,15)        141.0845         estimate D2E/DX2                !
 ! D126  D(37,12,13,38)         26.5528         estimate D2E/DX2                !
 ! D127  D(12,13,14,39)        -68.7533         estimate D2E/DX2                !
 ! D128  D(12,13,14,40)        170.9568         estimate D2E/DX2                !
 ! D129  D(12,13,14,41)         50.7213         estimate D2E/DX2                !
 ! D130  D(15,13,14,39)         56.1343         estimate D2E/DX2                !
 ! D131  D(15,13,14,40)        -64.1556         estimate D2E/DX2                !
 ! D132  D(15,13,14,41)        175.6089         estimate D2E/DX2                !
 ! D133  D(38,13,14,39)        174.6561         estimate D2E/DX2                !
 ! D134  D(38,13,14,40)         54.3662         estimate D2E/DX2                !
 ! D135  D(38,13,14,41)        -65.8693         estimate D2E/DX2                !
 ! D136  D(12,13,15,3)         134.2418         estimate D2E/DX2                !
 ! D137  D(12,13,15,42)         11.0288         estimate D2E/DX2                !
 ! D138  D(12,13,15,43)       -100.9747         estimate D2E/DX2                !
 ! D139  D(14,13,15,3)           7.8768         estimate D2E/DX2                !
 ! D140  D(14,13,15,42)       -115.3362         estimate D2E/DX2                !
 ! D141  D(14,13,15,43)        132.6604         estimate D2E/DX2                !
 ! D142  D(38,13,15,3)        -110.6249         estimate D2E/DX2                !
 ! D143  D(38,13,15,42)        126.1621         estimate D2E/DX2                !
 ! D144  D(38,13,15,43)         14.1587         estimate D2E/DX2                !
 --------------------------------------------------------------------------------
 Trust Radius=3.00D-01 FncErr=1.00D-07 GrdErr=1.00D-06 EigMax=2.50D+02 EigMin=1.00D-04
 Number of steps in this run=    258 maximum allowed number of steps=    258.
 GradGradGradGradGradGradGradGradGradGradGradGradGradGradGradGradGradGrad

                          Input orientation:                          
 ---------------------------------------------------------------------
 Center     Atomic      Atomic             Coordinates (Angstroms)
 Number     Number       Type             X           Y           Z
 ---------------------------------------------------------------------
      1          6           0        1.111430    0.032780   -0.148230
      2          6           0        2.643620    0.014730   -0.127180
      3          6           0        3.121470   -0.949200    0.969800
      4          6           0        3.444710   -2.388620    0.557890
      5          6           0        3.177690   -3.334170    1.759750
      6          6           0        4.359040   -3.555170    2.774540
      7          6           0        3.939720   -4.824780    3.595310
      8          6           0        3.513820   -3.886160    4.736920
      9          6           0        4.683700   -2.913500    4.354620
     10          6           0        6.030160   -3.271450    5.054940
     11          6           0        4.335100   -1.548350    4.986050
     12          6           0        4.871480   -0.351500    4.209450
     13          6           0        3.873570    0.167960    3.163220
     14          6           0        2.420860   -0.087400    3.603310
     15          6           0        4.286660   -0.385590    1.783120
     16          1           0        0.734370    0.704650   -0.924620
     17          1           0        0.716500    0.389610    0.810740
     18          1           0        0.709240   -0.969430   -0.319390
     19          1           0        2.972230    1.038610    0.090600
     20          1           0        3.036130   -0.260100   -1.108310
     21          1           0        2.248300   -1.075140    1.587260
     22          1           0        4.458400   -2.500760    0.169400
     23          1           0        2.762250   -2.665160   -0.261740
     24          1           0        2.921510   -4.300980    1.298250
     25          1           0        2.270130   -3.033850    2.289430
     26          1           0        5.258710   -3.767530    2.184400
     27          1           0        4.773260   -5.492250    3.843800
     28          1           0        3.132180   -5.446830    3.202710
     29          1           0        3.505830   -4.301720    5.738820
     30          1           0        2.516870   -3.452160    4.552000
     31          1           0        6.448050   -4.239800    4.807610
     32          1           0        5.889850   -3.252310    6.150790
     33          1           0        6.786470   -2.496830    4.849360
     34          1           0        4.791890   -1.470550    5.987010
     35          1           0        3.284820   -1.485740    5.251520
     36          1           0        5.850260   -0.572840    3.769280
     37          1           0        5.061840    0.462810    4.921100
     38          1           0        3.993800    1.257910    3.109170
     39          1           0        2.181030   -1.159830    3.593470
     40          1           0        1.696920    0.409920    2.956580
     41          1           0        2.240840    0.270810    4.620990
     42          1           0        5.054210   -1.157980    1.902650
     43          1           0        4.815980    0.397930    1.227130
 ---------------------------------------------------------------------
                    Distance matrix (angstroms):
                    1          2          3          4          5
     1  C    0.000000
     2  C    1.532441   0.000000
     3  C    2.500907   1.536511   0.000000
     4  C    3.435983   2.624339   1.531693   0.000000
     5  C    4.387046   3.880833   2.513019   1.552363   0.000000
     6  C    5.653578   4.909871   3.402903   2.666529   1.572968
     7  C    6.753459   6.241607   4.752153   3.925026   2.484329
     8  C    6.707776   6.295527   4.792793   4.439785   3.046509
     9  C    6.458896   5.729135   4.213792   4.028120   3.029584
    10  C    7.885735   7.008709   5.526454   5.261882   4.358761
    11  C    6.265210   5.607980   4.238177   4.594284   3.864940
    12  C    5.768451   4.889156   3.730297   4.418079   4.215006
    13  C    4.314324   3.516104   2.573867   3.675291   3.836521
    14  C    3.975312   3.738530   2.858134   3.952020   3.809596
    15  C    3.739951   2.551290   1.528664   2.494433   3.150315
    16  H    1.093785   2.181086   3.467318   4.371739   5.430260
    17  H    1.096777   2.175780   2.757099   3.902003   4.563399
    18  H    1.093379   2.178840   2.735192   3.204141   4.001008
    19  H    2.128687   1.097152   2.178682   3.491060   4.685027
    20  H    2.170715   1.091884   2.191046   2.733817   4.206627
    21  H    2.351996   2.069637   1.076821   2.053346   2.448823
    22  H    4.209741   3.115939   2.198945   1.091360   2.205449
    23  H    3.164960   2.685887   2.142487   1.101825   2.169467
    24  H    4.914282   4.553507   3.373765   2.116363   1.101514
    25  H    4.085216   3.908112   2.609975   2.189564   1.092894
    26  H    6.089618   5.146609   3.739790   2.799558   2.167665
    27  H    7.737652   7.115538   5.623841   4.711132   3.398002
    28  H    6.733376   6.415255   5.021422   4.055292   2.558816
    29  H    7.692750   7.333833   5.842146   5.523199   4.108142
    30  H    6.017660   5.824956   4.411633   4.236144   2.871805
    31  H    8.443625   7.544989   6.051691   5.523318   4.561236
    32  H    8.561704   7.786172   6.309588   6.164836   5.161758
    33  H    7.973764   6.945293   5.556831   5.440201   4.823911
    34  H    7.310743   6.648642   5.313615   5.668606   4.893715
    35  H    6.015549   5.620762   4.318296   4.782355   3.952294
    36  H    6.178201   5.080372   3.927471   4.404175   4.336564
    37  H    6.441178   5.615487   4.622941   5.457414   5.287836
    38  H    4.518811   3.720543   3.195184   4.484162   4.855324
    39  H    4.070219   3.928972   2.795074   3.510208   3.013904
    40  H    3.181961   3.249922   2.797114   4.079254   4.200392
    41  H    4.906902   4.772099   3.949066   5.003064   4.696835
    42  H    4.601036   3.362499   2.156219   2.431737   2.877073
    43  H    3.968456   2.588464   2.179987   3.176968   4.110505
                    6          7          8          9         10
     6  C    0.000000
     7  C    1.568886   0.000000
     8  C    2.162149   1.538074   0.000000
     9  C    1.736029   2.187018   1.568706   0.000000
    10  C    2.841366   2.985514   2.609784   1.559337   0.000000
    11  C    2.986415   3.581267   2.490366   1.543975   2.418067
    12  C    3.547543   4.610377   3.822994   2.572971   3.253229
    13  C    3.774712   5.011839   4.363696   3.401638   4.478730
    14  C    4.058181   4.974914   4.112203   3.697533   5.027171
    15  C    3.321805   4.807370   4.645020   3.627752   4.698168
    16  H    6.705825   7.828067   7.800892   7.520545   8.922438
    17  H    5.717158   6.732967   6.443764   6.261653   7.723443
    18  H    5.438703   6.373743   6.476052   6.436001   7.905372
    19  H    5.498144   6.899157   6.792273   6.060542   7.250671
    20  H    5.261568   6.616405   6.895159   6.292744   7.484524
    21  H    3.466325   4.577441   4.407236   4.119347   5.581312
    22  H    2.812189   4.172165   4.865573   4.211553   5.189691
    23  H    3.544129   4.574629   5.200221   5.006438   6.270081
    24  H    2.191382   2.566633   3.513881   3.791017   4.983609
    25  H    2.206955   2.774938   2.874614   3.178807   4.673577
    26  H    1.096708   2.201858   3.094200   2.402053   3.013508
    27  H    2.251038   1.096382   2.227864   2.630382   2.824643
    28  H    2.294971   1.092338   2.221518   3.186200   4.069560
    29  H    3.173682   2.248663   1.084692   2.287038   2.810941
    30  H    2.561946   2.196325   1.102933   2.241487   3.553704
    31  H    2.994337   2.846681   2.956309   2.253265   1.083285
    32  H    3.719431   3.578568   2.836602   2.189935   1.104962
    33  H    3.364131   3.885354   3.557122   2.200005   1.101955
    34  H    3.853954   4.206814   3.005222   2.181400   2.375986
    35  H    3.401752   3.784325   2.465618   2.190843   3.280899
    36  H    3.479589   4.664700   4.168137   2.679958   2.994625
    37  H    4.609318   5.565562   4.619938   3.444323   3.860085
    38  H    4.838504   6.102325   5.416771   4.407694   5.333656
    39  H    3.339465   4.065077   3.242943   3.149296   4.627163
    40  H    4.779326   5.730638   4.992699   4.681932   6.060740
    41  H    4.747028   5.468386   4.349059   4.022232   5.205273
    42  H    2.643856   4.189583   4.224790   3.038303   3.918694
    43  H    4.269692   5.801104   5.689259   4.556782   5.439735
                   11         12         13         14         15
    11  C    0.000000
    12  C    1.524225   0.000000
    13  C    2.545867   1.536314   0.000000
    14  C    2.776807   2.538246   1.539238   0.000000
    15  C    3.407802   2.496048   1.543288   2.623589   0.000000
    16  H    7.278550   6.677560   5.181993   4.896299   4.597743
    17  H    5.855183   5.418887   3.943397   3.306180   3.780542
    18  H    6.452108   6.181947   4.840993   4.369805   4.190388
    19  H    5.702211   4.743889   3.318349   3.729751   2.573071
    20  H    6.363029   5.626316   4.373844   4.754760   3.152767
    21  H    4.016271   3.778969   2.582721   2.251636   2.160729
    22  H    4.911456   4.594775   4.053030   4.665578   2.665995
    23  H    5.591102   5.458334   4.581698   4.658326   3.420777
    24  H    4.814050   5.279760   4.935175   4.828893   4.174807
    25  H    3.707097   4.201012   3.685935   3.229639   3.366901
    26  H    3.691485   3.989992   4.285415   4.859018   3.541670
    27  H    4.129294   5.154673   5.771534   5.899494   5.528215
    28  H    4.452580   5.477324   5.663664   5.421250   5.381841
    29  H    2.972440   4.450642   5.171749   4.847479   5.620795
    30  H    2.668118   3.908404   4.107872   3.497262   4.494742
    31  H    3.426412   4.238189   5.362864   5.908555   5.354819
    32  H    2.584056   3.636011   4.968823   5.342303   5.464874
    33  H    2.632017   2.946033   4.292920   5.139703   4.484218
    34  H    1.103010   2.101982   3.391433   3.635507   4.370937
    35  H    1.085119   2.211312   2.728067   2.327741   3.774098
    36  H    2.174364   1.095788   2.196223   3.467561   2.534707
    37  H    2.139424   1.098082   2.142210   3.002345   3.341797
    38  H    3.393267   2.138022   1.097892   2.127951   2.131963
    39  H    2.594271   2.875995   2.193817   1.098964   2.882792
    40  H    3.861808   3.496752   2.199784   1.090723   2.952388
    41  H    2.797952   2.734392   2.191228   1.093798   3.559459
    42  H    3.190120   2.450536   2.177399   3.312540   1.095448
    43  H    4.260133   3.075542   2.165518   3.408574   1.096908
                   16         17         18         19         20
    16  H    0.000000
    17  H    1.763815   0.000000
    18  H    1.780303   1.767551   0.000000
    19  H    2.479963   2.455223   3.053103   0.000000
    20  H    2.502515   3.079864   2.557335   1.768648   0.000000
    21  H    3.430624   2.257186   2.452589   2.689239   2.924220
    22  H    5.033878   4.771517   4.079226   3.839538   2.945497
    23  H    3.988399   3.829742   2.663395   3.726412   2.564372
    24  H    5.897547   5.205898   4.313945   5.474688   4.704613
    25  H    5.163822   4.039848   3.674799   4.681103   4.452537
    26  H    7.080682   6.308758   5.898814   5.719351   5.299421
    27  H    8.800684   7.762283   7.369146   7.744827   7.410561
    28  H    7.786209   6.754337   6.190552   7.195258   6.745094
    29  H    8.783289   7.353565   7.458350   7.791421   7.964829
    30  H    7.102798   5.656638   5.758638   6.346531   6.519048
    31  H    9.484313   8.381949   8.361542   7.886261   7.904260
    32  H    9.607181   8.279086   8.597296   7.978120   8.354135
    33  H    8.956352   7.841334   8.122909   7.049366   7.386599
    34  H    8.304553   6.845639   7.529265   6.661434   7.408876
    35  H    7.031878   5.462026   6.159158   5.753708   6.481626
    36  H    7.059533   6.002896   6.580623   4.940902   5.639860
    37  H    7.277220   5.981839   6.961262   5.294501   6.401553
    38  H    5.215500   4.096025   5.244464   3.194286   4.583517
    39  H    5.097278   3.505595   4.184841   4.210610   4.862864
    40  H    4.009624   2.359293   3.689187   3.199298   4.331944
    41  H    5.762938   4.105573   5.318961   4.652836   5.808548
    42  H    5.488521   4.733184   4.883828   3.527488   3.734262
    43  H    4.624245   4.120581   4.596380   2.258669   3.009178
                   21         22         23         24         25
    21  H    0.000000
    22  H    2.987852   0.000000
    23  H    2.492210   1.757792   0.000000
    24  H    3.307988   2.622427   2.266018   0.000000
    25  H    2.080881   3.093095   2.624230   1.735613   0.000000
    26  H    4.082659   2.511061   3.664851   2.555843   3.079112
    27  H    5.565811   4.748617   5.375133   3.365699   3.837376
    28  H    4.743690   4.431609   4.458357   2.232560   2.720236
    29  H    5.406260   5.930370   6.264021   4.478849   3.877208
    30  H    3.809467   4.886909   4.883817   3.386904   2.314106
    31  H    6.166330   5.338161   6.462424   4.975524   5.024994
    32  H    6.231112   6.196039   7.158713   5.784280   5.297188
    33  H    5.766930   5.227040   6.507382   5.550068   5.219096
    34  H    5.097450   5.917528   6.677830   5.787411   4.740810
    35  H    3.830113   5.313709   5.662168   4.866818   3.492881
    36  H    4.241183   4.314312   5.492061   5.346269   4.589538
    37  H    4.625558   5.632543   6.475658   6.356080   5.190950
    38  H    3.287264   4.794341   5.316975   5.943946   4.697043
    39  H    2.009123   4.325363   4.179292   3.960198   2.284822
    40  H    2.093910   4.885305   4.576967   5.142204   3.554323
    41  H    3.318909   5.693490   5.721262   5.692554   4.044479
    42  H    2.824795   2.272048   3.494175   3.846057   3.379288
    43  H    2.982048   3.106294   3.977067   5.066935   4.403061
                   26         27         28         29         30
    26  H    0.000000
    27  H    2.442116   0.000000
    28  H    2.894673   1.762442   0.000000
    29  H    3.998981   2.571933   2.807623   0.000000
    30  H    3.636300   3.123269   2.485538   1.763047   0.000000
    31  H    2.918698   2.302712   3.876547   3.086688   4.017448
    32  H    4.049202   3.403867   4.594762   2.637145   3.738056
    33  H    3.324265   3.746559   4.976725   3.848554   4.385267
    34  H    4.466977   4.557167   5.130084   3.119467   3.340920
    35  H    4.302329   4.499917   4.462192   2.866365   2.223934
    36  H    3.614944   5.036475   5.609344   4.824934   4.473771
    37  H    5.042228   6.058597   6.449829   5.078443   4.684026
    38  H    5.264052   6.834610   6.760523   6.169494   5.142746
    39  H    4.272902   5.054917   4.408599   4.028535   2.507258
    40  H    5.543798   6.714658   6.035070   5.763034   4.258327
    41  H    5.599348   6.342715   5.957970   4.874195   3.733826
    42  H    2.632671   4.757404   4.876330   5.195843   4.326709
    43  H    4.296910   6.445387   6.395257   6.645190   5.582460
                   31         32         33         34         35
    31  H    0.000000
    32  H    1.758083   0.000000
    33  H    1.776011   1.751684   0.000000
    34  H    3.435491   2.099288   2.515124   0.000000
    35  H    4.217574   3.273475   3.666823   1.677032   0.000000
    36  H    3.857730   3.585069   2.396831   2.616172   3.100307
    37  H    4.903978   3.999982   3.426217   2.224167   2.657786
    38  H    6.255626   5.760950   4.992528   4.045171   3.552454
    39  H    5.400723   4.967263   4.957308   3.555583   2.018341
    40  H    6.900684   6.418377   6.159166   4.722130   3.373678
    41  H    6.170984   5.297918   5.326794   3.377307   2.138441
    42  H    4.458609   4.809491   3.671014   4.104693   3.801723
    43  H    6.082107   6.222530   5.038156   5.113536   4.699827
                   36         37         38         39         40
    36  H    0.000000
    37  H    1.738064   0.000000
    38  H    2.689579   2.248551   0.000000
    39  H    3.720042   3.562952   3.060416   0.000000
    40  H    4.344713   3.896771   2.453167   1.761847   0.000000
    41  H    3.803297   2.843408   2.516512   1.762415   1.756548
    42  H    2.111964   3.426085   2.901152   3.333772   3.852334
    43  H    2.911126   3.702711   2.226571   3.868998   3.566466
                   41         42         43
    41  H    0.000000
    42  H    4.164837   0.000000
    43  H    4.262135   1.712874   0.000000
 Stoichiometry    C15H28
 Framework group  C1[X(C15H28)]
 Deg. of freedom   123
 Full point group                 C1      NOp   1
 Largest Abelian subgroup         C1      NOp   1
 Largest concise Abelian subgroup C1      NOp   1
                         Standard orientation:                         
 ---------------------------------------------------------------------
 Center     Atomic      Atomic             Coordinates (Angstroms)
 Number     Number       Type             X           Y           Z
 ---------------------------------------------------------------------
      1          6           0       -4.181595   -0.445813    0.812494
      2          6           0       -3.507767   -0.159297   -0.533701
      3          6           0       -1.986690   -0.311474   -0.378674
      4          6           0       -1.368873   -1.666065   -0.738493
      5          6           0       -0.097008   -1.890351    0.122836
      6          6           0        1.259697   -1.329654   -0.442142
      7          6           0        2.366006   -2.049773    0.405745
      8          6           0        2.505857   -0.758757    1.229997
      9          6           0        2.196594    0.080648   -0.058644
     10          6           0        3.469115    0.396531   -0.902704
     11          6           0        1.767656    1.481073    0.429907
     12          6           0        0.782408    2.185228   -0.495681
     13          6           0       -0.681179    1.892903   -0.131376
     14          6           0       -0.838410    1.629648    1.377010
     15          6           0       -1.208262    0.799097   -1.084008
     16          1           0       -5.268985   -0.354147    0.738023
     17          1           0       -3.845965    0.270482    1.572227
     18          1           0       -3.933074   -1.448596    1.170460
     19          1           0       -3.765340    0.871605   -0.806905
     20          1           0       -3.904945   -0.818830   -1.307960
     21          1           0       -1.839889   -0.265324    0.687095
     22          1           0       -1.160931   -1.767095   -1.805086
     23          1           0       -2.103042   -2.448077   -0.486555
     24          1           0       -0.016632   -2.984977    0.215921
     25          1           0       -0.259480   -1.539193    1.144946
     26          1           0        1.327270   -1.639779   -1.491915
     27          1           0        3.261040   -2.322347   -0.165805
     28          1           0        2.076125   -2.925197    0.991238
     29          1           0        3.455038   -0.593195    1.728196
     30          1           0        1.714297   -0.679872    1.993980
     31          1           0        3.991230   -0.461411   -1.308707
     32          1           0        4.194921    0.948946   -0.279018
     33          1           0        3.220350    1.082546   -1.728419
     34          1           0        2.645610    2.147140    0.476612
     35          1           0        1.481748    1.470513    1.476629
     36          1           0        0.997223    1.959656   -1.546263
     37          1           0        0.938409    3.268294   -0.403953
     38          1           0       -1.260136    2.799871   -0.349517
     39          1           0       -0.365972    0.681813    1.670494
     40          1           0       -1.883958    1.576055    1.683006
     41          1           0       -0.369906    2.418050    1.973097
     42          1           0       -0.377940    0.359958   -1.647684
     43          1           0       -1.812360    1.269441   -1.869534
 ---------------------------------------------------------------------
 Rotational constants (GHZ):           0.9132106           0.4198341           0.3432770
 Standard basis: 6-31G(2df,p) (6D, 7F)
 There are   605 symmetry adapted cartesian basis functions of A   symmetry.
 There are   560 symmetry adapted basis functions of A   symmetry.
   560 basis functions,   856 primitive gaussians,   605 cartesian basis functions
    59 alpha electrons       59 beta electrons
       nuclear repulsion energy      1128.1046811604 Hartrees.
 NAtoms=   43 NActive=   43 NUniq=   43 SFac= 1.00D+00 NAtFMM=   60 NAOKFM=F Big=F
 Integral buffers will be    131072 words long.
 Raffenetti 2 integral format.
 Two-electron integral symmetry is turned on.
 One-electron integrals computed using PRISM.
 PrsmSu:  requested number of processors reduced to:  12 ShMem   1 Linda.
 NBasis=   560 RedAO= T EigKep=  4.86D-04  NBF=   560
 NBsUse=   560 1.00D-06 EigRej= -1.00D+00 NBFU=   560
 ExpMin= 1.61D-01 ExpMax= 3.05D+03 ExpMxC= 4.57D+02 IAcc=3 IRadAn=         5 AccDes= 0.00D+00
 Harris functional with IExCor=  402 and IRadAn=       5 diagonalized for initial guess.
 HarFok:  IExCor=  402 AccDes= 0.00D+00 IRadAn=         5 IDoV= 1 UseB2=F ITyADJ=14
 ICtDFT=  3500011 ScaDFX=  1.000000  1.000000  1.000000  1.000000
 FoFCou: FMM=F IPFlag=           0 FMFlag=      100000 FMFlg1=           0
         NFxFlg=           0 DoJE=T BraDBF=F KetDBF=T FulRan=T
         wScrn=  0.000000 ICntrl=       500 IOpCl=  0 I1Cent=   200000004 NGrid=           0
         NMat0=    1 NMatS0=      1 NMatT0=    0 NMatD0=    1 NMtDS0=    0 NMtDT0=    0
 Petite list used in FoFCou.
 Requested convergence on RMS density matrix=1.00D-08 within 128 cycles.
 Requested convergence on MAX density matrix=1.00D-06.
 Requested convergence on             energy=1.00D-06.
 No special actions if energy rises.
 Integral accuracy reduced to 1.0D-05 until final iterations.
 Initial convergence to 1.0D-05 achieved.  Increase integral accuracy.
 SCF Done:  E(RB3LYP) =  -588.405152674     A.U. after   12 cycles
            NFock= 12  Conv=0.50D-08     -V/T= 2.0089

 **********************************************************************

            Population analysis using the SCF density.

 **********************************************************************

 Orbital symmetries:
       Occupied  (A) (A) (A) (A) (A) (A) (A) (A) (A) (A) (A) (A)
                 (A) (A) (A) (A) (A) (A) (A) (A) (A) (A) (A) (A)
                 (A) (A) (A) (A) (A) (A) (A) (A) (A) (A) (A) (A)
                 (A) (A) (A) (A) (A) (A) (A) (A) (A) (A) (A) (A)
                 (A) (A) (A) (A) (A) (A) (A) (A) (A) (A) (A)
       Virtual   (A) (A) (A) (A) (A) (A) (A) (A) (A) (A) (A) (A)
                 (A) (A) (A) (A) (A) (A) (A) (A) (A) (A) (A) (A)
                 (A) (A) (A) (A) (A) (A) (A) (A) (A) (A) (A) (A)
                 (A) (A) (A) (A) (A) (A) (A) (A) (A) (A) (A) (A)
                 (A) (A) (A) (A) (A) (A) (A) (A) (A) (A) (A) (A)
                 (A) (A) (A) (A) (A) (A) (A) (A) (A) (A) (A) (A)
                 (A) (A) (A) (A) (A) (A) (A) (A) (A) (A) (A) (A)
                 (A) (A) (A) (A) (A) (A) (A) (A) (A) (A) (A) (A)
                 (A) (A) (A) (A) (A) (A) (A) (A) (A) (A) (A) (A)
                 (A) (A) (A) (A) (A) (A) (A) (A) (A) (A) (A) (A)
                 (A) (A) (A) (A) (A) (A) (A) (A) (A) (A) (A) (A)
                 (A) (A) (A) (A) (A) (A) (A) (A) (A) (A) (A) (A)
                 (A) (A) (A) (A) (A) (A) (A) (A) (A) (A) (A) (A)
                 (A) (A) (A) (A) (A) (A) (A) (A) (A) (A) (A) (A)
                 (A) (A) (A) (A) (A) (A) (A) (A) (A) (A) (A) (A)
                 (A) (A) (A) (A) (A) (A) (A) (A) (A) (A) (A) (A)
                 (A) (A) (A) (A) (A) (A) (A) (A) (A) (A) (A) (A)
                 (A) (A) (A) (A) (A) (A) (A) (A) (A) (A) (A) (A)
                 (A) (A) (A) (A) (A) (A) (A) (A) (A) (A) (A) (A)
                 (A) (A) (A) (A) (A) (A) (A) (A) (A) (A) (A) (A)
                 (A) (A) (A) (A) (A) (A) (A) (A) (A) (A) (A) (A)
                 (A) (A) (A) (A) (A) (A) (A) (A) (A) (A) (A) (A)
                 (A) (A) (A) (A) (A) (A) (A) (A) (A) (A) (A) (A)
                 (A) (A) (A) (A) (A) (A) (A) (A) (A) (A) (A) (A)
                 (A) (A) (A) (A) (A) (A) (A) (A) (A) (A) (A) (A)
                 (A) (A) (A) (A) (A) (A) (A) (A) (A) (A) (A) (A)
                 (A) (A) (A) (A) (A) (A) (A) (A) (A) (A) (A) (A)
                 (A) (A) (A) (A) (A) (A) (A) (A) (A) (A) (A) (A)
                 (A) (A) (A) (A) (A) (A) (A) (A) (A) (A) (A) (A)
                 (A) (A) (A) (A) (A) (A) (A) (A) (A) (A) (A) (A)
                 (A) (A) (A) (A) (A) (A) (A) (A) (A) (A) (A) (A)
                 (A) (A) (A) (A) (A) (A) (A) (A) (A) (A) (A) (A)
                 (A) (A) (A) (A) (A) (A) (A) (A) (A) (A) (A) (A)
                 (A) (A) (A) (A) (A) (A) (A) (A) (A) (A) (A) (A)
                 (A) (A) (A) (A) (A) (A) (A) (A) (A) (A) (A) (A)
                 (A) (A) (A) (A) (A) (A) (A) (A) (A) (A) (A) (A)
                 (A) (A) (A) (A) (A) (A) (A) (A) (A) (A) (A) (A)
                 (A) (A) (A) (A) (A) (A) (A) (A) (A) (A) (A) (A)
                 (A) (A) (A) (A) (A) (A) (A) (A) (A) (A) (A) (A)
                 (A) (A) (A) (A) (A) (A) (A) (A) (A) (A) (A) (A)
                 (A) (A) (A) (A) (A) (A) (A) (A) (A) (A) (A) (A)
                 (A) (A) (A) (A) (A) (A) (A) (A) (A)
 The electronic state is 1-A.
 Alpha  occ. eigenvalues --  -10.20046 -10.19613 -10.18196 -10.17475 -10.17359
 Alpha  occ. eigenvalues --  -10.16856 -10.16736 -10.16657 -10.16620 -10.16615
 Alpha  occ. eigenvalues --  -10.16594 -10.16375 -10.16195 -10.16127 -10.15948
 Alpha  occ. eigenvalues --   -0.84133  -0.81649  -0.79361  -0.75319  -0.73179
 Alpha  occ. eigenvalues --   -0.70723  -0.68682  -0.66762  -0.62869  -0.62175
 Alpha  occ. eigenvalues --   -0.59233  -0.58178  -0.55855  -0.53703  -0.51127
 Alpha  occ. eigenvalues --   -0.47374  -0.46512  -0.45615  -0.44320  -0.44266
 Alpha  occ. eigenvalues --   -0.43100  -0.41702  -0.41217  -0.39750  -0.39544
 Alpha  occ. eigenvalues --   -0.38432  -0.38305  -0.37571  -0.36990  -0.36346
 Alpha  occ. eigenvalues --   -0.35265  -0.35110  -0.33919  -0.33355  -0.32699
 Alpha  occ. eigenvalues --   -0.31963  -0.31917  -0.31089  -0.30333  -0.29358
 Alpha  occ. eigenvalues --   -0.28184  -0.27602  -0.26556  -0.25857
 Alpha virt. eigenvalues --    0.07324   0.08031   0.08241   0.09452   0.09979
 Alpha virt. eigenvalues --    0.11070   0.11874   0.12178   0.12755   0.13736
 Alpha virt. eigenvalues --    0.13814   0.14109   0.15256   0.15543   0.16249
 Alpha virt. eigenvalues --    0.16332   0.16675   0.17456   0.18534   0.19138
 Alpha virt. eigenvalues --    0.19608   0.20036   0.20126   0.20365   0.20689
 Alpha virt. eigenvalues --    0.22193   0.22530   0.22787   0.23763   0.23909
 Alpha virt. eigenvalues --    0.25128   0.25970   0.26239   0.27073   0.27613
 Alpha virt. eigenvalues --    0.28183   0.28687   0.30089   0.30183   0.31287
 Alpha virt. eigenvalues --    0.32407   0.32683   0.33050   0.34704   0.44501
 Alpha virt. eigenvalues --    0.44756   0.45646   0.46717   0.47003   0.49107
 Alpha virt. eigenvalues --    0.50067   0.50682   0.50816   0.51722   0.52173
 Alpha virt. eigenvalues --    0.52717   0.54028   0.54592   0.54988   0.56419
 Alpha virt. eigenvalues --    0.57036   0.57541   0.58079   0.58495   0.59235
 Alpha virt. eigenvalues --    0.59971   0.60589   0.61310   0.62080   0.62456
 Alpha virt. eigenvalues --    0.63383   0.64641   0.65082   0.66357   0.67463
 Alpha virt. eigenvalues --    0.68223   0.68822   0.69284   0.70598   0.71150
 Alpha virt. eigenvalues --    0.71660   0.72286   0.73690   0.74047   0.74179
 Alpha virt. eigenvalues --    0.74462   0.75378   0.75712   0.76211   0.76653
 Alpha virt. eigenvalues --    0.76874   0.77200   0.77853   0.78257   0.79571
 Alpha virt. eigenvalues --    0.79839   0.80532   0.81093   0.81320   0.82125
 Alpha virt. eigenvalues --    0.82257   0.83901   0.84662   0.85751   0.86333
 Alpha virt. eigenvalues --    0.86540   0.87320   0.88162   0.89193   0.89726
 Alpha virt. eigenvalues --    0.90542   0.91358   0.91545   0.92188   0.95138
 Alpha virt. eigenvalues --    0.97717   0.98634   0.99431   0.99841   1.01884
 Alpha virt. eigenvalues --    1.03238   1.05138   1.07907   1.08508   1.08620
 Alpha virt. eigenvalues --    1.10390   1.12053   1.14730   1.16001   1.17074
 Alpha virt. eigenvalues --    1.18682   1.19105   1.20575   1.21331   1.23195
 Alpha virt. eigenvalues --    1.25142   1.27014   1.27599   1.29430   1.30594
 Alpha virt. eigenvalues --    1.32078   1.32292   1.33223   1.35181   1.36147
 Alpha virt. eigenvalues --    1.37795   1.39630   1.40563   1.42619   1.43529
 Alpha virt. eigenvalues --    1.43673   1.44911   1.46910   1.47139   1.47989
 Alpha virt. eigenvalues --    1.49228   1.50501   1.51072   1.52014   1.52813
 Alpha virt. eigenvalues --    1.54529   1.54990   1.57208   1.57579   1.59150
 Alpha virt. eigenvalues --    1.59493   1.59536   1.60792   1.62123   1.62773
 Alpha virt. eigenvalues --    1.63775   1.64686   1.65265   1.65387   1.66851
 Alpha virt. eigenvalues --    1.69045   1.69977   1.71131   1.71502   1.72138
 Alpha virt. eigenvalues --    1.72995   1.74985   1.76121   1.76845   1.78515
 Alpha virt. eigenvalues --    1.78834   1.80461   1.81821   1.83300   1.84648
 Alpha virt. eigenvalues --    1.85508   1.86442   1.87195   1.88719   1.89636
 Alpha virt. eigenvalues --    1.91239   1.93592   1.95640   1.96811   1.98515
 Alpha virt. eigenvalues --    1.98633   2.01132   2.02204   2.02567   2.03697
 Alpha virt. eigenvalues --    2.05739   2.10638   2.11590   2.13251   2.16140
 Alpha virt. eigenvalues --    2.19309   2.19959   2.21577   2.23918   2.24911
 Alpha virt. eigenvalues --    2.25712   2.26545   2.28749   2.30128   2.30257
 Alpha virt. eigenvalues --    2.31562   2.32328   2.34914   2.35041   2.36010
 Alpha virt. eigenvalues --    2.37665   2.37814   2.38649   2.39367   2.41509
 Alpha virt. eigenvalues --    2.41761   2.42373   2.44447   2.45870   2.48068
 Alpha virt. eigenvalues --    2.49541   2.50933   2.51823   2.53894   2.55051
 Alpha virt. eigenvalues --    2.55502   2.56172   2.56861   2.59355   2.60843
 Alpha virt. eigenvalues --    2.62667   2.64308   2.65927   2.67043   2.67945
 Alpha virt. eigenvalues --    2.69493   2.69820   2.71169   2.72812   2.74060
 Alpha virt. eigenvalues --    2.74961   2.75765   2.77168   2.77458   2.78750
 Alpha virt. eigenvalues --    2.79792   2.80400   2.81839   2.82177   2.83584
 Alpha virt. eigenvalues --    2.83991   2.86000   2.86234   2.86824   2.87753
 Alpha virt. eigenvalues --    2.89015   2.89594   2.90880   2.91261   2.92546
 Alpha virt. eigenvalues --    2.93244   2.94136   2.94676   2.95806   2.97036
 Alpha virt. eigenvalues --    2.97538   2.97972   2.98380   2.99299   3.00168
 Alpha virt. eigenvalues --    3.01806   3.02427   3.03288   3.05006   3.05411
 Alpha virt. eigenvalues --    3.07120   3.07714   3.10077   3.11029   3.11433
 Alpha virt. eigenvalues --    3.12051   3.13851   3.15468   3.17364   3.18401
 Alpha virt. eigenvalues --    3.19433   3.21369   3.22302   3.22979   3.23569
 Alpha virt. eigenvalues --    3.25480   3.27234   3.29002   3.29461   3.30799
 Alpha virt. eigenvalues --    3.31672   3.32107   3.34242   3.36500   3.37226
 Alpha virt. eigenvalues --    3.37870   3.39097   3.40059   3.41059   3.41949
 Alpha virt. eigenvalues --    3.42918   3.44264   3.44940   3.47080   3.48509
 Alpha virt. eigenvalues --    3.50003   3.50530   3.51298   3.53299   3.54677
 Alpha virt. eigenvalues --    3.55553   3.56097   3.58613   3.59540   3.59879
 Alpha virt. eigenvalues --    3.61470   3.61863   3.62632   3.63345   3.63572
 Alpha virt. eigenvalues --    3.65310   3.65782   3.66920   3.68429   3.70017
 Alpha virt. eigenvalues --    3.72336   3.73382   3.73603   3.74772   3.76825
 Alpha virt. eigenvalues --    3.78648   3.80161   3.82141   3.83388   3.83513
 Alpha virt. eigenvalues --    3.85722   3.87594   3.88078   3.89901   3.92764
 Alpha virt. eigenvalues --    3.94153   3.95140   3.96291   3.97370   3.99665
 Alpha virt. eigenvalues --    4.02827   4.03892   4.04218   4.06770   4.07363
 Alpha virt. eigenvalues --    4.11382   4.11979   4.12398   4.15134   4.17120
 Alpha virt. eigenvalues --    4.20857   4.22314   4.24172   4.28552   4.33776
 Alpha virt. eigenvalues --    4.36010   4.36363   4.37742   4.41200   4.42899
 Alpha virt. eigenvalues --    4.43618   4.44367   4.45434   4.46968   4.47720
 Alpha virt. eigenvalues --    4.48627   4.50107   4.50580   4.52117   4.52825
 Alpha virt. eigenvalues --    4.53502   4.54914   4.56033   4.56648   4.57026
 Alpha virt. eigenvalues --    4.59975   4.60143   4.61397   4.62261   4.62575
 Alpha virt. eigenvalues --    4.64211   4.64339   4.65449   4.65974   4.67320
 Alpha virt. eigenvalues --    4.67983   4.68857   4.69782   4.70201   4.70780
 Alpha virt. eigenvalues --    4.71366   4.72746   4.73693   4.75064   4.75481
 Alpha virt. eigenvalues --    4.76360   4.76532   4.77160   4.77695   4.78611
 Alpha virt. eigenvalues --    4.79327   4.79898   4.81043   4.81190   4.82298
 Alpha virt. eigenvalues --    4.83382   4.84386   4.85107   4.85855   4.87562
 Alpha virt. eigenvalues --    4.87942   4.89800   4.90163   4.90183   4.91255
 Alpha virt. eigenvalues --    4.93511   4.94957   4.95742   4.97018   4.99286
 Alpha virt. eigenvalues --    4.99731   5.00630   5.01848   5.02327   5.03690
 Alpha virt. eigenvalues --    5.05148   5.07567   5.08851   5.09920   5.13738
 Alpha virt. eigenvalues --    5.16963   5.17473   5.18546   5.23296   5.25687
 Alpha virt. eigenvalues --    5.28502   5.30369   5.33610   5.36858   5.38963
 Alpha virt. eigenvalues --    5.41063   5.43055   5.43354   5.45509   5.48085
 Alpha virt. eigenvalues --    5.49581   5.52184   5.53671   5.57422   5.60670
 Alpha virt. eigenvalues --    5.61948   5.66782   5.67765   5.77128   5.92438
 Alpha virt. eigenvalues --    6.00995   6.11855   6.58830   6.70415   6.82792
 Alpha virt. eigenvalues --    7.29074  11.01897  11.32326  11.53641  11.61955
 Alpha virt. eigenvalues --   11.78935  12.08775  12.17961  12.27927  12.31011
 Alpha virt. eigenvalues --   12.45794  12.64286  12.67216  12.95895  13.00885
 Alpha virt. eigenvalues --   13.20150
          Condensed to atoms (all electrons):
               1          2          3          4          5          6
     1  C    4.964234   0.396939  -0.023773   0.000635  -0.000115  -0.000002
     2  C    0.396939   4.940151   0.395402  -0.025042   0.003393   0.000054
     3  C   -0.023773   0.395402   4.521242   0.400069  -0.018210  -0.000071
     4  C    0.000635  -0.025042   0.400069   4.999665   0.394850  -0.024911
     5  C   -0.000115   0.003393  -0.018210   0.394850   4.860070   0.409095
     6  C   -0.000002   0.000054  -0.000071  -0.024911   0.409095   4.894362
     7  C   -0.000000   0.000001   0.000013   0.003170  -0.030270   0.340528
     8  C    0.000000  -0.000000   0.000006   0.000098  -0.002414  -0.073018
     9  C   -0.000000  -0.000007   0.000021   0.000448  -0.011415   0.350711
    10  C   -0.000000   0.000000  -0.000005  -0.000008   0.001979  -0.029485
    11  C   -0.000000   0.000001  -0.000161   0.000086  -0.002121  -0.030284
    12  C    0.000001  -0.000011   0.002795  -0.000277   0.000358  -0.002551
    13  C    0.000005   0.003271  -0.034760   0.005649   0.000218  -0.000293
    14  C   -0.001563  -0.000257  -0.013346   0.000547  -0.001529  -0.000009
    15  C    0.003675  -0.032648   0.419691  -0.032310  -0.001680  -0.000254
    16  H    0.369759  -0.023417   0.002650  -0.000093   0.000001   0.000000
    17  H    0.380308  -0.030545  -0.007138  -0.000181   0.000039  -0.000000
    18  H    0.378042  -0.031676  -0.004246   0.000937  -0.000204   0.000004
    19  H   -0.037502   0.359812  -0.024660   0.004225  -0.000158   0.000003
    20  H   -0.036259   0.356807  -0.021342  -0.013335   0.000294  -0.000006
    21  H   -0.012529  -0.067699   0.388085  -0.059534  -0.013527  -0.000977
    22  H   -0.000017  -0.000872  -0.025143   0.358449  -0.032046  -0.009004
    23  H    0.001034  -0.009297  -0.024354   0.334932  -0.023329   0.003085
    24  H    0.000011  -0.000343   0.002523  -0.036769   0.361240  -0.025228
    25  H   -0.000038   0.000549  -0.010169  -0.035157   0.357195  -0.034889
    26  H   -0.000000   0.000006  -0.000217  -0.004416  -0.052661   0.345279
    27  H    0.000000  -0.000000   0.000000  -0.000180   0.003315  -0.020470
    28  H    0.000000   0.000000  -0.000011   0.000238  -0.008697  -0.026900
    29  H   -0.000000   0.000000   0.000000  -0.000004   0.000071   0.009591
    30  H    0.000000  -0.000000  -0.000001  -0.000049   0.001235  -0.007671
    31  H    0.000000  -0.000000   0.000000  -0.000001  -0.000011  -0.002751
    32  H    0.000000  -0.000000   0.000000   0.000000  -0.000042   0.002542
    33  H   -0.000000  -0.000000  -0.000000  -0.000002  -0.000013  -0.000897
    34  H    0.000000  -0.000000   0.000004  -0.000002  -0.000023   0.003116
    35  H    0.000000  -0.000000   0.000072   0.000007   0.000236   0.000686
    36  H    0.000000  -0.000012   0.000492  -0.000043   0.000048   0.000458
    37  H   -0.000000   0.000005  -0.000153   0.000004  -0.000006   0.000034
    38  H   -0.000047  -0.000037   0.003019  -0.000082  -0.000022   0.000001
    39  H   -0.000053   0.000426  -0.004123  -0.000134  -0.000180   0.000629
    40  H    0.000148  -0.000046  -0.002729   0.000343   0.000032  -0.000006
    41  H    0.000015  -0.000031   0.000695  -0.000054   0.000025   0.000017
    42  H   -0.000193   0.004496  -0.027259  -0.014371  -0.003110   0.005020
    43  H    0.000370  -0.019000  -0.023998   0.002612   0.000069  -0.000056
               7          8          9         10         11         12
     1  C   -0.000000   0.000000  -0.000000  -0.000000  -0.000000   0.000001
     2  C    0.000001  -0.000000  -0.000007   0.000000   0.000001  -0.000011
     3  C    0.000013   0.000006   0.000021  -0.000005  -0.000161   0.002795
     4  C    0.003170   0.000098   0.000448  -0.000008   0.000086  -0.000277
     5  C   -0.030270  -0.002414  -0.011415   0.001979  -0.002121   0.000358
     6  C    0.340528  -0.073018   0.350711  -0.029485  -0.030284  -0.002551
     7  C    4.991690   0.351911  -0.054355   0.004463   0.005185  -0.000172
     8  C    0.351911   5.018890   0.358174  -0.041392  -0.051391   0.003630
     9  C   -0.054355   0.358174   4.492859   0.385254   0.393937  -0.018971
    10  C    0.004463  -0.041392   0.385254   5.097102  -0.052771  -0.001400
    11  C    0.005185  -0.051391   0.393937  -0.052771   4.996060   0.398066
    12  C   -0.000172   0.003630  -0.018971  -0.001400   0.398066   4.910373
    13  C   -0.000015   0.000355  -0.001699  -0.000112  -0.029053   0.411373
    14  C    0.000007  -0.000902  -0.000460   0.000044  -0.016549  -0.043089
    15  C    0.000151  -0.000093   0.000679   0.000052  -0.001732  -0.029606
    16  H    0.000000   0.000000   0.000000   0.000000  -0.000000  -0.000000
    17  H    0.000000   0.000000  -0.000000   0.000000  -0.000000   0.000002
    18  H   -0.000000  -0.000000  -0.000000   0.000000   0.000000   0.000000
    19  H   -0.000000   0.000000   0.000000   0.000000   0.000000  -0.000025
    20  H    0.000000   0.000000   0.000000   0.000000   0.000000  -0.000000
    21  H    0.000004  -0.000033   0.000050  -0.000001  -0.000014   0.000655
    22  H    0.000121   0.000003  -0.000032  -0.000007   0.000001  -0.000030
    23  H   -0.000170   0.000010  -0.000043   0.000000  -0.000002   0.000005
    24  H   -0.013863  -0.000010   0.002175  -0.000048  -0.000042  -0.000006
    25  H    0.000168   0.001197  -0.006123  -0.000016   0.000235   0.000023
    26  H   -0.036370   0.009106  -0.031940  -0.004498   0.001639  -0.000050
    27  H    0.361883  -0.022211  -0.002149   0.000718   0.000041  -0.000003
    28  H    0.359498  -0.026640   0.004345  -0.000036  -0.000469   0.000008
    29  H   -0.028638   0.347096  -0.021954  -0.007365   0.001210  -0.000030
    30  H   -0.025087   0.365084  -0.019727   0.004581  -0.010294   0.000443
    31  H    0.001496  -0.003511  -0.018750   0.359455   0.005823  -0.000088
    32  H   -0.000229  -0.007031  -0.018587   0.370864  -0.007868   0.000023
    33  H   -0.000390   0.005018  -0.020395   0.365082  -0.007055   0.000960
    34  H   -0.000379   0.002382  -0.019663  -0.022114   0.343279  -0.031767
    35  H    0.000785  -0.012957  -0.027175   0.005801   0.361319  -0.031620
    36  H   -0.000012   0.000192  -0.008754  -0.000001  -0.034055   0.369968
    37  H    0.000005  -0.000286   0.003369   0.000180  -0.025770   0.338968
    38  H   -0.000000   0.000007   0.000002  -0.000006   0.004636  -0.038831
    39  H   -0.000264   0.000894  -0.001660  -0.000048   0.000131  -0.008009
    40  H    0.000001   0.000000  -0.000001   0.000001   0.000887   0.004605
    41  H    0.000000  -0.000048   0.000568  -0.000004  -0.003468  -0.004895
    42  H   -0.000069   0.000086   0.000404  -0.000020   0.000304  -0.016485
    43  H   -0.000005  -0.000001   0.000057  -0.000002   0.000003   0.003093
              13         14         15         16         17         18
     1  C    0.000005  -0.001563   0.003675   0.369759   0.380308   0.378042
     2  C    0.003271  -0.000257  -0.032648  -0.023417  -0.030545  -0.031676
     3  C   -0.034760  -0.013346   0.419691   0.002650  -0.007138  -0.004246
     4  C    0.005649   0.000547  -0.032310  -0.000093  -0.000181   0.000937
     5  C    0.000218  -0.001529  -0.001680   0.000001   0.000039  -0.000204
     6  C   -0.000293  -0.000009  -0.000254   0.000000  -0.000000   0.000004
     7  C   -0.000015   0.000007   0.000151   0.000000   0.000000  -0.000000
     8  C    0.000355  -0.000902  -0.000093   0.000000   0.000000  -0.000000
     9  C   -0.001699  -0.000460   0.000679   0.000000  -0.000000  -0.000000
    10  C   -0.000112   0.000044   0.000052   0.000000   0.000000   0.000000
    11  C   -0.029053  -0.016549  -0.001732  -0.000000  -0.000000   0.000000
    12  C    0.411373  -0.043089  -0.029606  -0.000000   0.000002   0.000000
    13  C    4.594031   0.419851   0.403731  -0.000001   0.000017  -0.000003
    14  C    0.419851   5.054421  -0.041336   0.000033  -0.000866   0.000030
    15  C    0.403731  -0.041336   4.994225  -0.000213   0.000306   0.000210
    16  H   -0.000001   0.000033  -0.000213   0.616640  -0.032414  -0.031515
    17  H    0.000017  -0.000866   0.000306  -0.032414   0.594550  -0.034385
    18  H   -0.000003   0.000030   0.000210  -0.031515  -0.034385   0.603171
    19  H    0.001096   0.000174  -0.012004  -0.002063  -0.005811   0.005810
    20  H   -0.000164   0.000002   0.002243  -0.002047   0.005463  -0.003662
    21  H   -0.019959   0.006287  -0.053765   0.000368   0.005372   0.002304
    22  H    0.000188   0.000008  -0.014484   0.000008  -0.000007  -0.000032
    23  H   -0.000254  -0.000013   0.005689  -0.000143   0.000070   0.002661
    24  H    0.000001   0.000056   0.000122  -0.000000  -0.000000   0.000015
    25  H    0.000412  -0.001836  -0.001555   0.000001  -0.000013   0.000055
    26  H    0.000075  -0.000018  -0.000984   0.000000  -0.000000   0.000000
    27  H    0.000000  -0.000001   0.000001  -0.000000   0.000000   0.000000
    28  H    0.000001  -0.000000  -0.000005  -0.000000  -0.000000   0.000000
    29  H   -0.000005   0.000022   0.000001  -0.000000   0.000000  -0.000000
    30  H   -0.000073  -0.000372  -0.000001  -0.000000   0.000000  -0.000000
    31  H    0.000006  -0.000000   0.000002  -0.000000  -0.000000  -0.000000
    32  H   -0.000017   0.000001  -0.000001  -0.000000  -0.000000  -0.000000
    33  H    0.000131  -0.000003  -0.000052  -0.000000   0.000000   0.000000
    34  H    0.005386   0.000167  -0.000025  -0.000000   0.000000  -0.000000
    35  H   -0.016502   0.003575  -0.000005   0.000000  -0.000000  -0.000000
    36  H   -0.034795   0.004853  -0.015894  -0.000000  -0.000000  -0.000000
    37  H   -0.026586   0.002122   0.004983   0.000000  -0.000000   0.000000
    38  H    0.361319  -0.054501  -0.038016  -0.000001   0.000000   0.000001
    39  H   -0.017723   0.369602  -0.005712  -0.000001  -0.000007  -0.000008
    40  H   -0.016908   0.364836  -0.002978  -0.000076   0.005439  -0.000034
    41  H   -0.021810   0.366742   0.004768   0.000000  -0.000013  -0.000001
    42  H   -0.036015   0.001580   0.355961   0.000004  -0.000015   0.000006
    43  H   -0.021656   0.004503   0.338921  -0.000009   0.000034   0.000011
              19         20         21         22         23         24
     1  C   -0.037502  -0.036259  -0.012529  -0.000017   0.001034   0.000011
     2  C    0.359812   0.356807  -0.067699  -0.000872  -0.009297  -0.000343
     3  C   -0.024660  -0.021342   0.388085  -0.025143  -0.024354   0.002523
     4  C    0.004225  -0.013335  -0.059534   0.358449   0.334932  -0.036769
     5  C   -0.000158   0.000294  -0.013527  -0.032046  -0.023329   0.361240
     6  C    0.000003  -0.000006  -0.000977  -0.009004   0.003085  -0.025228
     7  C   -0.000000   0.000000   0.000004   0.000121  -0.000170  -0.013863
     8  C    0.000000   0.000000  -0.000033   0.000003   0.000010  -0.000010
     9  C    0.000000   0.000000   0.000050  -0.000032  -0.000043   0.002175
    10  C    0.000000   0.000000  -0.000001  -0.000007   0.000000  -0.000048
    11  C    0.000000   0.000000  -0.000014   0.000001  -0.000002  -0.000042
    12  C   -0.000025  -0.000000   0.000655  -0.000030   0.000005  -0.000006
    13  C    0.001096  -0.000164  -0.019959   0.000188  -0.000254   0.000001
    14  C    0.000174   0.000002   0.006287   0.000008  -0.000013   0.000056
    15  C   -0.012004   0.002243  -0.053765  -0.014484   0.005689   0.000122
    16  H   -0.002063  -0.002047   0.000368   0.000008  -0.000143  -0.000000
    17  H   -0.005811   0.005463   0.005372  -0.000007   0.000070  -0.000000
    18  H    0.005810  -0.003662   0.002304  -0.000032   0.002661   0.000015
    19  H    0.653310  -0.040970   0.003126  -0.000071  -0.000065   0.000004
    20  H   -0.040970   0.650307   0.007243   0.002084   0.003269   0.000001
    21  H    0.003126   0.007243   0.714069   0.007035  -0.000263   0.000655
    22  H   -0.000071   0.002084   0.007035   0.645102  -0.040859   0.001286
    23  H   -0.000065   0.003269  -0.000263  -0.040859   0.676720  -0.007851
    24  H    0.000004   0.000001   0.000655   0.001286  -0.007851   0.646211
    25  H   -0.000011   0.000024   0.008158   0.005306   0.000813  -0.038884
    26  H   -0.000000  -0.000000   0.000053   0.005739   0.000031  -0.001836
    27  H    0.000000   0.000000  -0.000000  -0.000005   0.000004   0.000731
    28  H    0.000000  -0.000000   0.000000   0.000024  -0.000022   0.005275
    29  H   -0.000000   0.000000   0.000001   0.000000  -0.000000   0.000012
    30  H   -0.000000  -0.000000  -0.000108  -0.000001   0.000003   0.000199
    31  H   -0.000000  -0.000000   0.000000  -0.000000  -0.000000  -0.000003
    32  H   -0.000000   0.000000   0.000000   0.000000  -0.000000   0.000001
    33  H    0.000000   0.000000   0.000000   0.000001   0.000000  -0.000000
    34  H   -0.000000  -0.000000   0.000003  -0.000000  -0.000000   0.000001
    35  H    0.000000   0.000000  -0.000132  -0.000001  -0.000000   0.000004
    36  H    0.000001   0.000000   0.000028   0.000005   0.000000   0.000001
    37  H    0.000001  -0.000000  -0.000038   0.000000  -0.000000   0.000000
    38  H    0.000192   0.000009   0.000787  -0.000007   0.000007   0.000000
    39  H   -0.000005  -0.000006   0.002548  -0.000034   0.000060  -0.000080
    40  H    0.000139  -0.000016   0.000306  -0.000005   0.000004  -0.000002
    41  H   -0.000004   0.000001  -0.000079   0.000001   0.000000  -0.000000
    42  H    0.000188  -0.000235   0.004658   0.005284   0.000405  -0.000035
    43  H    0.006010   0.001605   0.006338   0.001356  -0.000311   0.000007
              25         26         27         28         29         30
     1  C   -0.000038  -0.000000   0.000000   0.000000  -0.000000   0.000000
     2  C    0.000549   0.000006  -0.000000   0.000000   0.000000  -0.000000
     3  C   -0.010169  -0.000217   0.000000  -0.000011   0.000000  -0.000001
     4  C   -0.035157  -0.004416  -0.000180   0.000238  -0.000004  -0.000049
     5  C    0.357195  -0.052661   0.003315  -0.008697   0.000071   0.001235
     6  C   -0.034889   0.345279  -0.020470  -0.026900   0.009591  -0.007671
     7  C    0.000168  -0.036370   0.361883   0.359498  -0.028638  -0.025087
     8  C    0.001197   0.009106  -0.022211  -0.026640   0.347096   0.365084
     9  C   -0.006123  -0.031940  -0.002149   0.004345  -0.021954  -0.019727
    10  C   -0.000016  -0.004498   0.000718  -0.000036  -0.007365   0.004581
    11  C    0.000235   0.001639   0.000041  -0.000469   0.001210  -0.010294
    12  C    0.000023  -0.000050  -0.000003   0.000008  -0.000030   0.000443
    13  C    0.000412   0.000075   0.000000   0.000001  -0.000005  -0.000073
    14  C   -0.001836  -0.000018  -0.000001  -0.000000   0.000022  -0.000372
    15  C   -0.001555  -0.000984   0.000001  -0.000005   0.000001  -0.000001
[...]
 003273,-0.00002850,0.00000917,-0.00000731,0.00000068,0.00000492,-0.000
 01042,-0.00002005,-0.00000082,0.00000773,-0.00001529,-0.00000300,-0.00
 001656,-0.00000699,-0.00000157,-0.00000395,-0.00000952,0.00000744,0.00
 000875,0.00000467,0.00001998,-0.00001410,0.00000243,-0.00001511,0.0000
 0452,-0.00001860,-0.00000146,0.00000366,0.00001022,-0.00003865,-0.0000
 2057,-0.00001764,0.00001073,0.00013785,0.00012400,0.00013819,-0.000058
 14,-0.00010446,-0.00003664,-0.00022653,-0.00006753,0.00016516,-0.00017
 480,0.00076076,-0.00945992,-0.00531524,0.04701167,0.00002119,-0.000043
 16,-0.00005943,0.00003256,-0.00010282,-0.00001976,-0.00017399,0.000053
 17,0.00023279,0.00004395,0.00007117,-0.00002259,-0.00002294,0.00002158
 ,0.00000017,0.00000087,-0.00000278,-0.00003457,0.00001238,0.00001868,0
 .00000303,-0.00004466,0.00003873,0.00004346,0.00016233,0.00006754,-0.0
 0005447,-0.00001538,0.00000987,-0.00000394,-0.00061408,-0.00019295,-0.
 00044647,-0.00454422,0.00278007,0.00115203,-0.00067347,0.01618461,-0.0
 2306266,-0.04815080,0.00986170,-0.01257635,0.00129690,-0.00052326,-0.0
 0017998,-0.00001126,0.00000186,-0.00001954,-0.00007810,-0.00005864,0.0
 0001281,-0.00003594,0.00002438,0.00002628,0.00041563,-0.00000980,-0.00
 017198,-0.00002198,0.00006098,-0.00002294,0.00002920,0.00006663,0.0000
 2043,0.00000750,-0.00000544,-0.00000520,0.00000059,-0.00001462,-0.0000
 0325,0.00000980,-0.00000379,0.00001108,0.00000055,-0.00000089,0.000001
 41,-0.00001228,0.00000711,0.00001686,-0.00000162,-0.00000379,0.0000039
 1,0.00000477,0.00001490,0.00001507,-0.00000118,0.00000661,0.00000132,0
 .00000597,-0.00000140,-0.00000097,0.00001748,0.00005467,0.00001152,0.0
 0001368,-0.00002250,0.00005950,0.00003954,-0.00000655,-0.00004962,0.00
 008627,0.00016456,-0.00003755,0.00019698,0.00021970,0.00014199,-0.0002
 8566,0.00100203,-0.00123961,-0.00005324,-0.00013393,0.00026479,0.00101
 916,-0.00087965,-0.00026919,0.00207484,-0.01566210,0.02229371,0.050515
 11,-0.00020713,0.00030139,-0.00005369,-0.00020240,-0.00129307,0.000025
 32,-0.00008513,-0.00043774,0.00015737,-0.00003409,0.00003224,-0.000194
 09,-0.00004348,-0.00001547,0.00010458,0.00004578,0.00004591,0.00004780
 ,-0.00002597,-0.00001304,-0.00000471,0.00002724,-0.00001493,-0.0000323
 9,-0.00003446,0.00015326,0.00015071,0.00007162,-0.00012475,-0.00003934
 ,0.00018407,0.00046079,0.00002753,0.00409374,-0.00052707,-0.00134117,-
 0.00029759,-0.01165842,0.01482044,0.00999916,-0.14324756,0.12514261,-0
 .00058624,0.00046985,0.00047213,-0.00001528,-0.00001388,-0.00000182,-0
 .00002427,-0.00007648,-0.00001728,0.00017436,0.00009647,0.00008005,0.0
 0006909,0.00069731,-0.00090696,0.00001320,0.00043958,0.00013036,0.0001
 7719,0.00004832,0.00002227,0.00000820,0.00001969,-0.00000426,-0.000019
 54,-0.00004653,-0.00003272,-0.00000489,0.00003632,-0.00005212,0.000032
 60,0.00001830,-0.00001036,0.00002007,-0.00001889,-0.00003292,0.0000015
 7,0.00001023,-0.00001754,-0.00001116,-0.00002932,-0.00001752,0.0000039
 5,-0.00001229,-0.00000940,0.00000073,0.00001179,0.00000308,0.00002448,
 -0.00006572,-0.00000577,-0.00003039,0.00002537,-0.00007214,-0.00004078
 ,0.00000903,0.00005557,-0.00006964,-0.00010274,-0.00000031,-0.00011919
 ,0.00015175,-0.00000421,0.00015084,-0.00074934,0.00108720,-0.00017298,
 0.00016132,-0.00001981,-0.00002555,0.00082516,-0.00038407,0.00150405,-
 0.01127401,0.01466001,-0.01360473,0.15367716,0.00006294,-0.00003307,0.
 00002582,-0.00012309,-0.00025612,-0.00118108,-0.00004990,0.00032403,0.
 00005791,0.00000574,-0.00001204,-0.00000440,-0.00000862,0.00000731,-0.
 00000311,-0.00001799,-0.00000303,-0.00002080,0.00001657,0.00001084,-0.
 00000284,-0.00003678,0.00002818,0.00002486,0.00010522,0.00003406,-0.00
 004982,-0.00001558,0.00003479,0.00003092,-0.00022731,-0.00000176,0.000
 15207,0.00013590,-0.00053818,0.00014933,0.00040070,-0.00272288,0.00188
 602,-0.01303459,0.12610794,-0.20998314,-0.00026987,-0.00004578,0.00056
 737,0.00002574,-0.00000911,0.00001650,0.00000575,0.00004038,0.00000900
 ,-0.00003578,-0.00002326,-0.00001036,-0.00020478,-0.00119515,-0.001191
 85,-0.00001020,-0.00018952,-0.00014227,-0.00004974,0.00003636,0.000068
 47,-0.00000472,0.00001006,0.00000191,0.00002002,0.00002676,0.00002201,
 0.00000455,0.00000855,0.00001057,-0.00000767,-0.00000802,-0.00000309,-
 0.00000218,0.00000538,0.00001259,-0.00000599,0.00000183,0.00000307,0.0
 0000655,0.00001772,0.00001161,-0.00000110,0.00001337,-0.00000344,-0.00
 000007,-0.00000918,-0.00000193,-0.00000545,0.00002835,-0.00000482,0.00
 001037,-0.00001520,0.00001377,0.00002450,0.00000346,-0.00002378,-0.000
 01601,-0.00001910,0.00000348,0.00000987,0.00004019,-0.00003454,-0.0000
 3542,0.00030757,0.00028786,-0.00003255,0.00016452,0.00078713,-0.000562
 55,-0.00000117,0.00001011,-0.00006887,-0.00056523,-0.00096003,0.015084
 91,-0.13845952,0.22955184,-0.00002031,-0.00002765,0.00012264,0.0001396
 5,0.00014276,0.00001164,-0.00074091,-0.00067603,-0.00007802,0.00028031
 ,0.00008284,-0.00004727,-0.00003165,-0.00002114,-0.00001068,-0.0000600
 4,0.00000590,0.00000936,0.00002269,-0.00000704,0.00000503,0.00001545,-
 0.00000927,-0.00001358,-0.00004384,-0.00002361,0.00010025,-0.00001530,
 -0.00005002,0.00001104,0.00000135,-0.00013800,-0.00016587,0.00057375,-
 0.00058914,0.00135175,-0.00107147,0.01706121,0.02366570,-0.04547547,-0
 .00726245,-0.00944101,-0.00462214,0.00325774,-0.00181016,0.00003250,-0
 .00000538,-0.00002487,0.00011329,0.00002192,0.00001114,0.00000269,-0.0
 0001997,-0.00003446,-0.00009474,-0.00014727,0.00004272,0.00000367,-0.0
 0003584,-0.00008650,0.00049991,0.00024493,-0.00029529,0.00006593,-0.00
 015708,-0.00011717,0.00005407,0.00006720,0.00001824,0.00000742,-0.0000
 0602,-0.00000173,0.00001938,0.00002121,-0.00000564,0.00004878,-0.00002
 239,-0.00003388,0.00000036,-0.00000020,0.00000033,0.00000299,0.0000082
 0,-0.00001076,0.00000316,-0.00000244,-0.00000416,0.00000378,0.00000645
 ,-0.00000343,0.00000731,-0.00000321,-0.00000902,0.00000339,0.00001677,
 -0.00002515,0.00002953,0.00000787,0.00002142,0.00005147,0.00000782,0.0
 0001156,0.00003196,0.00000779,0.00000058,0.00003584,-0.00024154,0.0001
 2850,0.00028905,-0.00001374,-0.00063731,0.00121620,-0.00067639,0.00031
 704,-0.00108109,-0.01438173,-0.02297478,-0.00105929,-0.00116217,-0.000
 95017,0.05103680,-0.00007692,0.00015279,0.00001225,-0.00002888,-0.0004
 3999,0.00032629,0.00031956,-0.00010193,0.00058217,0.00018126,0.0001398
 8,-0.00020017,-0.00001810,0.00008314,-0.00004095,-0.00001542,0.0000083
 7,-0.00003813,0.00000598,0.00001541,0.00000293,-0.00002093,0.00002293,
 0.00001274,0.00012344,0.00006725,-0.00002940,0.00000429,0.00003365,-0.
 00000177,-0.00029374,-0.00007858,0.00013681,-0.00037760,0.00008705,-0.
 00204482,-0.00107810,-0.01114394,-0.01469917,-0.00625382,-0.12933261,-
 0.12059998,0.00276095,-0.00140020,0.00098866,-0.00002923,0.00000028,-0
 .00004471,0.00003659,-0.00002911,-0.00000613,0.00005844,0.00000593,0.0
 0000877,0.00002185,0.00028945,-0.00008382,0.00001015,0.00016049,0.0000
 1924,0.00024687,0.00028859,-0.00002754,-0.00003757,-0.00010618,-0.0000
 2118,-0.00003757,-0.00007972,-0.00001834,0.00001237,-0.00002920,0.0000
 1584,-0.00000631,0.00000332,0.00001450,-0.00003466,0.00001944,0.000035
 92,0.00000386,-0.00001016,0.00001369,-0.00000035,0.00000844,0.00001113
 ,0.00000498,0.00000289,0.00001702,-0.00000576,-0.00000553,-0.00000635,
 -0.00000130,0.00001636,0.00000646,0.00001157,-0.00001692,0.00004064,-0
 .00001108,-0.00000513,-0.00002630,0.00002418,-0.00007468,0.00008099,0.
 00013379,0.00011768,-0.00004665,-0.00018428,0.00027367,0.00021750,0.00
 006388,-0.00012864,0.00135401,-0.00011342,0.00107158,0.00043337,-0.000
 67530,-0.01073949,-0.01524930,0.00088826,0.01186912,0.01653604,0.00391
 303,0.13936987,0.00011008,-0.00013119,-0.00001571,0.00011390,0.0005508
 0,-0.00010695,-0.00001415,0.00046992,0.00010781,-0.00002610,0.00004894
 ,0.00009641,0.00002208,0.00002177,-0.00005562,-0.00000901,-0.00000498,
 -0.00002567,0.00000960,0.00001054,0.00001279,-0.00001204,0.00000394,0.
 00000547,0.00003652,0.00005681,-0.00007374,0.00001625,0.00000973,0.000
 00542,-0.00021972,0.00006808,0.00006526,-0.00028970,0.00099349,0.00045
 110,-0.00003719,-0.00057035,-0.00294407,-0.00826244,-0.12196888,-0.223
 92928,0.00052316,0.00024863,0.00151983,-0.00001636,0.00001384,-0.00002
 533,0.00000207,0.00001859,0.00002001,-0.00009187,-0.00004345,-0.000029
 39,-0.00002965,-0.00053551,0.00009383,-0.00001411,-0.00019499,-0.00010
 307,-0.00003536,-0.00000170,-0.00001823,-0.00000455,-0.00001065,0.0000
 1165,-0.00001270,-0.00001859,-0.00001356,0.00000578,-0.00003846,0.0000
 1739,-0.00000854,0.00000044,0.00001238,-0.00002349,0.00000541,0.000019
 67,0.00000678,-0.00001073,0.00001161,-0.00000202,0.00000483,0.00000285
 ,0.00000508,-0.00000105,0.00001508,-0.00000150,0.00000025,-0.00000318,
 -0.00000215,-0.00000513,0.00000162,0.00000249,-0.00000613,0.00001960,-
 0.00001858,-0.00000719,-0.00000998,0.00001958,-0.00003006,0.00002366,0
 .00003784,-0.00001727,-0.00003468,-0.00002535,0.00011688,0.00030367,-0
 .00026367,0.00027850,0.00057729,0.00056677,0.00026008,0.00030564,0.000
 02978,0.00172496,0.00146060,-0.00142155,-0.01473413,-0.02045209,0.0093
 4710,0.13360326,0.24278639,0.00011827,0.00100544,-0.00120074,-0.003607
 34,-0.00241268,0.00022657,-0.01770060,0.01805898,-0.00645253,0.0006350
 6,0.00191919,0.00113069,-0.00054633,-0.00072235,-0.00015887,-0.0001716
 6,-0.00014219,-0.00032810,0.00025763,0.00002565,0.00003387,-0.00010786
 ,0.00009550,-0.00006725,-0.00000248,-0.00012217,0.00079912,0.00013989,
 0.00017952,-0.00006804,-0.00035563,0.00003810,0.00033282,0.00085232,-0
 .00000908,-0.00065553,-0.00355653,0.00424341,-0.00000075,0.00106344,0.
 00047825,0.00108607,-0.15954597,0.12276108,-0.02637120,-0.00051281,-0.
 00009017,-0.00025386,0.00011264,-0.00000741,0.00004227,-0.00005909,-0.
 00009788,-0.00004955,0.00002262,-0.00006751,0.00024926,0.00006470,0.00
 001803,-0.00029414,-0.00151722,-0.00038970,-0.00042444,0.00075876,-0.0
 0053023,-0.00059513,0.00053312,0.00038395,0.00010153,0.00009847,-0.000
 04961,0.00011183,0.00008314,0.00009986,-0.00005087,0.00037380,-0.00001
 338,-0.00020150,-0.00001670,0.00003844,-0.00001628,0.00003775,0.000133
 86,-0.00007271,0.00002532,0.00006672,-0.00005237,0.00003823,0.00000005
 ,-0.00001381,0.00001532,0.00005184,-0.00004964,-0.00005537,-0.00003783
 ,-0.00006901,0.00007965,0.00006329,-0.00006650,0.00006828,-0.00006448,
 -0.00008901,0.00000547,0.00006674,-0.00005812,0.00009660,-0.00014330,0
 .00046677,0.00010230,-0.00007979,-0.00023970,-0.00006338,0.00029906,0.
 00047605,0.00009810,-0.00014078,-0.00018500,-0.00002174,-0.00006656,-0
 .00006744,-0.00029147,0.00027442,0.00006484,0.17359239,-0.00021487,0.0
 0064909,-0.00052023,-0.00129832,-0.00096921,-0.00049562,-0.00969143,0.
 00847208,-0.00374901,-0.00125007,0.00068126,-0.00109462,-0.00017744,0.
 00015468,0.00007709,-0.00018680,-0.00106380,0.00062396,-0.00005976,-0.
 00016118,0.00015309,-0.00003926,-0.00006022,-0.00002819,0.00016761,-0.
 00011100,0.00033907,0.00031942,0.00001410,-0.00001102,0.00007192,0.000
 26517,-0.00037380,-0.00013143,0.00086848,0.00132819,0.01116584,-0.0117
 0212,0.00158161,-0.00145438,-0.00074529,-0.00269045,0.12611630,-0.1844
 7960,0.03057304,-0.00023590,0.00001174,-0.00009198,0.00003744,-0.00002
 103,0.00000300,0.00014029,0.00002262,0.00006204,-0.00014462,0.00041495
 ,-0.00002153,-0.00001390,-0.00000284,-0.00007878,-0.00046900,-0.000284
 36,0.00011733,-0.00021996,0.00038756,0.00008294,-0.00021910,0.00002650
 ,0.00015685,0.00004711,0.00010698,-0.00010317,0.00005767,-0.00002623,0
 .00000431,0.00003877,-0.00058133,0.00017756,-0.00001428,0.00002400,-0.
 00000966,-0.00002131,-0.00000873,-0.00002738,0.00000845,0.00000730,-0.
 00003914,-0.00002783,-0.00001947,0.00000030,-0.00006100,-0.00008892,0.
 00010352,-0.00005352,-0.00004852,0.00003299,-0.00021854,-0.00004285,0.
 00006880,0.00003273,0.00008537,0.00001726,-0.00005847,-0.00001211,-0.0
 0001442,-0.00030523,0.00014915,-0.00056079,-0.00018963,-0.00000465,0.0
 0029308,-0.00029272,-0.00023022,-0.00000522,0.00014965,0.00004424,-0.0
 0007793,-0.00031239,0.00025229,0.00008437,0.00094157,-0.00037602,-0.00
 026537,-0.13528109,0.20429173,-0.00002998,0.00034114,-0.00080516,-0.00
 312275,-0.00092209,-0.00048230,-0.00719979,0.00726863,-0.00372666,-0.0
 0149393,0.00045414,0.00103912,0.00007409,-0.00036089,-0.00001238,-0.00
 017911,0.00047025,0.00039171,0.00004089,-0.00001388,-0.00006359,-0.000
 05236,0.00007568,-0.00001326,0.00026033,0.00052623,-0.00048677,0.00012
 872,0.00034276,-0.00029349,0.00029028,0.00030922,-0.00022567,0.0010529
 7,-0.00045582,0.00121775,0.02066111,-0.02209096,0.00131406,-0.00097370
 ,-0.00284464,-0.00501216,-0.02651130,0.03040871,-0.05071633,-0.0003100
 7,-0.00002141,-0.00012242,-0.00001565,-0.00000643,0.00006257,-0.000106
 10,-0.00009215,-0.00004909,0.00011668,-0.00044494,0.00007083,0.0001246
 1,0.00004355,0.00003420,-0.00018826,0.00000218,-0.00021299,0.00017115,
 -0.00020547,-0.00066544,0.00025194,0.00005561,-0.00002833,-0.00002154,
 -0.00005718,-0.00000106,0.00006719,0.00007145,-0.00009098,0.00022372,-
 0.00000265,-0.00001704,0.00000020,0.00000168,0.00000248,-0.00000486,-0
 .00002190,-0.00001853,-0.00000014,-0.00001675,-0.00000813,-0.00002765,
 -0.00004705,0.00000769,0.00000411,-0.00008678,0.00009578,-0.00002242,-
 0.00010456,0.00005421,-0.00041516,0.00006794,-0.00004561,-0.00005775,-
 0.00002239,0.00005800,-0.00005543,-0.00003858,-0.00002186,-0.00029665,
 -0.00006396,-0.00012090,-0.00014565,-0.00001970,0.00048506,-0.00052276
 ,0.00017658,0.00030079,0.00004997,0.00019948,0.00004483,-0.00012541,-0
 .00007020,0.00010649,0.00162456,-0.00108161,-0.00017530,0.03145003,-0.
 02905936,0.06159389,0.00012616,0.00028710,0.00000774,0.00080141,-0.001
 81325,0.00139544,-0.01705865,-0.01766448,0.01638713,-0.00166534,0.0007
 2665,-0.00011841,-0.00012300,0.00003314,-0.00003764,-0.00007879,0.0000
 1155,-0.00012709,0.00009011,0.00003809,-0.00001488,-0.00002317,0.00004
 474,-0.00002906,-0.00002059,0.00000508,0.00017491,-0.00000650,-0.00004
 896,0.00003345,-0.00028921,0.00007866,-0.00003553,0.00055730,0.0006988
 9,-0.00033179,-0.00213171,-0.00390179,0.00210578,0.00008456,-0.0004245
 1,0.00029696,-0.08510835,-0.05976511,0.06978563,0.00003897,0.00000389,
 -0.00004295,0.00024721,-0.00003532,-0.00003226,0.00022170,0.00009491,0
 .00009638,-0.00058895,0.00081689,0.00009928,0.00005515,-0.00001070,-0.
 00082792,-0.00386452,-0.00247369,-0.00215866,0.00040763,-0.00014934,-0
 .00017440,0.00014557,-0.00044706,-0.00025879,0.00010140,-0.00006599,0.
 00001848,0.00011099,0.00006161,-0.00006068,0.00010508,-0.00006876,-0.0
 0004474,0.00000420,-0.00000815,0.00000988,0.00000702,0.00003843,-0.000
 02328,0.00001283,0.00001593,-0.00000063,0.00001915,0.00001227,-0.00000
 953,0.00001391,0.00001914,-0.00002422,0.00000648,0.00002242,-0.0000286
 4,0.00010434,0.00001545,0.00002879,0.00005675,-0.00003785,0.00002498,0
 .00010649,0.00003968,-0.00007035,0.00010085,-0.00000387,0.00023975,0.0
 0015582,-0.00013077,-0.00003976,0.00126412,0.00027251,-0.00110616,0.00
 012829,-0.00006384,-0.00014876,-0.00018541,0.00028167,-0.00007489,0.00
 001506,0.00020059,-0.00007791,0.00885890,0.01334747,-0.01471413,0.0971
 9675,0.00013368,0.00025920,-0.00012842,0.00206164,0.00028545,0.0015410
 3,-0.00680678,-0.00722886,0.00713483,-0.00116051,0.00052810,-0.0000287
 6,0.00033987,0.00024658,0.00007526,-0.00006982,0.00004070,0.00023492,-
 0.00005609,-0.00001352,-0.00001184,0.00003873,-0.00002509,0.00004313,0
 .00003863,0.00003036,-0.00035892,-0.00002473,0.00004631,-0.00002798,0.
 00008866,-0.00010840,-0.00024912,0.00078059,-0.00135273,-0.00229196,0.
 00614700,0.00953135,-0.01479531,-0.00049721,0.00058981,0.00006643,-0.0
 6122158,-0.14246945,0.10661513,-0.00008106,0.00001318,-0.00000676,0.00
 015312,0.00000349,0.00000785,0.00014837,0.00001826,0.00009632,0.000192
 44,0.00078246,-0.00017724,-0.00012245,0.00007283,-0.00077413,-0.000729
 66,-0.00091339,-0.00097116,0.00029497,-0.00024651,-0.00022231,0.000056
 44,-0.00034285,-0.00037037,0.00000899,-0.00004241,-0.00002520,0.000020
 01,0.00004088,-0.00006347,-0.00008226,0.00009178,0.00006750,0.00001399
 ,-0.00003433,0.00002552,-0.00001604,-0.00004473,0.00002428,-0.00000729
 ,-0.00003419,0.00003151,-0.00001572,-0.00000517,0.00000086,-0.00000456
 ,-0.00002332,0.00003298,0.00002099,-0.00002375,0.00006462,-0.00010972,
 -0.00001153,-0.00004312,0.00002455,0.00009111,0.00008916,0.00009684,0.
 00005219,-0.00003843,-0.00006103,-0.00003243,-0.00004690,-0.00021505,0
 .00041009,-0.00077289,0.00060670,0.00176643,-0.00010421,0.00007099,0.0
 0000258,0.00001546,-0.00003363,-0.00009140,0.00023523,-0.00013550,-0.0
 0000954,0.00008612,-0.00983318,-0.01588960,0.01733612,0.06994666,0.154
 04007,-0.00012255,-0.00021922,0.00007305,-0.00284375,-0.00025853,0.001
 12928,-0.00639318,-0.00742022,0.00676547,-0.00041927,0.00049186,0.0001
 4219,-0.00005930,0.00005139,0.00005941,-0.00004403,0.00001227,-0.00016
 469,0.00003259,0.00001642,0.00002943,-0.00006476,0.00002618,0.00003753
 ,0.00013667,-0.00013257,0.00001012,-0.00002991,0.00005937,0.00003169,-
 0.00031189,-0.00056519,0.00046119,0.00180842,-0.00441486,-0.00310821,0
 .00836743,0.01640701,-0.02212175,-0.00068684,0.00056439,-0.00007916,0.
 06997497,0.10534726,-0.16044096,0.00006253,0.00002130,-0.00000006,-0.0
 0003884,0.00003451,-0.00009441,-0.00007589,-0.00000604,-0.00002815,0.0
 0018042,-0.00038115,0.00018106,0.00048379,-0.00042586,0.00033513,-0.00
 158549,-0.00072484,-0.00025176,0.00029306,0.00020204,-0.00011985,0.000
 15143,-0.00005350,-0.00020851,0.00003364,0.00000550,0.00001962,0.00001
 553,-0.00004889,-0.00000751,-0.00000295,-0.00000124,0.00002114,-0.0000
 0808,0.00000322,0.00000985,0.00001224,0.00004024,0.00001450,0.00000175
 ,0.00002301,-0.00000075,-0.00000199,-0.00001426,-0.00000561,-0.0000202
 0,0.00006258,-0.00000635,0.00002153,-0.00002158,0.00004200,0.00006428,
 -0.00000633,-0.00003278,0.00002855,0.00006499,0.00002116,0.00006214,0.
 00007263,0.00005731,-0.00012318,-0.00002626,0.00001264,-0.00030943,0.0
 0071721,-0.00180944,-0.00044736,0.00002935,0.00068478,-0.00004117,0.00
 001881,0.00004750,0.00042995,-0.00046857,0.00026267,-0.00001972,-0.000
 20394,0.00006882,0.00158037,0.00343727,-0.00346404,-0.07009151,-0.1123
 1577,0.18142642\\-0.00000131,-0.00000101,0.00000038,0.00000231,-0.0000
 0373,0.00000573,-0.00000219,0.00000703,-0.00000065,-0.00000074,-0.0000
 0721,-0.00000171,0.00000215,0.00000269,-0.00000545,-0.00000678,0.00000
 209,0.00000437,0.00000651,-0.00000102,-0.00000188,0.00000155,0.0000011
 1,0.00000097,-0.00000008,0.00000051,-0.00000356,0.00000329,0.00000113,
 0.00000195,0.00000899,-0.00000240,0.00000032,-0.00000392,-0.00000208,-
 0.00000029,-0.00000043,0.00000171,-0.00000276,-0.00000047,0.00000055,0
 .00000144,0.00000107,0.00000043,0.00000045,-0.00000151,0.00000032,0.00
 000068,-0.00000142,-0.00000081,0.00000102,-0.00000132,0.00000055,0.000
 00036,-0.00000229,0.00000087,-0.00000035,-0.00000053,0.00000079,0.0000
 0015,0.00000028,-0.00000200,0.00000178,-0.00000077,0.00000206,0.000000
 07,-0.00000037,0.00000093,0.00000060,0.00000104,-0.00000039,-0.0000000
 3,0.00000035,-0.00000006,-0.00000015,0.00000220,0.00000040,-0.00000034
 ,0.00000072,-0.00000106,-0.00000264,0.00000024,0.00000023,-0.00000011,
 0.00000047,0.00000019,-0.00000108,0.00000024,-0.00000105,-0.00000099,0
 .00000118,0.00000079,-0.00000095,0.00000101,0.00000057,-0.00000077,0.0
 0000030,0.00000054,-0.00000094,-0.00000019,0.00000012,0.00000072,-0.00
 000322,-0.00000093,-0.00000021,0.00000063,0.00000040,0.00000029,-0.000
 00131,-0.00000151,0.00000018,-0.00000083,0.00000076,0.00000124,-0.0000
 0097,-0.00000097,0.00000010,-0.00000251,-0.00000063,0.00000087,0.,-0.0
 0000111,0.00000098,0.00000004,0.00000103,0.00000005,-0.00000140,0.0000
 0016,0.00000015\\\@


 E PUR SI MUOVE    -- GALILEO GALILEI
 Job cpu time:       0 days 19 hours 20 minutes 41.3 seconds.
 Elapsed time:       0 days  4 hours 50 minutes 56.4 seconds.
 File lengths (MBytes):  RWF=    917 Int=      0 D2E=      0 Chk=     27 Scr=      1
 Normal termination of Gaussian 16 at Mon May 22 16:30:04 2023.
### All Done ###
