### Starting Gaussian ###
 Entering Gaussian System, Link 0=g16
 Initial command:
 /cluster/software/gaussian/gaussian-16-A.03/avx2/g16/l1.exe "/local/scratch/yxie/Gau-21036.inp" -scrdir="/local/scratch/yxie/"
 Entering Link 1 = /cluster/software/gaussian/gaussian-16-A.03/avx2/g16/l1.exe PID=     21037.
  
 Copyright (c) 1988,1990,1992,1993,1995,1998,2003,2009,2016,
            Gaussian, Inc.  All Rights Reserved.
  
 This is part of the Gaussian(R) 16 program.  It is based on
 the Gaussian(R) 09 system (copyright 2009, Gaussian, Inc.),
 the Gaussian(R) 03 system (copyright 2003, Gaussian, Inc.),
 the Gaussian(R) 98 system (copyright 1998, Gaussian, Inc.),
 the Gaussian(R) 94 system (copyright 1995, Gaussian, Inc.),
 the Gaussian 92(TM) system (copyright 1992, Gaussian, Inc.),
 the Gaussian 90(TM) system (copyright 1990, Gaussian, Inc.),
 the Gaussian 88(TM) system (copyright 1988, Gaussian, Inc.),
 the Gaussian 86(TM) system (copyright 1986, Carnegie Mellon
 University), and the Gaussian 82(TM) system (copyright 1983,
 Carnegie Mellon University). Gaussian is a federally registered
 trademark of Gaussian, Inc.
  
 This software contains proprietary and confidential information,
 including trade secrets, belonging to Gaussian, Inc.
  
 This software is provided under written license and may be
 used, copied, transmitted, or stored only in accord with that
 written license.
  
 The following legend is applicable only to US Government
 contracts under FAR:
  
                    RESTRICTED RIGHTS LEGEND
  
 Use, reproduction and disclosure by the US Government is
 subject to restrictions as set forth in subparagraphs (a)
 and (c) of the Commercial Computer Software - Restricted
 Rights clause in FAR 52.227-19.
  
 Gaussian, Inc.
 340 Quinnipiac St., Bldg. 40, Wallingford CT 06492
  
  
 ---------------------------------------------------------------
 Warning -- This program may not be used in any manner that
 competes with the business of Gaussian, Inc. or will provide
 assistance to any competitor of Gaussian, Inc.  The licensee
 of this program is prohibited from giving any competitor of
 Gaussian, Inc. access to this program.  By using this program,
 the user acknowledges that Gaussian, Inc. is engaged in the
 business of creating and licensing software in the field of
 computational chemistry and represents and warrants to the
 licensee that it is not a competitor of Gaussian, Inc. and that
 it will not use this program in any manner prohibited above.
 ---------------------------------------------------------------
  

 Cite this work as:
 Gaussian 16, Revision A.03,
 M. J. Frisch, G. W. Trucks, H. B. Schlegel, G. E. Scuseria, 
 M. A. Robb, J. R. Cheeseman, G. Scalmani, V. Barone, 
 G. A. Petersson, H. Nakatsuji, X. Li, M. Caricato, A. V. Marenich, 
 J. Bloino, B. G. Janesko, R. Gomperts, B. Mennucci, H. P. Hratchian, 
 J. V. Ortiz, A. F. Izmaylov, J. L. Sonnenberg, D. Williams-Young, 
 F. Ding, F. Lipparini, F. Egidi, J. Goings, B. Peng, A. Petrone, 
 T. Henderson, D. Ranasinghe, V. G. Zakrzewski, J. Gao, N. Rega, 
 G. Zheng, W. Liang, M. Hada, M. Ehara, K. Toyota, R. Fukuda, 
 J. Hasegawa, M. Ishida, T. Nakajima, Y. Honda, O. Kitao, H. Nakai, 
 T. Vreven, K. Throssell, J. A. Montgomery, Jr., J. E. Peralta, 
 F. Ogliaro, M. J. Bearpark, J. J. Heyd, E. N. Brothers, K. N. Kudin, 
 V. N. Staroverov, T. A. Keith, R. Kobayashi, J. Normand, 
 K. Raghavachari, A. P. Rendell, J. C. Burant, S. S. Iyengar, 
 J. Tomasi, M. Cossi, J. M. Millam, M. Klene, C. Adamo, R. Cammi, 
 J. W. Ochterski, R. L. Martin, K. Morokuma, O. Farkas, 
 J. B. Foresman, and D. J. Fox, Gaussian, Inc., Wallingford CT, 2016.
 
 ******************************************
 Gaussian 16:  ES64L-G16RevA.03 25-Dec-2016
                22-May-2023 
 ******************************************
 %chk=CCC1qCrCCCCCCqNrqCCrO1.chk
 %NProcShared=20
 Will use up to   20 processors via shared memory.
 -----------------------------
 # opt freq b3lyp/6-31g(2df,p)
 -----------------------------
 1/18=20,19=15,26=3,38=1/1,3;
 2/9=110,12=2,17=6,18=5,40=1/2;
 3/5=1,6=6,7=104,11=2,25=1,30=1,71=1,74=-5/1,2,3;
 4//1;
 5/5=2,38=5/2;
 6/7=2,8=2,9=2,10=2,28=1/1;
 7//1,2,3,16;
 1/18=20,19=15,26=3/3(2);
 2/9=110/2;
 99//99;
 2/9=110/2;
 3/5=1,6=6,7=104,11=2,25=1,30=1,71=1,74=-5/1,2,3;
 4/5=5,16=3,69=1/1;
 5/5=2,38=5/2;
 7//1,2,3,16;
 1/18=20,19=15,26=3/3(-5);
 2/9=110/2;
 6/7=2,8=2,9=2,10=2,19=2,28=1/1;
 99/9=1/99;
 -------------------
 Title Card Required
 -------------------
 Symbolic Z-matrix:
 Charge =  0 Multiplicity = 1
 C                     1.02616   0.28857  -0.00765 
 C                     2.5474    0.03048   0.13742 
 C                     2.92429  -1.23951   1.03241 
 C                     1.73961  -2.17731   0.73471 
 C                     4.30176  -1.78357   0.54188 
 C                     4.79098  -3.1717    1.01307 
 C                     3.72272  -4.22009   1.31498 
 C                     3.02641  -4.22317   2.71832 
 C                     2.40432  -2.97366   3.42866 
 C                     3.29414  -1.71944   3.49302 
 N                     4.67299  -2.14026   3.58158 
 C                     3.02016  -0.99996   4.8531 
 C                     4.02801   0.09222   5.22479 
 O                     3.02403  -0.80088   2.41638 
 H                     0.80486   1.15399  -0.63329 
 H                     0.56002   0.42337   0.9737 
 H                     0.51738  -0.54465  -0.51523 
 H                     3.01804   0.94302   0.51687 
 H                     2.91398  -0.12873  -0.88674 
 H                     1.67249  -2.38406  -0.33788 
 H                     0.8076   -1.76466   1.12961 
 H                     1.70537  -3.14329   1.1927 
 H                     5.08929  -1.05247   0.78869 
 H                     4.28969  -1.82671  -0.55561 
 H                     5.50292  -3.10521   1.83579 
 H                     5.44328  -3.56229   0.22014 
 H                     4.19253  -5.20586   1.21569 
 H                     3.01774  -4.24076   0.47657 
 H                     3.76313  -4.6287    3.42078 
 H                     2.22806  -4.97702   2.67718 
 H                     2.14643  -3.30896   4.44242 
 H                     1.41418  -2.69557   3.04722 
 H                     4.82368  -2.76481   4.3581 
 H                     5.31648  -1.34884   3.6414 
 H                     3.04666  -1.73864   5.66801 
 H                     2.0164   -0.56069   4.8528 
 H                     5.04879  -0.29908   5.30508 
 H                     3.79242   0.50357   6.21065 
 H                     4.02408   0.89891   4.48902 
 

 GradGradGradGradGradGradGradGradGradGradGradGradGradGradGradGradGradGrad
 Berny optimization.
 Initialization pass.
                           ----------------------------
                           !    Initial Parameters    !
                           ! (Angstroms and Degrees)  !
 --------------------------                            --------------------------
 ! Name  Definition              Value          Derivative Info.                !
 --------------------------------------------------------------------------------
 ! R1    R(1,2)                  1.5498         estimate D2E/DX2                !
 ! R2    R(1,15)                 1.0906         estimate D2E/DX2                !
 ! R3    R(1,16)                 1.0948         estimate D2E/DX2                !
 ! R4    R(1,17)                 1.1003         estimate D2E/DX2                !
 ! R5    R(2,3)                  1.5987         estimate D2E/DX2                !
 ! R6    R(2,18)                 1.0946         estimate D2E/DX2                !
 ! R7    R(2,19)                 1.0994         estimate D2E/DX2                !
 ! R8    R(3,4)                  1.54           estimate D2E/DX2                !
 ! R9    R(3,5)                  1.5601         estimate D2E/DX2                !
 ! R10   R(3,14)                 1.4552         estimate D2E/DX2                !
 ! R11   R(4,20)                 1.0944         estimate D2E/DX2                !
 ! R12   R(4,21)                 1.0931         estimate D2E/DX2                !
 ! R13   R(4,22)                 1.0696         estimate D2E/DX2                !
 ! R14   R(5,6)                  1.5454         estimate D2E/DX2                !
 ! R15   R(5,23)                 1.1026         estimate D2E/DX2                !
 ! R16   R(5,24)                 1.0984         estimate D2E/DX2                !
 ! R17   R(6,7)                  1.5269         estimate D2E/DX2                !
 ! R18   R(6,25)                 1.09           estimate D2E/DX2                !
 ! R19   R(6,26)                 1.0985         estimate D2E/DX2                !
 ! R20   R(7,8)                  1.5666         estimate D2E/DX2                !
 ! R21   R(7,27)                 1.0965         estimate D2E/DX2                !
 ! R22   R(7,28)                 1.0956         estimate D2E/DX2                !
 ! R23   R(8,9)                  1.5662         estimate D2E/DX2                !
 ! R24   R(8,29)                 1.0957         estimate D2E/DX2                !
 ! R25   R(8,30)                 1.0988         estimate D2E/DX2                !
 ! R26   R(9,10)                 1.5392         estimate D2E/DX2                !
 ! R27   R(9,31)                 1.0985         estimate D2E/DX2                !
 ! R28   R(9,32)                 1.0969         estimate D2E/DX2                !
 ! R29   R(10,11)                1.4444         estimate D2E/DX2                !
 ! R30   R(10,12)                1.5629         estimate D2E/DX2                !
 ! R31   R(10,14)                1.4408         estimate D2E/DX2                !
 ! R32   R(11,33)                1.0078         estimate D2E/DX2                !
 ! R33   R(11,34)                1.0218         estimate D2E/DX2                !
 ! R34   R(12,13)                1.5319         estimate D2E/DX2                !
 ! R35   R(12,35)                1.1002         estimate D2E/DX2                !
 ! R36   R(12,36)                1.0957         estimate D2E/DX2                !
 ! R37   R(13,37)                1.0962         estimate D2E/DX2                !
 ! R38   R(13,38)                1.0939         estimate D2E/DX2                !
 ! R39   R(13,39)                1.0918         estimate D2E/DX2                !
 ! A1    A(2,1,15)             112.6459         estimate D2E/DX2                !
 ! A2    A(2,1,16)             110.7656         estimate D2E/DX2                !
 ! A3    A(2,1,17)             111.7738         estimate D2E/DX2                !
 ! A4    A(15,1,16)            109.2771         estimate D2E/DX2                !
 ! A5    A(15,1,17)            104.0307         estimate D2E/DX2                !
 ! A6    A(16,1,17)            108.0512         estimate D2E/DX2                !
 ! A7    A(1,2,3)              114.5882         estimate D2E/DX2                !
 ! A8    A(1,2,18)             108.4002         estimate D2E/DX2                !
 ! A9    A(1,2,19)             105.3204         estimate D2E/DX2                !
 ! A10   A(3,2,18)             111.5194         estimate D2E/DX2                !
 ! A11   A(3,2,19)             109.1392         estimate D2E/DX2                !
 ! A12   A(18,2,19)            107.4752         estimate D2E/DX2                !
 ! A13   A(2,3,4)              101.1966         estimate D2E/DX2                !
 ! A14   A(2,3,5)              108.0078         estimate D2E/DX2                !
 ! A15   A(2,3,14)             108.0062         estimate D2E/DX2                !
 ! A16   A(4,3,5)              113.9579         estimate D2E/DX2                !
 ! A17   A(4,3,14)             114.8423         estimate D2E/DX2                !
 ! A18   A(5,3,14)             110.0971         estimate D2E/DX2                !
 ! A19   A(3,4,20)             110.5905         estimate D2E/DX2                !
 ! A20   A(3,4,21)             110.8661         estimate D2E/DX2                !
 ! A21   A(3,4,22)             119.4604         estimate D2E/DX2                !
 ! A22   A(20,4,21)            111.9065         estimate D2E/DX2                !
 ! A23   A(20,4,22)            104.3047         estimate D2E/DX2                !
 ! A24   A(21,4,22)             99.1459         estimate D2E/DX2                !
 ! A25   A(3,5,6)              119.7932         estimate D2E/DX2                !
 ! A26   A(3,5,23)             109.2096         estimate D2E/DX2                !
 ! A27   A(3,5,24)             108.5509         estimate D2E/DX2                !
 ! A28   A(6,5,23)             107.5326         estimate D2E/DX2                !
 ! A29   A(6,5,24)             105.8336         estimate D2E/DX2                !
 ! A30   A(23,5,24)            104.9253         estimate D2E/DX2                !
 ! A31   A(5,6,7)              117.1001         estimate D2E/DX2                !
 ! A32   A(5,6,25)             112.4639         estimate D2E/DX2                !
 ! A33   A(5,6,26)             106.6943         estimate D2E/DX2                !
 ! A34   A(7,6,25)             110.4627         estimate D2E/DX2                !
 ! A35   A(7,6,26)             108.3017         estimate D2E/DX2                !
 ! A36   A(25,6,26)            100.2916         estimate D2E/DX2                !
 ! A37   A(6,7,8)              119.3034         estimate D2E/DX2                !
 ! A38   A(6,7,27)             107.4338         estimate D2E/DX2                !
 ! A39   A(6,7,28)             108.1692         estimate D2E/DX2                !
 ! A40   A(8,7,27)             105.6516         estimate D2E/DX2                !
 ! A41   A(8,7,28)             113.5446         estimate D2E/DX2                !
 ! A42   A(27,7,28)            100.9203         estimate D2E/DX2                !
 ! A43   A(7,8,9)              125.5399         estimate D2E/DX2                !
 ! A44   A(7,8,29)             106.0311         estimate D2E/DX2                !
 ! A45   A(7,8,30)             106.9029         estimate D2E/DX2                !
 ! A46   A(9,8,29)             105.7573         estimate D2E/DX2                !
 ! A47   A(9,8,30)             106.0063         estimate D2E/DX2                !
 ! A48   A(29,8,30)            104.9869         estimate D2E/DX2                !
 ! A49   A(8,9,10)             116.0691         estimate D2E/DX2                !
 ! A50   A(8,9,31)             105.5633         estimate D2E/DX2                !
 ! A51   A(8,9,32)             113.7714         estimate D2E/DX2                !
 ! A52   A(10,9,31)            110.235          estimate D2E/DX2                !
 ! A53   A(10,9,32)            109.2568         estimate D2E/DX2                !
 ! A54   A(31,9,32)            100.7421         estimate D2E/DX2                !
 ! A55   A(9,10,11)            108.4846         estimate D2E/DX2                !
 ! A56   A(9,10,12)            108.07           estimate D2E/DX2                !
 ! A57   A(9,10,14)            112.3267         estimate D2E/DX2                !
 ! A58   A(11,10,12)           104.3666         estimate D2E/DX2                !
 ! A59   A(11,10,14)           114.2388         estimate D2E/DX2                !
 ! A60   A(12,10,14)           108.9012         estimate D2E/DX2                !
 ! A61   A(10,11,33)           111.7481         estimate D2E/DX2                !
 ! A62   A(10,11,34)           112.2803         estimate D2E/DX2                !
 ! A63   A(33,11,34)           109.9205         estimate D2E/DX2                !
 ! A64   A(10,12,13)           115.0892         estimate D2E/DX2                !
 ! A65   A(10,12,35)           109.3464         estimate D2E/DX2                !
 ! A66   A(10,12,36)           110.1774         estimate D2E/DX2                !
 ! A67   A(13,12,35)           106.4464         estimate D2E/DX2                !
 ! A68   A(13,12,36)           108.4784         estimate D2E/DX2                !
 ! A69   A(35,12,36)           106.9446         estimate D2E/DX2                !
 ! A70   A(12,13,37)           112.0817         estimate D2E/DX2                !
 ! A71   A(12,13,38)           110.1862         estimate D2E/DX2                !
 ! A72   A(12,13,39)           111.1542         estimate D2E/DX2                !
 ! A73   A(37,13,38)           105.5917         estimate D2E/DX2                !
 ! A74   A(37,13,39)           108.4488         estimate D2E/DX2                !
 ! A75   A(38,13,39)           109.1908         estimate D2E/DX2                !
 ! A76   A(3,14,10)            122.0966         estimate D2E/DX2                !
 ! D1    D(15,1,2,3)          -179.3114         estimate D2E/DX2                !
 ! D2    D(15,1,2,18)           55.4241         estimate D2E/DX2                !
 ! D3    D(15,1,2,19)          -59.3642         estimate D2E/DX2                !
 ! D4    D(16,1,2,3)            57.9532         estimate D2E/DX2                !
 ! D5    D(16,1,2,18)          -67.3113         estimate D2E/DX2                !
 ! D6    D(16,1,2,19)          177.9004         estimate D2E/DX2                !
 ! D7    D(17,1,2,3)           -62.5983         estimate D2E/DX2                !
 ! D8    D(17,1,2,18)          172.1372         estimate D2E/DX2                !
 ! D9    D(17,1,2,19)           57.3489         estimate D2E/DX2                !
 ! D10   D(1,2,3,4)             32.4675         estimate D2E/DX2                !
 ! D11   D(1,2,3,5)            152.4417         estimate D2E/DX2                !
 ! D12   D(1,2,3,14)           -88.5078         estimate D2E/DX2                !
 ! D13   D(18,2,3,4)           156.0797         estimate D2E/DX2                !
 ! D14   D(18,2,3,5)           -83.9461         estimate D2E/DX2                !
 ! D15   D(18,2,3,14)           35.1043         estimate D2E/DX2                !
 ! D16   D(19,2,3,4)           -85.3314         estimate D2E/DX2                !
 ! D17   D(19,2,3,5)            34.6428         estimate D2E/DX2                !
 ! D18   D(19,2,3,14)          153.6932         estimate D2E/DX2                !
 ! D19   D(2,3,4,20)            58.3883         estimate D2E/DX2                !
 ! D20   D(2,3,4,21)           -66.3433         estimate D2E/DX2                !
 ! D21   D(2,3,4,22)           179.4089         estimate D2E/DX2                !
 ! D22   D(5,3,4,20)           -57.2578         estimate D2E/DX2                !
 ! D23   D(5,3,4,21)           178.0106         estimate D2E/DX2                !
 ! D24   D(5,3,4,22)            63.7628         estimate D2E/DX2                !
 ! D25   D(14,3,4,20)          174.4213         estimate D2E/DX2                !
 ! D26   D(14,3,4,21)           49.6897         estimate D2E/DX2                !
 ! D27   D(14,3,4,22)          -64.5581         estimate D2E/DX2                !
 ! D28   D(2,3,5,6)           -167.3386         estimate D2E/DX2                !
 ! D29   D(2,3,5,23)            68.1141         estimate D2E/DX2                !
 ! D30   D(2,3,5,24)           -45.7531         estimate D2E/DX2                !
 ! D31   D(4,3,5,6)            -55.7542         estimate D2E/DX2                !
 ! D32   D(4,3,5,23)           179.6984         estimate D2E/DX2                !
 ! D33   D(4,3,5,24)            65.8312         estimate D2E/DX2                !
 ! D34   D(14,3,5,6)            74.9475         estimate D2E/DX2                !
 ! D35   D(14,3,5,23)          -49.5998         estimate D2E/DX2                !
 ! D36   D(14,3,5,24)         -163.467          estimate D2E/DX2                !
 ! D37   D(2,3,14,10)          177.226          estimate D2E/DX2                !
 ! D38   D(4,3,14,10)           65.1723         estimate D2E/DX2                !
 ! D39   D(5,3,14,10)          -65.0591         estimate D2E/DX2                !
 ! D40   D(3,5,6,7)             30.3339         estimate D2E/DX2                !
 ! D41   D(3,5,6,25)           -99.2007         estimate D2E/DX2                !
 ! D42   D(3,5,6,26)           151.7829         estimate D2E/DX2                !
 ! D43   D(23,5,6,7)           155.6782         estimate D2E/DX2                !
 ! D44   D(23,5,6,25)           26.1437         estimate D2E/DX2                !
 ! D45   D(23,5,6,26)          -82.8727         estimate D2E/DX2                !
 ! D46   D(24,5,6,7)           -92.5841         estimate D2E/DX2                !
 ! D47   D(24,5,6,25)          137.8813         estimate D2E/DX2                !
 ! D48   D(24,5,6,26)           28.8649         estimate D2E/DX2                !
 ! D49   D(5,6,7,8)            -83.4336         estimate D2E/DX2                !
 ! D50   D(5,6,7,27)           156.532          estimate D2E/DX2                !
 ! D51   D(5,6,7,28)            48.3495         estimate D2E/DX2                !
 ! D52   D(25,6,7,8)            47.0386         estimate D2E/DX2                !
 ! D53   D(25,6,7,27)          -72.9958         estimate D2E/DX2                !
 ! D54   D(25,6,7,28)          178.8217         estimate D2E/DX2                !
 ! D55   D(26,6,7,8)           155.9598         estimate D2E/DX2                !
 ! D56   D(26,6,7,27)           35.9254         estimate D2E/DX2                !
 ! D57   D(26,6,7,28)          -72.2571         estimate D2E/DX2                !
 ! D58   D(6,7,8,9)             49.0881         estimate D2E/DX2                !
 ! D59   D(6,7,8,29)           -74.4502         estimate D2E/DX2                !
 ! D60   D(6,7,8,30)           173.9252         estimate D2E/DX2                !
 ! D61   D(27,7,8,9)           170.0218         estimate D2E/DX2                !
 ! D62   D(27,7,8,29)           46.4835         estimate D2E/DX2                !
 ! D63   D(27,7,8,30)          -65.1411         estimate D2E/DX2                !
 ! D64   D(28,7,8,9)           -80.303          estimate D2E/DX2                !
 ! D65   D(28,7,8,29)          156.1587         estimate D2E/DX2                !
 ! D66   D(28,7,8,30)           44.5341         estimate D2E/DX2                !
 ! D67   D(7,8,9,10)           -49.3093         estimate D2E/DX2                !
 ! D68   D(7,8,9,31)          -171.7181         estimate D2E/DX2                !
 ! D69   D(7,8,9,32)            78.7645         estimate D2E/DX2                !
 ! D70   D(29,8,9,10)           74.3463         estimate D2E/DX2                !
 ! D71   D(29,8,9,31)          -48.0624         estimate D2E/DX2                !
 ! D72   D(29,8,9,32)         -157.5799         estimate D2E/DX2                !
 ! D73   D(30,8,9,10)         -174.5243         estimate D2E/DX2                !
 ! D74   D(30,8,9,31)           63.067          estimate D2E/DX2                !
 ! D75   D(30,8,9,32)          -46.4505         estimate D2E/DX2                !
 ! D76   D(8,9,10,11)          -31.9124         estimate D2E/DX2                !
 ! D77   D(8,9,10,12)         -144.5106         estimate D2E/DX2                !
 ! D78   D(8,9,10,14)           95.3338         estimate D2E/DX2                !
 ! D79   D(31,9,10,11)          88.0001         estimate D2E/DX2                !
 ! D80   D(31,9,10,12)         -24.5981         estimate D2E/DX2                !
 ! D81   D(31,9,10,14)        -144.7537         estimate D2E/DX2                !
 ! D82   D(32,9,10,11)        -162.1717         estimate D2E/DX2                !
 ! D83   D(32,9,10,12)          85.2301         estimate D2E/DX2                !
 ! D84   D(32,9,10,14)         -34.9255         estimate D2E/DX2                !
 ! D85   D(9,10,11,33)         -55.1172         estimate D2E/DX2                !
 ! D86   D(9,10,11,34)        -179.1641         estimate D2E/DX2                !
 ! D87   D(12,10,11,33)         59.9217         estimate D2E/DX2                !
 ! D88   D(12,10,11,34)        -64.1252         estimate D2E/DX2                !
 ! D89   D(14,10,11,33)        178.7408         estimate D2E/DX2                !
 ! D90   D(14,10,11,34)         54.6939         estimate D2E/DX2                !
 ! D91   D(9,10,12,13)         167.3057         estimate D2E/DX2                !
 ! D92   D(9,10,12,35)          47.5891         estimate D2E/DX2                !
 ! D93   D(9,10,12,36)         -69.6761         estimate D2E/DX2                !
 ! D94   D(11,10,12,13)         51.9756         estimate D2E/DX2                !
 ! D95   D(11,10,12,35)        -67.7411         estimate D2E/DX2                !
 ! D96   D(11,10,12,36)        174.9938         estimate D2E/DX2                !
 ! D97   D(14,10,12,13)        -70.4123         estimate D2E/DX2                !
 ! D98   D(14,10,12,35)        169.871          estimate D2E/DX2                !
 ! D99   D(14,10,12,36)         52.6059         estimate D2E/DX2                !
 ! D100  D(9,10,14,3)          -47.7537         estimate D2E/DX2                !
 ! D101  D(11,10,14,3)          76.356          estimate D2E/DX2                !
 ! D102  D(12,10,14,3)        -167.4262         estimate D2E/DX2                !
 ! D103  D(10,12,13,37)        -59.7125         estimate D2E/DX2                !
 ! D104  D(10,12,13,38)       -176.9829         estimate D2E/DX2                !
 ! D105  D(10,12,13,39)         61.8323         estimate D2E/DX2                !
 ! D106  D(35,12,13,37)         61.5935         estimate D2E/DX2                !
 ! D107  D(35,12,13,38)        -55.677          estimate D2E/DX2                !
 ! D108  D(35,12,13,39)       -176.8617         estimate D2E/DX2                !
 ! D109  D(36,12,13,37)        176.3679         estimate D2E/DX2                !
 ! D110  D(36,12,13,38)         59.0974         estimate D2E/DX2                !
 ! D111  D(36,12,13,39)        -62.0873         estimate D2E/DX2                !
 --------------------------------------------------------------------------------
 Trust Radius=3.00D-01 FncErr=1.00D-07 GrdErr=1.00D-06 EigMax=2.50D+02 EigMin=1.00D-04
 Number of steps in this run=    234 maximum allowed number of steps=    234.
 GradGradGradGradGradGradGradGradGradGradGradGradGradGradGradGradGradGrad

                          Input orientation:                          
 ---------------------------------------------------------------------
 Center     Atomic      Atomic             Coordinates (Angstroms)
 Number     Number       Type             X           Y           Z
 ---------------------------------------------------------------------
      1          6           0        1.026160    0.288570   -0.007650
      2          6           0        2.547400    0.030480    0.137420
      3          6           0        2.924290   -1.239510    1.032410
      4          6           0        1.739610   -2.177310    0.734710
      5          6           0        4.301760   -1.783570    0.541880
      6          6           0        4.790980   -3.171700    1.013070
      7          6           0        3.722720   -4.220090    1.314980
      8          6           0        3.026410   -4.223170    2.718320
      9          6           0        2.404320   -2.973660    3.428660
     10          6           0        3.294140   -1.719440    3.493020
     11          7           0        4.672990   -2.140260    3.581580
     12          6           0        3.020160   -0.999960    4.853100
     13          6           0        4.028010    0.092220    5.224790
     14          8           0        3.024030   -0.800880    2.416380
     15          1           0        0.804860    1.153990   -0.633290
     16          1           0        0.560020    0.423370    0.973700
     17          1           0        0.517380   -0.544650   -0.515230
     18          1           0        3.018040    0.943020    0.516870
     19          1           0        2.913980   -0.128730   -0.886740
     20          1           0        1.672490   -2.384060   -0.337880
     21          1           0        0.807600   -1.764660    1.129610
     22          1           0        1.705370   -3.143290    1.192700
     23          1           0        5.089290   -1.052470    0.788690
     24          1           0        4.289690   -1.826710   -0.555610
     25          1           0        5.502920   -3.105210    1.835790
     26          1           0        5.443280   -3.562290    0.220140
     27          1           0        4.192530   -5.205860    1.215690
     28          1           0        3.017740   -4.240760    0.476570
     29          1           0        3.763130   -4.628700    3.420780
     30          1           0        2.228060   -4.977020    2.677180
     31          1           0        2.146430   -3.308960    4.442420
     32          1           0        1.414180   -2.695570    3.047220
     33          1           0        4.823680   -2.764810    4.358100
     34          1           0        5.316480   -1.348840    3.641400
     35          1           0        3.046660   -1.738640    5.668010
     36          1           0        2.016400   -0.560690    4.852800
     37          1           0        5.048790   -0.299080    5.305080
     38          1           0        3.792420    0.503570    6.210650
     39          1           0        4.024080    0.898910    4.489020
 ---------------------------------------------------------------------
                    Distance matrix (angstroms):
                    1          2          3          4          5
     1  C    0.000000
     2  C    1.549783   0.000000
     3  C    2.649462   1.598727   0.000000
     4  C    2.672204   2.425617   1.539987   0.000000
     5  C    3.914754   2.555806   1.560142   2.599390   0.000000
     6  C    5.214327   4.006791   2.686683   3.221359   1.545400
     7  C    5.417453   4.564578   3.098579   2.905579   2.620992
     8  C    5.638059   4.998403   3.428549   3.126677   3.509282
     9  C    4.934541   4.458429   3.003275   2.886759   3.653778
    10  C    4.629312   3.857446   2.534112   3.199138   3.119076
    11  N    5.664023   4.592655   3.219871   4.087880   3.082988
    12  C    5.409550   4.850046   3.829393   4.470693   4.565431
    13  C    6.035568   5.298807   4.535168   5.527057   5.052046
    14  O    3.324802   2.472245   1.455238   2.524343   2.472251
    15  H    1.090574   2.211948   3.604911   3.720583   4.715781
    16  H    1.094763   2.191667   2.891088   2.865674   4.365509
    17  H    1.100341   2.208553   2.944696   2.392023   4.119944
    18  H    2.161252   1.094629   2.244551   3.379097   3.013778
    19  H    2.123865   1.099378   2.217448   2.864424   2.589476
    20  H    2.769431   2.611777   2.180526   1.094395   2.836834
    21  H    2.357304   2.689586   2.183027   1.093100   3.543295
    22  H    3.698625   3.448978   2.266239   1.069600   3.002274
    23  H    4.352192   2.838686   2.186689   3.533912   1.102554
    24  H    3.927505   2.639132   2.175070   2.879367   1.098404
    25  H    5.912478   4.631642   3.282619   4.029377   2.205384
    26  H    5.864466   4.615296   3.521420   3.987496   2.137856
    27  H    6.458422   5.593601   4.168208   3.926866   3.489702
    28  H    4.971488   4.310422   3.053718   2.440918   2.773221
    29  H    6.589741   5.828071   4.230198   4.161600   4.083253
    30  H    6.031527   5.623826   4.142341   3.442405   4.365531
    31  H    5.830982   5.463118   4.063971   3.897852   4.710252
    32  H    4.288109   4.145175   2.908608   2.392112   3.930215
    33  H    6.542481   5.550607   4.122431   4.794330   3.974766
    34  H    5.865452   4.674206   3.541378   4.682863   3.290239
    35  H    6.356502   5.828076   4.664000   5.122330   5.277737
    36  H    5.032474   4.781867   3.985027   4.432690   5.030143
    37  H    6.689692   5.750676   4.863499   5.946991   5.044783
    38  H    6.809234   6.217557   5.532282   6.433278   6.133954
    39  H    5.438757   4.676663   4.210764   5.364399   4.780452
                    6          7          8          9         10
     6  C    0.000000
     7  C    1.526909   0.000000
     8  C    2.669677   1.566595   0.000000
     9  C    3.401535   2.785572   1.566159   0.000000
    10  C    3.240330   3.343769   2.634484   1.539152   0.000000
    11  N    2.770385   3.219655   2.791945   2.421736   1.444354
    12  C    4.753745   4.835403   3.866058   2.510733   1.562861
    13  C    5.382739   5.828879   5.090008   3.906670   2.611456
    14  O    3.272946   3.659542   3.435585   2.475828   1.440786
    15  H    6.108293   6.417975   6.714345   6.007928   5.610664
    16  H    5.552216   5.628576   5.542302   4.579092   4.291156
    17  H    5.244116   5.208909   5.502962   5.001490   5.015635
    18  H    4.507821   5.271741   5.615690   4.918898   4.002798
    19  H    4.048713   4.716021   5.456513   5.193848   4.675166
    20  H    3.488613   3.210358   3.815204   3.882013   4.212750
    21  H    4.226187   3.815943   3.673063   3.049070   3.430836
    22  H    3.090965   2.290011   2.288843   2.348792   3.137357
    23  H    2.151853   3.489744   4.246444   4.227230   3.313731
    24  H    2.126275   3.090118   4.249413   4.554615   4.170615
    25  H    1.090022   2.164096   2.856886   3.486526   3.089576
    26  H    1.098542   2.142826   3.538209   4.458292   4.327429
    27  H    2.130024   1.096505   2.140891   3.616303   4.260101
    28  H    2.138949   1.095607   2.241836   3.270575   3.941119
    29  H    2.996063   2.145458   1.095747   2.141398   2.947705
    30  H    3.549225   2.159292   1.098793   2.146914   3.523343
    31  H    4.332774   3.618802   2.140716   1.098473   2.178342
    32  H    3.970799   3.264073   2.245222   1.096908   2.164675
    33  H    3.369845   3.548314   2.836525   2.600150   2.044665
    34  H    3.241464   4.024472   3.789231   3.341553   2.061364
    35  H    5.173469   5.056038   3.856679   2.636771   2.189109
    36  H    5.409177   5.368324   4.357738   2.828618   2.196434
    37  H    5.171050   5.749233   5.116623   4.203279   2.894785
    38  H    6.443568   6.803338   5.926653   4.664485   3.546205
    39  H    5.407424   6.030714   5.510574   4.329525   2.894924
                   11         12         13         14         15
    11  N    0.000000
    12  C    2.376740   0.000000
    13  C    2.846068   1.531918   0.000000
    14  O    2.422953   2.444842   3.113321   0.000000
    15  H    6.601488   6.296628   6.770019   4.248143   0.000000
    16  H    5.503613   4.809148   5.496215   3.106680   1.782181
    17  H    6.049704   5.940554   6.758547   3.865655   1.726835
    18  H    4.651658   4.751638   4.889623   2.578636   2.503106
    19  H    5.206367   5.806555   6.216163   3.372610   2.481531
    20  H    4.942126   5.538792   6.528686   3.452400   3.654839
    21  H    4.592872   4.398246   5.530781   2.738104   3.409742
    22  H    3.939490   4.440841   5.667533   2.953496   4.755184
    23  H    3.026025   4.561084   4.702724   2.641585   5.024623
    24  H    4.166722   5.616882   6.096211   3.389240   4.586354
    25  H    2.160485   4.438506   4.887150   3.433936   6.805065
    26  H    3.730254   5.822488   6.356489   4.278040   6.669826
    27  H    3.902074   5.682851   6.646021   4.712844   7.439269
    28  H    4.097931   5.445806   6.506993   3.949136   5.935651
    29  H    2.654437   3.971309   5.060800   4.025828   7.656784
    30  H    3.852639   4.602071   5.952086   4.259311   7.111539
    31  H    2.913831   2.502707   3.964905   3.341479   6.890614
    32  H    3.348694   2.952197   4.398374   2.565039   5.360647
    33  H    1.007846   2.571460   3.089800   3.296367   7.511450
    34  H    1.021765   2.619737   2.498786   2.656362   6.700138
    35  H    2.675713   1.100195   2.124039   3.384229   7.286931
    36  H    3.341932   1.095670   2.147380   2.647480   5.874108
    37  H    2.549828   2.193367   1.096154   3.563151   7.442217
    38  H    3.831090   2.167932   1.093906   4.085156   7.495871
    39  H    3.237451   2.178558   1.091843   2.860983   6.055287
                   16         17         18         19         20
    16  H    0.000000
    17  H    1.776455   0.000000
    18  H    2.553545   3.087344   0.000000
    19  H    3.050767   2.460630   1.769067   0.000000
    20  H    3.292339   2.179257   3.689250   2.632310   0.000000
    21  H    2.207505   2.068369   3.548665   3.343467   1.812517
    22  H    3.752446   3.328855   4.344857   3.856473   1.708855
    23  H    4.767244   4.781260   2.888935   2.896953   3.836250
    24  H    4.616502   3.984424   3.230899   2.210285   2.684731
    25  H    6.134031   6.077777   4.929741   4.793142   4.462857
    26  H    6.348194   5.823350   5.125198   4.405891   3.989796
    27  H    6.703873   6.183016   6.298929   5.641999   4.089833
    28  H    5.295435   4.571290   5.183937   4.333379   2.433179
    29  H    6.463089   6.535024   6.327078   6.286932   4.851465
    30  H    5.903255   5.723968   6.351211   6.056231   4.015307
    31  H    5.336572   5.905380   5.852263   6.253235   4.891966
    32  H    3.841466   4.256966   4.713213   4.930934   3.409203
    33  H    6.308522   6.871876   5.635902   6.172861   5.668086
    34  H    5.734219   6.399661   4.505345   5.269224   5.494089
    35  H    5.735348   6.786407   5.807440   6.750864   6.194806
    36  H    4.258736   5.573425   4.697309   5.825338   5.512360
    37  H    6.279478   7.380379   5.347309   6.551723   6.898517
    38  H    6.154713   7.553947   5.762978   7.179443   7.464299
    39  H    4.958157   6.278800   4.097809   5.584547   6.293396
                   21         22         23         24         25
    21  H    0.000000
    22  H    1.646388   0.000000
    23  H    4.353885   3.998208   0.000000
    24  H    3.868949   3.386544   1.745265   0.000000
    25  H    4.933740   3.851805   2.341207   2.970738   0.000000
    26  H    5.054517   3.885023   2.597644   2.223690   1.680120
    27  H    4.827734   3.231205   4.270498   3.816490   2.552328
    28  H    3.382640   1.854615   3.814962   2.917343   3.051733
    29  H    4.710344   3.377153   4.634223   4.892861   2.803584
    30  H    3.838220   2.416496   5.211058   4.962429   3.864753
    31  H    3.892562   3.283696   5.205950   5.636571   4.254651
    32  H    2.216249   1.929894   4.615969   4.690827   4.284059
    33  H    5.249033   4.459469   3.967788   5.030877   2.634253
    34  H    5.178030   4.717658   2.877048   4.347131   2.525831
    35  H    5.060745   4.878576   5.333941   6.347151   4.752540
    36  H    4.095471   4.490311   5.118739   6.001796   5.266190
    37  H    6.129451   6.014953   4.578975   6.103898   4.485150
    38  H    6.314348   6.544860   5.787986   7.173546   5.923555
    39  H    5.359663   5.708023   4.316827   5.740021   5.025890
                   26         27         28         29         30
    26  H    0.000000
    27  H    2.292775   0.000000
    28  H    2.531664   1.690517   0.000000
    29  H    3.768850   2.319465   3.061777   0.000000
    30  H    4.286741   2.459159   2.451195   1.740893   0.000000
    31  H    5.362932   4.265740   4.165981   2.323614   2.430053
    32  H    4.997723   4.168367   3.401067   3.064980   2.450376
    33  H    4.259412   4.028873   4.528369   2.340389   3.802185
    34  H    4.076820   4.692967   4.864520   3.635801   4.861250
    35  H    6.224851   5.758280   5.763028   3.730391   4.483556
    36  H    6.497280   6.288220   5.804911   4.653005   4.927686
    37  H    6.054814   6.444593   6.555648   4.893784   6.061807
    38  H    7.425818   7.596532   7.482544   5.841612   6.705930
    39  H    6.335596   6.929017   6.597627   5.635930   6.405857
                   31         32         33         34         35
    31  H    0.000000
    32  H    1.690864   0.000000
    33  H    2.733290   3.653477   0.000000
    34  H    3.812207   4.170693   1.661771   0.000000
    35  H    2.185953   3.232529   2.434479   3.067764   0.000000
    36  H    2.781781   2.860157   3.603289   3.602665   1.764531
    37  H    4.269339   4.904231   2.650900   1.985317   2.492504
    38  H    4.513458   5.088989   3.895863   3.515000   2.424484
    39  H    4.608027   4.670188   3.752245   2.727845   3.049924
                   36         37         38         39
    36  H    0.000000
    37  H    3.077074   0.000000
    38  H    2.476016   1.744354   0.000000
    39  H    2.508694   1.775152   1.781564   0.000000
 Stoichiometry    C12H25NO
 Framework group  C1[X(C12H25NO)]
 Deg. of freedom   111
 Full point group                 C1      NOp   1
 Largest Abelian subgroup         C1      NOp   1
 Largest concise Abelian subgroup C1      NOp   1
                         Standard orientation:                         
 ---------------------------------------------------------------------
 Center     Atomic      Atomic             Coordinates (Angstroms)
 Number     Number       Type             X           Y           Z
 ---------------------------------------------------------------------
      1          6           0       -3.009786   -2.055536   -0.633617
      2          6           0       -2.344923   -1.411212    0.609215
      3          6           0       -1.227517   -0.318004    0.274212
      4          6           0       -1.778943    0.282585   -1.032227
      5          6           0       -1.170250    0.692608    1.461405
      6          6           0       -0.398793    2.022102    1.301529
      7          6           0       -0.336731    2.626155   -0.099441
      8          6           0        0.751064    2.118270   -1.105908
      9          6           0        1.060340    0.617876   -1.431513
     10          6           0        1.257966   -0.310381   -0.219790
     11          7           0        1.843251    0.457340    0.854550
     12          6           0        2.354810   -1.361099   -0.587838
     13          6           0        2.898859   -2.172659    0.592057
     14          8           0        0.048279   -1.005159    0.140497
     15          1           0       -3.774383   -2.786814   -0.369089
     16          1           0       -2.259070   -2.532387   -1.272008
     17          1           0       -3.549732   -1.312181   -1.239118
     18          1           0       -1.947228   -2.211012    1.241965
     19          1           0       -3.165315   -0.930647    1.161164
     20          1           0       -2.780679    0.693913   -0.874006
     21          1           0       -1.764105   -0.456684   -1.837292
     22          1           0       -1.242675    1.071537   -1.515979
     23          1           0       -0.771036    0.182145    2.353415
     24          1           0       -2.197357    0.972743    1.731713
     25          1           0        0.596770    1.981702    1.743537
     26          1           0       -0.880763    2.748923    1.969534
     27          1           0       -0.155478    3.701585    0.014230
     28          1           0       -1.350331    2.629324   -0.515324
     29          1           0        1.699833    2.551582   -0.770140
     30          1           0        0.543830    2.601226   -2.070870
     31          1           0        1.967071    0.631667   -2.051425
     32          1           0        0.345154    0.159529   -2.125511
     33          1           0        2.696658    0.910423    0.567903
     34          1           0        2.012764   -0.109154    1.687829
     35          1           0        3.217568   -0.845745   -1.035599
     36          1           0        1.972596   -2.058099   -1.341891
     37          1           0        3.355721   -1.533231    1.356232
     38          1           0        3.695308   -2.842197    0.254389
     39          1           0        2.109314   -2.762483    1.062001
 ---------------------------------------------------------------------
 Rotational constants (GHZ):           0.7824319           0.6212140           0.4589563
 Standard basis: 6-31G(2df,p) (6D, 7F)
 There are   559 symmetry adapted cartesian basis functions of A   symmetry.
 There are   517 symmetry adapted basis functions of A   symmetry.
   517 basis functions,   791 primitive gaussians,   559 cartesian basis functions
    56 alpha electrons       56 beta electrons
       nuclear repulsion energy      1067.2524712544 Hartrees.
 NAtoms=   39 NActive=   39 NUniq=   39 SFac= 1.00D+00 NAtFMM=   60 NAOKFM=F Big=F
 Integral buffers will be    131072 words long.
 Raffenetti 2 integral format.
 Two-electron integral symmetry is turned on.
 One-electron integrals computed using PRISM.
 PrsmSu:  requested number of processors reduced to:  12 ShMem   1 Linda.
 NBasis=   517 RedAO= T EigKep=  2.69D-04  NBF=   517
 NBsUse=   517 1.00D-06 EigRej= -1.00D+00 NBFU=   517
 ExpMin= 1.61D-01 ExpMax= 5.48D+03 ExpMxC= 8.25D+02 IAcc=3 IRadAn=         5 AccDes= 0.00D+00
 Harris functional with IExCor=  402 and IRadAn=       5 diagonalized for initial guess.
 HarFok:  IExCor=  402 AccDes= 0.00D+00 IRadAn=         5 IDoV= 1 UseB2=F ITyADJ=14
 ICtDFT=  3500011 ScaDFX=  1.000000  1.000000  1.000000  1.000000
 FoFCou: FMM=F IPFlag=           0 FMFlag=      100000 FMFlg1=           0
         NFxFlg=           0 DoJE=T BraDBF=F KetDBF=T FulRan=T
         wScrn=  0.000000 ICntrl=       500 IOpCl=  0 I1Cent=   200000004 NGrid=           0
         NMat0=    1 NMatS0=      1 NMatT0=    0 NMatD0=    1 NMtDS0=    0 NMtDT0=    0
 Petite list used in FoFCou.
 Requested convergence on RMS density matrix=1.00D-08 within 128 cycles.
 Requested convergence on MAX density matrix=1.00D-06.
 Requested convergence on             energy=1.00D-06.
 No special actions if energy rises.
 Integral accuracy reduced to 1.0D-05 until final iterations.
 Initial convergence to 1.0D-05 achieved.  Increase integral accuracy.
 SCF Done:  E(RB3LYP) =  -602.289000779     A.U. after   12 cycles
            NFock= 12  Conv=0.61D-08     -V/T= 2.0084

 **********************************************************************

            Population analysis using the SCF density.

 **********************************************************************

 Orbital symmetries:
       Occupied  (A) (A) (A) (A) (A) (A) (A) (A) (A) (A) (A) (A)
                 (A) (A) (A) (A) (A) (A) (A) (A) (A) (A) (A) (A)
                 (A) (A) (A) (A) (A) (A) (A) (A) (A) (A) (A) (A)
                 (A) (A) (A) (A) (A) (A) (A) (A) (A) (A) (A) (A)
                 (A) (A) (A) (A) (A) (A) (A) (A)
       Virtual   (A) (A) (A) (A) (A) (A) (A) (A) (A) (A) (A) (A)
                 (A) (A) (A) (A) (A) (A) (A) (A) (A) (A) (A) (A)
                 (A) (A) (A) (A) (A) (A) (A) (A) (A) (A) (A) (A)
                 (A) (A) (A) (A) (A) (A) (A) (A) (A) (A) (A) (A)
                 (A) (A) (A) (A) (A) (A) (A) (A) (A) (A) (A) (A)
                 (A) (A) (A) (A) (A) (A) (A) (A) (A) (A) (A) (A)
                 (A) (A) (A) (A) (A) (A) (A) (A) (A) (A) (A) (A)
                 (A) (A) (A) (A) (A) (A) (A) (A) (A) (A) (A) (A)
                 (A) (A) (A) (A) (A) (A) (A) (A) (A) (A) (A) (A)
                 (A) (A) (A) (A) (A) (A) (A) (A) (A) (A) (A) (A)
                 (A) (A) (A) (A) (A) (A) (A) (A) (A) (A) (A) (A)
                 (A) (A) (A) (A) (A) (A) (A) (A) (A) (A) (A) (A)
                 (A) (A) (A) (A) (A) (A) (A) (A) (A) (A) (A) (A)
                 (A) (A) (A) (A) (A) (A) (A) (A) (A) (A) (A) (A)
                 (A) (A) (A) (A) (A) (A) (A) (A) (A) (A) (A) (A)
                 (A) (A) (A) (A) (A) (A) (A) (A) (A) (A) (A) (A)
                 (A) (A) (A) (A) (A) (A) (A) (A) (A) (A) (A) (A)
                 (A) (A) (A) (A) (A) (A) (A) (A) (A) (A) (A) (A)
                 (A) (A) (A) (A) (A) (A) (A) (A) (A) (A) (A) (A)
                 (A) (A) (A) (A) (A) (A) (A) (A) (A) (A) (A) (A)
                 (A) (A) (A) (A) (A) (A) (A) (A) (A) (A) (A) (A)
                 (A) (A) (A) (A) (A) (A) (A) (A) (A) (A) (A) (A)
                 (A) (A) (A) (A) (A) (A) (A) (A) (A) (A) (A) (A)
                 (A) (A) (A) (A) (A) (A) (A) (A) (A) (A) (A) (A)
                 (A) (A) (A) (A) (A) (A) (A) (A) (A) (A) (A) (A)
                 (A) (A) (A) (A) (A) (A) (A) (A) (A) (A) (A) (A)
                 (A) (A) (A) (A) (A) (A) (A) (A) (A) (A) (A) (A)
                 (A) (A) (A) (A) (A) (A) (A) (A) (A) (A) (A) (A)
                 (A) (A) (A) (A) (A) (A) (A) (A) (A) (A) (A) (A)
                 (A) (A) (A) (A) (A) (A) (A) (A) (A) (A) (A) (A)
                 (A) (A) (A) (A) (A) (A) (A) (A) (A) (A) (A) (A)
                 (A) (A) (A) (A) (A) (A) (A) (A) (A) (A) (A) (A)
                 (A) (A) (A) (A) (A) (A) (A) (A) (A) (A) (A) (A)
                 (A) (A) (A) (A) (A) (A) (A) (A) (A) (A) (A) (A)
                 (A) (A) (A) (A) (A) (A) (A) (A) (A) (A) (A) (A)
                 (A) (A) (A) (A) (A) (A) (A) (A) (A) (A) (A) (A)
                 (A) (A) (A) (A) (A) (A) (A) (A) (A) (A) (A) (A)
                 (A) (A) (A) (A) (A) (A) (A) (A) (A) (A) (A) (A)
                 (A) (A) (A) (A) (A)
 The electronic state is 1-A.
 Alpha  occ. eigenvalues --  -19.13072 -14.29724 -10.25675 -10.23794 -10.17743
 Alpha  occ. eigenvalues --  -10.17439 -10.17298 -10.17266 -10.16808 -10.16640
 Alpha  occ. eigenvalues --  -10.16538 -10.16310 -10.15545 -10.15185  -1.01319
 Alpha  occ. eigenvalues --   -0.88313  -0.79909  -0.77542  -0.75366  -0.73962
 Alpha  occ. eigenvalues --   -0.70402  -0.68681  -0.66241  -0.61925  -0.59210
 Alpha  occ. eigenvalues --   -0.57788  -0.55332  -0.52698  -0.48753  -0.47825
 Alpha  occ. eigenvalues --   -0.46818  -0.44708  -0.44176  -0.43195  -0.42833
 Alpha  occ. eigenvalues --   -0.41544  -0.40943  -0.40385  -0.39553  -0.38721
 Alpha  occ. eigenvalues --   -0.37394  -0.36914  -0.35832  -0.34992  -0.34242
 Alpha  occ. eigenvalues --   -0.33860  -0.33226  -0.32721  -0.31806  -0.31334
 Alpha  occ. eigenvalues --   -0.31023  -0.30571  -0.28539  -0.27112  -0.24901
 Alpha  occ. eigenvalues --   -0.21537
 Alpha virt. eigenvalues --    0.06333   0.09327   0.09861   0.11115   0.11700
 Alpha virt. eigenvalues --    0.12802   0.13108   0.14069   0.14621   0.15118
 Alpha virt. eigenvalues --    0.15257   0.15685   0.16525   0.17041   0.17266
 Alpha virt. eigenvalues --    0.17693   0.18022   0.18481   0.18764   0.19512
 Alpha virt. eigenvalues --    0.19919   0.20647   0.21076   0.21351   0.22130
 Alpha virt. eigenvalues --    0.22960   0.23214   0.24491   0.25081   0.25551
 Alpha virt. eigenvalues --    0.26207   0.26877   0.27235   0.29113   0.29883
 Alpha virt. eigenvalues --    0.30809   0.31923   0.32289   0.34783   0.45026
 Alpha virt. eigenvalues --    0.45642   0.46341   0.48981   0.49035   0.49568
 Alpha virt. eigenvalues --    0.50321   0.50712   0.51942   0.52446   0.52818
 Alpha virt. eigenvalues --    0.53111   0.54340   0.54888   0.55625   0.56064
 Alpha virt. eigenvalues --    0.56713   0.56846   0.57653   0.58095   0.59208
 Alpha virt. eigenvalues --    0.61338   0.62629   0.62923   0.64634   0.66204
 Alpha virt. eigenvalues --    0.66418   0.68291   0.68616   0.70218   0.70465
 Alpha virt. eigenvalues --    0.70897   0.72322   0.73115   0.73407   0.74034
 Alpha virt. eigenvalues --    0.74781   0.75440   0.75749   0.76256   0.76718
 Alpha virt. eigenvalues --    0.77297   0.77600   0.78320   0.78454   0.78763
 Alpha virt. eigenvalues --    0.79213   0.79679   0.80452   0.81785   0.83349
 Alpha virt. eigenvalues --    0.83861   0.84712   0.85585   0.85818   0.87068
 Alpha virt. eigenvalues --    0.87759   0.88067   0.89715   0.90650   0.90904
 Alpha virt. eigenvalues --    0.91393   0.92116   0.93665   0.95249   0.95701
 Alpha virt. eigenvalues --    0.96769   0.99616   1.00540   1.02954   1.04766
 Alpha virt. eigenvalues --    1.06775   1.09378   1.10348   1.11925   1.13316
 Alpha virt. eigenvalues --    1.14366   1.15925   1.16745   1.16847   1.20444
 Alpha virt. eigenvalues --    1.22105   1.22646   1.26122   1.27125   1.28853
 Alpha virt. eigenvalues --    1.29602   1.30759   1.31920   1.34790   1.35515
 Alpha virt. eigenvalues --    1.36534   1.37207   1.38243   1.40379   1.40811
 Alpha virt. eigenvalues --    1.42369   1.43276   1.45415   1.46797   1.47657
 Alpha virt. eigenvalues --    1.48707   1.49725   1.50524   1.52078   1.53493
 Alpha virt. eigenvalues --    1.53902   1.54189   1.55000   1.55812   1.58761
 Alpha virt. eigenvalues --    1.58908   1.59902   1.61472   1.61918   1.63383
 Alpha virt. eigenvalues --    1.64635   1.65950   1.67433   1.68093   1.68659
 Alpha virt. eigenvalues --    1.70690   1.71875   1.72424   1.74703   1.75752
 Alpha virt. eigenvalues --    1.76631   1.78281   1.78776   1.80576   1.80969
 Alpha virt. eigenvalues --    1.84359   1.85201   1.86183   1.86899   1.89292
 Alpha virt. eigenvalues --    1.90726   1.91236   1.91934   1.93843   1.95980
 Alpha virt. eigenvalues --    1.96813   1.98558   2.00218   2.00908   2.01946
 Alpha virt. eigenvalues --    2.02388   2.04132   2.07498   2.08124   2.11296
 Alpha virt. eigenvalues --    2.13225   2.14805   2.17189   2.18233   2.18949
 Alpha virt. eigenvalues --    2.22221   2.23904   2.26177   2.28159   2.29079
 Alpha virt. eigenvalues --    2.29922   2.31572   2.32283   2.33480   2.35142
 Alpha virt. eigenvalues --    2.36335   2.36927   2.38372   2.40983   2.42632
 Alpha virt. eigenvalues --    2.43731   2.45652   2.47193   2.48855   2.50371
 Alpha virt. eigenvalues --    2.51276   2.52419   2.54521   2.55231   2.56406
 Alpha virt. eigenvalues --    2.57509   2.60250   2.61192   2.62515   2.63745
 Alpha virt. eigenvalues --    2.67798   2.69258   2.69572   2.70598   2.75227
 Alpha virt. eigenvalues --    2.75890   2.76181   2.76935   2.79260   2.80267
 Alpha virt. eigenvalues --    2.80556   2.81428   2.82451   2.83551   2.84125
 Alpha virt. eigenvalues --    2.84751   2.85800   2.86915   2.87271   2.87775
 Alpha virt. eigenvalues --    2.89121   2.89566   2.90095   2.91069   2.91766
 Alpha virt. eigenvalues --    2.93590   2.94216   2.94649   2.96030   2.96387
 Alpha virt. eigenvalues --    2.96589   2.98229   2.99962   3.01452   3.02161
 Alpha virt. eigenvalues --    3.03471   3.04778   3.05693   3.07289   3.07602
 Alpha virt. eigenvalues --    3.08658   3.11728   3.13470   3.15236   3.15699
 Alpha virt. eigenvalues --    3.17357   3.18083   3.19366   3.21509   3.24518
 Alpha virt. eigenvalues --    3.25208   3.26896   3.28696   3.30621   3.31830
 Alpha virt. eigenvalues --    3.32878   3.33762   3.35714   3.37142   3.38584
 Alpha virt. eigenvalues --    3.40680   3.41494   3.44014   3.45856   3.46699
 Alpha virt. eigenvalues --    3.46869   3.47903   3.48900   3.50869   3.50976
 Alpha virt. eigenvalues --    3.52116   3.53629   3.56148   3.57500   3.57770
 Alpha virt. eigenvalues --    3.59116   3.60196   3.60395   3.61909   3.63469
 Alpha virt. eigenvalues --    3.63754   3.64955   3.66276   3.68957   3.69765
 Alpha virt. eigenvalues --    3.71175   3.73603   3.74406   3.75592   3.76137
 Alpha virt. eigenvalues --    3.77333   3.79412   3.80400   3.80868   3.82268
 Alpha virt. eigenvalues --    3.86141   3.89039   3.89632   3.92897   3.94153
 Alpha virt. eigenvalues --    3.95898   3.97710   3.97901   4.01248   4.03536
 Alpha virt. eigenvalues --    4.04329   4.06065   4.09539   4.10583   4.12879
 Alpha virt. eigenvalues --    4.13176   4.15854   4.18345   4.21209   4.23774
 Alpha virt. eigenvalues --    4.27865   4.29844   4.32187   4.33532   4.35507
 Alpha virt. eigenvalues --    4.36640   4.38878   4.39753   4.41217   4.41491
 Alpha virt. eigenvalues --    4.44084   4.44620   4.45171   4.47144   4.49227
 Alpha virt. eigenvalues --    4.50304   4.51244   4.53041   4.53865   4.54517
 Alpha virt. eigenvalues --    4.55314   4.56309   4.57918   4.58798   4.60034
 Alpha virt. eigenvalues --    4.60373   4.62218   4.62317   4.62584   4.64135
 Alpha virt. eigenvalues --    4.65879   4.66780   4.67424   4.68086   4.68961
 Alpha virt. eigenvalues --    4.70007   4.71212   4.71620   4.72512   4.73483
 Alpha virt. eigenvalues --    4.74750   4.74995   4.76536   4.77234   4.77825
 Alpha virt. eigenvalues --    4.79209   4.79531   4.80273   4.81237   4.82395
 Alpha virt. eigenvalues --    4.82929   4.84024   4.85225   4.86562   4.87674
 Alpha virt. eigenvalues --    4.87961   4.90030   4.91239   4.91859   4.92740
 Alpha virt. eigenvalues --    4.93158   4.94658   4.96193   4.96828   4.99865
 Alpha virt. eigenvalues --    5.01390   5.03532   5.04612   5.06251   5.06425
 Alpha virt. eigenvalues --    5.09212   5.09472   5.14188   5.14872   5.16441
 Alpha virt. eigenvalues --    5.17938   5.21307   5.23253   5.25722   5.26413
 Alpha virt. eigenvalues --    5.30227   5.32859   5.35918   5.37400   5.40271
 Alpha virt. eigenvalues --    5.45006   5.46332   5.46807   5.48253   5.51891
 Alpha virt. eigenvalues --    5.54101   5.56155   5.59694   5.66214   5.81330
 Alpha virt. eigenvalues --    5.83967   5.87235   6.00570   6.02876   6.06879
 Alpha virt. eigenvalues --    6.16177   6.19002   6.39692   6.90592   7.17116
 Alpha virt. eigenvalues --    7.47888  11.21164  11.36454  11.40395  11.56757
 Alpha virt. eigenvalues --   11.82964  11.88812  12.17334  12.23058  12.37328
 Alpha virt. eigenvalues --   12.66934  12.74565  12.96025  12.99274  14.04414
 Alpha virt. eigenvalues --   19.94940
          Condensed to atoms (all electrons):
               1          2          3          4          5          6
     1  C    4.981355   0.396624  -0.020035  -0.018929   0.002660  -0.000133
     2  C    0.396624   4.928208   0.383022  -0.058021  -0.043821   0.003019
     3  C   -0.020035   0.383022   4.422698   0.355271   0.379025  -0.014253
     4  C   -0.018929  -0.058021   0.355271   5.184032  -0.059258  -0.008421
     5  C    0.002660  -0.043821   0.379025  -0.059258   4.978869   0.405782
     6  C   -0.000133   0.003019  -0.014253  -0.008421   0.405782   4.860220
     7  C    0.000011   0.000004  -0.007891  -0.003204  -0.027236   0.435878
     8  C    0.000000  -0.000065   0.000073  -0.014372  -0.002419  -0.028648
     9  C   -0.000007   0.000188  -0.002032   0.006820  -0.001190  -0.003485
    10  C    0.000040   0.001046  -0.066379  -0.008624  -0.000456   0.002397
    11  N   -0.000000  -0.000006  -0.001910  -0.000589   0.003812  -0.047617
    12  C    0.000010  -0.000284   0.001151   0.000267   0.000186  -0.000203
    13  C   -0.000000   0.000010   0.000175  -0.000001  -0.000031   0.000004
    14  O   -0.001023  -0.021964   0.371135  -0.044311  -0.050735   0.000768
    15  H    0.368926  -0.021068   0.002896   0.000992  -0.000073   0.000001
    16  H    0.376713  -0.027014  -0.003912  -0.003589   0.000217   0.000003
    17  H    0.383104  -0.026565  -0.006332  -0.002073   0.000231  -0.000003
    18  H   -0.034789   0.347177  -0.016753   0.005557  -0.000119  -0.000106
    19  H   -0.041399   0.361466  -0.023824   0.001983  -0.007318   0.000239
    20  H   -0.004057  -0.005335  -0.012894   0.358178  -0.001596   0.000117
    21  H   -0.001203  -0.015409  -0.010962   0.356834   0.004554   0.000225
    22  H    0.000889   0.006858  -0.017317   0.373251  -0.002451  -0.000836
    23  H    0.000001  -0.002611  -0.019664   0.006245   0.344880  -0.035893
    24  H    0.000175  -0.008152  -0.018674  -0.000977   0.343222  -0.032592
    25  H    0.000001  -0.000092  -0.001392  -0.000254  -0.027612   0.361409
    26  H    0.000002  -0.000135   0.002709   0.000180  -0.032923   0.334906
    27  H   -0.000000  -0.000000   0.000309   0.000331   0.004538  -0.030564
    28  H    0.000004  -0.000094  -0.001539  -0.005110  -0.006446  -0.038578
    29  H    0.000000  -0.000000  -0.000147   0.000597  -0.000067  -0.003797
    30  H   -0.000000   0.000002  -0.000040  -0.000494   0.000029   0.003862
    31  H    0.000001   0.000001   0.000374   0.000034  -0.000017   0.000070
    32  H   -0.000097  -0.000148  -0.004535  -0.000619   0.000657  -0.000054
    33  H   -0.000000   0.000006  -0.000024   0.000006   0.000009   0.001278
    34  H   -0.000000  -0.000014   0.000680   0.000077  -0.000809   0.000771
    35  H   -0.000000   0.000002  -0.000081  -0.000006   0.000009   0.000002
    36  H   -0.000005   0.000000   0.000158  -0.000104   0.000023   0.000005
    37  H   -0.000000   0.000001  -0.000013  -0.000000  -0.000004   0.000021
    38  H    0.000000  -0.000000  -0.000001   0.000000  -0.000000  -0.000000
    39  H   -0.000002  -0.000015   0.000033   0.000010  -0.000002   0.000000
               7          8          9         10         11         12
     1  C    0.000011   0.000000  -0.000007   0.000040  -0.000000   0.000010
     2  C    0.000004  -0.000065   0.000188   0.001046  -0.000006  -0.000284
     3  C   -0.007891   0.000073  -0.002032  -0.066379  -0.001910   0.001151
     4  C   -0.003204  -0.014372   0.006820  -0.008624  -0.000589   0.000267
     5  C   -0.027236  -0.002419  -0.001190  -0.000456   0.003812   0.000186
     6  C    0.435878  -0.028648  -0.003485   0.002397  -0.047617  -0.000203
     7  C    4.833162   0.406955  -0.024025  -0.004038  -0.007660  -0.000087
     8  C    0.406955   4.882407   0.363130  -0.014782   0.006515   0.004500
     9  C   -0.024025   0.363130   5.097793   0.341704  -0.055841  -0.061483
    10  C   -0.004038  -0.014782   0.341704   4.449918   0.354666   0.411609
    11  N   -0.007660   0.006515  -0.055841   0.354666   6.680407  -0.081175
    12  C   -0.000087   0.004500  -0.061483   0.411609  -0.081175   4.959872
    13  C    0.000003  -0.000175   0.003199  -0.016932  -0.016560   0.396554
    14  O    0.000522   0.000878  -0.043911   0.373411  -0.046065  -0.036389
    15  H   -0.000000   0.000000  -0.000001   0.000003  -0.000000  -0.000000
    16  H   -0.000001   0.000000  -0.000007   0.000018   0.000003  -0.000003
    17  H    0.000002   0.000001   0.000012  -0.000013   0.000000   0.000000
    18  H    0.000006  -0.000001   0.000058   0.000016  -0.000022  -0.000022
    19  H    0.000020  -0.000001   0.000006  -0.000076   0.000002   0.000003
    20  H   -0.001728   0.000616   0.000177   0.000380   0.000006   0.000005
    21  H    0.000501   0.000576  -0.003872   0.000865   0.000037  -0.000060
    22  H   -0.005997  -0.004340  -0.001601  -0.002101  -0.000010  -0.000035
    23  H    0.004437   0.000017   0.000191  -0.000708   0.001242  -0.000053
    24  H   -0.001024  -0.000112  -0.000014   0.000044   0.000085   0.000003
    25  H   -0.032910  -0.007486  -0.000680  -0.000133   0.022248   0.000343
    26  H   -0.031371   0.005499  -0.000093  -0.000110   0.002117   0.000002
    27  H    0.352294  -0.030575   0.004264   0.000162  -0.000011   0.000002
    28  H    0.376365  -0.042084  -0.002184  -0.000181  -0.000023  -0.000003
    29  H   -0.031251   0.360529  -0.033037  -0.007945   0.003697   0.000259
    30  H   -0.034015   0.355894  -0.030448   0.003162   0.000472  -0.000081
    31  H    0.004090  -0.028777   0.341972  -0.021593   0.000229  -0.012764
    32  H   -0.002564  -0.030149   0.355686  -0.017119   0.003663   0.000584
    33  H    0.000294  -0.001351   0.000121  -0.032549   0.330207  -0.002211
    34  H    0.000130  -0.000207   0.008446  -0.039637   0.337282  -0.009182
    35  H   -0.000001   0.000116  -0.006988  -0.020438  -0.000295   0.358780
    36  H    0.000006  -0.000082   0.000204  -0.018634   0.007093   0.329831
    37  H    0.000001  -0.000006   0.000257  -0.007611   0.008590  -0.035273
    38  H    0.000000   0.000002  -0.000089   0.002105   0.000762  -0.021178
    39  H   -0.000000  -0.000003   0.000336  -0.003102  -0.000040  -0.028007
              13         14         15         16         17         18
     1  C   -0.000000  -0.001023   0.368926   0.376713   0.383104  -0.034789
     2  C    0.000010  -0.021964  -0.021068  -0.027014  -0.026565   0.347177
     3  C    0.000175   0.371135   0.002896  -0.003912  -0.006332  -0.016753
     4  C   -0.000001  -0.044311   0.000992  -0.003589  -0.002073   0.005557
     5  C   -0.000031  -0.050735  -0.000073   0.000217   0.000231  -0.000119
     6  C    0.000004   0.000768   0.000001   0.000003  -0.000003  -0.000106
     7  C    0.000003   0.000522  -0.000000  -0.000001   0.000002   0.000006
     8  C   -0.000175   0.000878   0.000000   0.000000   0.000001  -0.000001
     9  C    0.003199  -0.043911  -0.000001  -0.000007   0.000012   0.000058
    10  C   -0.016932   0.373411   0.000003   0.000018  -0.000013   0.000016
    11  N   -0.016560  -0.046065  -0.000000   0.000003   0.000000  -0.000022
    12  C    0.396554  -0.036389  -0.000000  -0.000003   0.000000  -0.000022
    13  C    4.996414  -0.001869   0.000000  -0.000001  -0.000000  -0.000009
    14  O   -0.001869   7.832530   0.000003   0.002756  -0.000029   0.001013
    15  H    0.000000   0.000003   0.620882  -0.030855  -0.036510  -0.002622
    16  H   -0.000001   0.002756  -0.030855   0.590993  -0.035004  -0.002519
    17  H   -0.000000  -0.000029  -0.036510  -0.035004   0.603342   0.005100
    18  H   -0.000009   0.001013  -0.002622  -0.002519   0.005100   0.627366
    19  H   -0.000000   0.001964  -0.002015   0.005501  -0.005104  -0.033794
    20  H   -0.000000   0.002189   0.000079   0.000321   0.001700  -0.000031
    21  H   -0.000000  -0.000114   0.000302   0.004493  -0.001231   0.000137
    22  H    0.000000  -0.001212  -0.000038  -0.000068   0.000020  -0.000200
    23  H   -0.000007  -0.001320  -0.000002   0.000005   0.000001   0.002265
    24  H    0.000000   0.003188  -0.000009  -0.000009  -0.000034   0.000223
    25  H   -0.000007   0.000213  -0.000000  -0.000000   0.000000   0.000004
    26  H    0.000000  -0.000068  -0.000000   0.000000   0.000000   0.000002
    27  H   -0.000000   0.000001  -0.000000   0.000000   0.000000  -0.000000
    28  H   -0.000000   0.000150   0.000000   0.000000  -0.000006  -0.000000
    29  H   -0.000004  -0.000045  -0.000000   0.000000  -0.000000  -0.000000
    30  H    0.000002  -0.000051  -0.000000  -0.000000  -0.000000   0.000000
    31  H    0.000325   0.003011  -0.000000  -0.000001   0.000000  -0.000000
    32  H   -0.000110  -0.003220   0.000001   0.000089  -0.000023  -0.000004
    33  H   -0.000390   0.003342   0.000000  -0.000000  -0.000000  -0.000000
    34  H    0.001870   0.002120  -0.000000  -0.000000  -0.000000   0.000017
    35  H   -0.042964   0.002241   0.000000  -0.000000   0.000000   0.000000
    36  H   -0.033698   0.001718  -0.000000   0.000051  -0.000000   0.000004
    37  H    0.365920   0.000061   0.000000   0.000000  -0.000000   0.000000
    38  H    0.370739   0.000064  -0.000000  -0.000000   0.000000  -0.000000
    39  H    0.376813   0.005512  -0.000000   0.000001   0.000000   0.000114
              19         20         21         22         23         24
     1  C   -0.041399  -0.004057  -0.001203   0.000889   0.000001   0.000175
     2  C    0.361466  -0.005335  -0.015409   0.006858  -0.002611  -0.008152
     3  C   -0.023824  -0.012894  -0.010962  -0.017317  -0.019664  -0.018674
     4  C    0.001983   0.358178   0.356834   0.373251   0.006245  -0.000977
     5  C   -0.007318  -0.001596   0.004554  -0.002451   0.344880   0.343222
     6  C    0.000239   0.000117   0.000225  -0.000836  -0.035893  -0.032592
     7  C    0.000020  -0.001728   0.000501  -0.005997   0.004437  -0.001024
     8  C   -0.000001   0.000616   0.000576  -0.004340   0.000017  -0.000112
     9  C    0.000006   0.000177  -0.003872  -0.001601   0.000191  -0.000014
    10  C   -0.000076   0.000380   0.000865  -0.002101  -0.000708   0.000044
    11  N    0.000002   0.000006   0.000037  -0.000010   0.001242   0.000085
    12  C    0.000003   0.000005  -0.000060  -0.000035  -0.000053   0.000003
    13  C   -0.000000  -0.000000  -0.000000   0.000000  -0.000007   0.000000
    14  O    0.001964   0.002189  -0.000114  -0.001212  -0.001320   0.003188
    15  H   -0.002015   0.000079   0.000302  -0.000038  -0.000002  -0.000009
    16  H    0.005501   0.000321   0.004493  -0.000068   0.000005  -0.000009
    17  H   -0.005104   0.001700  -0.001231   0.000020   0.000001  -0.000034
    18  H   -0.033794  -0.000031   0.000137  -0.000200   0.002265   0.000223
    19  H    0.636199   0.001143   0.000444  -0.000176   0.000989   0.005437
    20  H    0.001143   0.615490  -0.026724  -0.039596  -0.000132   0.001692
    21  H    0.000444  -0.026724   0.611913  -0.046061  -0.000155  -0.000076
    22  H   -0.000176  -0.039596  -0.046061   0.622316  -0.000099  -0.000104
    23  H    0.000989  -0.000132  -0.000155  -0.000099   0.653503  -0.038242
    24  H    0.005437   0.001692  -0.000076  -0.000104  -0.038242   0.665160
    25  H    0.000005   0.000015   0.000010  -0.000035  -0.010192   0.006156
    26  H   -0.000031  -0.000041   0.000008  -0.000015   0.003910  -0.014666
    27  H    0.000000   0.000003  -0.000037   0.001032  -0.000175  -0.000164
    28  H   -0.000011   0.004008   0.000494  -0.007426  -0.000118   0.002251
    29  H   -0.000000  -0.000002  -0.000005  -0.000742   0.000011   0.000006
    30  H    0.000000  -0.000072  -0.000051   0.003152   0.000005   0.000007
    31  H   -0.000000  -0.000029  -0.000008   0.000988  -0.000001  -0.000000
    32  H    0.000003   0.000507   0.006494  -0.008685  -0.000010  -0.000013
    33  H   -0.000000  -0.000001  -0.000001   0.000010  -0.000011  -0.000001
    34  H    0.000001  -0.000001  -0.000000  -0.000002   0.001244  -0.000005
    35  H   -0.000000  -0.000000   0.000002   0.000005   0.000000  -0.000000
    36  H    0.000000  -0.000000   0.000063  -0.000015  -0.000003  -0.000000
    37  H   -0.000000  -0.000000   0.000000   0.000000  -0.000014  -0.000000
    38  H    0.000000   0.000000  -0.000000   0.000000  -0.000000   0.000000
    39  H   -0.000000  -0.000000   0.000000  -0.000000   0.000039  -0.000000
              25         26         27         28         29         30
     1  C    0.000001   0.000002  -0.000000   0.000004   0.000000  -0.000000
     2  C   -0.000092  -0.000135  -0.000000  -0.000094  -0.000000   0.000002
     3  C   -0.001392   0.002709   0.000309  -0.001539  -0.000147  -0.000040
     4  C   -0.000254   0.000180   0.000331  -0.005110   0.000597  -0.000494
     5  C   -0.027612  -0.032923   0.004538  -0.006446  -0.000067   0.000029
     6  C    0.361409   0.334906  -0.030564  -0.038578  -0.003797   0.003862
     7  C   -0.032910  -0.031371   0.352294   0.376365  -0.031251  -0.034015
     8  C   -0.007486   0.005499  -0.030575  -0.042084   0.360529   0.355894
     9  C   -0.000680  -0.000093   0.004264  -0.002184  -0.033037  -0.030448
    10  C   -0.000133  -0.000110   0.000162  -0.000181  -0.007945   0.003162
    11  N    0.022248   0.002117  -0.000011  -0.000023   0.003697   0.000472
    12  C    0.000343   0.000002   0.000002  -0.000003   0.000259  -0.000081
    13  C   -0.000007   0.000000  -0.000000  -0.000000  -0.000004   0.000002
    14  O    0.000213  -0.000068   0.000001   0.000150  -0.000045  -0.000051
    15  H   -0.000000  -0.000000  -0.000000   0.000000  -0.000000  -0.000000
    16  H   -0.000000   0.000000   0.000000   0.000000   0.000000  -0.000000
    17  H    0.000000   0.000000   0.000000  -0.000006  -0.000000  -0.000000
    18  H    0.000004   0.000002  -0.000000  -0.000000  -0.000000   0.000000
    19  H    0.000005  -0.000031   0.000000  -0.000011  -0.000000   0.000000
    20  H    0.000015  -0.000041   0.000003   0.004008  -0.000002  -0.000072
    21  H    0.000010   0.000008  -0.000037   0.000494  -0.000005  -0.000051
    22  H   -0.000035  -0.000015   0.001032  -0.007426  -0.000742   0.003152
    23  H   -0.010192   0.003910  -0.000175  -0.000118   0.000011   0.000005
    24  H    0.006156  -0.014666  -0.000164   0.002251   0.000006   0.000007
    25  H    0.613174  -0.041759  -0.000635   0.006348   0.002581   0.000001
    26  H   -0.041759   0.723112  -0.010224  -0.002529  -0.000119  -0.000162
    27  H   -0.000635  -0.010224   0.678643  -0.041048  -0.007590  -0.000530
    28  H    0.006348  -0.002529  -0.041048   0.658563   0.006050  -0.006162
    29  H    0.002581  -0.000119  -0.007590   0.006050   0.660699  -0.037655
    30  H    0.000001  -0.000162  -0.000530  -0.006162  -0.037655   0.658648
    31  H   -0.000071   0.000003  -0.000115  -0.000111  -0.007579  -0.000450
    32  H    0.000016   0.000002  -0.000102   0.000728   0.005863  -0.005267
    33  H   -0.000242  -0.000091   0.000006   0.000017   0.001983  -0.000129
    34  H   -0.000119  -0.000079   0.000003   0.000003  -0.000032  -0.000003
    35  H   -0.000009   0.000000   0.000000  -0.000000  -0.000027  -0.000019
    36  H   -0.000006  -0.000000  -0.000000   0.000000  -0.000003  -0.000004
    37  H   -0.000025  -0.000000   0.000000   0.000000  -0.000005   0.000000
    38  H    0.000000  -0.000000   0.000000   0.000000   0.000000  -0.000000
    39  H   -0.000002  -0.000000   0.000000  -0.000000   0.000000   0.000000
              31         32         33         34         35         36
     1  C    0.000001  -0.000097  -0.000000  -0.000000  -0.000000  -0.000005
     2  C    0.000001  -0.000148   0.000006  -0.000014   0.000002   0.000000
     3  C    0.000374  -0.004535  -0.000024   0.000680  -0.000081   0.000158
     4  C    0.000034  -0.000619   0.000006   0.000077  -0.000006  -0.000104
     5  C   -0.000017   0.000657   0.000009  -0.000809   0.000009   0.000023
     6  C    0.000070  -0.000054   0.001278   0.000771   0.000002   0.000005
     7  C    0.004090  -0.002564   0.000294   0.000130  -0.000001   0.000006
     8  C   -0.028777  -0.030149  -0.001351  -0.000207   0.000116  -0.000082
     9  C    0.341972   0.355686   0.000121   0.008446  -0.006988   0.000204
    10  C   -0.021593  -0.017119  -0.032549  -0.039637  -0.020438  -0.018634
    11  N    0.000229   0.003663   0.330207   0.337282  -0.000295   0.007093
    12  C   -0.012764   0.000584  -0.002211  -0.009182   0.358780   0.329831
    13  C    0.000325  -0.000110  -0.000390   0.001870  -0.042964  -0.033698
    14  O    0.003011  -0.003220   0.003342   0.002120   0.002241   0.001718
    15  H   -0.000000   0.000001   0.000000  -0.000000   0.000000  -0.000000
    16  H   -0.000001   0.000089  -0.000000  -0.000000  -0.000000   0.000051
    17  H    0.000000  -0.000023  -0.000000  -0.000000   0.000000  -0.000000
    18  H   -0.000000  -0.000004  -0.000000   0.000017   0.000000   0.000004
    19  H   -0.000000   0.000003  -0.000000   0.000001  -0.000000   0.000000
    20  H   -0.000029   0.000507  -0.000001  -0.000001  -0.000000  -0.000000
    21  H   -0.000008   0.006494  -0.000001  -0.000000   0.000002   0.000063
    22  H    0.000988  -0.008685   0.000010  -0.000002   0.000005  -0.000015
    23  H   -0.000001  -0.000010  -0.000011   0.001244   0.000000  -0.000003
    24  H   -0.000000  -0.000013  -0.000001  -0.000005  -0.000000  -0.000000
    25  H   -0.000071   0.000016  -0.000242  -0.000119  -0.000009  -0.000006
    26  H    0.000003   0.000002  -0.000091  -0.000079   0.000000  -0.000000
    27  H   -0.000115  -0.000102   0.000006   0.000003   0.000000  -0.000000
    28  H   -0.000111   0.000728   0.000017   0.000003  -0.000000   0.000000
    29  H   -0.007579   0.005863   0.001983  -0.000032  -0.000027  -0.000003
    30  H   -0.000450  -0.005267  -0.000129  -0.000003  -0.000019  -0.000004
    31  H    0.668068  -0.038952   0.000305  -0.000238   0.005498   0.001159
    32  H   -0.038952   0.619180  -0.000118  -0.000217   0.000456   0.001567
    33  H    0.000305  -0.000118   0.497808  -0.028810   0.001808  -0.000030
    34  H   -0.000238  -0.000217  -0.028810   0.486575   0.000324   0.000012
    35  H    0.005498   0.000456   0.001808   0.000324   0.650495  -0.035399
    36  H    0.001159   0.001567  -0.000030   0.000012  -0.035399   0.653889
    37  H    0.000009  -0.000001   0.002153   0.006832  -0.004080   0.006443
    38  H   -0.000035   0.000001  -0.000037  -0.000236  -0.003231  -0.001991
    39  H   -0.000006   0.000013   0.000026   0.002019   0.005644  -0.002954
              37         38         39
     1  C   -0.000000   0.000000  -0.000002
     2  C    0.000001  -0.000000  -0.000015
     3  C   -0.000013  -0.000001   0.000033
     4  C   -0.000000   0.000000   0.000010
     5  C   -0.000004  -0.000000  -0.000002
     6  C    0.000021  -0.000000   0.000000
     7  C    0.000001   0.000000  -0.000000
     8  C   -0.000006   0.000002  -0.000003
     9  C    0.000257  -0.000089   0.000336
    10  C   -0.007611   0.002105  -0.003102
    11  N    0.008590   0.000762  -0.000040
    12  C   -0.035273  -0.021178  -0.028007
    13  C    0.365920   0.370739   0.376813
    14  O    0.000061   0.000064   0.005512
    15  H    0.000000  -0.000000  -0.000000
    16  H    0.000000  -0.000000   0.000001
    17  H   -0.000000   0.000000   0.000000
    18  H    0.000000  -0.000000   0.000114
    19  H   -0.000000   0.000000  -0.000000
    20  H   -0.000000   0.000000  -0.000000
    21  H    0.000000  -0.000000   0.000000
    22  H    0.000000   0.000000  -0.000000
    23  H   -0.000014  -0.000000   0.000039
    24  H   -0.000000   0.000000  -0.000000
    25  H   -0.000025   0.000000  -0.000002
    26  H   -0.000000  -0.000000  -0.000000
    27  H    0.000000   0.000000   0.000000
    28  H    0.000000   0.000000  -0.000000
    29  H   -0.000005   0.000000   0.000000
    30  H    0.000000  -0.000000   0.000000
    31  H    0.000009  -0.000035  -0.000006
    32  H   -0.000001   0.000001   0.000013
    33  H    0.002153  -0.000037   0.000026
    34  H    0.006832  -0.000236   0.002019
    35  H   -0.004080  -0.003231   0.005644
    36  H    0.006443  -0.001991  -0.002954
    37  H    0.625494  -0.032210  -0.034516
    38  H   -0.032210   0.605720  -0.029620
    39  H   -0.034516  -0.029620   0.578749
 Mulliken charges:
               1
     1  C   -0.388836
     2  C   -0.196820
     3  C    0.330893
     4  C   -0.421704
     5  C   -0.204121
     6  C   -0.165795
     7  C   -0.199679
     8  C   -0.182072
     9  C   -0.253573
    10  C    0.341615
    11  N   -0.505309
    12  C   -0.175468
    13  C   -0.399267
    14  O   -0.356465
    15  H    0.099108
    16  H    0.121819
    17  H    0.119412
    18  H    0.101933
    19  H    0.098346
    20  H    0.105612
    21  H    0.118016
    22  H    0.130638
    23  H    0.090425
    24  H    0.087219
    25  H    0.111138
    26  H    0.061961
    27  H    0.080183
    28  H    0.098673
    29  H    0.087776
    30  H    0.090396
    31  H    0.084611
    32  H    0.116495
    33  H    0.226619
    34  H    0.231187
    35  H    0.088155
    36  H    0.090703
    37  H    0.097979
    38  H    0.109236
    39  H    0.128962
 Sum of Mulliken charges =  -0.00000
 Mulliken charges with hydrogens summed into heavy atoms:
               1
     1  C   -0.048497
     2  C    0.003458
     3  C    0.330893
     4  C   -0.067438
     5  C   -0.026476
     6  C    0.007304
     7  C   -0.020823
     8  C   -0.003900
     9  C   -0.052468
    10  C    0.341615
    11  N   -0.047504
    12  C    0.003391
    13  C   -0.063090
    14  O   -0.356465
 Electronic spatial extent (au):  <R**2>=           2969.2765
 Charge=              0.0000 electrons
 Dipole moment (field-independent basis, Debye):
    X=              0.9818    Y=              0.4984    Z=             -0.2801  Tot=              1.1361
 Quadrupole moment (field-independent basis, Debye-Ang):
   XX=            -84.0330   YY=            -93.3178   ZZ=            -89.1788
   XY=              0.4476   XZ=              0.5085   YZ=             -1.0084
 Traceless Quadrupole moment (field-independent basis, Debye-Ang):
   XX=              4.8102   YY=             -4.4746   ZZ=             -0.3356
   XY=              0.4476   XZ=              0.5085   YZ=             -1.0084
 Octapole moment (field-independent basis, Debye-Ang**2):
  XXX=             17.3716  YYY=             -4.5311  ZZZ=              4.1107  XYY=              2.7840
  XXY=              3.6149  XXZ=              4.8871  XZZ=              5.0263  YZZ=             -2.8564
  YYZ=             -0.5091  XYZ=              1.4064
 Hexadecapole moment (field-independent basis, Debye-Ang**3):
 XXXX=          -1893.9835 YYYY=          -1482.5981 ZZZZ=           -642.6900 XXXY=             11.8524
 XXXZ=              3.5909 YYYX=              4.4181 YYYZ=             -1.6509 ZZZX=             13.3729
 ZZZY=             -3.6800 XXYY=           -569.8271 XXZZ=           -432.9384 YYZZ=           -357.4513
 XXYZ=              0.5361 YYXZ=             -3.7033 ZZXY=             -0.5478
[...]
 ,-0.00006303,0.00090782,0.00005344,0.00054818,-0.00000262,0.00000928,-
 0.00005873,-0.00012797,-0.00003578,-0.00016609,-0.00001786,0.00002705,
 0.00001554,0.00004279,-0.00005553,-0.00001410,-0.00005025,0.00033956,-
 0.00010771,0.00055031,-0.00084146,-0.00078232,0.00119078,0.00605990,-0
 .01217972,-0.00100688,0.00009871,0.00043038,-0.01404150,-0.10256305,0.
 10539401,-0.00540041,-0.01709919,0.02687812,0.00175970,0.00045370,-0.0
 0530364,-0.00001863,0.00001910,0.00003560,-0.00011003,0.00004287,-0.00
 002997,0.00001259,0.00001494,0.00006934,0.00000823,-0.00001035,-0.0000
 0766,-0.00003190,0.00007538,0.00000734,-0.00005638,-0.00002043,-0.0000
 0611,-0.00003916,-0.00000617,0.00002981,0.00000611,0.00000911,0.000002
 24,0.00000528,0.00000627,0.00000242,0.00002983,-0.00005295,-0.00006882
 ,-0.00000722,0.00000086,-0.00000960,-0.00000369,-0.00001232,-0.0000064
 2,-0.00000433,-0.00001382,-0.00000692,-0.00000079,0.00000148,0.0000027
 6,-0.00001350,0.00000273,0.00000175,-0.00003729,0.00002526,0.00000450,
 0.00054219,-0.00144524,-0.00137248,-0.00015816,-0.00001547,-0.00005891
 ,-0.00004648,0.00009519,0.00006421,0.00008512,-0.00006585,-0.00008109,
 0.01781065,0.11976832,0.00006753,0.00002165,0.00002969,-0.00004845,-0.
 00011752,-0.00007005,0.00182654,0.00009148,0.00178208,-0.00029298,0.00
 019839,0.00005636,-0.00035475,-0.00000327,-0.00034514,-0.00001484,0.00
 015104,-0.00005519,-0.00015912,0.00028307,-0.00008951,0.00001637,-0.00
 047919,0.00072469,-0.00006557,0.00158988,-0.00045973,-0.00218537,0.011
 31668,-0.01525237,-0.00028106,-0.00053084,0.00085405,0.02902711,0.1023
 2542,-0.23656098,-0.00144167,-0.00422227,0.00622722,0.00324230,-0.0017
 3356,-0.00620146,-0.00001377,0.00004477,-0.00005489,-0.00002285,-0.000
 12036,-0.00000010,-0.00001253,-0.00000691,0.00001643,-0.00000343,-0.00
 003766,0.00004427,-0.00003459,0.00006960,-0.00009089,-0.00003990,-0.00
 010975,-0.00006543,0.00011983,-0.00004386,-0.00004590,-0.00002165,-0.0
 0011669,-0.00006615,0.00004327,-0.00002161,0.00000075,0.00007829,-0.00
 013012,-0.00017465,-0.00004732,0.00003596,-0.00001375,0.00000580,-0.00
 008467,0.00001466,-0.00002134,-0.00001943,0.00015319,0.00002332,0.0000
 0505,0.00002882,-0.00003339,0.00004470,-0.00000228,0.00005168,-0.00010
 652,-0.00002982,0.00003071,-0.00124922,0.00133147,0.00004767,-0.000002
 17,-0.00013275,0.00069351,-0.00012857,0.00055114,-0.00017491,0.0000310
 9,0.00004927,-0.03167931,-0.11277250,0.25834128,0.00010307,0.00021583,
 0.00020142,-0.00004866,0.00002226,0.00016394,-0.00082600,-0.00011882,0
 .00017498,-0.00066735,0.00029149,-0.00013086,0.00007943,0.00011683,0.0
 0008998,-0.00010115,-0.00000921,-0.00009585,-0.00003669,-0.00002656,-0
 .00004804,0.00017413,0.00027127,0.00029165,-0.00009549,-0.00087805,-0.
 00020145,-0.01892244,0.00073670,-0.01172448,-0.00459160,0.00379257,0.0
 0316626,-0.24958014,0.01631762,-0.09956134,-0.00977919,0.00083439,-0.0
 0518522,0.00298098,-0.00063633,0.00001778,0.00002943,0.00002088,-0.000
 17923,-0.00012293,-0.00031169,-0.00009230,0.00006698,-0.00003964,0.000
 06630,0.00007563,0.00004379,-0.00003431,0.00004957,-0.00005935,-0.0000
 0504,0.00020419,-0.00015332,-0.00024783,0.00066927,-0.00025589,-0.0003
 8408,0.00004736,-0.00005836,-0.00009461,0.00006575,-0.00001414,-0.0000
 3478,-0.00000345,-0.00000023,0.00005310,0.00006058,-0.00002085,-0.0000
 9071,0.00003414,-0.00002024,0.00003669,0.00001640,-0.00001173,0.000021
 09,0.00004965,0.00005131,0.00005779,0.00017455,-0.00029446,-0.00003215
 ,0.00003200,0.00004553,0.00004591,-0.00002548,-0.00000494,0.00020533,0
 .00080685,0.00045756,0.00008168,0.00051213,-0.00064953,0.00030740,0.00
 034828,0.00017949,-0.00032680,0.00402737,-0.00030039,0.00181074,0.2730
 1238,0.00011981,0.00013763,0.00023642,-0.00012734,0.00003183,-0.000098
 73,0.00015024,0.00033556,0.00000210,0.00017553,-0.00026673,-0.00018363
 ,-0.00001722,-0.00006115,0.00003205,0.00005349,0.00001313,0.00002125,0
 .00001433,0.00004240,-0.00001138,-0.00029349,0.00004803,-0.00009231,-0
 .00004841,0.00033503,0.00035802,0.01459251,-0.00110473,0.00952852,0.00
 437258,-0.00166900,-0.00221629,0.01717282,-0.04753919,0.00840882,-0.02
 853801,0.00017953,-0.01568701,-0.00152529,0.00011860,0.00079621,0.0000
 0271,-0.00001894,-0.00011301,-0.00014710,-0.00021514,-0.00002872,-0.00
 000442,0.00000894,0.00003571,0.00001424,-0.00003761,-0.00000082,0.0000
 2954,-0.00001726,-0.00004274,-0.00008266,0.00003117,0.00009712,-0.0002
 0314,0.00037381,-0.00027487,0.00001511,-0.00004987,-0.00006231,-0.0000
 2826,0.00000433,0.00001431,-0.00000794,0.00000524,-0.00001795,-0.00002
 367,0.00000840,0.00006276,-0.00001216,-0.00001106,-0.00001902,-0.00000
 255,-0.00000567,0.00001123,-0.00001388,-0.00002083,-0.00002050,-0.0000
 3128,0.00022142,0.00006114,-0.00001238,-0.00000857,-0.00000500,0.00013
 474,-0.00002340,-0.00009745,0.00000561,-0.00069833,-0.00050858,-0.0005
 6066,0.00030707,-0.00038510,0.00017363,-0.00038041,-0.00016974,0.01387
 685,-0.00156208,0.00641750,-0.01740904,0.05475549,0.00002507,0.0000220
 7,-0.00009206,0.00001922,0.00004670,-0.00003388,0.00002905,-0.00007477
 ,-0.00026944,0.00019396,-0.00033317,-0.00079351,-0.00001773,-0.0000402
 8,0.00002380,0.00000980,0.00000508,0.00003326,-0.00001020,0.00001492,0
 .00001362,0.00007782,0.00018171,-0.00001328,-0.00029267,0.00064665,0.0
 0004099,0.01679801,-0.00109574,0.00631200,0.00455482,-0.00267801,-0.00
 100922,-0.10123349,0.00963272,-0.09696567,-0.00520809,-0.00053401,-0.0
 0320981,-0.00077961,-0.00008056,0.00232255,-0.00000973,-0.00001504,0.0
 0001930,-0.00005856,0.00012802,-0.00004081,-0.00000672,0.00002866,0.00
 000404,-0.00000365,-0.00001248,-0.00000439,-0.00000308,-0.00000405,0.0
 0001962,-0.00001802,0.00005612,0.00004354,-0.00051236,-0.00029447,-0.0
 0087720,-0.00004501,0.00005939,0.00008033,-0.00002147,0.00001074,0.000
 01219,-0.00000990,0.00001238,0.00000499,0.00001314,-0.00000296,0.00004
 675,-0.00001122,0.00001331,-0.00000947,-0.00000908,0.00000864,0.000002
 11,-0.00001174,-0.00000941,-0.00001414,0.00004998,0.00008624,0.0000088
 9,-0.00004406,0.00004386,0.00000600,-0.00015607,-0.00010639,0.00008307
 ,0.00009767,-0.00022178,0.00031171,0.00018854,-0.00002338,0.00005238,-
 0.00013220,-0.00006836,0.00008656,-0.02539529,0.00242021,-0.01251635,0
 .11158520,-0.00570542,0.10488343,0.00009599,0.00000980,0.00008307,-0.0
 0001454,-0.00001159,-0.00002050,-0.00001466,-0.00004577,0.00012187,-0.
 00008106,0.00006256,0.00003156,0.00000193,0.00001382,-0.00000105,-0.00
 002681,-0.00000214,-0.00001435,0.00001709,-0.00001260,0.00000642,-0.00
 008312,0.00001149,0.00004214,0.00004807,-0.00006796,-0.00025369,-0.001
 54560,0.00049339,0.00058565,0.00055388,0.00128940,0.00109623,-0.010081
 61,-0.00064532,-0.00658416,-0.21853768,0.00896702,-0.12216375,0.000139
 43,0.00002397,-0.00009980,0.00000650,0.00001091,-0.00001086,-0.0001404
 2,-0.00003626,-0.00003261,0.00002249,-0.00000069,0.00005093,0.00001799
 ,0.00000305,-0.00000477,0.00000060,0.00000063,-0.00000884,0.00001641,-
 0.00001439,-0.00004245,0.00008580,-0.00002676,0.00001328,0.00001137,-0
 .00000259,-0.00000709,0.00001632,0.00000126,-0.00001080,0.00000411,-0.
 00000634,-0.00000037,0.00000650,0.00000651,0.00000233,0.00001189,-0.00
 000677,-0.00000380,0.00001126,-0.00000989,-0.00001529,0.00000506,0.000
 01146,0.00001116,0.00006769,-0.00001561,0.00000227,0.00002300,-0.00003
 182,-0.00000415,-0.00001215,0.00000955,-0.00000418,0.00009964,0.000010
 38,0.00004145,-0.00006979,-0.00021642,0.00011486,0.00001128,0.00085689
 ,0.00000660,0.00044856,-0.00005647,0.00036234,0.00017806,-0.00272649,0
 .00000281,0.23991735,0.00003837,0.00004728,-0.00024211,0.00008173,-0.0
 0004505,0.00006367,-0.00010956,-0.00013419,-0.00000344,-0.00012316,0.0
 0010291,0.00003730,0.00001805,0.00004379,-0.00002208,-0.00004016,-0.00
 001150,-0.00000786,-0.00000824,-0.00001437,-0.00000252,0.00009443,0.00
 001429,0.00006445,0.00002350,0.00002510,0.00002411,-0.00162435,0.00108
 311,-0.00006951,0.00066819,0.00050289,0.00039792,-0.02677591,0.0016725
 7,-0.01822475,0.00989598,-0.04675253,0.00815904,0.00023165,0.00009967,
 0.00004271,0.00001074,0.00000391,0.00003974,-0.00008149,-0.00010056,0.
 00005084,0.00003483,-0.00000063,0.00011122,0.00000131,0.00001948,-0.00
 001559,-0.00003094,0.00003473,0.00003365,0.00004237,-0.00003377,-0.000
 06161,0.00012395,-0.00007091,0.00002947,0.00001064,0.00001039,-0.00001
 213,0.00001963,-0.00000492,-0.00000994,0.00000495,0.00000185,0.0000159
 9,0.00002915,-0.00000272,-0.00002504,0.00000782,0.00001122,0.00001415,
 0.00000352,0.00000307,-0.00000358,0.00001091,0.00001061,0.00001292,0.0
 0005155,-0.00010617,-0.00001710,0.00002599,0.00001292,0.00001104,-0.00
 005628,-0.00000266,0.00003003,0.00016562,0.00016636,0.00006346,0.00044
 927,-0.00081272,0.00011399,0.00084696,-0.00057342,-0.00064416,0.000468
 84,0.00170336,0.00051111,-0.00196433,-0.00591464,-0.00170139,-0.008987
 75,0.05179414,-0.00014437,0.00006307,0.00041918,-0.00012351,0.00006481
 ,0.00004330,0.00000762,0.00005459,-0.00001174,0.00000124,0.00001968,0.
 00004796,-0.00002136,-0.00001929,-0.00000213,-0.00005716,-0.00000697,-
 0.00005404,0.00002245,-0.00002436,-0.00001776,-0.00004985,0.00001112,-
 0.00002876,0.00023704,-0.00015580,0.00003193,-0.00223629,0.00065130,-0
 .00069151,0.00030315,0.00098921,0.00117432,-0.00339046,0.00042314,-0.0
 0357819,-0.12250202,0.00714996,-0.13402547,0.00054891,-0.00069448,-0.0
 0007401,-0.00000777,0.00000593,-0.00013233,0.00022023,-0.00013963,-0.0
 0011327,-0.00002833,-0.00001750,-0.00017604,0.00001781,0.00000019,0.00
 001108,0.00005399,-0.00006435,-0.00004842,0.00002163,0.00000211,0.0000
 0578,0.00004674,0.00001742,-0.00000401,-0.00000555,-0.00003006,-0.0000
 1331,0.00000055,0.00000064,-0.00000712,0.00002565,-0.00001383,-0.00000
 146,0.00002644,0.00000097,-0.00002380,0.00001955,-0.00000966,0.0000200
 7,0.00000285,-0.00000731,0.00000081,0.00001661,0.00001613,0.00002351,0
 .00006073,-0.00009235,0.00000527,0.00003653,0.00000111,0.00001325,-0.0
 0002615,0.00001292,-0.00000549,0.00011162,0.00011611,0.00001053,0.0000
 8707,-0.00046542,0.00018709,0.00104806,-0.00045186,-0.00106146,0.00059
 018,-0.00038073,0.00084064,-0.00005415,-0.00096523,0.00101604,0.135448
 78,-0.00705872,0.14170934,0.00005115,-0.00003413,-0.00001436,-0.000040
 10,-0.00000779,-0.00002495,0.00001802,0.00000714,-0.00013209,0.0000216
 4,-0.00000980,0.00002897,0.00000424,0.00000173,0.00000533,-0.00003666,
 -0.00001831,-0.00001184,0.00001322,-0.00001792,0.00001473,-0.00018471,
 -0.00016944,0.00002596,0.00059320,-0.00026763,-0.00046217,-0.00245054,
 -0.00279702,-0.00032244,0.00027124,0.00090860,0.00085714,0.00927185,-0
 .00901231,-0.00811039,-0.17208176,0.09949066,0.08876802,0.00011810,0.0
 0027518,0.00020515,-0.00000135,-0.00001232,0.00003285,-0.00005128,0.00
 006193,0.00005012,0.00001139,0.00000009,0.00001482,0.00001594,0.000006
 59,-0.00002088,0.00001325,-0.00000080,0.00001423,0.00000948,0.00000976
 ,0.00001228,-0.00001300,0.00000297,-0.00000809,0.00000279,0.00000850,0
 .00000205,-0.00000339,0.00000269,-0.00000483,0.00000658,0.00000380,0.0
 0001316,0.00002398,-0.00000173,-0.00001404,0.00000489,0.00001329,0.000
 01346,-0.00000040,0.00000921,-0.00000980,0.00000573,0.00000303,0.00000
 615,0.00004073,-0.00004281,0.00000875,0.00007073,-0.00005655,-0.000010
 47,0.00001145,0.00000368,0.00004045,0.00001682,0.00003533,-0.00001387,
 0.00006100,-0.00026807,0.00011637,0.00058995,0.00010012,-0.00042918,0.
 00020194,0.00073876,0.00015395,0.00102828,0.00055769,-0.00000243,-0.01
 842317,0.01355422,0.01342822,0.18610732,0.00000872,0.00000246,-0.00004
 039,-0.00003257,-0.00007895,-0.00006912,0.00021149,0.00010232,0.000359
 77,-0.00000083,-0.00001684,-0.00005927,-0.00001707,-0.00001217,-0.0000
 0769,-0.00001446,-0.00000525,0.00002211,0.00003433,-0.00003502,0.00008
 318,-0.00051929,-0.00038592,0.00016081,0.00147321,-0.00069953,-0.00127
 735,-0.00438678,-0.00469717,0.00175239,-0.00048535,0.00012719,-0.00018
 815,0.02187721,-0.01720566,-0.01589405,0.09845224,-0.12146100,-0.06777
 033,0.00000517,0.00081937,-0.00030806,-0.00001153,0.00001690,0.0000125
 1,-0.00001608,0.00003145,-0.00005577,-0.00000119,-0.00000975,0.0000037
 4,0.00001208,-0.00000133,-0.00000765,-0.00000573,0.00004437,-0.0000128
 5,-0.00001843,0.00000729,-0.00002973,0.00001024,-0.00000896,0.00002066
 ,0.00001629,0.00003025,0.00002574,0.00000539,0.00001794,-0.00001208,0.
 00000009,-0.00001259,-0.00002516,-0.00002302,0.00000929,0.00001524,0.0
 0001012,0.00000394,-0.00002772,0.00001806,-0.00000683,-0.00005947,-0.0
 0001663,0.00000257,-0.00002165,0.00001681,0.00003423,0.00000524,0.0001
 1687,-0.00021979,-0.00009424,0.00006643,0.00002309,0.00004198,-0.00006
 242,-0.00002162,-0.00002580,-0.00006277,0.00014502,0.00000516,0.000029
 85,0.00003980,0.00012514,0.00028241,0.00070456,0.00075437,-0.00021321,
 0.00160795,-0.00008369,0.00115470,-0.00146624,-0.00026904,-0.10638807,
 0.13387156,-0.00014625,0.00005493,-0.00013971,0.00010732,-0.00001623,0
 .00011325,0.00019106,-0.00006094,0.00059045,0.00000061,-0.00001537,-0.
 00010705,-0.00004014,0.00000669,-0.00005615,-0.00001839,0.00001675,0.0
 0000408,0.00002116,-0.00000010,0.00002037,-0.00015269,-0.00005187,0.00
 004371,0.00037558,-0.00014453,-0.00025749,-0.00152380,-0.00027521,-0.0
 0019775,0.00018971,0.00063356,0.00061264,0.00361611,-0.00248912,-0.003
 66378,0.08820242,-0.06794577,-0.10744202,-0.00007377,-0.00104002,-0.00
 012019,-0.00001235,0.00002392,-0.00001120,0.00026683,-0.00014958,-0.00
 000965,-0.00003362,-0.00000262,-0.00005011,-0.00006317,-0.00000222,0.0
 0005330,-0.00006089,0.00003947,-0.00001795,-0.00004094,-0.00000864,-0.
 00002249,-0.00000116,-0.00001479,0.00000970,-0.00000680,0.00000956,0.0
 0001638,0.00000539,0.00000335,-0.00000463,0.00000812,-0.00002278,-0.00
 003732,-0.00001519,0.00001116,-0.00000222,0.00000613,-0.00000674,-0.00
 001245,0.00000585,-0.00000981,-0.00001805,-0.00000806,0.00000184,-0.00
 000391,0.00002142,-0.00000054,0.00000132,0.00003876,-0.00005261,-0.000
 01567,-0.00001286,0.00000144,0.00002655,-0.00000293,-0.00000849,-0.000
 01044,0.00002149,-0.00028783,0.00008057,-0.00000496,0.00014260,-0.0003
 9054,-0.00036863,-0.00011512,0.00036661,0.00002742,0.00004368,0.000010
 81,-0.01364083,0.01107160,0.00949803,-0.09626175,0.07643324,0.11350884
 ,0.00019563,-0.00005135,-0.00093073,0.00034917,-0.00011485,0.00002645,
 0.00020350,-0.00022289,0.00033563,-0.00001207,-0.00000066,-0.00009693,
 -0.00003750,0.00004470,-0.00008628,0.00000723,0.00000051,0.00004163,0.
 00001254,-0.00001567,0.00002898,-0.00002880,0.00001335,-0.00001824,0.0
 0006473,-0.00001365,0.00006475,0.00015889,0.00029614,0.00059108,0.0002
 3389,-0.00000346,-0.00006671,-0.00270279,-0.00541644,0.01025180,-0.063
 12907,-0.02905428,0.05286710,-0.00045406,0.00102214,-0.00040018,0.0000
 1821,0.00000168,0.00019396,-0.00070818,0.00019688,-0.00050959,0.000009
 92,0.00001954,0.00029813,-0.00009651,0.00001555,0.00006585,-0.00014275
 ,0.00011557,0.00006294,-0.00003038,-0.00001775,-0.00003703,-0.00002589
 ,-0.00005539,0.00003271,-0.00000294,0.00004969,0.00002647,0.00001110,0
 .00000235,0.00000075,-0.00000334,-0.00001167,-0.00002272,-0.00001621,0
 .00001135,0.00000285,-0.00000809,0.00001493,-0.00001655,0.00000359,0.0
 0000128,-0.00002574,-0.00001336,-0.00000720,-0.00001310,0.00000137,0.0
 0001165,-0.00000585,0.00000377,-0.00001945,-0.00001422,-0.00000996,0.0
 0003571,-0.00010625,-0.00003488,-0.00003146,0.00003084,-0.00002453,-0.
 00013442,0.00002849,-0.00023376,0.00018847,-0.00007914,-0.00004645,-0.
 00222271,-0.00065215,-0.00002590,0.00035397,0.00034731,0.00721235,0.01
 288802,-0.02373668,-0.00529852,-0.01152631,0.01938380,0.06460003,0.000
 13477,-0.00019366,-0.00001460,-0.00001800,-0.00003333,-0.00022253,-0.0
 0029804,0.00016229,-0.00107780,-0.00004445,0.00000666,0.00019213,0.000
 12522,0.00003592,0.00012405,0.00000149,-0.00007025,0.00002697,0.000025
 21,-0.00010051,0.00003425,0.00001589,0.00007527,-0.00016636,0.00000029
 ,-0.00013670,-0.00010239,-0.00061644,0.00038125,0.00328769,0.00052396,
 -0.00010252,-0.00047787,-0.00649137,-0.01595058,0.02703724,-0.02837488
 ,-0.10253627,0.10519398,0.00035147,0.00155130,-0.00040658,0.00006053,-
 0.00005336,0.00019969,-0.00025546,0.00070787,0.00018806,0.00008188,-0.
 00003981,0.00011522,0.00004140,0.00001842,-0.00008580,0.00001258,0.000
 00403,0.00007363,0.00008662,0.00002937,-0.00000586,0.00001335,-0.00005
 253,-0.00000227,0.00002176,0.00005266,0.00001099,-0.00000364,0.0000078
 6,0.00000014,-0.00003936,0.00005304,0.00008818,0.00003456,-0.00001465,
 0.00000789,-0.00000529,0.00004379,0.00000466,0.00000606,0.00001793,-0.
 00004601,-0.00000167,-0.00000188,-0.00000932,0.00002039,-0.00002808,-0
 .00000469,0.00000019,0.00003182,0.00000212,0.00005413,0.00030580,-0.00
 034444,0.00000847,0.00002061,0.00007823,-0.00023262,0.00018349,-0.0001
 1402,0.00041807,-0.00025931,0.00029050,-0.00264256,-0.00559338,-0.0018
 5510,0.00005280,0.00103905,-0.00033204,-0.00001317,-0.00131666,0.00126
 615,0.00330975,0.00870308,-0.01577288,0.03363613,0.11305196,-0.0003867
 2,-0.00004022,-0.00050425,-0.00004893,-0.00006093,-0.00008159,-0.00023
 365,-0.00009037,-0.00039360,0.00002170,-0.00001901,0.00001947,0.000048
 91,0.00000381,0.00003775,0.00000261,-0.00000708,0.00000859,-0.00000334
 ,-0.00000959,-0.00001737,0.00006310,0.00004939,-0.00005933,-0.00025245
 ,0.00018376,-0.00009674,0.00139714,0.00016143,-0.00058272,-0.00012899,
 0.00018860,0.00009632,-0.00169725,-0.00122508,0.00716609,0.05305492,0.
 10708248,-0.24095257,0.00000754,-0.00177291,-0.00032594,0.00001711,0.0
 0000975,-0.00000221,-0.00080394,0.00040690,-0.00083684,-0.00002301,-0.
 00003933,-0.00002773,0.00006365,-0.00002196,-0.00006808,0.00005523,0.0
 0001458,0.00000346,0.00001195,0.00001364,0.00001792,-0.00001457,0.0000
 1435,-0.00000342,-0.00000011,-0.00000965,-0.00000211,-0.00000682,-0.00
 000951,0.00000950,-0.00000786,0.00001735,0.00002808,0.00001295,-0.0000
 0450,-0.00000596,-0.00000499,0.00000760,0.00001007,-0.00000317,0.00000
 558,0.00000653,0.00000249,-0.00000262,0.00000393,-0.00000615,0.0000049
 4,0.00000091,-0.00002360,0.00003746,0.00001656,0.00000347,0.00014360,0
 .00004012,-0.00002040,-0.00002648,0.00000785,0.00000064,-0.00018652,0.
 00001240,-0.00013804,0.00016635,-0.00003878,-0.00015557,-0.00212463,0.
 00081475,0.00011856,0.00057895,0.00041127,0.00489959,0.00722312,-0.014
 98782,0.00204144,0.00651794,-0.01236584,-0.05786345,-0.11718120,0.2626
 4136\\-0.00000108,0.00000027,0.00000036,-0.00000112,0.00000027,0.00000
 031,-0.00000523,0.00000034,0.00000171,0.00000221,0.00000154,0.00000149
 ,-0.00000050,-0.00000046,-0.00000179,-0.00000085,-0.00000020,0.0000012
 0,0.00000009,0.00000134,-0.00000052,0.00000125,-0.00000194,-0.00000052
 ,0.00000205,-0.00000064,0.00000057,0.00000360,-0.00000238,0.00000393,-
 0.00000318,0.00000416,-0.00000620,-0.00000032,-0.00000153,-0.00000257,
 0.00000191,0.00000090,0.00000040,0.00000336,0.00000120,-0.00000201,-0.
 00000162,0.00000029,0.00000088,-0.00000002,-0.00000040,0.00000149,-0.0
 0000072,0.00000009,0.00000123,-0.00000092,-0.00000003,-0.00000017,-0.0
 0000234,0.00000028,0.00000056,-0.00000163,-0.00000068,0.00000088,0.000
 00014,-0.00000060,0.00000288,-0.00000072,0.00000020,0.00000097,-0.0000
 0188,0.00000046,0.,-0.00000063,0.00000012,-0.00000055,0.00000029,0.000
 00157,-0.00000068,0.00000015,0.00000002,0.00000012,-0.00000060,-0.0000
 0002,-0.00000138,-0.00000021,0.00000026,0.00000024,0.00000091,0.000000
 20,-0.00000089,0.00000087,-0.00000019,-0.00000032,0.00000140,0.0000002
 0,0.00000064,-0.00000022,-0.00000078,0.00000037,0.00000153,-0.00000225
 ,-0.00000218,0.00000128,-0.00000054,0.00000081,0.00000168,0.00000007,-
 0.00000009,-0.00000095,-0.00000061,-0.00000029,0.00000073,-0.00000032,
 0.00000003,0.00000132,0.00000002,0.00000026,-0.00000002,-0.00000026,-0
 .00000115\\\@


 You never know when you're making a memory.
                        -- Rickie Lee Jones
 Job cpu time:       0 days 14 hours 34 minutes 45.1 seconds.
 Elapsed time:       0 days  3 hours 38 minutes 43.2 seconds.
 File lengths (MBytes):  RWF=    735 Int=      0 D2E=      0 Chk=     23 Scr=      1
 Normal termination of Gaussian 16 at Tue May 23 00:32:02 2023.
### All Done ###
