### Starting Gaussian ###
 Entering Gaussian System, Link 0=g16
 Initial command:
 /cluster/software/gaussian/gaussian-16-A.03/avx2/g16/l1.exe "/local/scratch/linjian/Gau-14151.inp" -scrdir="/local/scratch/linjian/"
 Entering Link 1 = /cluster/software/gaussian/gaussian-16-A.03/avx2/g16/l1.exe PID=     14152.
  
 Copyright (c) 1988,1990,1992,1993,1995,1998,2003,2009,2016,
            Gaussian, Inc.  All Rights Reserved.
  
 This is part of the Gaussian(R) 16 program.  It is based on
 the Gaussian(R) 09 system (copyright 2009, Gaussian, Inc.),
 the Gaussian(R) 03 system (copyright 2003, Gaussian, Inc.),
 the Gaussian(R) 98 system (copyright 1998, Gaussian, Inc.),
 the Gaussian(R) 94 system (copyright 1995, Gaussian, Inc.),
 the Gaussian 92(TM) system (copyright 1992, Gaussian, Inc.),
 the Gaussian 90(TM) system (copyright 1990, Gaussian, Inc.),
 the Gaussian 88(TM) system (copyright 1988, Gaussian, Inc.),
 the Gaussian 86(TM) system (copyright 1986, Carnegie Mellon
 University), and the Gaussian 82(TM) system (copyright 1983,
 Carnegie Mellon University). Gaussian is a federally registered
 trademark of Gaussian, Inc.
  
 This software contains proprietary and confidential information,
 including trade secrets, belonging to Gaussian, Inc.
  
 This software is provided under written license and may be
 used, copied, transmitted, or stored only in accord with that
 written license.
  
 The following legend is applicable only to US Government
 contracts under FAR:
  
                    RESTRICTED RIGHTS LEGEND
  
 Use, reproduction and disclosure by the US Government is
 subject to restrictions as set forth in subparagraphs (a)
 and (c) of the Commercial Computer Software - Restricted
 Rights clause in FAR 52.227-19.
  
 Gaussian, Inc.
 340 Quinnipiac St., Bldg. 40, Wallingford CT 06492
  
  
 ---------------------------------------------------------------
 Warning -- This program may not be used in any manner that
 competes with the business of Gaussian, Inc. or will provide
 assistance to any competitor of Gaussian, Inc.  The licensee
 of this program is prohibited from giving any competitor of
 Gaussian, Inc. access to this program.  By using this program,
 the user acknowledges that Gaussian, Inc. is engaged in the
 business of creating and licensing software in the field of
 computational chemistry and represents and warrants to the
 licensee that it is not a competitor of Gaussian, Inc. and that
 it will not use this program in any manner prohibited above.
 ---------------------------------------------------------------
  

 Cite this work as:
 Gaussian 16, Revision A.03,
 M. J. Frisch, G. W. Trucks, H. B. Schlegel, G. E. Scuseria, 
 M. A. Robb, J. R. Cheeseman, G. Scalmani, V. Barone, 
 G. A. Petersson, H. Nakatsuji, X. Li, M. Caricato, A. V. Marenich, 
 J. Bloino, B. G. Janesko, R. Gomperts, B. Mennucci, H. P. Hratchian, 
 J. V. Ortiz, A. F. Izmaylov, J. L. Sonnenberg, D. Williams-Young, 
 F. Ding, F. Lipparini, F. Egidi, J. Goings, B. Peng, A. Petrone, 
 T. Henderson, D. Ranasinghe, V. G. Zakrzewski, J. Gao, N. Rega, 
 G. Zheng, W. Liang, M. Hada, M. Ehara, K. Toyota, R. Fukuda, 
 J. Hasegawa, M. Ishida, T. Nakajima, Y. Honda, O. Kitao, H. Nakai, 
 T. Vreven, K. Throssell, J. A. Montgomery, Jr., J. E. Peralta, 
 F. Ogliaro, M. J. Bearpark, J. J. Heyd, E. N. Brothers, K. N. Kudin, 
 V. N. Staroverov, T. A. Keith, R. Kobayashi, J. Normand, 
 K. Raghavachari, A. P. Rendell, J. C. Burant, S. S. Iyengar, 
 J. Tomasi, M. Cossi, J. M. Millam, M. Klene, C. Adamo, R. Cammi, 
 J. W. Ochterski, R. L. Martin, K. Morokuma, O. Farkas, 
 J. B. Foresman, and D. J. Fox, Gaussian, Inc., Wallingford CT, 2016.
 
 ******************************************
 Gaussian 16:  ES64L-G16RevA.03 25-Dec-2016
                28-May-2023 
 ******************************************
 %chk=CCC1qCrCCCqCrC1.chk
 %NProcShared=20
 Will use up to   20 processors via shared memory.
 -----------------------------
 # opt freq b3lyp/6-31g(2df,p)
 -----------------------------
 1/18=20,19=15,26=3,38=1/1,3;
 2/9=110,12=2,17=6,18=5,40=1/2;
 3/5=1,6=6,7=104,11=2,25=1,30=1,71=1,74=-5/1,2,3;
 4//1;
 5/5=2,38=5/2;
 6/7=2,8=2,9=2,10=2,28=1/1;
 7//1,2,3,16;
 1/18=20,19=15,26=3/3(2);
 2/9=110/2;
 99//99;
 2/9=110/2;
 3/5=1,6=6,7=104,11=2,25=1,30=1,71=1,74=-5/1,2,3;
 4/5=5,16=3,69=1/1;
 5/5=2,38=5/2;
 7//1,2,3,16;
 1/18=20,19=15,26=3/3(-5);
 2/9=110/2;
 6/7=2,8=2,9=2,10=2,19=2,28=1/1;
 99/9=1/99;
 -------------------
 Title Card Required
 -------------------
 Symbolic Z-matrix:
 Charge =  0 Multiplicity = 1
 C                     0.97767   0.01164  -0.21676 
 C                     2.49115  -0.0521   -0.04689 
 C                     2.98669  -1.03974   1.04141 
 C                     4.36555  -0.55686   1.54147 
 C                     2.00695  -1.21043   2.21763 
 C                     2.33268  -2.56683   2.8132 
 C                     2.70602  -3.43509   1.61017 
 C                     3.79217  -4.43682   1.9735 
 C                     3.1303   -2.47469   0.48641 
 H                     0.70772   0.65825  -1.05555 
 H                     0.50755   0.4403    0.67571 
 H                     0.55355  -0.981    -0.39668 
 H                     2.83896   0.96355   0.17873 
 H                     2.94224  -0.31808  -1.01232 
 H                     4.29723   0.45032   1.96863 
 H                     5.09058  -0.51925   0.72 
 H                     4.77934  -1.21366   2.31393 
 H                     0.966    -1.25698   1.89279 
 H                     2.08679  -0.40317   2.95488 
 H                     1.46373  -2.97985   3.34131 
 H                     3.14823  -2.48556   3.535 
 H                     1.82135  -3.98746   1.27173 
 H                     4.69574  -3.92801   2.32396 
 H                     4.06196  -5.0508    1.10835 
 H                     3.44696  -5.1019    2.77169 
 H                     2.47303  -2.63024  -0.37842 
 H                     4.14959  -2.67652   0.1344 
 

 GradGradGradGradGradGradGradGradGradGradGradGradGradGradGradGradGradGrad
 Berny optimization.
 Initialization pass.
                           ----------------------------
                           !    Initial Parameters    !
                           ! (Angstroms and Degrees)  !
 --------------------------                            --------------------------
 ! Name  Definition              Value          Derivative Info.                !
 --------------------------------------------------------------------------------
 ! R1    R(1,2)                  1.5243         estimate D2E/DX2                !
 ! R2    R(1,10)                 1.093          estimate D2E/DX2                !
 ! R3    R(1,11)                 1.096          estimate D2E/DX2                !
 ! R4    R(1,12)                 1.0943         estimate D2E/DX2                !
 ! R5    R(2,3)                  1.5509         estimate D2E/DX2                !
 ! R6    R(2,13)                 1.097          estimate D2E/DX2                !
 ! R7    R(2,14)                 1.0983         estimate D2E/DX2                !
 ! R8    R(3,4)                  1.5442         estimate D2E/DX2                !
 ! R9    R(3,5)                  1.5403         estimate D2E/DX2                !
 ! R10   R(3,9)                  1.5452         estimate D2E/DX2                !
 ! R11   R(4,15)                 1.0962         estimate D2E/DX2                !
 ! R12   R(4,16)                 1.0963         estimate D2E/DX2                !
 ! R13   R(4,17)                 1.0951         estimate D2E/DX2                !
 ! R14   R(5,6)                  1.5168         estimate D2E/DX2                !
 ! R15   R(5,18)                 1.0915         estimate D2E/DX2                !
 ! R16   R(5,19)                 1.0962         estimate D2E/DX2                !
 ! R17   R(6,7)                  1.5299         estimate D2E/DX2                !
 ! R18   R(6,20)                 1.0975         estimate D2E/DX2                !
 ! R19   R(6,21)                 1.0921         estimate D2E/DX2                !
 ! R20   R(7,8)                  1.5216         estimate D2E/DX2                !
 ! R21   R(7,9)                  1.5379         estimate D2E/DX2                !
 ! R22   R(7,22)                 1.0965         estimate D2E/DX2                !
 ! R23   R(8,23)                 1.0946         estimate D2E/DX2                !
 ! R24   R(8,24)                 1.0946         estimate D2E/DX2                !
 ! R25   R(8,25)                 1.0948         estimate D2E/DX2                !
 ! R26   R(9,26)                 1.0973         estimate D2E/DX2                !
 ! R27   R(9,27)                 1.0971         estimate D2E/DX2                !
 ! A1    A(2,1,10)             110.8241         estimate D2E/DX2                !
 ! A2    A(2,1,11)             110.5787         estimate D2E/DX2                !
 ! A3    A(2,1,12)             111.4196         estimate D2E/DX2                !
 ! A4    A(10,1,11)            106.714          estimate D2E/DX2                !
 ! A5    A(10,1,12)            108.3449         estimate D2E/DX2                !
 ! A6    A(11,1,12)            108.808          estimate D2E/DX2                !
 ! A7    A(1,2,3)              114.9651         estimate D2E/DX2                !
 ! A8    A(1,2,13)             107.3979         estimate D2E/DX2                !
 ! A9    A(1,2,14)             108.6607         estimate D2E/DX2                !
 ! A10   A(3,2,13)             110.1181         estimate D2E/DX2                !
 ! A11   A(3,2,14)             109.3518         estimate D2E/DX2                !
 ! A12   A(13,2,14)            105.9489         estimate D2E/DX2                !
 ! A13   A(2,3,4)              108.2647         estimate D2E/DX2                !
 ! A14   A(2,3,5)              113.7772         estimate D2E/DX2                !
 ! A15   A(2,3,9)              111.6552         estimate D2E/DX2                !
 ! A16   A(4,3,5)              110.8141         estimate D2E/DX2                !
 ! A17   A(4,3,9)              108.8879         estimate D2E/DX2                !
 ! A18   A(5,3,9)              103.3254         estimate D2E/DX2                !
 ! A19   A(3,4,15)             110.9694         estimate D2E/DX2                !
 ! A20   A(3,4,16)             111.0149         estimate D2E/DX2                !
 ! A21   A(3,4,17)             112.2265         estimate D2E/DX2                !
 ! A22   A(15,4,16)            107.5594         estimate D2E/DX2                !
 ! A23   A(15,4,17)            107.4423         estimate D2E/DX2                !
 ! A24   A(16,4,17)            107.4108         estimate D2E/DX2                !
 ! A25   A(3,5,6)              105.2092         estimate D2E/DX2                !
 ! A26   A(3,5,18)             112.5875         estimate D2E/DX2                !
 ! A27   A(3,5,19)             112.6846         estimate D2E/DX2                !
 ! A28   A(6,5,18)             106.4714         estimate D2E/DX2                !
 ! A29   A(6,5,19)             112.2619         estimate D2E/DX2                !
 ! A30   A(18,5,19)            107.5205         estimate D2E/DX2                !
 ! A31   A(5,6,7)              104.5465         estimate D2E/DX2                !
 ! A32   A(5,6,20)             110.8205         estimate D2E/DX2                !
 ! A33   A(5,6,21)             110.6913         estimate D2E/DX2                !
 ! A34   A(7,6,20)             110.9784         estimate D2E/DX2                !
 ! A35   A(7,6,21)             112.3161         estimate D2E/DX2                !
 ! A36   A(20,6,21)            107.5308         estimate D2E/DX2                !
 ! A37   A(6,7,8)              111.1041         estimate D2E/DX2                !
 ! A38   A(6,7,9)              106.7083         estimate D2E/DX2                !
 ! A39   A(6,7,22)             109.3736         estimate D2E/DX2                !
 ! A40   A(8,7,9)              112.872          estimate D2E/DX2                !
 ! A41   A(8,7,22)             108.5411         estimate D2E/DX2                !
 ! A42   A(9,7,22)             108.1578         estimate D2E/DX2                !
 ! A43   A(7,8,23)             111.0806         estimate D2E/DX2                !
 ! A44   A(7,8,24)             110.8839         estimate D2E/DX2                !
 ! A45   A(7,8,25)             110.4229         estimate D2E/DX2                !
 ! A46   A(23,8,24)            108.0786         estimate D2E/DX2                !
 ! A47   A(23,8,25)            108.0135         estimate D2E/DX2                !
 ! A48   A(24,8,25)            108.252          estimate D2E/DX2                !
 ! A49   A(3,9,7)              106.9673         estimate D2E/DX2                !
 ! A50   A(3,9,26)             111.0412         estimate D2E/DX2                !
 ! A51   A(3,9,27)             111.8656         estimate D2E/DX2                !
 ! A52   A(7,9,26)             108.7909         estimate D2E/DX2                !
 ! A53   A(7,9,27)             112.0788         estimate D2E/DX2                !
 ! A54   A(26,9,27)            106.1137         estimate D2E/DX2                !
 ! D1    D(10,1,2,3)          -175.0182         estimate D2E/DX2                !
 ! D2    D(10,1,2,13)           62.0612         estimate D2E/DX2                !
 ! D3    D(10,1,2,14)          -52.128          estimate D2E/DX2                !
 ! D4    D(11,1,2,3)            66.8522         estimate D2E/DX2                !
 ! D5    D(11,1,2,13)          -56.0684         estimate D2E/DX2                !
 ! D6    D(11,1,2,14)         -170.2576         estimate D2E/DX2                !
 ! D7    D(12,1,2,3)           -54.2929         estimate D2E/DX2                !
 ! D8    D(12,1,2,13)         -177.2135         estimate D2E/DX2                !
 ! D9    D(12,1,2,14)           68.5972         estimate D2E/DX2                !
 ! D10   D(1,2,3,4)           -154.5462         estimate D2E/DX2                !
 ! D11   D(1,2,3,5)            -30.8836         estimate D2E/DX2                !
 ! D12   D(1,2,3,9)             85.5982         estimate D2E/DX2                !
 ! D13   D(13,2,3,4)           -33.0935         estimate D2E/DX2                !
 ! D14   D(13,2,3,5)            90.5691         estimate D2E/DX2                !
 ! D15   D(13,2,3,9)          -152.9492         estimate D2E/DX2                !
 ! D16   D(14,2,3,4)            82.9344         estimate D2E/DX2                !
 ! D17   D(14,2,3,5)          -153.403          estimate D2E/DX2                !
 ! D18   D(14,2,3,9)           -36.9212         estimate D2E/DX2                !
 ! D19   D(2,3,4,15)            59.9718         estimate D2E/DX2                !
 ! D20   D(2,3,4,16)           -59.5889         estimate D2E/DX2                !
 ! D21   D(2,3,4,17)          -179.8043         estimate D2E/DX2                !
 ! D22   D(5,3,4,15)           -65.456          estimate D2E/DX2                !
 ! D23   D(5,3,4,16)           174.9833         estimate D2E/DX2                !
 ! D24   D(5,3,4,17)            54.768          estimate D2E/DX2                !
 ! D25   D(9,3,4,15)          -178.4521         estimate D2E/DX2                !
 ! D26   D(9,3,4,16)            61.9872         estimate D2E/DX2                !
 ! D27   D(9,3,4,17)           -58.2281         estimate D2E/DX2                !
 ! D28   D(2,3,5,6)            156.1791         estimate D2E/DX2                !
 ! D29   D(2,3,5,18)            40.6267         estimate D2E/DX2                !
 ! D30   D(2,3,5,19)           -81.1953         estimate D2E/DX2                !
 ! D31   D(4,3,5,6)            -81.5535         estimate D2E/DX2                !
 ! D32   D(4,3,5,18)           162.8941         estimate D2E/DX2                !
 ! D33   D(4,3,5,19)            41.0721         estimate D2E/DX2                !
 ! D34   D(9,3,5,6)             34.9301         estimate D2E/DX2                !
 ! D35   D(9,3,5,18)           -80.6224         estimate D2E/DX2                !
 ! D36   D(9,3,5,19)           157.5556         estimate D2E/DX2                !
 ! D37   D(2,3,9,7)           -143.4967         estimate D2E/DX2                !
 ! D38   D(2,3,9,26)           -24.9284         estimate D2E/DX2                !
 ! D39   D(2,3,9,27)            93.4178         estimate D2E/DX2                !
 ! D40   D(4,3,9,7)             97.0153         estimate D2E/DX2                !
 ! D41   D(4,3,9,26)          -144.4165         estimate D2E/DX2                !
 ! D42   D(4,3,9,27)           -26.0702         estimate D2E/DX2                !
 ! D43   D(5,3,9,7)            -20.8237         estimate D2E/DX2                !
 ! D44   D(5,3,9,26)            97.7446         estimate D2E/DX2                !
 ! D45   D(5,3,9,27)          -143.9092         estimate D2E/DX2                !
 ! D46   D(3,5,6,7)            -35.6803         estimate D2E/DX2                !
 ! D47   D(3,5,6,20)          -155.3096         estimate D2E/DX2                !
 ! D48   D(3,5,6,21)            85.4739         estimate D2E/DX2                !
 ! D49   D(18,5,6,7)            84.0192         estimate D2E/DX2                !
 ! D50   D(18,5,6,20)          -35.6101         estimate D2E/DX2                !
 ! D51   D(18,5,6,21)         -154.8265         estimate D2E/DX2                !
 ! D52   D(19,5,6,7)          -158.5777         estimate D2E/DX2                !
 ! D53   D(19,5,6,20)           81.793          estimate D2E/DX2                !
 ! D54   D(19,5,6,21)          -37.4234         estimate D2E/DX2                !
 ! D55   D(5,6,7,8)            145.6295         estimate D2E/DX2                !
 ! D56   D(5,6,7,9)             22.2053         estimate D2E/DX2                !
 ! D57   D(5,6,7,22)           -94.5675         estimate D2E/DX2                !
 ! D58   D(20,6,7,8)           -94.8474         estimate D2E/DX2                !
 ! D59   D(20,6,7,9)           141.7284         estimate D2E/DX2                !
 ! D60   D(20,6,7,22)           24.9556         estimate D2E/DX2                !
 ! D61   D(21,6,7,8)            25.5571         estimate D2E/DX2                !
 ! D62   D(21,6,7,9)           -97.8671         estimate D2E/DX2                !
 ! D63   D(21,6,7,22)          145.3601         estimate D2E/DX2                !
 ! D64   D(6,7,8,23)           -59.3596         estimate D2E/DX2                !
 ! D65   D(6,7,8,24)          -179.561          estimate D2E/DX2                !
 ! D66   D(6,7,8,25)            60.4542         estimate D2E/DX2                !
 ! D67   D(9,7,8,23)            60.4603         estimate D2E/DX2                !
 ! D68   D(9,7,8,24)           -59.7411         estimate D2E/DX2                !
 ! D69   D(9,7,8,25)          -179.7259         estimate D2E/DX2                !
 ! D70   D(22,7,8,23)         -179.6569         estimate D2E/DX2                !
 ! D71   D(22,7,8,24)           60.1417         estimate D2E/DX2                !
 ! D72   D(22,7,8,25)          -59.8431         estimate D2E/DX2                !
 ! D73   D(6,7,9,3)             -0.5677         estimate D2E/DX2                !
 ! D74   D(6,7,9,26)          -120.5893         estimate D2E/DX2                !
 ! D75   D(6,7,9,27)           122.3854         estimate D2E/DX2                !
 ! D76   D(8,7,9,3)           -122.8872         estimate D2E/DX2                !
 ! D77   D(8,7,9,26)           117.0912         estimate D2E/DX2                !
 ! D78   D(8,7,9,27)             0.0659         estimate D2E/DX2                !
 ! D79   D(22,7,9,3)           117.0097         estimate D2E/DX2                !
 ! D80   D(22,7,9,26)           -3.0119         estimate D2E/DX2                !
 ! D81   D(22,7,9,27)         -120.0372         estimate D2E/DX2                !
 --------------------------------------------------------------------------------
 Trust Radius=3.00D-01 FncErr=1.00D-07 GrdErr=1.00D-06 EigMax=2.50D+02 EigMin=1.00D-04
 Number of steps in this run=    162 maximum allowed number of steps=    162.
 GradGradGradGradGradGradGradGradGradGradGradGradGradGradGradGradGradGrad

                          Input orientation:                          
 ---------------------------------------------------------------------
 Center     Atomic      Atomic             Coordinates (Angstroms)
 Number     Number       Type             X           Y           Z
 ---------------------------------------------------------------------
      1          6           0        0.977670    0.011640   -0.216760
      2          6           0        2.491150   -0.052100   -0.046890
      3          6           0        2.986690   -1.039740    1.041410
      4          6           0        4.365550   -0.556860    1.541470
      5          6           0        2.006950   -1.210430    2.217630
      6          6           0        2.332680   -2.566830    2.813200
      7          6           0        2.706020   -3.435090    1.610170
      8          6           0        3.792170   -4.436820    1.973500
      9          6           0        3.130300   -2.474690    0.486410
     10          1           0        0.707720    0.658250   -1.055550
     11          1           0        0.507550    0.440300    0.675710
     12          1           0        0.553550   -0.981000   -0.396680
     13          1           0        2.838960    0.963550    0.178730
     14          1           0        2.942240   -0.318080   -1.012320
     15          1           0        4.297230    0.450320    1.968630
     16          1           0        5.090580   -0.519250    0.720000
     17          1           0        4.779340   -1.213660    2.313930
     18          1           0        0.966000   -1.256980    1.892790
     19          1           0        2.086790   -0.403170    2.954880
     20          1           0        1.463730   -2.979850    3.341310
     21          1           0        3.148230   -2.485560    3.535000
     22          1           0        1.821350   -3.987460    1.271730
     23          1           0        4.695740   -3.928010    2.323960
     24          1           0        4.061960   -5.050800    1.108350
     25          1           0        3.446960   -5.101900    2.771690
     26          1           0        2.473030   -2.630240   -0.378420
     27          1           0        4.149590   -2.676520    0.134400
 ---------------------------------------------------------------------
                    Distance matrix (angstroms):
                    1          2          3          4          5
     1  C    0.000000
     2  C    1.524316   0.000000
     3  C    2.593174   1.550932   0.000000
     4  C    3.859054   2.508196   1.544179   0.000000
     5  C    2.911894   2.589253   1.540298   2.539161   0.000000
     6  C    4.203001   3.811705   2.428780   3.128872   1.516781
     7  C    4.266710   3.773147   2.477895   3.323096   2.409734
     8  C    5.701530   5.000040   3.613550   3.945821   3.695430
     9  C    3.363049   2.561614   1.545228   2.513377   2.420205
    10  H    1.092953   2.168551   3.531871   4.647658   3.986687
    11  H    1.096022   2.167782   2.910393   4.077748   2.711204
    12  H    1.094341   2.177040   2.826964   4.297402   2.999938
    13  H    2.127662   1.097006   2.186141   2.549350   3.094437
    14  H    2.145033   1.098309   2.177286   2.933372   3.479028
    15  H    3.998481   2.752575   2.190327   1.096150   2.839978
    16  H    4.251516   2.750161   2.191020   1.096310   3.497056
    17  H    4.728472   3.486905   2.205255   1.095127   2.774064
    18  H    2.461653   2.745938   2.203458   3.488629   1.091451
    19  H    3.385486   3.049161   2.208259   2.685907   1.096166
    20  H    4.673877   4.594258   3.372384   4.186987   2.165316
    21  H    5.002304   4.379888   2.886950   3.029177   2.159616
    22  H    4.349736   4.204099   3.178068   4.279571   2.939570
    23  H    5.983322   5.050131   3.592755   3.476488   3.824414
    24  H    6.074295   5.365541   4.153226   4.524959   4.494665
    25  H    6.416893   5.861608   4.439241   4.797357   4.186186
    26  H    3.040027   2.599432   2.193047   3.400958   2.995424
    27  H    4.172600   3.109802   2.203191   2.553320   3.328689
                    6          7          8          9         10
     6  C    0.000000
     7  C    1.529882   0.000000
     8  C    2.516360   1.521576   0.000000
     9  C    2.461430   1.537927   2.549404   0.000000
    10  H    5.292340   5.277755   6.681969   4.249923   0.000000
    11  H    4.116163   4.552487   6.021568   3.925789   1.756369
    12  H    3.997936   3.831857   5.296141   3.106541   1.773420
    13  H    4.433998   4.627605   5.770078   3.464252   2.481701
    14  H    4.479179   4.080319   5.157666   2.632969   2.438887
    15  H    3.698101   4.213888   4.913171   3.480573   4.698242
    16  H    4.022447   3.870485   4.313292   2.778670   4.873248
    17  H    2.840156   3.119084   3.388091   2.765747   5.606740
    18  H    2.104917   2.802090   4.255013   2.853930   3.525269
    19  H    2.182191   3.374052   4.487957   3.387248   4.371727
    20  H    1.097524   2.178847   3.068436   3.344114   5.756709
    21  H    1.092118   2.191376   2.580767   3.048662   6.075589
    22  H    2.157725   1.096492   2.139752   2.149081   5.314040
    23  H    2.770599   2.170588   1.094600   2.817682   6.954076
    24  H    3.473763   2.168159   1.094643   2.809118   6.966107
    25  H    2.769463   2.162493   1.094810   3.496428   7.438449
    26  H    3.195334   2.157906   3.245826   1.097329   3.793282
    27  H    3.238698   2.199368   2.570738   1.097086   4.937929
                   11         12         13         14         15
    11  H    0.000000
    12  H    1.781076   0.000000
    13  H    2.440543   3.055400   0.000000
    14  H    3.058153   2.554274   1.752667   0.000000
    15  H    4.004175   4.653870   2.365100   3.363406   0.000000
    16  H    4.682613   4.695192   2.749811   2.767086   1.768770
    17  H    4.864929   5.025817   3.614470   3.903965   1.766491
    18  H    2.138275   2.342638   3.372941   3.636856   3.744024
    19  H    2.898285   3.730639   3.184445   4.059275   2.566550
    20  H    4.440397   4.335481   5.238661   5.312731   4.656075
    21  H    4.869229   4.945116   4.822505   5.041678   3.520385
    22  H    4.656863   3.664657   5.171332   4.465157   5.129283
    23  H    6.272144   5.765803   5.654821   5.218920   4.410764
    24  H    6.555394   5.580083   6.207441   5.305625   5.572948
    25  H    6.614321   5.949135   6.624409   6.120327   5.674065
    26  H    3.795065   2.530757   3.655085   2.442964   4.280911
    27  H    4.824110   4.011027   3.869086   2.887023   3.628130
                   16         17         18         19         20
    16  H    0.000000
    17  H    1.766264   0.000000
    18  H    4.351074   3.836769   0.000000
    19  H    3.745787   2.884014   1.764425   0.000000
    20  H    5.106844   3.894638   2.305261   2.678957   0.000000
    21  H    3.945038   2.401929   2.994727   2.408224   1.766176
    22  H    4.797995   4.186867   2.927945   3.968701   2.329449
    23  H    3.787906   2.715656   4.607740   4.430483   3.518508
    24  H    4.663027   4.085548   4.959172   5.376935   4.003217
    25  H    5.283143   4.135600   4.659510   4.895067   2.959859
    26  H    3.537566   3.817658   3.052110   4.027395   3.870052
    27  H    2.425325   2.699425   3.904136   4.168737   4.194058
                   21         22         23         24         25
    21  H    0.000000
    22  H    3.023029   0.000000
    23  H    2.437636   3.061509   0.000000
    24  H    3.647463   2.485502   1.772016   0.000000
    25  H    2.741736   2.476785   1.771421   1.774130   0.000000
    26  H    3.973875   2.233770   3.731957   3.254888   4.120781
    27  H    3.550108   2.903926   2.580442   2.567774   3.651227
                   26         27
    26  H    0.000000
    27  H    1.753847   0.000000
 Stoichiometry    C9H18
 Framework group  C1[X(C9H18)]
 Deg. of freedom    75
 Full point group                 C1      NOp   1
 Largest Abelian subgroup         C1      NOp   1
 Largest concise Abelian subgroup C1      NOp   1
                         Standard orientation:                         
 ---------------------------------------------------------------------
 Center     Atomic      Atomic             Coordinates (Angstroms)
 Number     Number       Type             X           Y           Z
 ---------------------------------------------------------------------
      1          6           0       -2.685550   -1.050461   -0.365208
      2          6           0       -2.079106    0.345102   -0.455601
      3          6           0       -0.618797    0.458539    0.054320
      4          6           0       -0.374745    1.915740    0.503198
      5          6           0       -0.278350   -0.527556    1.187560
      6          6           0        1.227609   -0.698165    1.127537
      7          6           0        1.561545   -0.641805   -0.364391
      8          6           0        2.908634    0.025489   -0.599469
      9          6           0        0.400355    0.097879   -1.049756
     10          1           0       -3.678742   -1.072772   -0.820859
     11          1           0       -2.812382   -1.348310    0.681915
     12          1           0       -2.058503   -1.792129   -0.869511
     13          1           0       -2.730091    1.022914    0.110270
     14          1           0       -2.127204    0.682208   -1.499789
     15          1           0       -1.063594    2.199072    1.307409
     16          1           0       -0.530634    2.614275   -0.327249
     17          1           0        0.644057    2.069821    0.874149
     18          1           0       -0.708645   -1.517398    1.025314
     19          1           0       -0.617773   -0.177026    2.169141
     20          1           0        1.528830   -1.660175    1.561544
     21          1           0        1.728116    0.089673    1.694570
     22          1           0        1.602365   -1.660992   -0.766743
     23          1           0        2.915789    1.047158   -0.206672
     24          1           0        3.140386    0.070869   -1.668335
     25          1           0        3.705087   -0.535068   -0.099421
     26          1           0       -0.048837   -0.566411   -1.798806
     27          1           0        0.742205    0.985727   -1.596074
 ---------------------------------------------------------------------
 Rotational constants (GHZ):           2.5837062           1.0899414           1.0358123
 Standard basis: 6-31G(2df,p) (6D, 7F)
 There are   369 symmetry adapted cartesian basis functions of A   symmetry.
 There are   342 symmetry adapted basis functions of A   symmetry.
   342 basis functions,   522 primitive gaussians,   369 cartesian basis functions
    36 alpha electrons       36 beta electrons
       nuclear repulsion energy       500.9717049391 Hartrees.
 NAtoms=   27 NActive=   27 NUniq=   27 SFac= 1.00D+00 NAtFMM=   60 NAOKFM=F Big=F
 Integral buffers will be    131072 words long.
 Raffenetti 2 integral format.
 Two-electron integral symmetry is turned on.
 One-electron integrals computed using PRISM.
 PrsmSu:  requested number of processors reduced to:  13 ShMem   1 Linda.
 NBasis=   342 RedAO= T EigKep=  4.74D-04  NBF=   342
 NBsUse=   342 1.00D-06 EigRej= -1.00D+00 NBFU=   342
 ExpMin= 1.61D-01 ExpMax= 3.05D+03 ExpMxC= 4.57D+02 IAcc=3 IRadAn=         5 AccDes= 0.00D+00
 Harris functional with IExCor=  402 and IRadAn=       5 diagonalized for initial guess.
 HarFok:  IExCor=  402 AccDes= 0.00D+00 IRadAn=         5 IDoV= 1 UseB2=F ITyADJ=14
 ICtDFT=  3500011 ScaDFX=  1.000000  1.000000  1.000000  1.000000
 FoFCou: FMM=F IPFlag=           0 FMFlag=      100000 FMFlg1=           0
         NFxFlg=           0 DoJE=T BraDBF=F KetDBF=T FulRan=T
         wScrn=  0.000000 ICntrl=       500 IOpCl=  0 I1Cent=   200000004 NGrid=           0
         NMat0=    1 NMatS0=      1 NMatT0=    0 NMatD0=    1 NMtDS0=    0 NMtDT0=    0
 Petite list used in FoFCou.
 Requested convergence on RMS density matrix=1.00D-08 within 128 cycles.
 Requested convergence on MAX density matrix=1.00D-06.
 Requested convergence on             energy=1.00D-06.
 No special actions if energy rises.
 Integral accuracy reduced to 1.0D-05 until final iterations.
 Initial convergence to 1.0D-05 achieved.  Increase integral accuracy.
 SCF Done:  E(RB3LYP) =  -353.833626434     A.U. after   12 cycles
            NFock= 12  Conv=0.33D-08     -V/T= 2.0087

 **********************************************************************

            Population analysis using the SCF density.

 **********************************************************************

 Orbital symmetries:
       Occupied  (A) (A) (A) (A) (A) (A) (A) (A) (A) (A) (A) (A)
                 (A) (A) (A) (A) (A) (A) (A) (A) (A) (A) (A) (A)
                 (A) (A) (A) (A) (A) (A) (A) (A) (A) (A) (A) (A)
       Virtual   (A) (A) (A) (A) (A) (A) (A) (A) (A) (A) (A) (A)
                 (A) (A) (A) (A) (A) (A) (A) (A) (A) (A) (A) (A)
                 (A) (A) (A) (A) (A) (A) (A) (A) (A) (A) (A) (A)
                 (A) (A) (A) (A) (A) (A) (A) (A) (A) (A) (A) (A)
                 (A) (A) (A) (A) (A) (A) (A) (A) (A) (A) (A) (A)
                 (A) (A) (A) (A) (A) (A) (A) (A) (A) (A) (A) (A)
                 (A) (A) (A) (A) (A) (A) (A) (A) (A) (A) (A) (A)
                 (A) (A) (A) (A) (A) (A) (A) (A) (A) (A) (A) (A)
                 (A) (A) (A) (A) (A) (A) (A) (A) (A) (A) (A) (A)
                 (A) (A) (A) (A) (A) (A) (A) (A) (A) (A) (A) (A)
                 (A) (A) (A) (A) (A) (A) (A) (A) (A) (A) (A) (A)
                 (A) (A) (A) (A) (A) (A) (A) (A) (A) (A) (A) (A)
                 (A) (A) (A) (A) (A) (A) (A) (A) (A) (A) (A) (A)
                 (A) (A) (A) (A) (A) (A) (A) (A) (A) (A) (A) (A)
                 (A) (A) (A) (A) (A) (A) (A) (A) (A) (A) (A) (A)
                 (A) (A) (A) (A) (A) (A) (A) (A) (A) (A) (A) (A)
                 (A) (A) (A) (A) (A) (A) (A) (A) (A) (A) (A) (A)
                 (A) (A) (A) (A) (A) (A) (A) (A) (A) (A) (A) (A)
                 (A) (A) (A) (A) (A) (A) (A) (A) (A) (A) (A) (A)
                 (A) (A) (A) (A) (A) (A) (A) (A) (A) (A) (A) (A)
                 (A) (A) (A) (A) (A) (A) (A) (A) (A) (A) (A) (A)
                 (A) (A) (A) (A) (A) (A) (A) (A) (A) (A) (A) (A)
                 (A) (A) (A) (A) (A) (A) (A) (A) (A) (A) (A) (A)
                 (A) (A) (A) (A) (A) (A) (A) (A) (A) (A) (A) (A)
                 (A) (A) (A) (A) (A) (A) (A) (A) (A) (A) (A) (A)
                 (A) (A) (A) (A) (A) (A)
 The electronic state is 1-A.
 Alpha  occ. eigenvalues --  -10.18227 -10.17297 -10.17013 -10.16705 -10.16609
 Alpha  occ. eigenvalues --  -10.16495 -10.16453 -10.16381 -10.16374  -0.84511
 Alpha  occ. eigenvalues --   -0.77582  -0.72807  -0.71519  -0.67382  -0.62857
 Alpha  occ. eigenvalues --   -0.60754  -0.54697  -0.52258  -0.47737  -0.45362
 Alpha  occ. eigenvalues --   -0.43255  -0.42752  -0.42480  -0.40286  -0.39820
 Alpha  occ. eigenvalues --   -0.38033  -0.36722  -0.35977  -0.35154  -0.33731
 Alpha  occ. eigenvalues --   -0.32247  -0.31188  -0.30576  -0.29913  -0.29713
 Alpha  occ. eigenvalues --   -0.29125
 Alpha virt. eigenvalues --    0.07508   0.09877   0.10309   0.12863   0.13219
 Alpha virt. eigenvalues --    0.13837   0.14626   0.15350   0.16303   0.17256
 Alpha virt. eigenvalues --    0.17345   0.17870   0.18326   0.19508   0.19873
 Alpha virt. eigenvalues --    0.20587   0.21156   0.21997   0.22887   0.23205
 Alpha virt. eigenvalues --    0.24209   0.25972   0.27675   0.28957   0.29874
 Alpha virt. eigenvalues --    0.32260   0.32670   0.43920   0.45481   0.46447
 Alpha virt. eigenvalues --    0.47721   0.49206   0.51323   0.52059   0.53160
 Alpha virt. eigenvalues --    0.54054   0.55668   0.56894   0.57633   0.58019
 Alpha virt. eigenvalues --    0.59084   0.60859   0.61889   0.63012   0.63776
 Alpha virt. eigenvalues --    0.65173   0.67723   0.68632   0.69655   0.70523
 Alpha virt. eigenvalues --    0.72335   0.72932   0.73376   0.74828   0.75278
 Alpha virt. eigenvalues --    0.75502   0.76488   0.77351   0.77713   0.78867
 Alpha virt. eigenvalues --    0.79298   0.80486   0.81277   0.81851   0.83029
 Alpha virt. eigenvalues --    0.84285   0.85089   0.87057   0.87917   0.88259
 Alpha virt. eigenvalues --    0.90068   0.91393   0.93249   0.95136   1.04756
 Alpha virt. eigenvalues --    1.07697   1.09927   1.11559   1.12665   1.14518
 Alpha virt. eigenvalues --    1.17046   1.19409   1.21031   1.23431   1.25317
 Alpha virt. eigenvalues --    1.30638   1.31597   1.34681   1.37263   1.38702
 Alpha virt. eigenvalues --    1.40514   1.41222   1.43916   1.44666   1.45935
 Alpha virt. eigenvalues --    1.47352   1.49087   1.52230   1.54387   1.56430
 Alpha virt. eigenvalues --    1.57579   1.58431   1.59968   1.60247   1.62131
 Alpha virt. eigenvalues --    1.62510   1.66423   1.68392   1.69580   1.71240
 Alpha virt. eigenvalues --    1.72510   1.75734   1.77181   1.78784   1.80689
 Alpha virt. eigenvalues --    1.83551   1.86579   1.88810   1.91475   1.92065
 Alpha virt. eigenvalues --    1.94824   1.96515   1.96785   1.97396   1.99284
 Alpha virt. eigenvalues --    2.00165   2.02446   2.04277   2.14022   2.18686
 Alpha virt. eigenvalues --    2.20218   2.23657   2.25531   2.28147   2.29917
 Alpha virt. eigenvalues --    2.31204   2.32399   2.33710   2.35029   2.36722
 Alpha virt. eigenvalues --    2.38713   2.39299   2.42093   2.43680   2.44125
 Alpha virt. eigenvalues --    2.48573   2.51608   2.52804   2.55065   2.57707
 Alpha virt. eigenvalues --    2.59956   2.62767   2.65884   2.69094   2.70716
 Alpha virt. eigenvalues --    2.73205   2.75419   2.75988   2.78549   2.79234
 Alpha virt. eigenvalues --    2.80994   2.82114   2.84335   2.84986   2.85537
 Alpha virt. eigenvalues --    2.87322   2.89967   2.90181   2.91320   2.91900
 Alpha virt. eigenvalues --    2.93228   2.93793   2.95338   2.96583   2.97670
 Alpha virt. eigenvalues --    2.99313   3.00766   3.03419   3.03891   3.06397
 Alpha virt. eigenvalues --    3.08273   3.12217   3.13381   3.15087   3.19443
 Alpha virt. eigenvalues --    3.20799   3.23585   3.24737   3.27036   3.27713
 Alpha virt. eigenvalues --    3.30199   3.34057   3.35304   3.35928   3.37451
 Alpha virt. eigenvalues --    3.39264   3.42708   3.44488   3.47579   3.48509
 Alpha virt. eigenvalues --    3.50632   3.50878   3.55090   3.56226   3.58138
 Alpha virt. eigenvalues --    3.59618   3.61330   3.63294   3.64243   3.65897
 Alpha virt. eigenvalues --    3.67352   3.68682   3.73650   3.77306   3.77861
 Alpha virt. eigenvalues --    3.80850   3.81670   3.85857   3.87221   3.88580
 Alpha virt. eigenvalues --    3.92340   3.95196   3.95752   3.97279   3.99639
 Alpha virt. eigenvalues --    4.03180   4.04444   4.05063   4.09694   4.19132
 Alpha virt. eigenvalues --    4.26128   4.30466   4.32287   4.37138   4.40527
 Alpha virt. eigenvalues --    4.42031   4.42860   4.44164   4.47372   4.49306
 Alpha virt. eigenvalues --    4.49418   4.50980   4.52605   4.54452   4.57928
 Alpha virt. eigenvalues --    4.59893   4.62126   4.62889   4.63608   4.65329
 Alpha virt. eigenvalues --    4.65767   4.67040   4.67808   4.69699   4.71568
 Alpha virt. eigenvalues --    4.72665   4.74440   4.76006   4.76925   4.77751
 Alpha virt. eigenvalues --    4.79585   4.81238   4.81715   4.83338   4.84810
 Alpha virt. eigenvalues --    4.87059   4.87471   4.89401   4.89933   4.91480
 Alpha virt. eigenvalues --    4.92939   4.93911   4.94703   4.96733   4.97409
 Alpha virt. eigenvalues --    5.04392   5.05786   5.08537   5.14606   5.16285
 Alpha virt. eigenvalues --    5.20591   5.23518   5.28513   5.30312   5.39967
 Alpha virt. eigenvalues --    5.43028   5.45064   5.50712   5.53912   5.56999
 Alpha virt. eigenvalues --    5.60691   5.69648   5.72225   5.80961   5.96012
 Alpha virt. eigenvalues --    6.62538   7.08275  11.06273  11.45375  11.73917
 Alpha virt. eigenvalues --   11.90656  12.06495  12.23466  12.39775  12.96312
 Alpha virt. eigenvalues --   13.18688
          Condensed to atoms (all electrons):
               1          2          3          4          5          6
     1  C    4.966774   0.391756  -0.016229   0.003809  -0.012723   0.000445
     2  C    0.391756   4.956928   0.400339  -0.053553  -0.048016   0.003970
     3  C   -0.016229   0.400339   4.280882   0.387824   0.429028  -0.035530
     4  C    0.003809  -0.053553   0.387824   5.145272  -0.055496   0.006549
     5  C   -0.012723  -0.048016   0.429028  -0.055496   4.994412   0.385230
     6  C    0.000445   0.003970  -0.035530   0.006549   0.385230   4.909472
     7  C   -0.000067   0.004519  -0.037395   0.001136  -0.056306   0.433559
     8  C   -0.000000  -0.000063   0.003291  -0.000042   0.002402  -0.035125
     9  C   -0.000948  -0.032821   0.410298  -0.048838  -0.066120  -0.067850
    10  H    0.370344  -0.020625   0.002264  -0.000161   0.000602  -0.000017
    11  H    0.380636  -0.025263  -0.007016   0.000184   0.000744  -0.000004
    12  H    0.376263  -0.030209  -0.004022   0.000075  -0.002097  -0.000184
    13  H   -0.038247   0.353395  -0.021432  -0.013085  -0.000040  -0.000129
    14  H   -0.039107   0.356203  -0.018487   0.001455   0.005333  -0.000118
    15  H    0.000143  -0.006345  -0.017159   0.358384  -0.003765  -0.000530
    16  H    0.000080  -0.004417  -0.015556   0.363327   0.005101  -0.000154
    17  H   -0.000198   0.005403  -0.015747   0.360101  -0.004711   0.001111
    18  H    0.003655  -0.014179  -0.014236   0.006139   0.349865  -0.028713
    19  H   -0.000552   0.003278  -0.024564  -0.012067   0.354717  -0.029164
    20  H    0.000016  -0.000222   0.002834   0.000049  -0.023905   0.357551
    21  H    0.000001  -0.000137  -0.001468  -0.000390  -0.028857   0.363802
    22  H    0.000035  -0.000350   0.001450  -0.000084   0.006155  -0.045077
    23  H   -0.000000  -0.000017  -0.000442   0.000075   0.000589  -0.008341
    24  H   -0.000000  -0.000001   0.000106   0.000016  -0.000214   0.004644
    25  H    0.000000   0.000002  -0.000107   0.000001   0.000093  -0.003397
    26  H    0.001259  -0.013359  -0.020416   0.006722  -0.000144   0.006173
    27  H   -0.000051   0.001711  -0.020493  -0.016971   0.007596   0.002748
               7          8          9         10         11         12
     1  C   -0.000067  -0.000000  -0.000948   0.370344   0.380636   0.376263
     2  C    0.004519  -0.000063  -0.032821  -0.020625  -0.025263  -0.030209
     3  C   -0.037395   0.003291   0.410298   0.002264  -0.007016  -0.004022
     4  C    0.001136  -0.000042  -0.048838  -0.000161   0.000184   0.000075
     5  C   -0.056306   0.002402  -0.066120   0.000602   0.000744  -0.002097
     6  C    0.433559  -0.035125  -0.067850  -0.000017  -0.000004  -0.000184
     7  C    4.589548   0.402122   0.406653   0.000004   0.000054  -0.000259
     8  C    0.402122   5.019178  -0.031375  -0.000000  -0.000000   0.000008
     9  C    0.406653  -0.031375   5.044714   0.000061  -0.000152   0.001501
    10  H    0.000004  -0.000000   0.000061   0.614209  -0.033141  -0.031664
    11  H    0.000054  -0.000000  -0.000152  -0.033141   0.596449  -0.035340
    12  H   -0.000259   0.000008   0.001501  -0.031664  -0.035340   0.604132
    13  H   -0.000205   0.000003   0.005163  -0.001850  -0.005752   0.006133
    14  H    0.000245  -0.000008  -0.014645  -0.003978   0.005689  -0.003562
    15  H   -0.000066   0.000002   0.005071  -0.000007   0.000003   0.000006
    16  H   -0.000167  -0.000014  -0.006749  -0.000001   0.000007   0.000002
    17  H    0.000337  -0.000325  -0.004080   0.000003  -0.000004   0.000005
    18  H    0.000245   0.000034  -0.003594  -0.000165   0.002048   0.003500
    19  H    0.004471  -0.000254   0.007558  -0.000027   0.000939   0.000121
    20  H   -0.025400   0.003257   0.007041  -0.000000   0.000018   0.000004
    21  H   -0.029809  -0.012647  -0.000648   0.000000  -0.000003  -0.000002
    22  H    0.365334  -0.052004  -0.039211  -0.000001  -0.000009   0.000144
    23  H   -0.025156   0.372624  -0.005744   0.000000  -0.000000   0.000000
    24  H   -0.021909   0.367324  -0.004006   0.000000   0.000000   0.000000
    25  H   -0.022918   0.368661   0.004359   0.000000   0.000000  -0.000000
    26  H   -0.021256   0.004947   0.337224  -0.000246  -0.000015   0.003430
    27  H   -0.033500  -0.014523   0.353208   0.000005  -0.000009  -0.000066
              13         14         15         16         17         18
     1  C   -0.038247  -0.039107   0.000143   0.000080  -0.000198   0.003655
     2  C    0.353395   0.356203  -0.006345  -0.004417   0.005403  -0.014179
     3  C   -0.021432  -0.018487  -0.017159  -0.015556  -0.015747  -0.014236
     4  C   -0.013085   0.001455   0.358384   0.363327   0.360101   0.006139
     5  C   -0.000040   0.005333  -0.003765   0.005101  -0.004711   0.349865
     6  C   -0.000129  -0.000118  -0.000530  -0.000154   0.001111  -0.028713
     7  C   -0.000205   0.000245  -0.000066  -0.000167   0.000337   0.000245
     8  C    0.000003  -0.000008   0.000002  -0.000014  -0.000325   0.000034
     9  C    0.005163  -0.014645   0.005071  -0.006749  -0.004080  -0.003594
    10  H   -0.001850  -0.003978  -0.000007  -0.000001   0.000003  -0.000165
    11  H   -0.005752   0.005689   0.000003   0.000007  -0.000004   0.002048
    12  H    0.006133  -0.003562   0.000006   0.000002   0.000005   0.003500
    13  H    0.663273  -0.041109   0.006579   0.000819   0.000142   0.000059
    14  H   -0.041109   0.653730  -0.000229   0.002570  -0.000217   0.000197
    15  H    0.006579  -0.000229   0.611997  -0.032812  -0.032303   0.000005
    16  H    0.000819   0.002570  -0.032812   0.606295  -0.033748  -0.000193
    17  H    0.000142  -0.000217  -0.032303  -0.033748   0.607537  -0.000016
    18  H    0.000059   0.000197   0.000005  -0.000193  -0.000016   0.645006
    19  H    0.000893  -0.000169   0.004429   0.000025   0.000461  -0.042228
    20  H    0.000002   0.000005  -0.000013   0.000003  -0.000136  -0.009801
    21  H   -0.000002  -0.000001   0.000282  -0.000089   0.002652   0.006142
    22  H    0.000005  -0.000005   0.000010   0.000002   0.000003   0.001342
    23  H    0.000000  -0.000000   0.000006   0.000042   0.002083   0.000006
    24  H    0.000000   0.000001  -0.000000  -0.000002  -0.000006   0.000010
    25  H   -0.000000   0.000000  -0.000001   0.000000   0.000005  -0.000005
    26  H    0.000085   0.002845  -0.000248   0.000061  -0.000078   0.000669
    27  H   -0.000186   0.001820   0.000255   0.005400   0.001394  -0.000175
              19         20         21         22         23         24
     1  C   -0.000552   0.000016   0.000001   0.000035  -0.000000  -0.000000
     2  C    0.003278  -0.000222  -0.000137  -0.000350  -0.000017  -0.000001
     3  C   -0.024564   0.002834  -0.001468   0.001450  -0.000442   0.000106
     4  C   -0.012067   0.000049  -0.000390  -0.000084   0.000075   0.000016
     5  C    0.354717  -0.023905  -0.028857   0.006155   0.000589  -0.000214
     6  C   -0.029164   0.357551   0.363802  -0.045077  -0.008341   0.004644
     7  C    0.004471  -0.025400  -0.029809   0.365334  -0.025156  -0.021909
     8  C   -0.000254   0.003257  -0.012647  -0.052004   0.372624   0.367324
     9  C    0.007558   0.007041  -0.000648  -0.039211  -0.005744  -0.004006
    10  H   -0.000027  -0.000000   0.000000  -0.000001   0.000000   0.000000
    11  H    0.000939   0.000018  -0.000003  -0.000009  -0.000000   0.000000
    12  H    0.000121   0.000004  -0.000002   0.000144   0.000000   0.000000
    13  H    0.000893   0.000002  -0.000002   0.000005   0.000000   0.000000
    14  H   -0.000169   0.000005  -0.000001  -0.000005  -0.000000   0.000001
    15  H    0.004429  -0.000013   0.000282   0.000010   0.000006  -0.000000
    16  H    0.000025   0.000003  -0.000089   0.000002   0.000042  -0.000002
    17  H    0.000461  -0.000136   0.002652   0.000003   0.002083  -0.000006
    18  H   -0.042228  -0.009801   0.006142   0.001342   0.000006   0.000010
    19  H    0.655196   0.002551  -0.007260  -0.000151  -0.000014   0.000004
    20  H    0.002551   0.653684  -0.042515  -0.011788  -0.000159  -0.000235
    21  H   -0.007260  -0.042515   0.646832   0.006628   0.005918   0.000187
    22  H   -0.000151  -0.011788   0.006628   0.714211   0.006456  -0.002841
    23  H   -0.000014  -0.000159   0.005918   0.006456   0.602534  -0.033425
    24  H    0.000004  -0.000235   0.000187  -0.002841  -0.033425   0.614614
    25  H    0.000001   0.001181   0.000974  -0.003301  -0.032770  -0.032554
    26  H   -0.000206  -0.000150  -0.000230  -0.015715  -0.000127   0.000460
    27  H   -0.000177  -0.000153   0.000151   0.006215   0.004248   0.002584
              25         26         27
     1  C    0.000000   0.001259  -0.000051
     2  C    0.000002  -0.013359   0.001711
     3  C   -0.000107  -0.020416  -0.020493
     4  C    0.000001   0.006722  -0.016971
     5  C    0.000093  -0.000144   0.007596
     6  C   -0.003397   0.006173   0.002748
     7  C   -0.022918  -0.021256  -0.033500
     8  C    0.368661   0.004947  -0.014523
     9  C    0.004359   0.337224   0.353208
    10  H    0.000000  -0.000246   0.000005
    11  H    0.000000  -0.000015  -0.000009
    12  H   -0.000000   0.003430  -0.000066
    13  H   -0.000000   0.000085  -0.000186
    14  H    0.000000   0.002845   0.001820
    15  H   -0.000001  -0.000248   0.000255
    16  H    0.000000   0.000061   0.005400
    17  H    0.000005  -0.000078   0.001394
    18  H   -0.000005   0.000669  -0.000175
    19  H    0.000001  -0.000206  -0.000177
    20  H    0.001181  -0.000150  -0.000153
    21  H    0.000974  -0.000230   0.000151
    22  H   -0.003301  -0.015715   0.006215
    23  H   -0.032770  -0.000127   0.004248
    24  H   -0.032554   0.000460   0.002584
    25  H    0.613566  -0.000260   0.000170
    26  H   -0.000260   0.666320  -0.042950
    27  H    0.000170  -0.042950   0.655015
 Mulliken charges:
               1
     1  C   -0.387094
     2  C   -0.227926
     3  C    0.351981
     4  C   -0.440433
     5  C   -0.239475
     6  C   -0.220924
     7  C    0.066185
     8  C   -0.397473
     9  C   -0.256073
    10  H    0.104390
    11  H    0.119938
    12  H    0.112081
    13  H    0.085486
    14  H    0.091540
    15  H    0.106307
    16  H    0.110170
    17  H    0.110334
    18  H    0.094387
    19  H    0.082190
    20  H    0.086281
    21  H    0.090486
    22  H    0.062547
    23  H    0.111614
    24  H    0.105242
    25  H    0.106299
    26  H    0.085204
    27  H    0.086736
 Sum of Mulliken charges =  -0.00000
 Mulliken charges with hydrogens summed into heavy atoms:
               1
     1  C   -0.050685
     2  C   -0.050900
     3  C    0.351981
     4  C   -0.113621
     5  C   -0.062898
     6  C   -0.044157
     7  C    0.128732
     8  C   -0.074318
     9  C   -0.084133
 Electronic spatial extent (au):  <R**2>=           1409.8078
 Charge=             -0.0000 electrons
 Dipole moment (field-independent basis, Debye):
    X=             -0.0841    Y=             -0.1186    Z=             -0.0165  Tot=              0.1463
 Quadrupole moment (field-independent basis, Debye-Ang):
   XX=            -60.8264   YY=            -59.6724   ZZ=            -59.5960
   XY=             -0.3367   XZ=             -0.0176   YZ=              0.1395
 Traceless Quadrupole moment (field-independent basis, Debye-Ang):
   XX=             -0.7948   YY=              0.3592   ZZ=              0.4356
   XY=             -0.3367   XZ=             -0.0176   YZ=              0.1395
 Octapole moment (field-independent basis, Debye-Ang**2):
  XXX=             -3.8977  YYY=             -2.5083  ZZZ=             -0.5892  XYY=              1.8026
  XXY=              0.3484  XXZ=              1.4955  XZZ=             -0.9123  YZZ=              0.4130
  YYZ=             -0.5898  XYZ=              0.1312
 Hexadecapole moment (field-independent basis, Debye-Ang**3):
 XXXX=          -1216.5305 YYYY=           -421.4086 ZZZZ=           -337.3171 XXXY=             -7.1606
 XXXZ=              5.2996 YYYX=             -3.7685 YYYZ=             -3.8758 ZZZX=             -3.2962
 ZZZY=              1.2801 XXYY=           -272.1729 XXZZ=           -254.4347 YYZZ=           -124.2849
 XXYZ=              1.3536 YYXZ=              0.2304 ZZXY=             -0.2363
 N-N= 5.009717049391D+02 E-N=-1.819596860841D+03  KE= 3.507976506267D+02
 PrsmSu:  requested number of processors reduced to:  13 ShMem   1 Linda.
 Calling FoFJK, ICntrl=      2127 FMM=F ISym2X=0 I1Cent= 0 IOpClX= 0 NMat=1 NMatS=1 NMatT=0.
 ***** Axes restored to original set *****
 -------------------------------------------------------------------
 Center     Atomic                   Forces (Hartrees/Bohr)
 Number     Number              X              Y              Z
 -------------------------------------------------------------------
      1        6          -0.002567161    0.002633754   -0.000492942
      2        6          -0.000004463    0.003049275   -0.000593998
      3        6           0.004510082    0.008035316   -0.007493418
      4        6          -0.001285738    0.001462696    0.002407754
      5        6          -0.001335797    0.005508386    0.006955947
      6        6          -0.008988270   -0.000888455    0.006615848
      7        6           0.006981826   -0.010774704    0.002142573
      8        6          -0.001099179   -0.007611134   -0.001819709
      9        6          -0.004904729   -0.001067611   -0.006830816
     10        1          -0.000070966   -0.000652319   -0.002185919
     11        1          -0.001412313   -0.002053097   -0.001916780
     12        1          -0.002472837    0.000385202   -0.000434988
     13        1           0.001834100   -0.000374918    0.000872054
     14        1           0.002291187    0.000016260    0.001668554
     15        1          -0.000088120   -0.000162796    0.000328856
     16        1          -0.001018073   -0.000146167   -0.000163637
     17        1           0.000019012   -0.000558999   -0.000423303
     18        1           0.000411576    0.004194487   -0.003974937
     19        1          -0.001432816    0.001334274   -0.001358429
     20        1           0.003584409    0.000159780    0.002798935
     21        1           0.002991282   -0.002919498    0.000451911
     22        1          -0.000094084   -0.000498318    0.001903846
     23        1           0.000635555    0.000354982   -0.000058082
     24        1           0.001418813   -0.001769196    0.000693375
     25        1           0.001741008   -0.001567391    0.000573239
     26        1           0.001239131    0.002482379   -0.000423152
     27        1          -0.000883437    0.001427812    0.000757216
 -------------------------------------------------------------------
 Cartesian Forces:  Max     0.010774704 RMS     0.003189445

 GradGradGradGradGradGradGradGradGradGradGradGradGradGradGradGradGradGrad
 Berny optimization.
 FormGI is forming the generalized inverse of G from B-inverse, IUseBI=4.
 Internal  Forces:  Max     0.014770039 RMS     0.002905562
 Search for a local minimum.
 Step number   1 out of a maximum of  162
 All quantities printed in internal units (Hartrees-Bohrs-Radians)
 Mixed Optimization -- RFO/linear search
 Second derivative matrix not updated -- first step.
 ITU=  0
     Eigenvalues ---    0.00230   0.00230   0.00294   0.00444   0.00481
     Eigenvalues ---    0.00529   0.02023   0.02348   0.03285   0.04055
     Eigenvalues ---    0.04071   0.04302   0.04347   0.04740   0.04742
     Eigenvalues ---    0.04899   0.05078   0.05289   0.05425   0.05447
     Eigenvalues ---    0.05498   0.05606   0.05668   0.05672   0.05749
     Eigenvalues ---    0.06030   0.07048   0.07100   0.07278   0.07399
     Eigenvalues ---    0.08730   0.09042   0.09986   0.12483   0.12521
     Eigenvalues ---    0.14177   0.16000   0.16000   0.16000   0.16000
     Eigenvalues ---    0.16000   0.16000   0.16000   0.16000   0.16000
     Eigenvalues ---    0.16665   0.18732   0.21934   0.25438   0.26855
     Eigenvalues ---    0.27572   0.28152   0.28208   0.28913   0.29754
     Eigenvalues ---    0.29955   0.30215   0.33870   0.33957   0.33979
     Eigenvalues ---    0.34006   0.34015   0.34073   0.34093   0.34110
     Eigenvalues ---    0.34111   0.34126   0.34227   0.34263   0.34282
     Eigenvalues ---    0.34286   0.34316   0.34474   0.34569   0.34646
 RFO step:  Lambda=-9.18265513D-03 EMin= 2.30000000D-03
 Linear search not attempted -- first point.
 Iteration  1 RMS(Cart)=  0.09335901 RMS(Int)=  0.00317238
 Iteration  2 RMS(Cart)=  0.00480670 RMS(Int)=  0.00027906
 Iteration  3 RMS(Cart)=  0.00001554 RMS(Int)=  0.00027895
 Iteration  4 RMS(Cart)=  0.00000000 RMS(Int)=  0.00027895
 Variable       Old X    -DE/DX   Delta X   Delta X   Delta X     New X
                                 (Linear)    (Quad)   (Total)
    R1        2.88054   0.00705   0.00000   0.02283   0.02283   2.90337
    R2        2.06538   0.00131   0.00000   0.00370   0.00370   2.06908
    R3        2.07118  -0.00176   0.00000  -0.00502  -0.00502   2.06617
    R4        2.06801   0.00068   0.00000   0.00193   0.00193   2.06993
    R5        2.93084   0.00484   0.00000   0.01701   0.01701   2.94784
    R6        2.07304   0.00041   0.00000   0.00119   0.00119   2.07423
    R7        2.07550  -0.00053   0.00000  -0.00152  -0.00152   2.07398
    R8        2.91807  -0.00124   0.00000  -0.00425  -0.00425   2.91382
    R9        2.91074   0.00489   0.00000   0.01287   0.01265   2.92339
   R10        2.92006   0.00744   0.00000   0.02706   0.02689   2.94695
   R11        2.07142  -0.00002   0.00000  -0.00004  -0.00004   2.07138
   R12        2.07173  -0.00056   0.00000  -0.00159  -0.00159   2.07014
   R13        2.06949   0.00004   0.00000   0.00013   0.00013   2.06962
   R14        2.86630   0.01477   0.00000   0.04969   0.04951   2.91581
   R15        2.06254   0.00061   0.00000   0.00172   0.00172   2.06426
   R16        2.07145  -0.00004   0.00000  -0.00010  -0.00010   2.07135
   R17        2.89106   0.01111   0.00000   0.03546   0.03578   2.92684
   R18        2.07402  -0.00155   0.00000  -0.00445  -0.00445   2.06957
   R19        2.06380   0.00231   0.00000   0.00652   0.00652   2.07033
   R20        2.87536   0.00875   0.00000   0.02811   0.02811   2.90347
   R21        2.90626   0.01238   0.00000   0.04226   0.04251   2.94877
   R22        2.07207  -0.00026   0.00000  -0.00074  -0.00074   2.07133
   R23        2.06849   0.00067   0.00000   0.00190   0.00190   2.07040
   R24        2.06857   0.00079   0.00000   0.00226   0.00226   2.07083
   R25        2.06889   0.00082   0.00000   0.00233   0.00233   2.07122
   R26        2.07365  -0.00076   0.00000  -0.00218  -0.00218   2.07147
   R27        2.07319  -0.00133   0.00000  -0.00380  -0.00380   2.06940
    A1        1.93424  -0.00137   0.00000  -0.00927  -0.00925   1.92499
    A2        1.92996   0.00313   0.00000   0.02238   0.02228   1.95224
    A3        1.94464   0.00265   0.00000   0.01293   0.01284   1.95748
    A4        1.86251  -0.00017   0.00000   0.00439   0.00439   1.86690
    A5        1.89098  -0.00165   0.00000  -0.01701  -0.01698   1.87399
    A6        1.89906  -0.00284   0.00000  -0.01470  -0.01489   1.88417
    A7        2.00652   0.01104   0.00000   0.05390   0.05363   2.06015
    A8        1.87445  -0.00088   0.00000   0.02159   0.02122   1.89566
    A9        1.89649  -0.00297   0.00000  -0.01418  -0.01336   1.88312
   A10        1.92192  -0.00438   0.00000  -0.01552  -0.01712   1.90480
   A11        1.90855  -0.00476   0.00000  -0.03737  -0.03735   1.87120
   A12        1.84916   0.00135   0.00000  -0.01263  -0.01312   1.83604
   A13        1.88958  -0.00165   0.00000  -0.01334  -0.01302   1.87656
   A14        1.98579   0.00404   0.00000   0.04619   0.04605   2.03184
   A15        1.94875  -0.00067   0.00000  -0.00025  -0.00017   1.94858
   A16        1.93407  -0.00253   0.00000  -0.03356  -0.03324   1.90083
   A17        1.90045   0.00195   0.00000   0.01205   0.01168   1.91213
   A18        1.80337  -0.00112   0.00000  -0.01178  -0.01211   1.79126
   A19        1.93678   0.00035   0.00000   0.00331   0.00331   1.94009
   A20        1.93758  -0.00123   0.00000  -0.00833  -0.00834   1.92924
   A21        1.95872  -0.00030   0.00000  -0.00196  -0.00198   1.95674
   A22        1.87727   0.00051   0.00000   0.00343   0.00344   1.88070
   A23        1.87522   0.00021   0.00000   0.00319   0.00319   1.87841
   A24        1.87467   0.00054   0.00000   0.00086   0.00083   1.87550
   A25        1.83625   0.00041   0.00000  -0.00407  -0.00410   1.83214
   A26        1.96502  -0.00213   0.00000  -0.02842  -0.02839   1.93663
   A27        1.96672  -0.00140   0.00000  -0.01003  -0.01020   1.95652
   A28        1.85828   0.00240   0.00000   0.04496   0.04484   1.90312
   A29        1.95934   0.00145   0.00000   0.01140   0.01150   1.97084
   A30        1.87659  -0.00047   0.00000  -0.01033  -0.01126   1.86532
   A31        1.82468   0.00142   0.00000   0.00975   0.00982   1.83450
   A32        1.93418   0.00085   0.00000   0.01720   0.01692   1.95110
   A33        1.93193   0.00080   0.00000   0.01183   0.01182   1.94375
   A34        1.93694  -0.00017   0.00000   0.01230   0.01179   1.94872
   A35        1.96029  -0.00200   0.00000  -0.03194  -0.03189   1.92839
   A36        1.87677  -0.00082   0.00000  -0.01754  -0.01762   1.85915
   A37        1.93913   0.00452   0.00000   0.03932   0.03926   1.97840
   A38        1.86241  -0.00530   0.00000  -0.02731  -0.02759   1.83483
   A39        1.90893  -0.00015   0.00000  -0.01995  -0.01988   1.88905
   A40        1.96999   0.00246   0.00000   0.02182   0.02178   1.99177
   A41        1.89440  -0.00311   0.00000  -0.02247  -0.02213   1.87227
   A42        1.88771   0.00152   0.00000   0.00699   0.00660   1.89431
   A43        1.93872  -0.00118   0.00000  -0.00862  -0.00857   1.93015
   A44        1.93529   0.00271   0.00000   0.01665   0.01656   1.95185
   A45        1.92724   0.00285   0.00000   0.01783   0.01773   1.94498
   A46        1.88633  -0.00107   0.00000  -0.00819  -0.00814   1.87819
   A47        1.88519  -0.00105   0.00000  -0.00741  -0.00736   1.87783
   A48        1.88935  -0.00247   0.00000  -0.01150  -0.01171   1.87764
   A49        1.86693   0.00477   0.00000   0.02087   0.02099   1.88792
   A50        1.93804  -0.00373   0.00000  -0.01477  -0.01545   1.92259
   A51        1.95242  -0.00106   0.00000  -0.01874  -0.01879   1.93364
   A52        1.89876   0.00256   0.00000   0.02735   0.02749   1.92625
   A53        1.95614  -0.00344   0.00000  -0.01151  -0.01150   1.94464
   A54        1.85203   0.00079   0.00000  -0.00274  -0.00289   1.84914
    D1       -3.05464   0.00144   0.00000   0.03587   0.03625  -3.01840
    D2        1.08317   0.00032   0.00000   0.00322   0.00275   1.08592
    D3       -0.90981   0.00067   0.00000   0.01393   0.01405  -0.89576
    D4        1.16679   0.00053   0.00000   0.02211   0.02253   1.18932
    D5       -0.97858  -0.00059   0.00000  -0.01054  -0.01096  -0.98954
    D6       -2.97156  -0.00024   0.00000   0.00018   0.00033  -2.97122
    D7       -0.94759   0.00019   0.00000   0.01669   0.01700  -0.93059
    D8       -3.09296  -0.00092   0.00000  -0.01596  -0.01649  -3.10945
    D9        1.19725  -0.00057   0.00000  -0.00525  -0.00520   1.19205
   D10       -2.69734  -0.00137   0.00000  -0.11948  -0.11959  -2.81693
   D11       -0.53902  -0.00310   0.00000  -0.14098  -0.14111  -0.68013
   D12        1.49397  -0.00231   0.00000  -0.12558  -0.12550   1.36847
   D13       -0.57759   0.00198   0.00000  -0.06457  -0.06499  -0.64258
   D14        1.58073   0.00026   0.00000  -0.08607  -0.08651   1.49422
   D15       -2.66947   0.00104   0.00000  -0.07067  -0.07089  -2.74036
   D16        1.44748  -0.00164   0.00000  -0.11030  -0.10995   1.33753
   D17       -2.67739  -0.00337   0.00000  -0.13180  -0.13147  -2.80885
   D18       -0.64440  -0.00258   0.00000  -0.11640  -0.11585  -0.76025
   D19        1.04671   0.00113   0.00000   0.02929   0.02941   1.07612
   D20       -1.04002   0.00106   0.00000   0.02829   0.02841  -1.01161
   D21       -3.13818   0.00144   0.00000   0.03433   0.03444  -3.10374
   D22       -1.14242  -0.00112   0.00000   0.00288   0.00265  -1.13977
   D23        3.05404  -0.00118   0.00000   0.00187   0.00166   3.05569
   D24        0.95588  -0.00081   0.00000   0.00792   0.00768   0.96356
   D25       -3.11458   0.00048   0.00000   0.02812   0.02823  -3.08635
   D26        1.08188   0.00042   0.00000   0.02711   0.02723   1.10911
   D27       -1.01627   0.00079   0.00000   0.03316   0.03326  -0.98301
   D28        2.72584   0.00015   0.00000   0.03551   0.03547   2.76131
   D29        0.70907  -0.00188   0.00000  -0.00151  -0.00117   0.70790
   D30       -1.41713   0.00139   0.00000   0.04093   0.04092  -1.37621
   D31       -1.42338  -0.00100   0.00000   0.02607   0.02555  -1.39782
   D32        2.84304  -0.00304   0.00000  -0.01095  -0.01109   2.83195
   D33        0.71684   0.00023   0.00000   0.03149   0.03100   0.74784
   D34        0.60964  -0.00049   0.00000   0.01844   0.01825   0.62789
   D35       -1.40713  -0.00253   0.00000  -0.01858  -0.01840  -1.42552
   D36        2.74986   0.00074   0.00000   0.02386   0.02369   2.77355
   D37       -2.50449  -0.00503   0.00000  -0.07643  -0.07639  -2.58088
   D38       -0.43508  -0.00114   0.00000  -0.03901  -0.03906  -0.47415
   D39        1.63045  -0.00331   0.00000  -0.06451  -0.06432   1.56613
   D40        1.69324  -0.00384   0.00000  -0.06755  -0.06770   1.62554
   D41       -2.52054   0.00005   0.00000  -0.03013  -0.03038  -2.55092
   D42       -0.45501  -0.00212   0.00000  -0.05563  -0.05563  -0.51064
   D43       -0.36344  -0.00124   0.00000  -0.02839  -0.02859  -0.39203
   D44        1.70596   0.00266   0.00000   0.00903   0.00873   1.71470
   D45       -2.51169   0.00048   0.00000  -0.01647  -0.01652  -2.52821
   D46       -0.62274  -0.00031   0.00000  -0.01501  -0.01515  -0.63789
   D47       -2.71066  -0.00138   0.00000  -0.04418  -0.04434  -2.75501
   D48        1.49180  -0.00143   0.00000  -0.04102  -0.04110   1.45070
   D49        1.46641  -0.00140   0.00000  -0.02802  -0.02823   1.43818
   D50       -0.62151  -0.00247   0.00000  -0.05718  -0.05743  -0.67894
   D51       -2.70223  -0.00252   0.00000  -0.05402  -0.05418  -2.75641
   D52       -2.76770   0.00029   0.00000  -0.00668  -0.00659  -2.77430
   D53        1.42756  -0.00078   0.00000  -0.03585  -0.03579   1.39177
   D54       -0.65316  -0.00083   0.00000  -0.03269  -0.03255  -0.68571
   D55        2.54171   0.00066   0.00000   0.02440   0.02425   2.56596
   D56        0.38756  -0.00165   0.00000  -0.00867  -0.00845   0.37910
   D57       -1.65051  -0.00047   0.00000   0.00824   0.00791  -1.64260
   D58       -1.65540   0.00243   0.00000   0.05692   0.05685  -1.59855
   D59        2.47363   0.00011   0.00000   0.02384   0.02415   2.49778
   D60        0.43556   0.00130   0.00000   0.04075   0.04052   0.47607
   D61        0.44606  -0.00011   0.00000   0.02119   0.02113   0.46718
   D62       -1.70810  -0.00242   0.00000  -0.01188  -0.01157  -1.71967
   D63        2.53701  -0.00124   0.00000   0.00503   0.00479   2.54180
   D64       -1.03602   0.00066   0.00000  -0.01835  -0.01879  -1.05481
   D65       -3.13393   0.00098   0.00000  -0.01340  -0.01378   3.13548
   D66        1.05512   0.00045   0.00000  -0.02152  -0.02203   1.03310
   D67        1.05523  -0.00127   0.00000  -0.01063  -0.01012   1.04511
   D68       -1.04268  -0.00094   0.00000  -0.00568  -0.00511  -1.04778
   D69       -3.13681  -0.00148   0.00000  -0.01379  -0.01336   3.13302
   D70       -3.13560   0.00007   0.00000  -0.00340  -0.00346  -3.13907
   D71        1.04967   0.00039   0.00000   0.00155   0.00155   1.05122
   D72       -1.04446  -0.00014   0.00000  -0.00657  -0.00670  -1.05116
   D73       -0.00991   0.00109   0.00000   0.02130   0.02126   0.01136
   D74       -2.10468   0.00141   0.00000   0.01199   0.01159  -2.09309
   D75        2.13603   0.00087   0.00000   0.00493   0.00476   2.14079
   D76       -2.14479  -0.00244   0.00000  -0.02264  -0.02233  -2.16712
   D77        2.04363  -0.00212   0.00000  -0.03196  -0.03201   2.01162
   D78        0.00115  -0.00266   0.00000  -0.03902  -0.03883  -0.03769
   D79        2.04220  -0.00110   0.00000  -0.01285  -0.01276   2.02944
   D80       -0.05257  -0.00078   0.00000  -0.02217  -0.02244  -0.07501
   D81       -2.09504  -0.00133   0.00000  -0.02923  -0.02927  -2.12431
         Item               Value     Threshold  Converged?
 Maximum Force            0.014770     0.000450     NO 
 RMS     Force            0.002906     0.000300     NO 
 Maximum Displacement     0.435474     0.001800     NO 
 RMS     Displacement     0.094709     0.001200     NO 
 Predicted change in Energy=-5.519873D-03
 GradGradGradGradGradGradGradGradGradGradGradGradGradGradGradGradGradGrad

                          Input orientation:                          
 ---------------------------------------------------------------------
 Center     Atomic      Atomic             Coordinates (Angstroms)
 Number     Number       Type             X           Y           Z
 ---------------------------------------------------------------------
      1          6           0        0.978797    0.029134   -0.368196
      2          6           0        2.474632   -0.008979   -0.019567
      3          6           0        2.947410   -1.016868    1.073147
      4          6           0        4.331688   -0.550534    1.566961
      5          6           0        2.014086   -1.196561    2.293721
      6          6           0        2.392095   -2.570359    2.885818
      7          6           0        2.713489   -3.462992    1.661586
      8          6           0        3.809493   -4.503781    1.937655
      9          6           0        3.055379   -2.467075    0.509986
     10          1           0        0.806021    0.683464   -1.228911
     11          1           0        0.378462    0.422023    0.456843
     12          1           0        0.589619   -0.961480   -0.627123
     13          1           0        2.794788    1.002653    0.261323
     14          1           0        3.029066   -0.241672   -0.937700
     15          1           0        4.275090    0.445995    2.019972
     16          1           0        5.039842   -0.498578    0.732773
     17          1           0        4.753582   -1.231018    2.314221
     18          1           0        0.966513   -1.217669    1.984853
     19          1           0        2.116623   -0.377883    3.015326
     20          1           0        1.580633   -2.989868    3.489923
     21          1           0        3.264066   -2.494778    3.544774
     22          1           0        1.804627   -4.011844    1.389256
     23          1           0        4.746729   -4.011001    2.218927
     24          1           0        4.012490   -5.124968    1.058008
     25          1           0        3.528221   -5.173711    2.758261
     26          1           0        2.360937   -2.599636   -0.327736
     27          1           0        4.055353   -2.652994    0.104177
 ---------------------------------------------------------------------
                    Distance matrix (angstroms):
                    1          2          3          4          5
     1  C    0.000000
     2  C    1.536398   0.000000
     3  C    2.654624   1.559931   0.000000
     4  C    3.914426   2.501802   1.541929   0.000000
     5  C    3.108047   2.640787   1.546992   2.513326   0.000000
     6  C    4.398111   3.874111   2.451017   3.095334   1.542981
     7  C    4.395920   3.848835   2.526756   3.333156   2.454682
     8  C    5.820405   5.080927   3.694472   4.004780   3.779944
     9  C    3.363697   2.580684   1.559457   2.533631   2.424914
    10  H    1.094911   2.173995   3.574374   4.665831   4.171673
    11  H    1.093367   2.192409   3.008277   4.219742   2.944351
    12  H    1.095362   2.197648   2.907433   4.357288   3.258174
    13  H    2.154497   1.097633   2.181930   2.545416   3.094621
    14  H    2.145059   1.097503   2.156642   2.839991   3.519102
    15  H    4.091781   2.758328   2.190704   1.096127   2.808036
    16  H    4.240602   2.717725   2.182373   1.095469   3.475476
    17  H    4.799203   3.483326   2.201904   1.095194   2.739789
    18  H    2.662989   2.784431   2.189859   3.456024   1.092362
    19  H    3.592845   3.078122   2.206937   2.652184   1.096112
    20  H    4.935753   4.690570   3.406114   4.149269   2.198802
    21  H    5.186900   4.416665   2.897142   2.971808   2.193844
    22  H    4.483318   4.296117   3.221142   4.289322   2.964414
    23  H    6.100263   5.117564   3.676301   3.545723   3.923519
    24  H    6.148343   5.449727   4.243949   4.613715   4.577443
    25  H    6.583608   5.958257   4.522863   4.841334   4.280901
    26  H    2.970249   2.611398   2.193531   3.416512   2.993487
    27  H    4.108789   3.082987   2.200761   2.576128   3.328974
                    6          7          8          9         10
     6  C    0.000000
     7  C    1.548816   0.000000
     8  C    2.578013   1.536452   0.000000
     9  C    2.468844   1.560424   2.599058   0.000000
    10  H    5.480327   5.402453   6.779049   4.243733   0.000000
    11  H    4.348446   4.690106   6.182906   3.938984   1.758671
    12  H    4.263585   4.000822   5.430799   3.104804   1.764885
    13  H    4.451578   4.680740   5.844702   3.488374   2.505568
    14  H    4.521925   4.151238   5.200222   2.654977   2.425410
    15  H    3.659748   4.224597   4.972308   3.500533   4.758789
    16  H    3.992298   3.881025   4.359719   2.804051   4.813592
    17  H    2.774379   3.093480   3.426964   2.768933   5.639350
    18  H    2.161894   2.863197   4.345491   2.845981   3.737426
    19  H    2.213506   3.421514   4.588052   3.394512   4.567022
    20  H    1.095171   2.202277   3.109548   3.365741   6.029991
    21  H    1.095569   2.187915   2.629908   3.042081   6.239494
    22  H    2.159327   1.096099   2.135938   2.173433   5.467901
    23  H    2.839806   2.178304   1.095608   2.857421   7.032409
    24  H    3.534486   2.194055   1.095837   2.877636   7.017787
    25  H    2.843324   2.189302   1.096045   3.550240   7.590416
    26  H    3.213838   2.197061   3.294857   1.096175   3.742810
    27  H    3.242033   2.209574   2.616773   1.095077   4.844299
                   11         12         13         14         15
    11  H    0.000000
    12  H    1.770212   0.000000
    13  H    2.492787   3.083817   0.000000
    14  H    3.067726   2.562321   1.743814   0.000000
    15  H    4.198530   4.750874   2.365166   3.282269   0.000000
    16  H    4.759423   4.676332   2.741575   2.626728   1.770296
    17  H    5.032303   5.105168   3.611171   3.811529   1.768591
    18  H    2.317156   2.651434   3.353055   3.707832   3.703470
    19  H    3.194823   3.992463   3.154413   4.059251   2.515647
    20  H    4.720783   4.695374   5.276197   5.408732   4.607169
    21  H    5.135149   5.187331   4.820093   5.022379   3.463428
    22  H    4.750002   3.853148   5.234294   4.596540   5.135496
    23  H    6.468261   5.889070   5.725297   5.207927   4.486295
    24  H    6.658578   5.647154   6.298035   5.366242   5.659502
    25  H    6.821271   6.151349   6.702246   6.183388   5.716990
    26  H    3.698134   2.431205   3.675827   2.525559   4.295531
    27  H    4.806207   3.925218   3.870075   2.820150   3.649972
                   16         17         18         19         20
    16  H    0.000000
    17  H    1.766179   0.000000
    18  H    4.321667   3.801388   0.000000
    19  H    3.710771   2.858835   1.757802   0.000000
    20  H    5.076861   3.813585   2.404800   2.708319   0.000000
    21  H    3.878858   2.308681   3.056650   2.465397   1.755583
    22  H    4.820853   4.157509   2.977345   3.993385   2.346787
    23  H    3.825138   2.781624   4.706116   4.555355   3.561223
    24  H    4.750233   4.158140   5.040238   5.473593   4.048060
    25  H    5.314552   4.152530   4.776062   5.005862   3.016222
    26  H    3.565902   3.818088   3.033533   4.021435   3.916079
    27  H    2.450686   2.719160   3.890762   4.172480   4.207255
                   21         22         23         24         25
    21  H    0.000000
    22  H    3.012924   0.000000
    23  H    2.501019   3.056847   0.000000
    24  H    3.696220   2.494680   1.768547   0.000000
    25  H    2.804472   2.488952   1.768484   1.768546   0.000000
    26  H    3.977810   2.291697   3.764233   3.320424   4.184709
    27  H    3.533960   2.926374   2.606597   2.649959   3.698113
                   26         27
    26  H    0.000000
    27  H    1.749411   0.000000
 Stoichiometry    C9H18
 Framework group  C1[X(C9H18)]
 Deg. of freedom    75
 Full point group                 C1      NOp   1
 Largest Abelian subgroup         C1      NOp   1
 Largest concise Abelian subgroup C1      NOp   1
                         Standard orientation:                         
 ---------------------------------------------------------------------
 Center     Atomic      Atomic             Coordinates (Angstroms)
 Number     Number       Type             X           Y           Z
 ---------------------------------------------------------------------
      1          6           0       -2.773937   -1.114206   -0.218774
      2          6           0       -2.115752    0.253123   -0.459031
      3          6           0       -0.636580    0.445254   -0.002394
      4          6           0       -0.372487    1.961602    0.089727
      5          6           0       -0.239023   -0.215270    1.338815
      6          6           0        1.295377   -0.362979    1.271099
      7          6           0        1.603025   -0.706535   -0.207465
      8          6           0        2.944305   -0.139967   -0.698026
      9          6           0        0.364671   -0.198759   -1.009692
     10          1           0       -3.759004   -1.150485   -0.695383
     11          1           0       -2.927168   -1.310731    0.845816
     12          1           0       -2.180218   -1.936763   -0.631952
     13          1           0       -2.739135    1.028372    0.004846
     14          1           0       -2.152681    0.460573   -1.536116
     15          1           0       -1.025694    2.432517    0.833403
     16          1           0       -0.562579    2.444123   -0.875203
     17          1           0        0.662782    2.183510    0.369770
     18          1           0       -0.688546   -1.206217    1.434765
     19          1           0       -0.573754    0.370943    2.202396
     20          1           0        1.659311   -1.140726    1.950852
     21          1           0        1.799014    0.565507    1.561848
     22          1           0        1.656261   -1.797230   -0.302235
     23          1           0        2.951029    0.953113   -0.623951
     24          1           0        3.139604   -0.402634   -1.743839
     25          1           0        3.781513   -0.517678   -0.099919
     26          1           0       -0.114421   -1.030714   -1.538768
     27          1           0        0.656090    0.520944   -1.781894
 ---------------------------------------------------------------------
 Rotational constants (GHZ):           2.5547759           1.0409783           1.0068916
 Standard basis: 6-31G(2df,p) (6D, 7F)
 There are   369 symmetry adapted cartesian basis functions of A   symmetry.
 There are   342 symmetry adapted basis functions of A   symmetry.
   342 basis functions,   522 primitive gaussians,   369 cartesian basis functions
    36 alpha electrons       36 beta electrons
       nuclear repulsion energy       495.8258794099 Hartrees.
[...]
 16,0.00004227,0.00005922,0.00004842,-0.00002667,0.00003854,-0.00005338
 ,0.00027963,-0.00032733,0.00049461,0.00003534,0.00006076,0.00006565,-0
 .00035222,-0.00008190,0.00001346,-0.00002571,0.00004506,-0.00012581,0.
 00030305,0.00194182,-0.00047854,-0.00008966,-0.00065777,-0.00031160,0.
 06845659,0.08166092,0.00010872,-0.00002957,-0.00007317,0.00039480,0.00
 015778,-0.00009549,0.00014334,-0.00009373,-0.00115346,-0.00009918,0.00
 014573,-0.00029195,0.00366007,0.00075534,-0.00355018,0.11158198,0.0530
 1863,-0.14184527,0.01915096,0.01111676,-0.01466968,-0.00014722,0.00080
 709,0.00007229,-0.00085519,-0.00171004,-0.00480618,-0.00005655,0.00001
 527,0.00001603,-0.00007748,0.00002042,0.00003278,0.00004944,0.00001659
 ,0.00003945,-0.00006113,0.00008876,-0.00002936,-0.00012768,0.00008163,
 -0.00005975,0.00005698,0.00004263,0.00009059,0.00006447,0.00002877,0.0
 0006827,0.00015577,0.00004109,0.00004921,-0.00010085,-0.00004525,0.000
 23038,-0.00008572,0.00036432,-0.00012812,-0.12344511,-0.05997882,0.156
 01191,-0.00002826,-0.00000295,0.00008349,0.00015016,0.00001842,-0.0001
 2170,-0.00018225,0.00015329,-0.00001885,-0.00019888,-0.00012206,-0.000
 46892,-0.00459604,0.00121453,-0.00150676,-0.24221014,0.02010072,-0.098
 27656,-0.00132284,-0.00067119,-0.00064027,0.00069719,0.00026720,0.0005
 2329,0.00031463,0.00015813,0.00002542,0.00001844,0.00001063,-0.0000393
 3,0.00009491,-0.00000464,-0.00000576,0.00000854,-0.00000845,-0.0000073
 1,-0.00000886,-0.00002028,0.00003718,-0.00001650,0.00003577,-0.0000976
 0,0.00004108,-0.00007172,0.00015623,0.00009718,0.00001224,0.00002471,0
 .00026930,-0.00006173,0.00021715,0.00143682,0.00114744,-0.00033963,0.0
 0082033,0.00031634,0.00033836,-0.02089103,0.00203333,-0.01095074,0.262
 65981,0.00006926,-0.00004050,-0.00010432,-0.00000717,-0.00004308,0.000
 00513,0.00048171,0.00025241,-0.00073083,0.00021308,-0.00012554,0.00041
 580,0.02996086,-0.00524279,0.01393215,0.01991411,-0.04771636,0.0127375
 3,-0.01638521,-0.00017933,-0.00947631,-0.00151782,0.00121570,0.0002848
 9,-0.00014750,0.00011107,0.00076585,-0.00006333,0.00002798,0.00008297,
 -0.00020718,-0.00007740,-0.00005448,-0.00003834,0.00004310,0.00013213,
 -0.00000564,0.00015813,-0.00003429,-0.00006496,0.00000826,0.00019186,0
 .00000879,0.00006496,-0.00007231,-0.00017425,0.00001619,-0.00010120,-0
 .00042277,-0.00013862,-0.00002143,0.00074440,-0.00595070,0.00282653,-0
 .00009820,0.00205816,-0.00082661,-0.00965347,0.00096555,-0.00522316,-0
 .02389245,0.05551900,-0.00003562,-0.00000322,-0.00005671,0.00001098,-0
 .00000752,-0.00004554,-0.00015963,-0.00008078,0.00023887,-0.00033095,0
 .00030312,-0.00025290,-0.00560227,-0.00025773,-0.00288801,-0.09838442,
 0.01290960,-0.10068861,-0.02687652,0.00121960,-0.01483732,-0.00074173,
 0.00162495,0.00133460,-0.00086208,-0.00014687,0.00111163,0.00004352,0.
 00007024,-0.00002017,0.00009288,-0.00003265,-0.00004304,-0.00002102,0.
 00000402,0.00010906,0.00002345,-0.00001854,0.00004174,0.00002922,0.000
 01087,-0.00006090,0.00009874,-0.00006199,0.00008168,0.00007211,-0.0000
 6710,0.00005934,0.00034151,0.00018513,0.00013720,-0.00000706,0.0007850
 1,0.00043714,0.00061328,0.00002942,0.00073320,0.01738029,-0.00193021,0
 .00930193,0.11149514,-0.01143789,0.10985096,-0.00022157,0.00004067,-0.
 00048695,-0.00036361,-0.00038373,-0.00016481,-0.00023903,0.00020279,0.
 00032502,0.00011001,-0.00023993,-0.00003788,0.00008132,-0.00013525,0.0
 0013198,0.00016216,0.00046706,0.00015232,-0.25797261,-0.00666037,-0.08
 360202,-0.01192478,0.00057156,-0.00467896,-0.01918708,-0.00108360,-0.0
 0495131,0.00012997,0.00035947,-0.00005681,0.00025730,-0.00008622,-0.00
 023985,-0.00010511,0.00017846,0.00040016,0.00015174,-0.00003026,0.0001
 1811,0.00007338,0.00004475,-0.00001200,0.00000845,-0.00017640,-0.00007
 101,0.00007478,0.00009431,-0.00006482,0.00008532,0.00005546,0.00010249
 ,0.00034919,-0.00036060,-0.00003564,0.00028104,-0.00021150,0.00004660,
 0.00105229,-0.00022754,-0.00047972,0.00156354,0.00037375,0.00040833,0.
 28393982,-0.00020660,-0.00025996,-0.00004527,-0.00021483,-0.00025022,-
 0.00003220,0.00018076,0.00062888,0.00019809,-0.00002758,0.00007569,-0.
 00009249,-0.00030895,0.00065672,-0.00005543,-0.01371882,-0.00095964,-0
 .00629673,-0.00677323,-0.04892588,-0.00313919,0.03092201,-0.00219341,0
 .01206074,-0.01850517,-0.00072825,-0.00572666,0.00010232,0.00017498,-0
 .00000020,0.00025329,-0.00023191,-0.00000842,-0.00005047,0.00007274,0.
 00033601,0.00006578,0.00000046,0.00004423,0.00008270,0.00002415,0.0000
 0811,0.00007932,-0.00013239,-0.00004422,0.00005777,0.00006539,-0.00003
 509,0.00009552,-0.00003164,0.00011939,0.00028727,-0.00030401,-0.000304
 59,0.00021090,0.00016920,0.00011596,0.00047597,0.00056734,0.00055688,0
 .00003551,-0.00126087,-0.00250449,0.00662434,0.05717381,-0.00017789,0.
 00039472,0.00020924,-0.00001509,0.00009092,0.00010919,0.00000622,-0.00
 060547,-0.00004792,-0.00004008,0.00004964,-0.00009605,-0.00029604,0.00
 118801,0.00060790,-0.02925888,-0.00237575,-0.01548570,-0.08376361,-0.0
 0311394,-0.07821759,-0.00179754,0.00007718,-0.00064983,0.02075526,0.00
 171951,0.00511095,0.00003280,-0.00003474,-0.00011193,0.00007702,-0.000
 04714,-0.00009178,-0.00001944,0.00004222,-0.00026934,-0.00004803,0.000
 01732,-0.00005604,0.00003069,-0.00002510,0.00004423,-0.00006005,0.0001
 0515,0.00008330,-0.00003156,-0.00006454,0.00011965,0.00005011,-0.00001
 203,-0.00006427,0.00039962,-0.00054347,0.00037681,0.00038801,0.0001855
 7,0.00000118,0.00018021,0.00105823,0.00131875,-0.00005150,-0.00387088,
 -0.00499650,0.09042270,0.00293506,0.09112947,-0.00003403,-0.00003222,-
 0.00002613,0.00000768,-0.00010665,-0.00004322,0.00026518,-0.00006996,0
 .00010148,-0.00007711,0.00008776,-0.00003630,0.00039744,0.00002060,0.0
 0015394,0.00009171,-0.00089964,-0.00055223,-0.01324690,0.00081386,-0.0
 0467054,-0.26761505,-0.00055575,-0.08833852,0.00076139,-0.00081892,0.0
 0062631,0.00001813,0.00004586,-0.00001219,0.00004435,-0.00003659,-0.00
 003037,-0.00001462,0.00001491,0.00007224,0.00001508,0.00001011,0.00003
 378,0.00001342,0.00001316,-0.00000438,0.00003177,0.00001387,0.00002786
 ,0.00000451,-0.00000532,0.00000113,0.00002993,0.00000464,0.00003867,0.
 00005719,-0.00022855,0.00007588,0.00001163,0.00012351,-0.00000777,0.00
 008159,-0.00001603,-0.00002776,0.00042280,0.00059064,0.00088529,0.0005
 2581,0.00289890,0.00021815,0.29286221,0.00004670,0.00001793,0.00006293
 ,0.00003753,0.00014291,0.00007559,-0.00014942,0.00024911,-0.00015393,0
 .00001106,-0.00001783,0.00001743,-0.00012131,0.00016217,0.00004910,0.0
 0055485,0.00164607,0.00137698,0.03046238,-0.00169498,0.01231272,-0.001
 40837,-0.04661751,-0.00042849,0.00170309,0.00168329,-0.00051430,-0.000
 03080,-0.00006981,0.00000465,-0.00005924,0.00005294,0.00002910,0.00002
 792,-0.00004859,-0.00009036,-0.00003433,0.00001803,-0.00003981,-0.0000
 1693,-0.00001490,-0.00000022,-0.00001178,0.00002136,-0.00001091,-0.000
 00886,-0.00000675,0.00000012,-0.00002873,-0.00002716,-0.00002777,-0.00
 015772,0.00012105,-0.00004116,-0.00010413,-0.00001333,-0.00002637,-0.0
 0010814,-0.00002282,-0.00009855,-0.00071658,0.00002356,-0.00066987,0.0
 0250989,-0.00585867,0.00037306,-0.00211084,0.05129916,-0.00000937,-0.0
 0002529,-0.00002145,0.00002197,-0.00005629,-0.00005909,0.00018087,0.00
 005464,0.00009010,-0.00000564,0.00001856,0.00000336,0.00006357,-0.0001
 2869,0.00004528,0.00128493,0.00011113,0.00067774,-0.00180390,0.0002141
 0,-0.00181841,-0.08837527,-0.00008377,-0.08245861,-0.00111015,-0.00037
 119,-0.00009170,0.00001068,0.00002077,-0.00000196,0.00002240,-0.000007
 58,-0.00001239,-0.00001027,0.00000102,0.00002797,0.00002193,-0.0000161
 8,0.00002559,0.00000242,0.00001321,-0.00001865,0.00001747,-0.00001963,
 -0.00000192,0.00001123,0.00002288,-0.00002525,-0.00000129,0.00000468,0
 .00003215,-0.00002187,-0.00005005,-0.00006168,-0.00001124,0.00003397,-
 0.00002328,0.00002505,-0.00006561,0.00000999,-0.00018964,0.00010189,0.
 00027530,0.00013590,0.00052722,0.00081845,0.09847686,-0.00037342,0.085
 46098,-0.00001418,0.00004271,0.00003467,0.00005798,-0.00000396,-0.0000
 0551,-0.00025096,-0.00001839,0.00014774,-0.00000115,-0.00001467,-0.000
 06868,0.00056166,0.00037621,0.00076836,-0.00047905,0.00207089,-0.00141
 633,-0.00133362,0.00488417,0.01188360,-0.04716821,0.00198629,0.0046380
 7,0.00021850,-0.00043112,-0.00023032,-0.00000475,-0.00001399,-0.000013
 24,0.00000554,0.00000406,0.00000770,0.00001932,-0.00001299,-0.00002469
 ,-0.00001377,-0.00000793,-0.00000217,-0.00001091,0.00000211,-0.0000194
 1,-0.00000874,-0.00001097,0.00001012,0.00001731,-0.00000386,-0.0000020
 3,-0.00000255,0.00000525,0.00001017,-0.00003154,-0.00010271,0.00003544
 ,-0.00003793,0.00033454,-0.00010838,0.00013843,-0.00026613,-0.00025321
 ,0.00033429,0.00014204,0.00034755,0.00024339,-0.00059474,0.00033681,0.
 00130487,-0.01285561,-0.02795440,0.04699963,0.00003841,-0.00008289,-0.
 00005287,-0.00008497,0.00003897,0.00007446,0.00037894,0.00000249,-0.00
 037310,-0.00007035,0.00008632,0.00008522,-0.00006786,-0.00060915,-0.00
 190254,0.00238818,-0.00497899,0.00310512,-0.00048653,-0.01319741,-0.03
 006930,0.00210042,-0.09173036,-0.09817828,-0.00014585,0.00181453,-0.00
 069527,-0.00000532,0.00001286,0.00003264,-0.00005394,0.00001519,0.0000
 0736,0.00001699,0.00002300,0.00003075,-0.00001164,0.00006241,-0.000013
 73,0.00000766,-0.00004532,0.00007236,0.00003701,0.00005488,0.00001085,
 -0.00005543,-0.00003816,0.00003669,0.00004493,-0.00000221,-0.00000301,
 0.00005794,-0.00010271,0.00004648,0.00010044,-0.00072359,0.00023891,0.
 00023942,-0.00008448,-0.00025579,-0.00011533,0.00018275,0.00032366,0.0
 0003005,0.00133315,0.00041772,-0.00029267,-0.00070644,0.00024365,-0.00
 425417,0.10120551,0.00001907,-0.00002881,-0.00000591,-0.00004840,0.000
 01879,-0.00001725,0.00007066,-0.00025933,-0.00002040,0.00000330,-0.000
 00693,0.00000764,-0.00002453,0.00035526,0.00000164,0.00003194,0.000366
 86,0.00117207,-0.00007015,0.00167675,0.00287700,0.00480232,-0.09900742
 ,-0.26112453,0.00005556,0.00012677,0.00071524,0.00000617,-0.00000928,0
 .00001971,-0.00002460,0.00000742,-0.00000057,-0.00000811,0.00000726,-0
 .00000236,0.00001519,-0.00000032,0.00000467,-0.00000078,-0.00000847,0.
 00003181,-0.00000764,-0.00001002,0.00000367,-0.00001930,-0.00000874,0.
 00002266,0.00002194,0.00000762,0.00000448,0.00002199,-0.00007156,0.000
 03793,-0.00005154,0.00001098,0.00005260,-0.00005590,0.00012952,0.00009
 735,0.00013449,0.00022233,0.00019878,0.00051449,-0.00044799,0.00044735
 ,0.00083363,-0.00396539,-0.01045154,-0.00540863,0.10926366,0.28291325,
 0.00000427,-0.00000828,0.00000010,0.00006816,-0.00002316,0.00000809,0.
 00068828,0.00051525,-0.00021739,-0.00010534,0.00017450,0.00000362,0.00
 000770,-0.00021352,-0.00025808,0.00028214,-0.00035074,-0.00015436,0.00
 730664,0.00758396,-0.00864495,-0.13493642,-0.08457053,0.08938433,-0.00
 085880,0.00212527,0.00041508,-0.00000211,-0.00000967,0.00000391,-0.000
 00761,0.00000726,0.00000213,-0.00000164,-0.00000621,-0.00001549,-0.000
 00909,0.00000323,0.00000616,-0.00000258,0.00000470,-0.00000181,0.00006
 356,0.00002687,0.00003391,-0.00000729,0.00000626,-0.00001077,0.0000106
 8,0.00000075,0.00003476,-0.00001238,0.00001882,0.00000040,-0.00001099,
 -0.00006719,0.00002055,0.00010224,-0.00019619,-0.00001438,-0.00008921,
 -0.00007333,0.00009977,0.00079466,-0.00073399,-0.00014882,-0.01679070,
 -0.01620022,0.01867785,-0.00072185,0.00047295,-0.00057201,0.14361234,-
 0.00005109,-0.00000445,0.00004716,-0.00002040,-0.00025971,-0.00037739,
 -0.00109631,-0.00035249,0.00146832,0.00031622,-0.00038801,-0.00009927,
 0.00009060,0.00002939,0.00036010,-0.00083142,0.00161980,0.00057941,-0.
 01978865,-0.01752155,0.01890736,-0.08383619,-0.12704108,0.08551980,0.0
 0390428,-0.00471284,-0.00148624,0.00004256,-0.00001635,0.00001049,0.00
 003265,-0.00000192,-0.00002126,-0.00003062,0.00000117,-0.00002657,0.00
 013351,-0.00016099,0.00010733,-0.00001007,0.00003504,-0.00003166,-0.00
 015426,-0.00015996,-0.00007103,0.00002682,0.00002973,0.00000082,-0.000
 03500,0.00002925,-0.00000842,0.00003887,0.,-0.00003067,0.00004045,0.00
 009735,-0.00011813,0.00045342,-0.00021790,-0.00069763,-0.00003561,-0.0
 0010753,-0.00016911,0.00032763,0.00129369,-0.00004552,0.00012038,-0.00
 042795,-0.00052107,0.00869157,0.00789260,-0.00783741,0.09151038,0.1403
 4085,0.00000431,-0.00001015,-0.00003316,0.00001373,-0.00001431,0.00005
 197,0.00036831,-0.00034926,-0.00005786,-0.00009896,0.00011403,0.000038
 24,-0.00003631,0.00012189,-0.00001057,-0.00046475,-0.00018775,0.000589
 67,0.00025809,0.00037668,-0.00159389,0.08930809,0.08604999,-0.13826079
 ,-0.00079454,0.00038042,0.00120753,-0.00001786,0.00001192,-0.00000810,
 -0.00000464,0.00000963,0.00001628,0.00002375,0.00000094,0.00001033,-0.
 00002319,0.00002413,-0.00001440,-0.00001019,-0.00000800,-0.00000758,0.
 00004797,0.00004822,0.00002398,0.00000376,-0.00000997,-0.00000413,0.00
 000558,-0.00000449,0.00000693,-0.00002989,0.00001827,-0.00000565,-0.00
 001443,0.00002116,0.00003701,0.00007285,0.00021386,0.00032313,-0.00005
 844,0.00001334,0.00004193,-0.00018351,0.00013274,-0.00009219,-0.007391
 34,-0.00786799,0.00755141,0.01766188,0.01687024,-0.01715757,-0.0987247
 4,-0.09550642,0.14719383,-0.00046278,0.00101303,0.00066941,0.00050953,
 0.00020746,-0.00020698,0.00028508,0.00022393,0.00650787,-0.00018503,-0
 .00021705,-0.00041536,-0.00064186,0.00051572,0.00131433,-0.00214639,-0
 .00145774,0.00240805,0.00285069,0.00284387,0.01850423,-0.00032601,0.00
 039336,-0.00014479,-0.05418026,-0.00619537,-0.04965905,0.00019186,-0.0
 0023928,-0.00013721,0.00006090,-0.00005977,-0.00003021,-0.00122281,0.0
 0031456,-0.00058121,0.00000431,-0.00025193,0.00009509,-0.00006832,-0.0
 0008013,-0.00003675,0.00006198,-0.00031268,0.00023900,-0.00002942,-0.0
 0007668,0.00001652,0.00028139,0.00002641,0.00033626,-0.00015395,0.0000
 5642,0.00020361,-0.00021719,0.00010139,0.00029671,0.00006929,0.0004520
 6,0.00111446,0.00021461,0.00002601,0.00037444,0.00114549,0.00084677,-0
 .00028826,0.00008806,-0.00016182,0.00003931,0.00023222,-0.00001892,-0.
 00015609,0.00002878,-0.00004109,-0.00001679,0.05966723,0.00051255,-0.0
 0028756,0.00009473,-0.00026841,0.00139089,-0.00128383,-0.00551148,-0.0
 0273265,-0.02661848,0.00157814,-0.00188244,-0.00092449,0.00013673,-0.0
 0325063,-0.00128737,-0.00219343,-0.00337844,0.00180342,0.00528716,0.00
 323238,0.02052904,-0.00008766,0.00097491,0.00044795,-0.00613765,-0.050
 71713,-0.03179796,-0.00002944,0.00016833,0.00011675,-0.00019317,0.0000
 7309,0.00002957,0.00076527,0.00014726,0.00019399,-0.00033671,0.0003551
 1,0.00013092,-0.00033562,-0.00032206,0.00051041,-0.00082610,-0.0007577
 0,0.00014921,-0.00031271,0.00002902,0.00027536,0.00017557,0.00007430,0
 .00004372,0.00029331,0.00004025,-0.00045310,0.00066033,0.00017256,-0.0
 0088531,-0.00020757,0.00093184,0.00092180,0.00000090,-0.00011966,-0.00
 014143,0.00060146,0.00098577,-0.00098575,-0.00012647,0.00002075,0.0000
 0258,0.00005707,-0.00032002,-0.00039748,-0.00016926,-0.00022000,-0.000
 34657,0.00550919,0.05445623,-0.00045112,0.00007728,-0.00005103,-0.0012
 1434,0.00082029,-0.00022985,-0.00093297,0.00023375,-0.00583468,0.00072
 059,-0.00064808,-0.00037366,-0.00034852,-0.00005457,-0.00052678,0.0027
 4062,0.00183151,-0.00121259,-0.00423322,-0.00377073,-0.01485291,0.0003
 1750,-0.00028468,-0.00041892,-0.04662708,-0.03219471,-0.29245608,0.000
 00605,0.00029498,0.00018873,-0.00019051,0.00025811,0.00011158,0.000190
 92,0.00061229,0.00052111,-0.00018583,0.00007996,0.00027426,0.00011799,
 -0.00051392,0.00052708,-0.00021324,-0.00023191,-0.00004414,-0.00021550
 ,-0.00008954,0.00003231,0.00009805,0.00012030,0.00014812,0.00020122,-0
 .00008749,-0.00013576,0.00023406,-0.00013994,-0.00026821,0.00008175,-0
 .00059673,-0.00097029,-0.00012703,0.00007290,0.00027763,0.00013224,-0.
 00021752,0.00129828,0.00005414,-0.00004604,0.00007738,-0.00014748,0.00
 061572,0.00022301,0.00008792,0.00037198,0.00020340,0.05117896,0.034014
 18,0.31864927,0.00018727,-0.00014513,-0.00004718,0.00008194,0.00007069
 ,0.00120285,-0.00482470,0.00110637,-0.00172066,0.00045467,-0.00278530,
 -0.00084928,0.00004998,0.00045537,0.00014588,0.00001613,0.00018324,-0.
 00095787,-0.02081153,0.00121514,-0.00363014,0.00105359,0.00163254,-0.0
 0076528,-0.28150997,0.04912759,-0.03908319,-0.00002539,0.00007124,-0.0
 0001488,0.00003260,0.00000817,0.00000608,0.00005862,0.00006084,0.00017
 056,-0.00010275,0.00029470,-0.00008942,0.00002640,0.00001221,-0.000089
 14,0.00027416,-0.00056690,-0.00001779,0.00056373,0.00044985,-0.0001340
 2,0.00077945,0.00017344,0.00056775,0.00005281,-0.00007925,0.00000896,-
 0.00014547,0.00011439,0.00022596,0.00033332,-0.00010138,0.00030093,0.0
 0040040,0.00022697,0.00070480,-0.00101587,-0.00208473,0.00309919,0.000
 74368,-0.00106858,0.00050060,-0.00005392,-0.00025036,-0.00008305,0.000
 58655,0.00020134,0.00010128,-0.00605740,0.00115803,-0.00127517,0.30885
 169,-0.00053763,-0.00028248,-0.00030886,0.00096635,-0.00359139,-0.0030
 0378,0.02699795,-0.00940281,0.00457754,0.00223868,0.00024218,0.0004117
 0,-0.00017053,-0.00191525,0.00011310,0.00031203,0.00016546,-0.00056239
 ,-0.02176812,0.00133431,-0.00311998,-0.00140489,0.00134858,-0.00095549
 ,0.04795474,-0.05269441,0.00793018,0.00004454,0.00007767,0.00004945,0.
 00006213,0.00000126,-0.00005096,-0.00007194,0.00018295,0.00008181,0.00
 077851,-0.00106388,0.00111580,-0.00012683,0.00006275,0.00016746,-0.000
 23995,0.00052894,0.00008457,-0.00030884,-0.00030204,0.00052632,-0.0003
 9714,-0.00012438,-0.00075292,0.00006715,-0.00000322,-0.00008919,0.0003
 2952,0.00008294,-0.00049358,0.00013237,-0.00003839,-0.00004696,0.00021
 857,0.00035556,0.00006376,-0.00288624,-0.00208513,0.00307002,0.0005414
 1,0.00006840,0.00034849,-0.00000567,-0.00010293,-0.00013409,0.00017209
 ,0.00022386,-0.00010255,-0.00341770,0.00093559,-0.00052741,-0.04948054
 ,0.06599585,-0.00016742,-0.00018856,-0.00032519,-0.00027871,-0.0006670
 9,-0.00059391,0.00825434,-0.00251822,0.00074726,0.00059855,-0.00081376
 ,0.00142510,-0.00020647,-0.00069144,-0.00066913,0.00024280,-0.00000269
 ,0.00098444,0.01867880,-0.00240185,0.00303658,0.00044984,-0.00094130,0
 .00107072,-0.03909151,0.00800055,-0.05572918,-0.00004808,0.00018292,0.
 00012889,-0.00011321,0.00019738,0.00007862,0.00033181,0.00033916,0.000
 27058,0.00005578,0.00001236,0.00033916,-0.00003156,-0.00008534,0.00010
 402,0.00007173,0.00003649,0.00000606,-0.00012745,0.00021807,-0.0001202
 5,0.00011019,-0.00011533,-0.00023698,0.00002383,0.00006971,-0.00003508
 ,0.00013994,-0.00005196,-0.00020897,-0.00032736,0.00007401,0.00001082,
 -0.00013543,0.00016840,-0.00034131,0.00217495,0.00191608,-0.00149562,-
 0.00045862,0.00005291,-0.00004977,-0.00022763,0.00006840,-0.00005072,-
 0.00001578,-0.00032500,-0.00004975,-0.03162553,0.00585813,-0.00515726,
 0.04172220,-0.00839204,0.05686087\\0.00000051,0.00000125,-0.00000081,0
 .00000208,0.00000021,-0.00000016,-0.00000084,0.00000054,0.00000043,0.0
 0000011,-0.00000130,0.00000026,0.00000270,0.00000062,0.00000047,-0.000
 00213,0.00000109,0.00000038,-0.00000025,0.00000050,0.00000008,-0.00000
 176,-0.00000028,0.00000073,-0.00000092,-0.00000299,-0.00000089,0.00000
 096,0.00000094,0.00000002,0.,0.00000115,-0.00000018,-0.00000002,0.0000
 0076,-0.00000008,0.00000171,0.00000029,-0.00000123,0.00000116,-0.00000
 062,-0.00000073,0.00000188,-0.00000053,-0.00000108,0.00000087,-0.00000
 216,-0.00000079,0.00000085,-0.00000103,-0.00000040,0.00000138,0.000001
 03,0.00000015,0.00000104,0.00000100,0.00000029,-0.00000046,0.00000144,
 0.00000061,-0.00000055,0.00000028,-0.00000023,-0.00000034,0.00000038,0
 .00000113,-0.00000181,-0.00000078,0.00000073,-0.00000227,-0.00000058,0
 .00000076,-0.00000228,0.00000076,0.00000080,-0.00000116,-0.00000062,-0
 .00000009,-0.00000046,-0.00000135,-0.00000014\\\@


 BE LIKE A POSTAGE STAMP.  STICK TO ONE THING UNTIL
 YOU GET THERE -- JOSH BILLINGS
 Job cpu time:       0 days  3 hours 16 minutes  9.5 seconds.
 Elapsed time:       0 days  0 hours 49 minutes  3.7 seconds.
 File lengths (MBytes):  RWF=    226 Int=      0 D2E=      0 Chk=     11 Scr=      1
 Normal termination of Gaussian 16 at Sun May 28 22:50:00 2023.
### All Done ###
