### Starting Gaussian ###
 Entering Gaussian System, Link 0=g16
 Initial command:
 /cluster/software/gaussian/gaussian-16-A.03/avx2/g16/l1.exe "/local/scratch/linjian/Gau-12491.inp" -scrdir="/local/scratch/linjian/"
 Entering Link 1 = /cluster/software/gaussian/gaussian-16-A.03/avx2/g16/l1.exe PID=     12492.
  
 Copyright (c) 1988,1990,1992,1993,1995,1998,2003,2009,2016,
            Gaussian, Inc.  All Rights Reserved.
  
 This is part of the Gaussian(R) 16 program.  It is based on
 the Gaussian(R) 09 system (copyright 2009, Gaussian, Inc.),
 the Gaussian(R) 03 system (copyright 2003, Gaussian, Inc.),
 the Gaussian(R) 98 system (copyright 1998, Gaussian, Inc.),
 the Gaussian(R) 94 system (copyright 1995, Gaussian, Inc.),
 the Gaussian 92(TM) system (copyright 1992, Gaussian, Inc.),
 the Gaussian 90(TM) system (copyright 1990, Gaussian, Inc.),
 the Gaussian 88(TM) system (copyright 1988, Gaussian, Inc.),
 the Gaussian 86(TM) system (copyright 1986, Carnegie Mellon
 University), and the Gaussian 82(TM) system (copyright 1983,
 Carnegie Mellon University). Gaussian is a federally registered
 trademark of Gaussian, Inc.
  
 This software contains proprietary and confidential information,
 including trade secrets, belonging to Gaussian, Inc.
  
 This software is provided under written license and may be
 used, copied, transmitted, or stored only in accord with that
 written license.
  
 The following legend is applicable only to US Government
 contracts under FAR:
  
                    RESTRICTED RIGHTS LEGEND
  
 Use, reproduction and disclosure by the US Government is
 subject to restrictions as set forth in subparagraphs (a)
 and (c) of the Commercial Computer Software - Restricted
 Rights clause in FAR 52.227-19.
  
 Gaussian, Inc.
 340 Quinnipiac St., Bldg. 40, Wallingford CT 06492
  
  
 ---------------------------------------------------------------
 Warning -- This program may not be used in any manner that
 competes with the business of Gaussian, Inc. or will provide
 assistance to any competitor of Gaussian, Inc.  The licensee
 of this program is prohibited from giving any competitor of
 Gaussian, Inc. access to this program.  By using this program,
 the user acknowledges that Gaussian, Inc. is engaged in the
 business of creating and licensing software in the field of
 computational chemistry and represents and warrants to the
 licensee that it is not a competitor of Gaussian, Inc. and that
 it will not use this program in any manner prohibited above.
 ---------------------------------------------------------------
  

 Cite this work as:
 Gaussian 16, Revision A.03,
 M. J. Frisch, G. W. Trucks, H. B. Schlegel, G. E. Scuseria, 
 M. A. Robb, J. R. Cheeseman, G. Scalmani, V. Barone, 
 G. A. Petersson, H. Nakatsuji, X. Li, M. Caricato, A. V. Marenich, 
 J. Bloino, B. G. Janesko, R. Gomperts, B. Mennucci, H. P. Hratchian, 
 J. V. Ortiz, A. F. Izmaylov, J. L. Sonnenberg, D. Williams-Young, 
 F. Ding, F. Lipparini, F. Egidi, J. Goings, B. Peng, A. Petrone, 
 T. Henderson, D. Ranasinghe, V. G. Zakrzewski, J. Gao, N. Rega, 
 G. Zheng, W. Liang, M. Hada, M. Ehara, K. Toyota, R. Fukuda, 
 J. Hasegawa, M. Ishida, T. Nakajima, Y. Honda, O. Kitao, H. Nakai, 
 T. Vreven, K. Throssell, J. A. Montgomery, Jr., J. E. Peralta, 
 F. Ogliaro, M. J. Bearpark, J. J. Heyd, E. N. Brothers, K. N. Kudin, 
 V. N. Staroverov, T. A. Keith, R. Kobayashi, J. Normand, 
 K. Raghavachari, A. P. Rendell, J. C. Burant, S. S. Iyengar, 
 J. Tomasi, M. Cossi, J. M. Millam, M. Klene, C. Adamo, R. Cammi, 
 J. W. Ochterski, R. L. Martin, K. Morokuma, O. Farkas, 
 J. B. Foresman, and D. J. Fox, Gaussian, Inc., Wallingford CT, 2016.
 
 ******************************************
 Gaussian 16:  ES64L-G16RevA.03 25-Dec-2016
                28-May-2023 
 ******************************************
 %chk=CCC1CC2CC1C2C.chk
 %NProcShared=20
 Will use up to   20 processors via shared memory.
 -----------------------------
 # opt freq b3lyp/6-31g(2df,p)
 -----------------------------
 1/18=20,19=15,26=3,38=1/1,3;
 2/9=110,12=2,17=6,18=5,40=1/2;
 3/5=1,6=6,7=104,11=2,25=1,30=1,71=1,74=-5/1,2,3;
 4//1;
 5/5=2,38=5/2;
 6/7=2,8=2,9=2,10=2,28=1/1;
 7//1,2,3,16;
 1/18=20,19=15,26=3/3(2);
 2/9=110/2;
 99//99;
 2/9=110/2;
 3/5=1,6=6,7=104,11=2,25=1,30=1,71=1,74=-5/1,2,3;
 4/5=5,16=3,69=1/1;
 5/5=2,38=5/2;
 7//1,2,3,16;
 1/18=20,19=15,26=3/3(-5);
 2/9=110/2;
 6/7=2,8=2,9=2,10=2,19=2,28=1/1;
 99/9=1/99;
 -------------------
 Title Card Required
 -------------------
 Symbolic Z-matrix:
 Charge =  0 Multiplicity = 1
 C                     0.87495  -0.09636  -0.25227 
 C                     2.38387   0.03699  -0.08136 
 C                     2.87545   0.67012   1.2293 
 C                     1.85777   0.81388   2.37617 
 C                     1.85843   2.34049   2.52905 
 C                     3.3882    2.63312   2.57041 
 C                     3.26354   2.16053   1.07744 
 C                     1.92639   2.98491   1.08915 
 C                     1.94973   4.50213   0.92604 
 H                     0.63415  -0.51127  -1.23449 
 H                     0.36034   0.86192  -0.17043 
 H                     0.45447  -0.77635   0.49536 
 H                     2.80254   0.57341  -0.94096 
 H                     2.79314  -0.9812   -0.1353 
 H                     3.75912   0.1115    1.56752 
 H                     2.22829   0.32642   3.28602 
 H                     0.85874   0.42475   2.18431 
 H                     1.19673   2.78328   3.26686 
 H                     3.98774   2.00918   3.23995 
 H                     3.68228   3.67021   2.75149 
 H                     4.05182   2.4349    0.3807 
 H                     1.17475   2.62583   0.38293 
 H                     2.64658   5.00637   1.59863 
 H                     0.95463   4.9157    1.12006 
 H                     2.23176   4.77108  -0.09747 
 

 GradGradGradGradGradGradGradGradGradGradGradGradGradGradGradGradGradGrad
 Berny optimization.
 Initialization pass.
                           ----------------------------
                           !    Initial Parameters    !
                           ! (Angstroms and Degrees)  !
 --------------------------                            --------------------------
 ! Name  Definition              Value          Derivative Info.                !
 --------------------------------------------------------------------------------
 ! R1    R(1,2)                  1.5244         estimate D2E/DX2                !
 ! R2    R(1,10)                 1.0931         estimate D2E/DX2                !
 ! R3    R(1,11)                 1.0908         estimate D2E/DX2                !
 ! R4    R(1,12)                 1.0946         estimate D2E/DX2                !
 ! R5    R(2,3)                  1.5363         estimate D2E/DX2                !
 ! R6    R(2,13)                 1.0963         estimate D2E/DX2                !
 ! R7    R(2,14)                 1.0987         estimate D2E/DX2                !
 ! R8    R(3,4)                  1.54           estimate D2E/DX2                !
 ! R9    R(3,7)                  1.5476         estimate D2E/DX2                !
 ! R10   R(3,15)                 1.0988         estimate D2E/DX2                !
 ! R11   R(4,5)                  1.5342         estimate D2E/DX2                !
 ! R12   R(4,16)                 1.0967         estimate D2E/DX2                !
 ! R13   R(4,17)                 1.0892         estimate D2E/DX2                !
 ! R14   R(5,6)                  1.5581         estimate D2E/DX2                !
 ! R15   R(5,8)                  1.579          estimate D2E/DX2                !
 ! R16   R(5,18)                 1.0855         estimate D2E/DX2                !
 ! R17   R(6,7)                  1.5709         estimate D2E/DX2                !
 ! R18   R(6,19)                 1.0941         estimate D2E/DX2                !
 ! R19   R(6,20)                 1.0931         estimate D2E/DX2                !
 ! R20   R(7,8)                  1.5709         estimate D2E/DX2                !
 ! R21   R(7,21)                 1.0872         estimate D2E/DX2                !
 ! R22   R(8,9)                  1.5261         estimate D2E/DX2                !
 ! R23   R(8,22)                 1.0921         estimate D2E/DX2                !
 ! R24   R(9,23)                 1.0919         estimate D2E/DX2                !
 ! R25   R(9,24)                 1.0949         estimate D2E/DX2                !
 ! R26   R(9,25)                 1.0952         estimate D2E/DX2                !
 ! A1    A(2,1,10)             110.6094         estimate D2E/DX2                !
 ! A2    A(2,1,11)             112.4404         estimate D2E/DX2                !
 ! A3    A(2,1,12)             110.9776         estimate D2E/DX2                !
 ! A4    A(10,1,11)            107.2744         estimate D2E/DX2                !
 ! A5    A(10,1,12)            107.0563         estimate D2E/DX2                !
 ! A6    A(11,1,12)            108.2572         estimate D2E/DX2                !
 ! A7    A(1,2,3)              116.6419         estimate D2E/DX2                !
 ! A8    A(1,2,13)             109.4447         estimate D2E/DX2                !
 ! A9    A(1,2,14)             106.3886         estimate D2E/DX2                !
 ! A10   A(3,2,13)             110.1859         estimate D2E/DX2                !
 ! A11   A(3,2,14)             107.7342         estimate D2E/DX2                !
 ! A12   A(13,2,14)            105.8243         estimate D2E/DX2                !
 ! A13   A(2,3,4)              117.5386         estimate D2E/DX2                !
 ! A14   A(2,3,7)              113.1666         estimate D2E/DX2                !
 ! A15   A(2,3,15)             108.0841         estimate D2E/DX2                !
 ! A16   A(4,3,7)               98.5627         estimate D2E/DX2                !
 ! A17   A(4,3,15)             110.4677         estimate D2E/DX2                !
 ! A18   A(7,3,15)             108.5508         estimate D2E/DX2                !
 ! A19   A(3,4,5)               99.6023         estimate D2E/DX2                !
 ! A20   A(3,4,16)             110.6761         estimate D2E/DX2                !
 ! A21   A(3,4,17)             116.206          estimate D2E/DX2                !
 ! A22   A(5,4,16)             111.0668         estimate D2E/DX2                !
 ! A23   A(5,4,17)             111.928          estimate D2E/DX2                !
 ! A24   A(16,4,17)            107.2915         estimate D2E/DX2                !
 ! A25   A(4,5,6)              100.9499         estimate D2E/DX2                !
 ! A26   A(4,5,8)              108.3754         estimate D2E/DX2                !
 ! A27   A(4,5,18)             118.2524         estimate D2E/DX2                !
 ! A28   A(6,5,8)               84.5657         estimate D2E/DX2                !
 ! A29   A(6,5,18)             120.2561         estimate D2E/DX2                !
 ! A30   A(8,5,18)             118.6585         estimate D2E/DX2                !
 ! A31   A(5,6,7)               80.8138         estimate D2E/DX2                !
 ! A32   A(5,6,19)             116.5621         estimate D2E/DX2                !
 ! A33   A(5,6,20)             116.5352         estimate D2E/DX2                !
 ! A34   A(7,6,19)             116.9693         estimate D2E/DX2                !
 ! A35   A(7,6,20)             117.6592         estimate D2E/DX2                !
 ! A36   A(19,6,20)            106.9936         estimate D2E/DX2                !
 ! A37   A(3,7,6)              102.4955         estimate D2E/DX2                !
 ! A38   A(3,7,8)              106.9303         estimate D2E/DX2                !
 ! A39   A(3,7,21)             119.1914         estimate D2E/DX2                !
 ! A40   A(6,7,8)               84.4099         estimate D2E/DX2                !
 ! A41   A(6,7,21)             118.3967         estimate D2E/DX2                !
 ! A42   A(8,7,21)             119.3069         estimate D2E/DX2                !
 ! A43   A(5,8,7)               80.169          estimate D2E/DX2                !
 ! A44   A(5,8,9)              120.2555         estimate D2E/DX2                !
 ! A45   A(5,8,22)             115.2072         estimate D2E/DX2                !
 ! A46   A(7,8,9)              120.5242         estimate D2E/DX2                !
 ! A47   A(7,8,22)             114.1094         estimate D2E/DX2                !
 ! A48   A(9,8,22)             105.5626         estimate D2E/DX2                !
 ! A49   A(8,9,23)             113.7677         estimate D2E/DX2                !
 ! A50   A(8,9,24)             110.0392         estimate D2E/DX2                !
 ! A51   A(8,9,25)             110.3625         estimate D2E/DX2                !
 ! A52   A(23,9,24)            107.2433         estimate D2E/DX2                !
 ! A53   A(23,9,25)            107.3323         estimate D2E/DX2                !
 ! A54   A(24,9,25)            107.8711         estimate D2E/DX2                !
 ! D1    D(10,1,2,3)           177.2088         estimate D2E/DX2                !
 ! D2    D(10,1,2,13)           51.2986         estimate D2E/DX2                !
 ! D3    D(10,1,2,14)          -62.6085         estimate D2E/DX2                !
 ! D4    D(11,1,2,3)            57.3044         estimate D2E/DX2                !
 ! D5    D(11,1,2,13)          -68.6058         estimate D2E/DX2                !
 ! D6    D(11,1,2,14)          177.4871         estimate D2E/DX2                !
 ! D7    D(12,1,2,3)           -64.119          estimate D2E/DX2                !
 ! D8    D(12,1,2,13)          169.9709         estimate D2E/DX2                !
 ! D9    D(12,1,2,14)           56.0637         estimate D2E/DX2                !
 ! D10   D(1,2,3,4)             13.7719         estimate D2E/DX2                !
 ! D11   D(1,2,3,7)           -100.1674         estimate D2E/DX2                !
 ! D12   D(1,2,3,15)           139.5833         estimate D2E/DX2                !
 ! D13   D(13,2,3,4)           139.3107         estimate D2E/DX2                !
 ! D14   D(13,2,3,7)            25.3714         estimate D2E/DX2                !
 ! D15   D(13,2,3,15)          -94.8778         estimate D2E/DX2                !
 ! D16   D(14,2,3,4)          -105.6903         estimate D2E/DX2                !
 ! D17   D(14,2,3,7)           140.3704         estimate D2E/DX2                !
 ! D18   D(14,2,3,15)           20.1211         estimate D2E/DX2                !
 ! D19   D(2,3,4,5)           -118.5676         estimate D2E/DX2                !
 ! D20   D(2,3,4,16)           124.4634         estimate D2E/DX2                !
 ! D21   D(2,3,4,17)             1.7907         estimate D2E/DX2                !
 ! D22   D(7,3,4,5)              3.248          estimate D2E/DX2                !
 ! D23   D(7,3,4,16)          -113.721          estimate D2E/DX2                !
 ! D24   D(7,3,4,17)           123.6063         estimate D2E/DX2                !
 ! D25   D(15,3,4,5)           116.8018         estimate D2E/DX2                !
 ! D26   D(15,3,4,16)           -0.1671         estimate D2E/DX2                !
 ! D27   D(15,3,4,17)         -122.8399         estimate D2E/DX2                !
 ! D28   D(2,3,7,6)            167.1228         estimate D2E/DX2                !
 ! D29   D(2,3,7,8)             79.2337         estimate D2E/DX2                !
 ! D30   D(2,3,7,21)           -59.8936         estimate D2E/DX2                !
 ! D31   D(4,3,7,6)             42.1633         estimate D2E/DX2                !
 ! D32   D(4,3,7,8)            -45.7258         estimate D2E/DX2                !
 ! D33   D(4,3,7,21)           175.1469         estimate D2E/DX2                !
 ! D34   D(15,3,7,6)           -72.8943         estimate D2E/DX2                !
 ! D35   D(15,3,7,8)          -160.7834         estimate D2E/DX2                !
 ! D36   D(15,3,7,21)           60.0893         estimate D2E/DX2                !
 ! D37   D(3,4,5,6)            -48.3601         estimate D2E/DX2                !
 ! D38   D(3,4,5,8)             39.498          estimate D2E/DX2                !
 ! D39   D(3,4,5,18)           178.2797         estimate D2E/DX2                !
 ! D40   D(16,4,5,6)            68.3143         estimate D2E/DX2                !
 ! D41   D(16,4,5,8)           156.1723         estimate D2E/DX2                !
 ! D42   D(16,4,5,18)          -65.0459         estimate D2E/DX2                !
 ! D43   D(17,4,5,6)          -171.7894         estimate D2E/DX2                !
 ! D44   D(17,4,5,8)           -83.9314         estimate D2E/DX2                !
 ! D45   D(17,4,5,18)           54.8504         estimate D2E/DX2                !
 ! D46   D(4,5,6,7)             67.9569         estimate D2E/DX2                !
 ! D47   D(4,5,6,19)           -47.6865         estimate D2E/DX2                !
 ! D48   D(4,5,6,20)          -175.629          estimate D2E/DX2                !
 ! D49   D(8,5,6,7)            -39.749          estimate D2E/DX2                !
 ! D50   D(8,5,6,19)          -155.3925         estimate D2E/DX2                !
 ! D51   D(8,5,6,20)            76.6651         estimate D2E/DX2                !
 ! D52   D(18,5,6,7)          -159.897          estimate D2E/DX2                !
 ! D53   D(18,5,6,19)           84.4596         estimate D2E/DX2                !
 ! D54   D(18,5,6,20)          -43.4828         estimate D2E/DX2                !
 ! D55   D(4,5,8,7)            -59.9161         estimate D2E/DX2                !
 ! D56   D(4,5,8,9)           -179.6305         estimate D2E/DX2                !
 ! D57   D(4,5,8,22)            52.2091         estimate D2E/DX2                !
 ! D58   D(6,5,8,7)             39.8403         estimate D2E/DX2                !
 ! D59   D(6,5,8,9)            -79.8741         estimate D2E/DX2                !
 ! D60   D(6,5,8,22)           151.9654         estimate D2E/DX2                !
 ! D61   D(18,5,8,7)           161.4957         estimate D2E/DX2                !
 ! D62   D(18,5,8,9)            41.7813         estimate D2E/DX2                !
 ! D63   D(18,5,8,22)          -86.3792         estimate D2E/DX2                !
 ! D64   D(5,6,7,3)            -66.1337         estimate D2E/DX2                !
 ! D65   D(5,6,7,8)             40.0076         estimate D2E/DX2                !
 ! D66   D(5,6,7,21)           160.4178         estimate D2E/DX2                !
 ! D67   D(19,6,7,3)            49.0777         estimate D2E/DX2                !
 ! D68   D(19,6,7,8)           155.2191         estimate D2E/DX2                !
 ! D69   D(19,6,7,21)          -84.3708         estimate D2E/DX2                !
 ! D70   D(20,6,7,3)           178.6407         estimate D2E/DX2                !
 ! D71   D(20,6,7,8)           -75.2179         estimate D2E/DX2                !
 ! D72   D(20,6,7,21)           45.1922         estimate D2E/DX2                !
 ! D73   D(3,7,8,5)             61.9262         estimate D2E/DX2                !
 ! D74   D(3,7,8,9)           -178.637          estimate D2E/DX2                !
 ! D75   D(3,7,8,22)           -51.4022         estimate D2E/DX2                !
 ! D76   D(6,7,8,5)            -39.4618         estimate D2E/DX2                !
 ! D77   D(6,7,8,9)             79.975          estimate D2E/DX2                !
 ! D78   D(6,7,8,22)          -152.7902         estimate D2E/DX2                !
 ! D79   D(21,7,8,5)          -159.0025         estimate D2E/DX2                !
 ! D80   D(21,7,8,9)           -39.5657         estimate D2E/DX2                !
 ! D81   D(21,7,8,22)           87.6691         estimate D2E/DX2                !
 ! D82   D(5,8,9,23)            46.0296         estimate D2E/DX2                !
 ! D83   D(5,8,9,24)           -74.3282         estimate D2E/DX2                !
 ! D84   D(5,8,9,25)           166.7378         estimate D2E/DX2                !
 ! D85   D(7,8,9,23)           -50.5429         estimate D2E/DX2                !
 ! D86   D(7,8,9,24)          -170.9008         estimate D2E/DX2                !
 ! D87   D(7,8,9,25)            70.1652         estimate D2E/DX2                !
 ! D88   D(22,8,9,23)          178.4273         estimate D2E/DX2                !
 ! D89   D(22,8,9,24)           58.0694         estimate D2E/DX2                !
 ! D90   D(22,8,9,25)          -60.8646         estimate D2E/DX2                !
 --------------------------------------------------------------------------------
 Trust Radius=3.00D-01 FncErr=1.00D-07 GrdErr=1.00D-06 EigMax=2.50D+02 EigMin=1.00D-04
 Number of steps in this run=    150 maximum allowed number of steps=    150.
 GradGradGradGradGradGradGradGradGradGradGradGradGradGradGradGradGradGrad

                          Input orientation:                          
 ---------------------------------------------------------------------
 Center     Atomic      Atomic             Coordinates (Angstroms)
 Number     Number       Type             X           Y           Z
 ---------------------------------------------------------------------
      1          6           0        0.874950   -0.096360   -0.252270
      2          6           0        2.383870    0.036990   -0.081360
      3          6           0        2.875450    0.670120    1.229300
      4          6           0        1.857770    0.813880    2.376170
      5          6           0        1.858430    2.340490    2.529050
      6          6           0        3.388200    2.633120    2.570410
      7          6           0        3.263540    2.160530    1.077440
      8          6           0        1.926390    2.984910    1.089150
      9          6           0        1.949730    4.502130    0.926040
     10          1           0        0.634150   -0.511270   -1.234490
     11          1           0        0.360340    0.861920   -0.170430
     12          1           0        0.454470   -0.776350    0.495360
     13          1           0        2.802540    0.573410   -0.940960
     14          1           0        2.793140   -0.981200   -0.135300
     15          1           0        3.759120    0.111500    1.567520
     16          1           0        2.228290    0.326420    3.286020
     17          1           0        0.858740    0.424750    2.184310
     18          1           0        1.196730    2.783280    3.266860
     19          1           0        3.987740    2.009180    3.239950
     20          1           0        3.682280    3.670210    2.751490
     21          1           0        4.051820    2.434900    0.380700
     22          1           0        1.174750    2.625830    0.382930
     23          1           0        2.646580    5.006370    1.598630
     24          1           0        0.954630    4.915700    1.120060
     25          1           0        2.231760    4.771080   -0.097470
 ---------------------------------------------------------------------
                    Distance matrix (angstroms):
                    1          2          3          4          5
     1  C    0.000000
     2  C    1.524412   0.000000
     3  C    2.604715   1.536338   0.000000
     4  C    2.950113   2.630550   1.540016   0.000000
     5  C    3.826384   3.520858   2.348152   1.534246   0.000000
     6  C    4.661975   3.844536   2.432048   2.385284   1.558056
     7  C    3.545003   2.574113   1.547578   2.340161   2.028273
     8  C    3.521244   3.204624   2.505715   2.524777   1.578989
     9  C    4.867204   4.597913   3.953887   3.964155   2.692706
    10  H    1.093111   2.166060   3.534030   4.036104   4.878076
    11  H    1.090790   2.187034   2.884755   2.954619   3.423103
    12  H    1.094596   2.171799   2.914119   2.834701   3.977649
    13  H    2.153715   1.096332   2.173637   3.457422   4.006855
    14  H    2.115674   1.098691   2.143774   3.225633   4.359595
    15  H    3.416618   2.148411   1.098782   2.182289   3.083109
    16  H    3.811793   3.383374   2.183356   1.096690   2.183181
    17  H    2.491734   2.758558   2.244854   1.089171   2.188215
    18  H    4.558524   4.490210   3.381597   2.260274   1.085483
    19  H    5.130142   4.182467   2.659508   2.590681   2.269164
    20  H    5.575906   4.786564   3.459563   3.410033   2.268053
    21  H    4.111013   2.957284   2.284385   3.379861   3.071690
    22  H    2.811348   2.894759   2.726449   2.778972   2.270389
    23  H    5.709847   5.252249   4.357964   4.336330   2.931515
    24  H    5.197152   5.223787   4.661162   4.383880   3.071451
    25  H    5.055380   4.736560   4.358042   4.681687   3.598020
                    6          7          8          9         10
     6  C    0.000000
     7  C    1.570936   0.000000
     8  C    2.110634   1.570895   0.000000
     9  C    2.875126   2.689258   1.526141   0.000000
    10  H    5.652366   4.404228   4.392318   5.615409   0.000000
    11  H    4.451661   3.416451   2.923378   4.120623   1.758649
    12  H    4.953493   4.105479   4.082427   5.503057   1.759242
    13  H    4.112800   2.608718   3.271745   4.432586   2.442254
    14  H    4.553929   3.400365   4.240349   5.648424   2.467851
    15  H    2.738966   2.164325   3.441544   4.791975   4.243176
    16  H    2.679245   3.051807   3.461929   4.804545   4.866006
    17  H    3.379961   3.165621   2.982226   4.404376   3.551727
    18  H    2.304372   3.074586   2.305532   3.000149   5.606488
    19  H    1.094090   2.285568   3.134829   3.965156   6.133502
    20  H    1.093082   2.292797   2.513197   2.650677   6.531761
    21  H    2.296631   1.087249   2.306917   2.998269   4.792622
    22  H    3.111990   2.249865   1.092084   2.101443   3.570671
    23  H    2.669583   2.958223   2.205571   1.091895   6.520797
    24  H    3.638124   3.594975   2.161764   1.094947   5.924409
    25  H    3.609129   3.043017   2.166038   1.095193   5.634571
                   11         12         13         14         15
    11  H    0.000000
    12  H    1.770894   0.000000
    13  H    2.577071   3.065665   0.000000
    14  H    3.052350   2.430858   1.750996   0.000000
    15  H    3.890412   3.585877   2.724129   2.242032   0.000000
    16  H    3.965229   3.485731   4.272953   3.705989   2.311466
    17  H    2.446287   2.111546   3.683446   3.331545   2.981738
    18  H    4.025684   4.571994   5.016762   5.319260   4.073329
    19  H    5.109298   5.270289   4.576696   4.664950   2.539779
    20  H    5.240171   5.939762   4.898806   5.546147   3.751281
    21  H    4.050313   4.823505   2.602428   3.676992   2.625339
    22  H    2.020111   3.479407   2.935100   3.987282   3.795270
    23  H    5.053012   6.281911   5.111260   6.235302   5.019807
    24  H    4.295542   5.748030   5.149569   6.303132   5.580835
    25  H    4.334636   5.855270   4.319456   5.779732   5.178485
                   16         17         18         19         20
    16  H    0.000000
    17  H    1.760426   0.000000
    18  H    2.664703   2.617024   0.000000
    19  H    2.435050   3.662709   2.896496   0.000000
    20  H    3.685206   4.339019   2.688905   1.758101   0.000000
    21  H    4.026392   4.182042   4.074657   2.891480   2.698740
    22  H    3.850346   2.861745   2.888308   4.056567   3.603958
    23  H    4.992413   4.952841   3.134834   3.670938   2.046237
    24  H    5.232120   4.616325   3.035552   4.705481   3.413632
    25  H    5.585966   5.097282   4.042444   4.674391   3.381197
                   21         22         23         24         25
    21  H    0.000000
    22  H    2.883399   0.000000
    23  H    3.173407   3.051423   0.000000
    24  H    4.036534   2.415640   1.760666   0.000000
    25  H    2.999834   2.439293   1.761872   1.770411   0.000000
 Stoichiometry    C9H16
 Framework group  C1[X(C9H16)]
 Deg. of freedom    69
 Full point group                 C1      NOp   1
 Largest Abelian subgroup         C1      NOp   1
 Largest concise Abelian subgroup C1      NOp   1
                         Standard orientation:                         
 ---------------------------------------------------------------------
 Center     Atomic      Atomic             Coordinates (Angstroms)
 Number     Number       Type             X           Y           Z
 ---------------------------------------------------------------------
      1          6           0       -2.508121    1.015155    0.494080
      2          6           0       -2.047434    0.241335   -0.735880
      3          6           0       -0.893005   -0.751776   -0.532515
      4          6           0       -0.520558   -1.123968    0.914692
      5          6           0        0.925382   -0.611962    0.946584
      6          6           0        1.486483   -1.227700   -0.370068
      7          6           0        0.477166   -0.193933   -0.986870
      8          6           0        0.987231    0.754112    0.157138
      9          6           0        2.310965    1.499864    0.013301
     10          1           0       -3.295763    1.725314    0.229158
     11          1           0       -1.699831    1.584815    0.954490
     12          1           0       -2.924820    0.340179    1.248341
     13          1           0       -1.803422    0.945583   -1.539893
     14          1           0       -2.919069   -0.326534   -1.089293
     15          1           0       -1.113680   -1.655634   -1.117037
     16          1           0       -0.557124   -2.210818    1.056644
     17          1           0       -1.128601   -0.674458    1.698603
     18          1           0        1.482396   -0.703078    1.873788
     19          1           0        1.278001   -2.287883   -0.542058
     20          1           0        2.551202   -1.075719   -0.565270
     21          1           0        0.611019    0.103702   -2.023985
     22          1           0        0.259956    1.505961    0.470893
     23          1           0        3.147751    0.859776   -0.273598
     24          1           0        2.577754    1.977101    0.961972
     25          1           0        2.225577    2.284931   -0.745531
 ---------------------------------------------------------------------
 Rotational constants (GHZ):           2.5979617           1.2879993           1.1244232
 Standard basis: 6-31G(2df,p) (6D, 7F)
 There are   359 symmetry adapted cartesian basis functions of A   symmetry.
 There are   332 symmetry adapted basis functions of A   symmetry.
   332 basis functions,   508 primitive gaussians,   359 cartesian basis functions
    35 alpha electrons       35 beta electrons
       nuclear repulsion energy       486.5847476077 Hartrees.
 NAtoms=   25 NActive=   25 NUniq=   25 SFac= 1.00D+00 NAtFMM=   60 NAOKFM=F Big=F
 Integral buffers will be    131072 words long.
 Raffenetti 2 integral format.
 Two-electron integral symmetry is turned on.
 One-electron integrals computed using PRISM.
 PrsmSu:  requested number of processors reduced to:  13 ShMem   1 Linda.
 NBasis=   332 RedAO= T EigKep=  3.71D-04  NBF=   332
 NBsUse=   332 1.00D-06 EigRej= -1.00D+00 NBFU=   332
 ExpMin= 1.61D-01 ExpMax= 3.05D+03 ExpMxC= 4.57D+02 IAcc=3 IRadAn=         5 AccDes= 0.00D+00
 Harris functional with IExCor=  402 and IRadAn=       5 diagonalized for initial guess.
 HarFok:  IExCor=  402 AccDes= 0.00D+00 IRadAn=         5 IDoV= 1 UseB2=F ITyADJ=14
 ICtDFT=  3500011 ScaDFX=  1.000000  1.000000  1.000000  1.000000
 FoFCou: FMM=F IPFlag=           0 FMFlag=      100000 FMFlg1=           0
         NFxFlg=           0 DoJE=T BraDBF=F KetDBF=T FulRan=T
         wScrn=  0.000000 ICntrl=       500 IOpCl=  0 I1Cent=   200000004 NGrid=           0
         NMat0=    1 NMatS0=      1 NMatT0=    0 NMatD0=    1 NMtDS0=    0 NMtDT0=    0
 Petite list used in FoFCou.
 Requested convergence on RMS density matrix=1.00D-08 within 128 cycles.
 Requested convergence on MAX density matrix=1.00D-06.
 Requested convergence on             energy=1.00D-06.
 No special actions if energy rises.
 Integral accuracy reduced to 1.0D-05 until final iterations.
 Initial convergence to 1.0D-05 achieved.  Increase integral accuracy.
 SCF Done:  E(RB3LYP) =  -352.570104157     A.U. after   12 cycles
            NFock= 12  Conv=0.56D-08     -V/T= 2.0088

 **********************************************************************

            Population analysis using the SCF density.

 **********************************************************************

 Orbital symmetries:
       Occupied  (A) (A) (A) (A) (A) (A) (A) (A) (A) (A) (A) (A)
                 (A) (A) (A) (A) (A) (A) (A) (A) (A) (A) (A) (A)
                 (A) (A) (A) (A) (A) (A) (A) (A) (A) (A) (A)
       Virtual   (A) (A) (A) (A) (A) (A) (A) (A) (A) (A) (A) (A)
                 (A) (A) (A) (A) (A) (A) (A) (A) (A) (A) (A) (A)
                 (A) (A) (A) (A) (A) (A) (A) (A) (A) (A) (A) (A)
                 (A) (A) (A) (A) (A) (A) (A) (A) (A) (A) (A) (A)
                 (A) (A) (A) (A) (A) (A) (A) (A) (A) (A) (A) (A)
                 (A) (A) (A) (A) (A) (A) (A) (A) (A) (A) (A) (A)
                 (A) (A) (A) (A) (A) (A) (A) (A) (A) (A) (A) (A)
                 (A) (A) (A) (A) (A) (A) (A) (A) (A) (A) (A) (A)
                 (A) (A) (A) (A) (A) (A) (A) (A) (A) (A) (A) (A)
                 (A) (A) (A) (A) (A) (A) (A) (A) (A) (A) (A) (A)
                 (A) (A) (A) (A) (A) (A) (A) (A) (A) (A) (A) (A)
                 (A) (A) (A) (A) (A) (A) (A) (A) (A) (A) (A) (A)
                 (A) (A) (A) (A) (A) (A) (A) (A) (A) (A) (A) (A)
                 (A) (A) (A) (A) (A) (A) (A) (A) (A) (A) (A) (A)
                 (A) (A) (A) (A) (A) (A) (A) (A) (A) (A) (A) (A)
                 (A) (A) (A) (A) (A) (A) (A) (A) (A) (A) (A) (A)
                 (A) (A) (A) (A) (A) (A) (A) (A) (A) (A) (A) (A)
                 (A) (A) (A) (A) (A) (A) (A) (A) (A) (A) (A) (A)
                 (A) (A) (A) (A) (A) (A) (A) (A) (A) (A) (A) (A)
                 (A) (A) (A) (A) (A) (A) (A) (A) (A) (A) (A) (A)
                 (A) (A) (A) (A) (A) (A) (A) (A) (A) (A) (A) (A)
                 (A) (A) (A) (A) (A) (A) (A) (A) (A) (A) (A) (A)
                 (A) (A) (A) (A) (A) (A) (A) (A) (A) (A) (A) (A)
                 (A) (A) (A) (A) (A) (A) (A) (A) (A) (A) (A) (A)
                 (A) (A) (A) (A) (A) (A) (A) (A) (A)
 The electronic state is 1-A.
 Alpha  occ. eigenvalues --  -10.18046 -10.17965 -10.17875 -10.17807 -10.17230
 Alpha  occ. eigenvalues --  -10.17225 -10.16985 -10.16908 -10.16683  -0.88018
 Alpha  occ. eigenvalues --   -0.77518  -0.73280  -0.68598  -0.67927  -0.62070
 Alpha  occ. eigenvalues --   -0.60214  -0.52672  -0.51621  -0.48647  -0.47114
 Alpha  occ. eigenvalues --   -0.45859  -0.42603  -0.40548  -0.39068  -0.37888
 Alpha  occ. eigenvalues --   -0.37075  -0.36095  -0.35585  -0.33679  -0.33123
 Alpha  occ. eigenvalues --   -0.30773  -0.30528  -0.28610  -0.27904  -0.27593
 Alpha virt. eigenvalues --    0.09043   0.10464   0.11236   0.11703   0.12594
 Alpha virt. eigenvalues --    0.14516   0.15128   0.15670   0.15691   0.16430
 Alpha virt. eigenvalues --    0.17801   0.17928   0.19131   0.19469   0.20274
 Alpha virt. eigenvalues --    0.20556   0.22050   0.22567   0.23014   0.25316
 Alpha virt. eigenvalues --    0.26692   0.27513   0.29141   0.29438   0.31412
 Alpha virt. eigenvalues --    0.33113   0.43008   0.45760   0.47242   0.47682
 Alpha virt. eigenvalues --    0.49932   0.50832   0.52029   0.53010   0.53578
 Alpha virt. eigenvalues --    0.54531   0.55736   0.57247   0.58670   0.60745
 Alpha virt. eigenvalues --    0.60908   0.62295   0.63172   0.63622   0.64536
 Alpha virt. eigenvalues --    0.65945   0.67676   0.69875   0.71752   0.72140
 Alpha virt. eigenvalues --    0.73657   0.74410   0.74943   0.75351   0.76105
 Alpha virt. eigenvalues --    0.77178   0.77488   0.78282   0.79175   0.81010
 Alpha virt. eigenvalues --    0.81662   0.82489   0.84291   0.85490   0.86185
 Alpha virt. eigenvalues --    0.87983   0.88941   0.90704   0.93893   0.97128
 Alpha virt. eigenvalues --    0.98732   1.03004   1.03271   1.07051   1.08862
 Alpha virt. eigenvalues --    1.13127   1.17444   1.19323   1.21156   1.22598
 Alpha virt. eigenvalues --    1.23909   1.26440   1.30256   1.31600   1.34986
 Alpha virt. eigenvalues --    1.35129   1.37598   1.39438   1.40515   1.43776
 Alpha virt. eigenvalues --    1.44688   1.45532   1.46414   1.47264   1.49259
 Alpha virt. eigenvalues --    1.51454   1.54119   1.55146   1.57008   1.60105
 Alpha virt. eigenvalues --    1.61015   1.64038   1.64531   1.67304   1.67439
 Alpha virt. eigenvalues --    1.68341   1.70819   1.72072   1.73664   1.75304
 Alpha virt. eigenvalues --    1.79081   1.79453   1.82875   1.85795   1.86105
 Alpha virt. eigenvalues --    1.88033   1.89134   1.94460   1.96369   1.96787
 Alpha virt. eigenvalues --    1.97760   1.99985   2.05154   2.07075   2.18174
 Alpha virt. eigenvalues --    2.22789   2.23745   2.27098   2.28149   2.30182
 Alpha virt. eigenvalues --    2.30921   2.32853   2.33073   2.34392   2.36382
 Alpha virt. eigenvalues --    2.38738   2.41958   2.44257   2.47473   2.49781
 Alpha virt. eigenvalues --    2.51112   2.51760   2.55834   2.56331   2.58172
 Alpha virt. eigenvalues --    2.60695   2.61900   2.65524   2.73935   2.74293
 Alpha virt. eigenvalues --    2.76523   2.77885   2.78850   2.78964   2.79963
 Alpha virt. eigenvalues --    2.81756   2.85251   2.85708   2.86211   2.89458
 Alpha virt. eigenvalues --    2.89944   2.91409   2.92264   2.93028   2.94242
 Alpha virt. eigenvalues --    2.96451   2.97207   2.99691   3.02116   3.05296
 Alpha virt. eigenvalues --    3.07058   3.07475   3.09333   3.11262   3.13677
 Alpha virt. eigenvalues --    3.15790   3.17257   3.19052   3.19328   3.21669
 Alpha virt. eigenvalues --    3.23127   3.26878   3.28971   3.30571   3.31738
 Alpha virt. eigenvalues --    3.35165   3.35862   3.39172   3.39669   3.40195
 Alpha virt. eigenvalues --    3.46739   3.47244   3.48229   3.50866   3.54780
 Alpha virt. eigenvalues --    3.56885   3.57365   3.59772   3.60843   3.61699
 Alpha virt. eigenvalues --    3.64068   3.66010   3.66325   3.68841   3.71532
 Alpha virt. eigenvalues --    3.77300   3.77844   3.81588   3.84734   3.85692
 Alpha virt. eigenvalues --    3.87763   3.90544   3.91256   3.95267   3.96506
 Alpha virt. eigenvalues --    4.00453   4.02048   4.06083   4.09300   4.14450
 Alpha virt. eigenvalues --    4.21197   4.22470   4.28045   4.30291   4.31428
 Alpha virt. eigenvalues --    4.39013   4.41241   4.42635   4.43898   4.44336
 Alpha virt. eigenvalues --    4.45680   4.47918   4.50043   4.52803   4.54247
 Alpha virt. eigenvalues --    4.55857   4.57976   4.58742   4.60525   4.61505
 Alpha virt. eigenvalues --    4.63231   4.65499   4.65911   4.66529   4.68399
 Alpha virt. eigenvalues --    4.71272   4.72348   4.73911   4.75128   4.75745
 Alpha virt. eigenvalues --    4.77173   4.79021   4.81697   4.83023   4.84677
 Alpha virt. eigenvalues --    4.85019   4.85515   4.86896   4.88105   4.88886
 Alpha virt. eigenvalues --    4.92278   4.95882   4.96144   4.97374   4.99494
 Alpha virt. eigenvalues --    4.99689   5.07607   5.09422   5.14814   5.17074
 Alpha virt. eigenvalues --    5.20720   5.21893   5.28182   5.30426   5.39655
 Alpha virt. eigenvalues --    5.42297   5.46018   5.50414   5.55393   5.60300
 Alpha virt. eigenvalues --    5.62255   5.63734   5.65712   5.73739   6.04949
 Alpha virt. eigenvalues --    6.32234   6.85215   7.54431  11.12285  11.39916
 Alpha virt. eigenvalues --   11.73678  11.96698  11.97801  12.19546  12.53026
 Alpha virt. eigenvalues --   12.86687  13.10391
          Condensed to atoms (all electrons):
               1          2          3          4          5          6
     1  C    4.956892   0.413232  -0.026839  -0.015069   0.000192  -0.000048
     2  C    0.413232   4.844574   0.412994  -0.031617   0.001119   0.002888
     3  C   -0.026839   0.412994   4.670872   0.353154  -0.044914  -0.017995
     4  C   -0.015069  -0.031617   0.353154   4.981564   0.412926  -0.025406
     5  C    0.000192   0.001119  -0.044914   0.412926   4.759804   0.352462
     6  C   -0.000048   0.002888  -0.017995  -0.025406   0.352462   5.010754
     7  C    0.000073  -0.032118   0.427864  -0.052268  -0.036608   0.338398
     8  C   -0.002094  -0.002666  -0.017473  -0.026360   0.381144  -0.055914
     9  C    0.000121  -0.000041   0.002330   0.002937  -0.028943  -0.006576
    10  H    0.370190  -0.024808   0.003419   0.000549   0.000005   0.000002
    11  H    0.378922  -0.032433  -0.004245   0.000758  -0.000698  -0.000080
    12  H    0.377261  -0.025011  -0.005656  -0.000669   0.000002   0.000015
    13  H   -0.040197   0.369799  -0.032161   0.004640   0.000133   0.000243
    14  H   -0.039274   0.357734  -0.021580   0.002472  -0.000133  -0.000231
    15  H    0.005027  -0.045260   0.363130  -0.042132   0.003342  -0.003808
    16  H   -0.000074   0.004930  -0.023104   0.358704  -0.024466  -0.009294
    17  H    0.005031  -0.014822  -0.024109   0.363860  -0.028479   0.004803
    18  H   -0.000052  -0.000048   0.008737  -0.050690   0.360351  -0.040624
    19  H    0.000004   0.000239  -0.005375  -0.006640  -0.026305   0.349668
    20  H    0.000003  -0.000128   0.003046   0.003976  -0.026279   0.372182
    21  H   -0.000117  -0.002073  -0.048552   0.010594   0.008259  -0.042288
    22  H   -0.002807   0.001272  -0.003460  -0.003470  -0.045769   0.011697
    23  H   -0.000003   0.000002   0.000040   0.000045  -0.005769   0.002639
    24  H    0.000004   0.000001  -0.000086  -0.000014  -0.002453  -0.000182
    25  H    0.000000  -0.000003   0.000009  -0.000085   0.003561  -0.000191
               7          8          9         10         11         12
     1  C    0.000073  -0.002094   0.000121   0.370190   0.378922   0.377261
     2  C   -0.032118  -0.002666  -0.000041  -0.024808  -0.032433  -0.025011
     3  C    0.427864  -0.017473   0.002330   0.003419  -0.004245  -0.005656
     4  C   -0.052268  -0.026360   0.002937   0.000549   0.000758  -0.000669
     5  C   -0.036608   0.381144  -0.028943   0.000005  -0.000698   0.000002
     6  C    0.338398  -0.055914  -0.006576   0.000002  -0.000080   0.000015
     7  C    4.812056   0.371236  -0.028117  -0.000056   0.000779  -0.000011
     8  C    0.371236   4.696844   0.409898   0.000017  -0.002089   0.000158
     9  C   -0.028117   0.409898   5.017136  -0.000003  -0.000104  -0.000004
    10  H   -0.000056   0.000017  -0.000003   0.613835  -0.030697  -0.031128
    11  H    0.000779  -0.002089  -0.000104  -0.030697   0.588196  -0.035033
    12  H   -0.000011   0.000158  -0.000004  -0.031128  -0.035033   0.597811
    13  H   -0.011084   0.000079  -0.000113  -0.003533  -0.003084   0.005504
    14  H    0.004102   0.000017  -0.000001  -0.002178   0.006204  -0.006205
    15  H   -0.039845   0.004144  -0.000131  -0.000165  -0.000106   0.000058
    16  H    0.002366   0.003827  -0.000100  -0.000016   0.000081   0.000075
    17  H    0.002335  -0.003723  -0.000014  -0.000201   0.001761   0.004219
    18  H    0.009568  -0.046547  -0.001465   0.000001   0.000014   0.000014
    19  H   -0.024115   0.006286   0.000433  -0.000000   0.000001  -0.000001
    20  H   -0.022123  -0.004410  -0.001073  -0.000000   0.000001  -0.000000
    21  H    0.355246  -0.045925  -0.001291   0.000007   0.000041   0.000001
    22  H   -0.046863   0.348715  -0.047196   0.000165   0.006072   0.000052
    23  H   -0.005122  -0.023084   0.367910   0.000000   0.000002   0.000000
    24  H    0.003616  -0.021036   0.371324  -0.000000  -0.000005   0.000000
    25  H   -0.003178  -0.021048   0.371546  -0.000000   0.000007  -0.000000
              13         14         15         16         17         18
     1  C   -0.040197  -0.039274   0.005027  -0.000074   0.005031  -0.000052
     2  C    0.369799   0.357734  -0.045260   0.004930  -0.014822  -0.000048
     3  C   -0.032161  -0.021580   0.363130  -0.023104  -0.024109   0.008737
     4  C    0.004640   0.002472  -0.042132   0.358704   0.363860  -0.050690
     5  C    0.000133  -0.000133   0.003342  -0.024466  -0.028479   0.360351
     6  C    0.000243  -0.000231  -0.003808  -0.009294   0.004803  -0.040624
     7  C   -0.011084   0.004102  -0.039845   0.002366   0.002335   0.009568
     8  C    0.000079   0.000017   0.004144   0.003827  -0.003723  -0.046547
     9  C   -0.000113  -0.000001  -0.000131  -0.000100  -0.000014  -0.001465
    10  H   -0.003533  -0.002178  -0.000165  -0.000016  -0.000201   0.000001
    11  H   -0.003084   0.006204  -0.000106   0.000081   0.001761   0.000014
    12  H    0.005504  -0.006205   0.000058   0.000075   0.004219   0.000014
    13  H    0.644905  -0.039334   0.004182  -0.000143   0.000274   0.000005
    14  H   -0.039334   0.661029  -0.012712  -0.000062   0.000391   0.000004
    15  H    0.004182  -0.012712   0.701145  -0.011437   0.004403  -0.000199
    16  H   -0.000143  -0.000062  -0.011437   0.644752  -0.043562  -0.000026
    17  H    0.000274   0.000391   0.004403  -0.043562   0.631893  -0.000501
    18  H    0.000005   0.000004  -0.000199  -0.000026  -0.000501   0.715794
    19  H    0.000011  -0.000002   0.004173   0.004526   0.000011   0.001141
    20  H   -0.000007   0.000002   0.000029   0.000123  -0.000160  -0.001873
    21  H    0.004428  -0.000069  -0.001367  -0.000159  -0.000140  -0.000745
    22  H    0.000704  -0.000074  -0.000075  -0.000177   0.001481   0.001133
    23  H    0.000000   0.000000  -0.000002  -0.000002   0.000002   0.000138
    24  H    0.000002  -0.000000   0.000003  -0.000001  -0.000008   0.001915
    25  H    0.000013   0.000000  -0.000002   0.000003  -0.000001  -0.000133
              19         20         21         22         23         24
     1  C    0.000004   0.000003  -0.000117  -0.002807  -0.000003   0.000004
     2  C    0.000239  -0.000128  -0.002073   0.001272   0.000002   0.000001
     3  C   -0.005375   0.003046  -0.048552  -0.003460   0.000040  -0.000086
     4  C   -0.006640   0.003976   0.010594  -0.003470   0.000045  -0.000014
     5  C   -0.026305  -0.026279   0.008259  -0.045769  -0.005769  -0.002453
     6  C    0.349668   0.372182  -0.042288   0.011697   0.002639  -0.000182
     7  C   -0.024115  -0.022123   0.355246  -0.046863  -0.005122   0.003616
     8  C    0.006286  -0.004410  -0.045925   0.348715  -0.023084  -0.021036
     9  C    0.000433  -0.001073  -0.001291  -0.047196   0.367910   0.371324
    10  H   -0.000000  -0.000000   0.000007   0.000165   0.000000  -0.000000
    11  H    0.000001   0.000001   0.000041   0.006072   0.000002  -0.000005
    12  H   -0.000001  -0.000000   0.000001   0.000052   0.000000   0.000000
    13  H    0.000011  -0.000007   0.004428   0.000704   0.000000   0.000002
    14  H   -0.000002   0.000002  -0.000069  -0.000074   0.000000  -0.000000
    15  H    0.004173   0.000029  -0.001367  -0.000075  -0.000002   0.000003
    16  H    0.004526   0.000123  -0.000159  -0.000177  -0.000002  -0.000001
    17  H    0.000011  -0.000160  -0.000140   0.001481   0.000002  -0.000008
    18  H    0.001141  -0.001873  -0.000745   0.001133   0.000138   0.001915
    19  H    0.665416  -0.043485   0.001356  -0.000791  -0.000516   0.000000
    20  H   -0.043485   0.620485  -0.001755   0.000005   0.004056   0.000081
    21  H    0.001356  -0.001755   0.716527   0.000960   0.000054  -0.000124
    22  H   -0.000791   0.000005   0.000960   0.727763   0.006909  -0.003502
    23  H   -0.000516   0.004056   0.000054   0.006909   0.601967  -0.033001
    24  H    0.000000   0.000081  -0.000124  -0.003502  -0.033001   0.599947
    25  H    0.000002   0.000089   0.002188  -0.002812  -0.033070  -0.033055
              25
     1  C    0.000000
     2  C   -0.000003
     3  C    0.000009
     4  C   -0.000085
     5  C    0.003561
     6  C   -0.000191
     7  C   -0.003178
     8  C   -0.021048
     9  C    0.371546
    10  H   -0.000000
    11  H    0.000007
    12  H   -0.000000
    13  H    0.000013
    14  H    0.000000
    15  H   -0.000002
    16  H    0.000003
    17  H   -0.000001
    18  H   -0.000133
    19  H    0.000002
    20  H    0.000089
    21  H    0.002188
    22  H   -0.002812
    23  H   -0.033070
    24  H   -0.033055
    25  H    0.599297
 Mulliken charges:
               1
     1  C   -0.380378
     2  C   -0.197758
     3  C    0.029954
     4  C   -0.241761
     5  C   -0.012483
     6  C   -0.243116
     7  C   -0.026128
     8  C    0.050003
     9  C   -0.428464
    10  H    0.104597
    11  H    0.125734
    12  H    0.118547
    13  H    0.094733
    14  H    0.089899
    15  H    0.067604
    16  H    0.093238
    17  H    0.095256
    18  H    0.044087
    19  H    0.073962
    20  H    0.097214
    21  H    0.044946
    22  H    0.050069
    23  H    0.116804
    24  H    0.116576
    25  H    0.116864
 Sum of Mulliken charges =  -0.00000
 Mulliken charges with hydrogens summed into heavy atoms:
               1
     1  C   -0.031501
     2  C   -0.013125
     3  C    0.097558
     4  C   -0.053267
     5  C    0.031605
     6  C   -0.071940
     7  C    0.018818
     8  C    0.100072
     9  C   -0.078220
 Electronic spatial extent (au):  <R**2>=           1274.7502
 Charge=             -0.0000 electrons
 Dipole moment (field-independent basis, Debye):
    X=             -0.0650    Y=              0.0733    Z=             -0.0299  Tot=              0.1024
 Quadrupole moment (field-independent basis, Debye-Ang):
   XX=            -57.7286   YY=            -57.8547   ZZ=            -58.3462
   XY=              0.6693   XZ=              0.0196   YZ=             -0.0734
 Traceless Quadrupole moment (field-independent basis, Debye-Ang):
   XX=              0.2479   YY=              0.1218   ZZ=             -0.3697
   XY=              0.6693   XZ=              0.0196   YZ=             -0.0734
 Octapole moment (field-independent basis, Debye-Ang**2):
  XXX=              0.6119  YYY=             -0.1006  ZZZ=              0.3530  XYY=             -1.2174
  XXY=             -0.8133  XXZ=             -0.4283  XZZ=              0.1368  YZZ=              1.1111
  YYZ=             -0.7680  XYZ=              0.5863
 Hexadecapole moment (field-independent basis, Debye-Ang**3):
 XXXX=          -1025.6319 YYYY=           -447.7171 ZZZZ=           -279.1390 XXXY=             -2.5615
 XXXZ=             -0.3184 YYYX=              2.9596 YYYZ=             -0.6905 ZZZX=              1.1091
 ZZZY=             -1.3094 XXYY=           -249.0770 XXZZ=           -218.7529 YYZZ=           -121.6055
 XXYZ=             -0.0437 YYXZ=              1.9691 ZZXY=              3.6139
 N-N= 4.865847476077D+02 E-N=-1.788227720928D+03  KE= 3.495002097455D+02
 PrsmSu:  requested number of processors reduced to:  13 ShMem   1 Linda.
 Calling FoFJK, ICntrl=      2127 FMM=F ISym2X=0 I1Cent= 0 IOpClX= 0 NMat=1 NMatS=1 NMatT=0.
 ***** Axes restored to original set *****
 -------------------------------------------------------------------
 Center     Atomic                   Forces (Hartrees/Bohr)
 Number     Number              X              Y              Z
 -------------------------------------------------------------------
      1        6          -0.004154226   -0.001858981   -0.003259164
      2        6           0.000581735   -0.012593450   -0.002577686
      3        6           0.008064762    0.009534915   -0.011702376
      4        6          -0.008551082    0.005180969    0.007357260
      5        6           0.004490357    0.026300985    0.010245274
      6        6           0.005055366   -0.014042746    0.005516632
      7        6           0.012972793    0.026742254    0.008722219
      8        6          -0.010469483   -0.029734622   -0.006594346
      9        6           0.004424499   -0.001890281    0.005769987
     10        1           0.000290958   -0.000691287   -0.001529815
     11        1          -0.002153914    0.000207153    0.000306779
     12        1          -0.001271955    0.000808890   -0.000715094
     13        1           0.001004125    0.001111044    0.001008148
     14        1           0.001022053    0.001034926   -0.002439372
     15        1          -0.001819785    0.002268012   -0.000717159
     16        1          -0.002876025    0.002416866    0.000544145
     17        1           0.000418555   -0.002104106   -0.002695103
     18        1          -0.003832030   -0.001075794    0.005071110
     19        1           0.000723716   -0.002520714    0.000726431
     20        1          -0.003518610   -0.001687012   -0.006196921
     21        1           0.002644719   -0.004761075   -0.005511825
     22        1          -0.002434909   -0.002844589   -0.000542640
     23        1           0.000475739    0.000950080    0.000166473
     24        1          -0.000403244   -0.000153483   -0.000598089
     25        1          -0.000684114   -0.000597955   -0.000354869
 -------------------------------------------------------------------
 Cartesian Forces:  Max     0.029734622 RMS     0.007306439

 GradGradGradGradGradGradGradGradGradGradGradGradGradGradGradGradGradGrad
 Berny optimization.
 FormGI is forming the generalized inverse of G from B-inverse, IUseBI=4.
 Internal  Forces:  Max     0.015463387 RMS     0.003473862
 Search for a local minimum.
 Step number   1 out of a maximum of  150
 All quantities printed in internal units (Hartrees-Bohrs-Radians)
 Mixed Optimization -- RFO/linear search
 Second derivative matrix not updated -- first step.
 ITU=  0
     Eigenvalues ---    0.00285   0.00420   0.00443   0.00511   0.01940
     Eigenvalues ---    0.02023   0.02244   0.02533   0.02984   0.03054
     Eigenvalues ---    0.03134   0.03166   0.03603   0.03840   0.04067
     Eigenvalues ---    0.04766   0.04899   0.05016   0.05294   0.05391
     Eigenvalues ---    0.05458   0.05601   0.05629   0.05673   0.05852
     Eigenvalues ---    0.06320   0.06585   0.07023   0.07453   0.08052
     Eigenvalues ---    0.08840   0.09015   0.11653   0.12626   0.12704
     Eigenvalues ---    0.12758   0.16000   0.16000   0.16000   0.16000
     Eigenvalues ---    0.16000   0.16000   0.19150   0.21110   0.21355
     Eigenvalues ---    0.21972   0.24147   0.25042   0.27185   0.28502
     Eigenvalues ---    0.28846   0.29783   0.29946   0.33817   0.33827
     Eigenvalues ---    0.34051   0.34091   0.34219   0.34247   0.34287
     Eigenvalues ---    0.34344   0.34456   0.34459   0.34573   0.34595
     Eigenvalues ---    0.34722   0.34909   0.35132   0.35340
 RFO step:  Lambda=-1.63483016D-02 EMin= 2.85266834D-03
 Linear search not attempted -- first point.
 Iteration  1 RMS(Cart)=  0.07472008 RMS(Int)=  0.00227066
 Iteration  2 RMS(Cart)=  0.00285168 RMS(Int)=  0.00086363
 Iteration  3 RMS(Cart)=  0.00000464 RMS(Int)=  0.00086363
 Iteration  4 RMS(Cart)=  0.00000000 RMS(Int)=  0.00086363
 Variable       Old X    -DE/DX   Delta X   Delta X   Delta X     New X
                                 (Linear)    (Quad)   (Total)
    R1        2.88072   0.00792   0.00000   0.02509   0.02509   2.90581
    R2        2.06568   0.00157   0.00000   0.00436   0.00436   2.07004
    R3        2.06129   0.00122   0.00000   0.00335   0.00335   2.06465
    R4        2.06849  -0.00050   0.00000  -0.00140  -0.00140   2.06708
    R5        2.90326   0.01429   0.00000   0.04688   0.04688   2.95014
    R6        2.07177   0.00014   0.00000   0.00038   0.00038   2.07215
    R7        2.07623  -0.00046   0.00000  -0.00129  -0.00129   2.07493
    R8        2.91021   0.01546   0.00000   0.06463   0.06424   2.97445
    R9        2.92450  -0.00156   0.00000  -0.00776  -0.00761   2.91689
   R10        2.07640  -0.00284   0.00000  -0.00800  -0.00800   2.06839
   R11        2.89930  -0.00203   0.00000  -0.00048  -0.00077   2.89853
   R12        2.07244  -0.00159   0.00000  -0.00447  -0.00447   2.06797
   R13        2.05823   0.00084   0.00000   0.00231   0.00231   2.06054
   R14        2.94430   0.00223   0.00000   0.00588   0.00575   2.95005
   R15        2.98386  -0.00406   0.00000  -0.01938  -0.01919   2.96467
   R16        2.05127   0.00534   0.00000   0.01445   0.01445   2.06572
   R17        2.96864   0.00090   0.00000  -0.00965  -0.01031   2.95833
   R18        2.06753   0.00228   0.00000   0.00633   0.00633   2.07386
   R19        2.06563  -0.00357   0.00000  -0.00990  -0.00990   2.05572
   R20        2.96856  -0.00260   0.00000  -0.00867  -0.00754   2.96102
   R21        2.05460   0.00425   0.00000   0.01155   0.01155   2.06616
   R22        2.88399  -0.00216   0.00000  -0.00686  -0.00686   2.87712
   R23        2.06374   0.00296   0.00000   0.00818   0.00818   2.07192
   R24        2.06338   0.00084   0.00000   0.00233   0.00233   2.06571
   R25        2.06915   0.00020   0.00000   0.00057   0.00057   2.06972
   R26        2.06961   0.00001   0.00000   0.00002   0.00002   2.06964
    A1        1.93050  -0.00170   0.00000  -0.01062  -0.01057   1.91992
    A2        1.96245   0.00230   0.00000   0.01376   0.01373   1.97618
    A3        1.93692   0.00191   0.00000   0.01107   0.01102   1.94795
    A4        1.87229  -0.00035   0.00000  -0.00241  -0.00236   1.86993
    A5        1.86848  -0.00031   0.00000  -0.00318  -0.00314   1.86534
    A6        1.88944  -0.00204   0.00000  -0.00985  -0.00996   1.87949
    A7        2.03578   0.01188   0.00000   0.05513   0.05487   2.09066
    A8        1.91017  -0.00287   0.00000  -0.01360  -0.01305   1.89712
    A9        1.85683  -0.00323   0.00000  -0.00096  -0.00185   1.85498
   A10        1.92311  -0.00576   0.00000  -0.03641  -0.03618   1.88693
   A11        1.88032  -0.00187   0.00000   0.00509   0.00422   1.88453
   A12        1.84698   0.00111   0.00000  -0.01355  -0.01371   1.83327
   A13        2.05144   0.00324   0.00000   0.03694   0.03618   2.08761
   A14        1.97513   0.00310   0.00000   0.02601   0.02562   2.00075
   A15        1.88642  -0.00278   0.00000  -0.02757  -0.02737   1.85906
   A16        1.72024  -0.00263   0.00000  -0.00882  -0.00995   1.71030
   A17        1.92802   0.00005   0.00000  -0.00895  -0.00819   1.91983
   A18        1.89457  -0.00105   0.00000  -0.01881  -0.01842   1.87615
   A19        1.73839   0.00127   0.00000   0.00656   0.00538   1.74377
   A20        1.93166   0.00129   0.00000   0.01459   0.01599   1.94765
   A21        2.02818  -0.00205   0.00000  -0.01679  -0.01758   2.01060
   A22        1.93848  -0.00261   0.00000  -0.02798  -0.02787   1.91062
   A23        1.95351   0.00185   0.00000   0.02488   0.02573   1.97924
   A24        1.87259   0.00015   0.00000  -0.00214  -0.00220   1.87039
   A25        1.76191  -0.00252   0.00000  -0.01730  -0.01483   1.74707
   A26        1.89151  -0.00820   0.00000  -0.09673  -0.09746   1.79405
   A27        2.06389   0.00130   0.00000   0.00381   0.00322   2.06712
   A28        1.47595   0.00124   0.00000   0.04601   0.04315   1.51910
   A29        2.09886   0.00254   0.00000   0.02843   0.02684   2.12570
   A30        2.07098   0.00449   0.00000   0.03716   0.03583   2.10682
   A31        1.41047   0.00399   0.00000   0.02495   0.02247   1.43293
   A32        2.03439   0.00143   0.00000   0.01241   0.01301   2.04740
   A33        2.03392  -0.00461   0.00000  -0.02593  -0.02533   2.00859
   A34        2.04150   0.00093   0.00000   0.00793   0.00855   2.05005
   A35        2.05354  -0.00553   0.00000  -0.04799  -0.04773   2.00581
   A36        1.86739   0.00319   0.00000   0.02368   0.02329   1.89068
   A37        1.78888  -0.00001   0.00000  -0.01615  -0.01404   1.77484
   A38        1.86629  -0.00685   0.00000  -0.07708  -0.07725   1.78903
   A39        2.08028  -0.00190   0.00000  -0.01952  -0.01965   2.06063
   A40        1.47323   0.00118   0.00000   0.04729   0.04439   1.51762
   A41        2.06641   0.00213   0.00000   0.03441   0.03275   2.09916
   A42        2.08230   0.00572   0.00000   0.04286   0.04048   2.12278
   A43        1.39921   0.00671   0.00000   0.03151   0.02864   1.42785
   A44        2.09885  -0.00765   0.00000  -0.03956  -0.03895   2.05990
   A45        2.01075   0.00198   0.00000   0.00497   0.00552   2.01626
   A46        2.10354  -0.00708   0.00000  -0.03770  -0.03674   2.06680
   A47        1.99158   0.00202   0.00000   0.01812   0.01875   2.01033
   A48        1.84242   0.00392   0.00000   0.02144   0.02088   1.86329
   A49        1.98562   0.00139   0.00000   0.01031   0.01031   1.99593
   A50        1.92055  -0.00038   0.00000  -0.00290  -0.00294   1.91761
   A51        1.92619  -0.00116   0.00000  -0.00815  -0.00817   1.91802
   A52        1.87175  -0.00005   0.00000   0.00273   0.00272   1.87447
   A53        1.87330   0.00015   0.00000   0.00237   0.00239   1.87569
   A54        1.88271   0.00003   0.00000  -0.00469  -0.00474   1.87796
    D1        3.09288  -0.00115   0.00000  -0.01930  -0.01938   3.07350
    D2        0.89533  -0.00022   0.00000  -0.00140  -0.00142   0.89391
    D3       -1.09273   0.00152   0.00000   0.02137   0.02147  -1.07126
    D4        1.00015  -0.00107   0.00000  -0.01812  -0.01816   0.98199
    D5       -1.19740  -0.00014   0.00000  -0.00022  -0.00021  -1.19760
    D6        3.09773   0.00160   0.00000   0.02255   0.02268   3.12042
    D7       -1.11909  -0.00142   0.00000  -0.02302  -0.02313  -1.14222
    D8        2.96655  -0.00049   0.00000  -0.00512  -0.00518   2.96137
    D9        0.97850   0.00125   0.00000   0.01765   0.01771   0.99621
   D10        0.24036   0.00062   0.00000   0.01746   0.01778   0.25815
   D11       -1.74825  -0.00051   0.00000  -0.01647  -0.01618  -1.76443
   D12        2.43619   0.00077   0.00000   0.00974   0.01004   2.44623
   D13        2.43143   0.00122   0.00000   0.01133   0.01115   2.44258
   D14        0.44282   0.00009   0.00000  -0.02260  -0.02281   0.42000
   D15       -1.65593   0.00137   0.00000   0.00361   0.00341  -1.65252
   D16       -1.84464  -0.00151   0.00000  -0.02103  -0.02112  -1.86576
   D17        2.44993  -0.00265   0.00000  -0.05495  -0.05508   2.39485
   D18        0.35118  -0.00136   0.00000  -0.02875  -0.02886   0.32232
   D19       -2.06940  -0.00305   0.00000  -0.06803  -0.06796  -2.13736
   D20        2.17230  -0.00124   0.00000  -0.04519  -0.04514   2.12716
   D21        0.03125  -0.00095   0.00000  -0.04154  -0.04178  -0.01053
   D22        0.05669   0.00053   0.00000  -0.02368  -0.02409   0.03260
   D23       -1.98481   0.00235   0.00000  -0.00083  -0.00127  -1.98607
   D24        2.15734   0.00263   0.00000   0.00282   0.00209   2.15943
   D25        2.03858  -0.00187   0.00000  -0.05177  -0.05169   1.98689
   D26       -0.00292  -0.00005   0.00000  -0.02893  -0.02886  -0.03178
   D27       -2.14396   0.00023   0.00000  -0.02528  -0.02551  -2.16947
   D28        2.91684   0.00255   0.00000   0.07124   0.07084   2.98768
   D29        1.38289   0.00274   0.00000   0.04183   0.04370   1.42659
   D30       -1.04534   0.00398   0.00000   0.08805   0.08729  -0.95805
   D31        0.73589  -0.00115   0.00000   0.02025   0.02075   0.75664
   D32       -0.79806  -0.00096   0.00000  -0.00916  -0.00639  -0.80445
   D33        3.05689   0.00028   0.00000   0.03707   0.03720   3.09409
   D34       -1.27225   0.00029   0.00000   0.04009   0.03962  -1.23262
   D35       -2.80620   0.00048   0.00000   0.01068   0.01248  -2.79372
   D36        1.04876   0.00172   0.00000   0.05690   0.05607   1.10483
   D37       -0.84404   0.00150   0.00000   0.03129   0.03048  -0.81357
   D38        0.68937   0.00052   0.00000   0.05733   0.05448   0.74385
   D39        3.11157  -0.00067   0.00000   0.00523   0.00476   3.11632
   D40        1.19231   0.00263   0.00000   0.04056   0.04067   1.23298
   D41        2.72572   0.00165   0.00000   0.06661   0.06467   2.79039
   D42       -1.13527   0.00046   0.00000   0.01451   0.01495  -1.12032
   D43       -2.99829   0.00229   0.00000   0.03547   0.03567  -2.96262
   D44       -1.46488   0.00131   0.00000   0.06152   0.05967  -1.40521
   D45        0.95732   0.00012   0.00000   0.00941   0.00995   0.96727
   D46        1.18607   0.00019   0.00000   0.00020   0.00012   1.18619
   D47       -0.83229  -0.00284   0.00000  -0.02133  -0.02165  -0.85394
   D48       -3.06530  -0.00441   0.00000  -0.04338  -0.04411  -3.10941
   D49       -0.69375   0.00824   0.00000   0.09018   0.09146  -0.60229
   D50       -2.71211   0.00521   0.00000   0.06865   0.06969  -2.64242
   D51        1.33806   0.00364   0.00000   0.04660   0.04723   1.38529
   D52       -2.79073   0.00160   0.00000   0.01132   0.01160  -2.77912
   D53        1.47410  -0.00144   0.00000  -0.01021  -0.01017   1.46393
   D54       -0.75892  -0.00301   0.00000  -0.03226  -0.03262  -0.79154
   D55       -1.04573  -0.00578   0.00000  -0.09227  -0.09203  -1.13776
   D56       -3.13514  -0.00035   0.00000  -0.06111  -0.06053   3.08752
   D57        0.91122  -0.00060   0.00000  -0.05843  -0.05828   0.85294
   D58        0.69534  -0.00772   0.00000  -0.09194  -0.09318   0.60216
   D59       -1.39407  -0.00229   0.00000  -0.06078  -0.06168  -1.45575
   D60        2.65230  -0.00254   0.00000  -0.05810  -0.05943   2.59287
   D61        2.81863  -0.00304   0.00000  -0.02370  -0.02338   2.79525
   D62        0.72922   0.00239   0.00000   0.00747   0.00812   0.73734
   D63       -1.50760   0.00215   0.00000   0.01014   0.01037  -1.49723
   D64       -1.15425  -0.00194   0.00000  -0.02540  -0.02533  -1.17958
   D65        0.69827  -0.00872   0.00000  -0.09422  -0.09507   0.60320
   D66        2.79982  -0.00101   0.00000  -0.01079  -0.01082   2.78900
   D67        0.85657   0.00166   0.00000   0.00116   0.00127   0.85783
   D68        2.70908  -0.00512   0.00000  -0.06766  -0.06848   2.64061
   D69       -1.47255   0.00259   0.00000   0.01578   0.01577  -1.45677
   D70        3.11787   0.00165   0.00000  -0.00536  -0.00476   3.11311
   D71       -1.31280  -0.00513   0.00000  -0.07418  -0.07450  -1.38730
   D72        0.78875   0.00258   0.00000   0.00926   0.00975   0.79850
   D73        1.08082   0.00784   0.00000   0.08643   0.08701   1.16783
   D74       -3.11780   0.00184   0.00000   0.05341   0.05331  -3.06450
   D75       -0.89714   0.00290   0.00000   0.06790   0.06802  -0.82911
   D76       -0.68874   0.00724   0.00000   0.08660   0.08844  -0.60029
   D77        1.39583   0.00124   0.00000   0.05358   0.05474   1.45057
   D78       -2.66669   0.00230   0.00000   0.06807   0.06946  -2.59724
   D79       -2.77512   0.00289   0.00000   0.00980   0.00951  -2.76560
   D80       -0.69055  -0.00311   0.00000  -0.02322  -0.02419  -0.71474
   D81        1.53011  -0.00205   0.00000  -0.00873  -0.00947   1.52064
   D82        0.80337  -0.00012   0.00000   0.00282   0.00226   0.80562
   D83       -1.29727  -0.00073   0.00000  -0.00561  -0.00618  -1.30345
   D84        2.91012   0.00020   0.00000   0.00706   0.00647   2.91659
   D85       -0.88214   0.00063   0.00000   0.01166   0.01226  -0.86988
   D86       -2.98278   0.00002   0.00000   0.00322   0.00383  -2.97895
   D87        1.22461   0.00095   0.00000   0.01590   0.01647   1.24109
   D88        3.11414  -0.00008   0.00000  -0.00346  -0.00347   3.11067
   D89        1.01350  -0.00069   0.00000  -0.01189  -0.01190   1.00160
   D90       -1.06229   0.00024   0.00000   0.00078   0.00074  -1.06155
         Item               Value     Threshold  Converged?
 Maximum Force            0.015463     0.000450     NO 
 RMS     Force            0.003474     0.000300     NO 
 Maximum Displacement     0.284620     0.001800     NO 
 RMS     Displacement     0.074915     0.001200     NO 
 Predicted change in Energy=-1.008120D-02
 GradGradGradGradGradGradGradGradGradGradGradGradGradGradGradGradGradGrad

                          Input orientation:                          
 ---------------------------------------------------------------------
 Center     Atomic      Atomic             Coordinates (Angstroms)
 Number     Number       Type             X           Y           Z
 ---------------------------------------------------------------------
      1          6           0        0.868551   -0.121036   -0.360220
      2          6           0        2.372294    0.042921   -0.083878
      3          6           0        2.848361    0.712641    1.243531
      4          6           0        1.831087    0.895975    2.430564
      5          6           0        1.913626    2.416256    2.616552
      6          6           0        3.462444    2.610725    2.597323
      7          6           0        3.280136    2.187718    1.101142
      8          6           0        1.910309    2.947469    1.140391
      9          6           0        1.910965    4.454290    0.922395
     10          1           0        0.715003   -0.543255   -1.359268
     11          1           0        0.317943    0.821828   -0.321044
     12          1           0        0.400997   -0.808692    0.350442
     13          1           0        2.826503    0.585579   -0.921498
     14          1           0        2.805315   -0.965080   -0.129138
     15          1           0        3.721017    0.145601    1.582604
     16          1           0        2.179792    0.397732    3.340348
     17          1           0        0.819934    0.537858    2.234916
     18          1           0        1.284072    2.882341    3.379025
     19          1           0        4.060554    1.952317    3.240083
     20          1           0        3.800675    3.633827    2.746534
     21          1           0        4.048964    2.429644    0.362347
     22          1           0        1.128994    2.534491    0.491454
     23          1           0        2.631218    4.998682    1.538677
     24          1           0        0.918399    4.862490    1.140917
     25          1           0        2.138257    4.679216   -0.125088
 ---------------------------------------------------------------------
                    Distance matrix (angstroms):
                    1          2          3          4          5
     1  C    0.000000
     2  C    1.537691   0.000000
     3  C    2.680799   1.561147   0.000000
     4  C    3.122381   2.709802   1.574009   0.000000
     5  C    4.048606   3.624282   2.379332   1.533839   0.000000
     6  C    4.789349   3.869222   2.410928   2.372657   1.561097
     7  C    3.644402   2.613159   1.543553   2.352808   2.053302
     8  C    3.571109   3.185697   2.425909   2.424758   1.568837
     9  C    4.864704   4.548142   3.870630   3.865561   2.650237
    10  H    1.095418   2.171828   3.592082   4.204741   5.099269
    11  H    1.092565   2.209820   2.977051   3.141091   3.703766
    12  H    1.093854   2.190866   3.016895   3.045973   4.221800
    13  H    2.155902   1.096535   2.168864   3.510487   4.086872
    14  H    2.125291   1.098007   2.168138   3.311302   4.446050
    15  H    3.461535   2.146336   1.094547   2.203165   3.080842
    16  H    3.960136   3.447937   2.223239   1.094325   2.160825
    17  H    2.677917   2.834006   2.264489   1.090392   2.206851
    18  H    4.814030   4.608495   3.422708   2.268139   1.093132
    19  H    5.239262   4.188643   2.644320   2.596479   2.283271
    20  H    5.687554   4.790210   3.420416   3.387469   2.249516
    21  H    4.140423   2.950726   2.272890   3.398329   3.105042
    22  H    2.800894   2.843365   2.615527   2.633974   2.268407
    23  H    5.737972   5.221044   4.301675   4.274094   2.888888
    24  H    5.204943   5.180944   4.577830   4.269594   3.025233
    25  H    4.970901   4.642381   4.255711   4.575874   3.562027
                    6          7          8          9         10
     6  C    0.000000
     7  C    1.565481   0.000000
     8  C    2.155266   1.566904   0.000000
     9  C    2.934485   2.654040   1.522509   0.000000
    10  H    5.757658   4.482380   4.456703   5.622434   0.000000
    11  H    4.648108   3.558491   3.031464   4.156759   1.760402
    12  H    5.110122   4.222732   4.124414   5.505099   1.758455
    13  H    4.109469   2.619867   3.266393   4.382360   2.433997
    14  H    4.544424   3.417481   4.209606   5.592420   2.461820
    15  H    2.678311   2.143927   3.365216   4.719848   4.262071
    16  H    2.663573   3.070643   3.378401   4.730162   5.011731
    17  H    3.378013   3.171762   2.862364   4.272178   3.754727
    18  H    2.330266   3.107334   2.325488   2.983127   5.874518
    19  H    1.097441   2.289003   3.165847   4.031411   6.210847
    20  H    1.087843   2.251557   2.573764   2.751662   6.620195
    21  H    2.317739   1.093363   2.333954   2.997313   4.787210
    22  H    3.144119   2.262605   1.096414   2.117267   3.615118
    23  H    2.741169   2.917885   2.210388   1.093128   6.540874
    24  H    3.696448   3.568443   2.156661   1.095247   5.959393
    25  H    3.666558   3.002514   2.156929   1.095205   5.551851
                   11         12         13         14         15
    11  H    0.000000
    12  H    1.765329   0.000000
    13  H    2.590218   3.073256   0.000000
    14  H    3.068695   2.456664   1.741501   0.000000
    15  H    3.957534   3.667620   2.695229   2.236556   0.000000
    16  H    4.129423   3.682269   4.314724   3.779665   2.351300
    17  H    2.620223   2.353710   3.740527   3.433557   2.999276
    18  H    4.343919   4.855498   5.113580   5.424393   4.081124
    19  H    5.288362   5.418999   4.550781   4.630171   2.475226
    20  H    5.426490   6.085642   4.867780   5.514542   3.678151
    21  H    4.119783   4.877973   2.557976   3.648612   2.610254
    22  H    2.061837   3.424432   2.945543   3.929654   3.689985
    23  H    5.124052   6.333354   5.056290   6.195028   4.974132
    24  H    4.338758   5.749335   5.117263   6.255722   5.504434
    25  H    4.269822   5.775927   4.226797   5.683578   5.096568
                   16         17         18         19         20
    16  H    0.000000
    17  H    1.758074   0.000000
    18  H    2.641419   2.649719   0.000000
    19  H    2.442142   3.675958   2.931399   0.000000
    20  H    3.667723   4.328001   2.701493   1.771610   0.000000
    21  H    4.060906   4.184734   4.117026   2.917077   2.682546
    22  H    3.712966   2.668656   2.912579   4.060534   3.664942
    23  H    4.961708   4.864612   3.111363   3.770693   2.165497
    24  H    5.134459   4.461947   3.010620   4.769564   3.520672
    25  H    5.508364   4.945547   4.029540   4.738732   3.478891
                   21         22         23         24         25
    21  H    0.000000
    22  H    2.924703   0.000000
    23  H    3.161284   3.070112   0.000000
    24  H    4.040463   2.426052   1.763664   0.000000
    25  H    2.991483   2.449199   1.764422   1.767600   0.000000
 Stoichiometry    C9H16
 Framework group  C1[X(C9H16)]
 Deg. of freedom    69
 Full point group                 C1      NOp   1
 Largest Abelian subgroup         C1      NOp   1
 Largest concise Abelian subgroup C1      NOp   1
                         Standard orientation:                         
 ---------------------------------------------------------------------
 Center     Atomic      Atomic             Coordinates (Angstroms)
 Number     Number       Type             X           Y           Z
 ---------------------------------------------------------------------
      1          6           0       -2.638641    0.947303    0.461614
      2          6           0       -2.075536    0.124677   -0.709151
      3          6           0       -0.825166   -0.783571   -0.488158
      4          6           0       -0.362751   -1.127402    0.976580
      5          6           0        1.075055   -0.595120    0.931302
      6          6           0        1.548586   -1.200911   -0.427304
      7          6           0        0.503160   -0.184740   -0.997576
      8          6           0        0.916461    0.769798    0.174272
      9          6           0        2.154415    1.638553   -0.001137
     10          1           0       -3.466472    1.575108    0.114488
     11          1           0       -1.899728    1.611308    0.916373
     12          1           0       -3.037539    0.303727    1.251049
     13          1           0       -1.861251    0.802503   -1.544031
     14          1           0       -2.898078   -0.511183   -1.062319
     15          1           0       -1.007147   -1.705500   -1.049374
     16          1           0       -0.346468   -2.207678    1.150611
     17          1           0       -0.964419   -0.682694    1.769793
     18          1           0        1.684402   -0.664110    1.836219
     19          1           0        1.359965   -2.268880   -0.595355
     20          1           0        2.582977   -0.990676   -0.690435
     21          1           0        0.556865    0.133379   -2.042257
     22          1           0        0.119838    1.425728    0.544773
     23          1           0        3.040976    1.096763   -0.340846
     24          1           0        2.408971    2.120094    0.949066
     25          1           0        1.953616    2.430580   -0.730416
 ---------------------------------------------------------------------
 Rotational constants (GHZ):           2.5356776           1.2762906           1.1083804
 Standard basis: 6-31G(2df,p) (6D, 7F)
 There are   359 symmetry adapted cartesian basis functions of A   symmetry.
 There are   332 symmetry adapted basis functions of A   symmetry.
   332 basis functions,   508 primitive gaussians,   359 cartesian basis functions
    35 alpha electrons       35 beta electrons
       nuclear repulsion energy       484.2413915865 Hartrees.
 NAtoms=   25 NActive=   25 NUniq=   25 SFac= 1.00D+00 NAtFMM=   60 NAOKFM=F Big=F
 Integral buffers will be    131072 words long.
 Raffenetti 2 integral format.
 Two-electron integral symmetry is turned on.
 One-electron integrals computed using PRISM.
 PrsmSu:  requested number of processors reduced to:  13 ShMem   1 Linda.
 NBasis=   332 RedAO= T EigKep=  3.87D-04  NBF=   332
 NBsUse=   332 1.00D-06 EigRej= -1.00D+00 NBFU=   332
 Initial guess from the checkpoint file:  "CCC1CC2CC1C2C.chk"
 B after Tr=     0.000000    0.000000   -0.000000
         Rot=    0.999541    0.005284   -0.005912   -0.029253 Ang=   3.47 deg.
 ExpMin= 1.61D-01 ExpMax= 3.05D+03 ExpMxC= 4.57D+02 IAcc=2 IRadAn=         4 AccDes= 0.00D+00
 Harris functional with IExCor=  402 and IRadAn=       4 diagonalized for initial guess.
 HarFok:  IExCor=  402 AccDes= 0.00D+00 IRadAn=         4 IDoV= 1 UseB2=F ITyADJ=14
 ICtDFT=  3500011 ScaDFX=  1.000000  1.000000  1.000000  1.000000
 FoFCou: FMM=F IPFlag=           0 FMFlag=      100000 FMFlg1=           0
         NFxFlg=           0 DoJE=T BraDBF=F KetDBF=T FulRan=T
         wScrn=  0.000000 ICntrl=       500 IOpCl=  0 I1Cent=   200000004 NGrid=           0
         NMat0=    1 NMatS0=      1 NMatT0=    0 NMatD0=    1 NMtDS0=    0 NMtDT0=    0
 Petite list used in FoFCou.
 Requested convergence on RMS density matrix=1.00D-08 within 128 cycles.
 Requested convergence on MAX density matrix=1.00D-06.
 Requested convergence on             energy=1.00D-06.
 No special actions if energy rises.
 Integral accuracy reduced to 1.0D-05 until final iterations.
 Initial convergence to 1.0D-05 achieved.  Increase integral accuracy.
 SCF Done:  E(RB3LYP) =  -352.578020544     A.U. after   10 cycles
            NFock= 10  Conv=0.74D-08     -V/T= 2.0091
 PrsmSu:  requested number of processors reduced to:  13 ShMem   1 Linda.
 Calling FoFJK, ICntrl=      2127 FMM=F ISym2X=0 I1Cent= 0 IOpClX= 0 NMat=1 NMatS=1 NMatT=0.
 ***** Axes restored to original set *****
 -------------------------------------------------------------------
 Center     Atomic                   Forces (Hartrees/Bohr)
 Number     Number              X              Y              Z
 -------------------------------------------------------------------
      1        6           0.000646778    0.000575243    0.000940193
      2        6          -0.000380775   -0.003916052    0.001932537
      3        6           0.001042911   -0.000435651   -0.005221531
      4        6          -0.000530458   -0.003056175    0.003993278
      5        6           0.003390789    0.007149409   -0.002720039
      6        6          -0.001259840   -0.002556388   -0.001641928
      7        6           0.000212960    0.007999559    0.004805836
[...]
 71,0.00005907,-0.00156319,0.01558666,0.00523400,0.00305171,0.07708523,
 0.07409093,0.00022260,0.00003516,-0.00055859,-0.00028636,-0.00001503,0
 .00162318,0.02294349,0.00718270,0.00528609,-0.04571612,-0.01256865,-0.
 05617292,-0.00671223,-0.00095793,-0.00164987,0.00021013,-0.00163177,-0
 .00037463,0.00162880,-0.00084839,-0.00184302,0.00109602,0.00111876,0.0
 0081823,-0.00005836,-0.00015262,-0.00006986,-0.00017581,-0.00005930,0.
 00026243,-0.00002518,0.00002511,0.00012114,-0.00060457,-0.00004965,-0.
 00095253,-0.00015327,0.00019306,0.00044044,-0.00018310,-0.00033386,0.0
 0003850,0.00255871,0.00031875,-0.00254152,-0.02391574,-0.00763653,-0.0
 0476246,0.04908361,0.01395377,0.06000672,-0.00000502,0.00000214,-0.000
 04979,0.00003244,0.00002841,-0.00016853,0.00085510,-0.00147483,0.00023
 587,0.00160150,-0.00153957,-0.00397702,-0.11111586,0.05134777,0.095587
 74,-0.00303314,0.01212736,0.01808028,-0.00429677,-0.00097947,0.0026081
 7,0.00352837,-0.00585263,-0.00456366,0.00049984,-0.00056518,0.00073820
 ,0.00002737,-0.00001982,0.00000925,-0.00002686,-0.00002316,0.00003264,
 0.00002025,0.00001556,0.00000342,0.00003249,-0.00001218,-0.00009911,0.
 00005740,0.00007673,0.00004554,0.00020839,-0.00003629,-0.00012047,0.00
 000267,0.00027149,0.00011183,0.00012335,0.00055228,0.00002363,0.109976
 70,0.00009214,-0.00011886,0.00012433,0.00158532,0.00022393,-0.00077437
 ,-0.00105256,-0.00533956,-0.00073310,0.01473397,-0.00556355,-0.0225914
 9,0.05076382,-0.09099437,-0.08313651,-0.00276834,0.00177985,0.00668954
 ,-0.00179760,-0.00139883,0.00251059,-0.00688022,0.00404744,0.00744207,
 -0.00031933,0.00120416,-0.00086559,-0.00005568,0.00004340,-0.00005220,
 -0.00002725,0.00006548,-0.00009288,-0.00005335,0.00001124,0.00004026,-
 0.00024647,-0.00037908,-0.00061921,0.00001491,0.00009217,0.00005863,0.
 00047444,-0.00012126,-0.00063213,0.00022055,0.00071878,0.00086909,-0.0
 0074420,0.00067885,0.00015791,-0.05436205,0.09339639,0.00005639,0.0000
 2680,-0.00008663,-0.00005711,-0.00002515,0.00009491,0.00049581,0.00134
 993,0.00056151,-0.00104666,0.00199878,0.00078802,0.09588993,-0.0841798
 7,-0.21231210,-0.00134866,0.00205811,0.00037955,0.00228851,0.00114406,
 -0.00557391,0.01212111,-0.01173206,-0.00936601,0.00011393,-0.00102601,
 0.00163370,-0.00000656,-0.00007159,-0.00002270,0.00001329,-0.00003802,
 0.00011440,0.00000002,0.00001842,0.00000271,-0.00003864,0.00001523,0.0
 0006702,-0.00002482,-0.00007639,-0.00002300,0.00001689,-0.00015906,-0.
 00005660,0.00000489,-0.00062477,0.00020932,-0.00010305,-0.00035799,-0.
 00011499,-0.10972496,0.09153284,0.22450240,-0.00003294,0.00010178,0.00
 004387,0.00021318,-0.00027447,0.00009125,0.00025039,0.00049295,-0.0003
 1375,0.00120572,0.00217065,0.00010382,-0.01113928,0.01423877,-0.014860
 80,-0.16023535,0.09591291,-0.08166859,-0.00289704,-0.00039689,0.000279
 32,-0.00654311,-0.00231646,-0.00239130,0.00017422,-0.00091523,0.000017
 31,0.00007647,-0.00008483,0.00001302,-0.00002802,-0.00002869,0.0001123
 3,0.00007055,0.00004865,-0.00004821,0.00000581,0.00000378,0.00000869,-
 0.00002275,-0.00006060,-0.00002439,0.00036098,-0.00073162,-0.00024804,
 0.00001632,-0.00096577,0.00044549,0.00022071,0.00004931,0.00035080,-0.
 00090753,0.00002243,-0.00005007,0.17381301,0.00002252,-0.00002128,0.00
 004636,-0.00003364,0.00019608,-0.00001564,-0.00105645,0.00112427,-0.00
 151390,-0.00064287,0.00116962,-0.00033807,-0.00439110,0.00142221,-0.00
 294441,0.09760889,-0.13353240,0.07248954,-0.00602758,0.00296412,-0.003
 93745,-0.00211552,-0.00061240,-0.00122674,-0.00009696,-0.00028564,0.00
 005565,0.00000417,0.00001414,0.00003233,0.00000681,-0.00000475,0.00000
 357,-0.00003306,0.00000881,0.00000020,-0.00000324,0.00001455,0.0000425
 4,0.00001385,0.00001495,0.00006116,0.00008386,0.00013749,-0.00040423,0
 .00009791,0.00030959,0.00021518,0.00016197,0.00009167,-0.00000826,0.00
 025745,-0.00002048,0.00011071,-0.10413923,0.14127339,-0.00003629,0.000
 23106,0.00008289,0.00055529,-0.00009236,0.00007732,-0.00011780,0.00309
 481,0.00055289,-0.00077160,-0.00082524,0.00043787,0.00435781,-0.007623
 49,0.00412407,-0.08142791,0.07121391,-0.11057739,-0.01628059,0.0156239
 3,-0.00703307,-0.00257640,-0.00168493,-0.00334679,-0.00008192,-0.00051
 094,0.00034659,0.00005674,-0.00007506,0.00003255,0.00004811,-0.0000303
 7,0.00010870,0.00005123,-0.00000330,-0.00001579,-0.00000223,0.00001426
 ,-0.00002517,-0.00001844,-0.00005088,-0.00000571,0.00073791,-0.0011978
 4,0.00035349,-0.00025781,-0.00010115,-0.00002832,0.00009582,-0.0001590
 8,-0.00011656,0.00047368,-0.00013978,0.00015902,0.09583767,-0.07747866
 ,0.11376514,-0.00004345,0.00009479,0.00009978,0.00050908,-0.00010742,0
 .00006303,-0.00127034,0.00084106,0.00113362,-0.00625581,-0.00063286,-0
 .00111608,-0.00394253,-0.02729931,-0.00404409,-0.06231860,-0.06078140,
 -0.00788192,-0.00108872,0.00083297,0.00159095,0.00039110,-0.00122262,0
 .00121723,-0.00120196,-0.00017624,-0.00078660,0.00003415,-0.00000231,-
 0.00002064,0.00001348,0.00000453,-0.00004230,0.00005997,-0.00001453,0.
 00002150,-0.00001724,-0.00004200,-0.00010987,0.00002223,0.00008321,-0.
 00005955,0.00044323,-0.00033554,0.00019145,0.00001103,0.00009047,0.000
 26651,-0.00001053,-0.00216987,-0.00034129,0.00142227,0.00059274,0.0005
 7449,0.00556585,0.02017582,0.00138399,0.06738187,0.00002064,-0.0001597
 6,-0.00005647,-0.00019547,-0.00012419,0.00069521,-0.00074842,-0.000473
 65,-0.00191769,-0.00086185,0.00049189,-0.00025209,0.00037049,-0.002510
 41,-0.00060132,-0.06378893,-0.30219014,-0.01369371,-0.00158641,-0.0064
 9109,0.00120947,0.00023630,-0.00077162,0.00013364,0.00127160,-0.001517
 14,0.00109661,-0.00006797,0.00002055,-0.00007521,-0.00000197,0.0000423
 3,-0.00001744,-0.00000053,0.00000929,0.00001220,0.00003168,-0.00001014
 ,-0.00005790,-0.00007576,-0.00014958,-0.00019558,-0.00019797,0.0003958
 3,-0.00004872,0.00008721,0.00016390,-0.00003510,0.00006634,-0.00019024
 ,-0.00007251,-0.00044585,0.00042654,0.00011087,-0.00456748,-0.01588508
 ,-0.00121634,0.06757422,0.32785871,0.00021566,-0.00008658,0.00008511,-
 0.00047995,-0.00178694,0.00133773,-0.00290947,-0.00144502,-0.00601597,
 0.00345498,0.00028093,-0.00063448,0.00301290,0.01295907,0.00023174,-0.
 00776174,-0.01179136,-0.04436517,-0.00809000,-0.02839180,0.00152611,0.
 00105401,-0.00083280,-0.00054502,-0.00101201,0.00005711,-0.00054421,-0
 .00007504,0.00004456,-0.00003745,0.00000016,0.00007088,-0.00001228,-0.
 00009814,-0.00000154,-0.00000763,0.00005211,0.00007954,0.00005774,-0.0
 0021935,-0.00055636,-0.00059563,0.00025608,0.00007147,-0.00024674,-0.0
 0006156,-0.00029234,0.00012987,0.00012767,0.00102172,0.00047368,-0.000
 79469,-0.00023468,0.00014971,0.00400057,0.01487923,0.00107916,0.008943
 08,0.01352674,0.04678111,-0.00003882,-0.00025101,0.00006361,0.00003702
 ,0.00008763,0.00020610,-0.00239601,0.00087143,0.00198416,0.00098290,-0
 .00016660,0.00063843,-0.00330717,0.00126595,0.00141738,0.00706790,0.00
 530354,-0.00664523,-0.13431716,-0.03374592,0.11559241,-0.00503800,-0.0
 0989371,0.01593661,0.00148786,-0.00131434,-0.00026128,0.00004532,0.000
 03365,-0.00008279,-0.00026629,0.00007274,-0.00010275,0.00015520,0.0001
 4009,-0.00005244,0.00005398,-0.00030991,-0.00023315,0.00005261,0.00003
 850,-0.00014005,0.00017341,-0.00044545,0.00003312,-0.00014985,-0.00007
 769,0.00016758,0.00001575,-0.00001371,0.00010225,0.00111365,-0.0005695
 4,0.00144291,0.00014943,0.00011726,-0.00048623,0.00026676,0.00008414,0
 .00110105,0.13489729,-0.00005564,-0.00012857,-0.00021377,0.00005583,0.
 00156928,0.00060980,-0.01612706,-0.00069435,0.02215690,-0.00106804,-0.
 00512065,0.00166537,0.00210042,-0.00277431,-0.00342667,0.00685994,0.00
 126115,-0.00660048,-0.03351625,-0.06258590,0.04958474,0.00456391,0.002
 78420,-0.01117420,-0.00083447,0.00142571,-0.00002603,-0.00008282,0.000
 06775,-0.00008097,-0.00017943,0.00003325,-0.00008430,0.00009437,0.0000
 0783,0.00004394,0.00030351,-0.00029549,-0.00068723,0.00034670,0.000088
 02,-0.00019527,0.00084630,0.00050309,-0.00017427,-0.00099074,0.0001364
 5,0.00100626,-0.00050559,0.00003926,0.00091671,0.00079359,0.00138499,-
 0.00123819,-0.00013514,0.00000181,-0.00005509,-0.00001950,0.00045679,0
 .00074204,0.03759822,0.06208159,-0.00001920,0.00018505,0.00004588,0.00
 000219,0.00025133,0.00016574,-0.00025569,-0.00173927,-0.00095262,0.000
 14365,-0.00085506,0.00036504,0.00191551,-0.00182841,-0.00537268,0.0139
 4683,0.00754997,-0.00893505,0.11494083,0.05032839,-0.21568225,-0.00204
 703,-0.00110254,0.00042605,0.00036348,-0.00028052,0.00042741,0.0000159
 1,-0.00002255,0.00003950,0.00006102,-0.00010806,0.00006074,-0.00007922
 ,-0.00003582,0.00000490,0.00002908,0.00034021,0.00028866,0.00001845,0.
 00009092,0.00010048,-0.00010485,0.00028513,-0.00012488,0.00011827,0.00
 002029,0.00005355,0.00007565,0.00013928,-0.00007676,0.00166473,0.00080
 154,-0.00025274,0.00002140,0.00008865,-0.00089741,-0.00033340,-0.00030
 132,0.00124553,-0.13062008,-0.05320947,0.22900167,-0.00008474,-0.00057
 357,-0.00148181,-0.00060989,0.00087688,-0.00024129,0.00052570,-0.00168
 380,0.00057318,0.00054300,-0.00001329,-0.00014748,-0.00113834,0.001241
 50,0.00045708,-0.00448845,0.00359451,-0.00204057,-0.01404890,-0.010502
 08,-0.01199787,-0.20663043,-0.08927074,-0.08549593,0.00170392,0.001420
 67,0.00044287,0.00035027,-0.00082275,-0.00013494,-0.00011371,-0.000569
 52,0.00092504,0.00051637,-0.00016486,-0.00048722,0.00007528,-0.0000812
 5,-0.00002862,0.00022969,0.00003856,0.00024076,0.00011905,-0.00012631,
 0.00011852,0.00027817,0.00013475,0.00017893,0.00034389,0.00062335,-0.0
 0017343,0.00005118,0.00012197,-0.00010028,-0.00075929,-0.00065406,-0.0
 0174782,0.00019660,-0.00013571,0.00012386,-0.00101874,0.00020523,-0.00
 010957,0.22169181,0.00029114,-0.00166992,-0.00194918,0.00014458,-0.000
 01350,0.00009845,0.00026163,0.00117308,-0.00003563,0.00122523,0.000870
 77,0.00142918,0.00639325,0.00133511,0.00344476,0.00345107,-0.00146636,
 0.00189663,0.00878915,0.00455476,0.00640601,-0.09257289,-0.09889566,-0
 .05186986,-0.02601655,-0.01900137,-0.01409315,-0.00001657,-0.00036528,
 -0.00011859,-0.00011304,-0.00068101,-0.00037021,-0.00032193,-0.0008369
 3,-0.00066494,-0.00010717,0.00001525,-0.00001927,-0.00005458,0.0000367
 7,0.00004922,-0.00015698,0.00016446,-0.00007389,-0.00000671,-0.0000084
 6,-0.00018900,-0.00014192,0.00022831,0.00042602,-0.00015790,-0.0000357
 1,-0.00009318,0.00109808,0.00064803,0.00090372,0.00031778,0.00010149,0
 .00019380,0.00011003,-0.00003321,-0.00005504,0.09638050,0.11782035,-0.
 00044467,-0.00167210,-0.00094351,0.00005336,0.00018111,0.00020663,-0.0
 0102075,0.00083844,0.00031421,-0.00047892,-0.00262471,0.00083465,-0.02
 138413,-0.01126228,-0.00904788,-0.00202600,0.00239922,-0.00352434,0.00
 664409,0.00645949,0.00347877,-0.08656763,-0.05070161,-0.09937100,0.004
 05319,0.00343376,0.00285770,0.00011081,-0.00025388,-0.00024542,0.00018
 072,-0.00105202,-0.00081285,0.00020203,-0.00023882,-0.00027207,0.00000
 037,0.00000398,0.00000216,-0.00003772,0.00002355,-0.00005352,0.0001287
 3,0.00010506,-0.00011735,0.00048456,-0.00024950,0.00007594,0.00076146,
 0.00087579,0.00020196,-0.00044982,0.00005429,-0.00088914,-0.00193605,-
 0.00040140,0.00084530,0.00011391,-0.00011134,0.00008369,0.00062170,0.0
 0000154,0.00016367,0.10073753,0.05336834,0.10465027,0.00001171,0.00001
 369,-0.00000277,-0.00000775,-0.00000067,0.00001932,0.00012284,0.000030
 65,0.00004064,-0.00007124,-0.00015574,0.00015096,-0.00030779,-0.000272
 43,-0.00078671,-0.00074103,0.00091155,-0.00106886,0.00000979,-0.000072
 95,0.00042381,0.00191495,0.00011847,0.00209216,-0.19886764,-0.10098559
 ,-0.08197128,0.00000528,-0.00002041,0.00000307,-0.00001858,-0.00001898
 ,0.00003134,0.00000984,0.00002882,-0.00000446,0.00001391,0.00000070,-0
 .00000052,-0.00000297,-0.00001820,-0.00000862,0.00001938,-0.00009112,0
 .00002219,0.00000654,-0.00006483,0.00000970,0.00007246,-0.00000126,0.0
 0006295,-0.00008614,-0.00008338,0.00011872,0.00020743,0.00017536,0.000
 18802,-0.00061983,0.00227750,-0.00114462,0.00009130,-0.00005561,0.0000
 6551,0.00143588,0.00072453,0.00002027,0.21704071,-0.00014972,-0.000079
 33,-0.00010194,-0.00008705,0.00018471,-0.00008941,-0.00013080,0.000167
 39,0.00004256,0.00000214,0.00009150,0.00002372,-0.00058949,0.00128727,
 -0.00029096,-0.00032271,-0.00122152,-0.00000853,-0.00058198,0.00138480
 ,-0.00066976,-0.02672085,-0.01501384,-0.01516001,-0.09931067,-0.113300
 08,-0.05377971,0.00009793,-0.00013039,-0.00003976,-0.00004798,-0.00005
 689,0.00014370,0.00015781,0.00008236,-0.00008780,0.00004237,-0.0000234
 9,0.00000776,0.00003897,0.00001094,0.00005342,0.00009821,-0.00004912,0
 .00005062,0.00013227,-0.00006963,0.00007868,0.00015827,0.00024768,-0.0
 0001042,0.00017234,-0.00007816,0.00038798,0.00033320,0.00076266,0.0000
 9734,0.00181406,0.00018349,0.00129612,0.00043661,-0.00015181,-0.000041
 93,0.00096680,-0.00643829,0.00169217,0.10997384,0.12409985,0.00003854,
 0.00008522,0.00001754,0.00000055,-0.00004712,-0.00000652,0.00013421,-0
 .00011962,-0.00002441,0.00006424,0.00004227,0.00001665,0.00060569,-0.0
 0022528,0.00022804,-0.00078924,0.00086081,-0.00006534,-0.00086351,-0.0
 0032264,0.00003685,0.00539358,0.00173573,0.00173903,-0.08217265,-0.054
 84569,-0.09143351,-0.00000357,-0.00000556,0.00001474,-0.00000748,0.000
 03958,0.00002524,-0.00000749,-0.00001424,0.00001294,0.00000517,-0.0000
 0492,-0.00001410,0.00001349,-0.00000365,0.00000468,0.00002734,-0.00002
 084,0.00000935,-0.00002516,-0.00005212,-0.00003340,-0.00002631,-0.0000
 2234,-0.00003261,0.00010711,-0.00000015,-0.00005244,0.00015784,-0.0000
 2213,-0.00001664,-0.00114860,0.00150455,-0.00026676,-0.00001263,-0.000
 10385,-0.00017686,-0.00002313,0.00131923,0.00098133,0.09344335,0.05884
 232,0.09637934,-0.00000089,0.00001155,0.00002510,0.00002672,-0.0000298
 8,-0.00006063,-0.00036903,-0.00016376,-0.00005412,0.00006390,0.0000593
 9,-0.00017405,0.00012120,-0.00006443,0.00023940,-0.00022658,-0.0002657
 5,0.00002333,0.00166338,0.00015380,0.00001301,-0.00124961,0.00051401,-
 0.00054893,-0.23599093,0.07706535,0.08472581,0.00001108,0.00001754,0.0
 0002191,-0.00000757,-0.00000486,-0.00001878,-0.00000842,-0.00000349,-0
 .00000546,-0.00000174,-0.00000707,0.00000648,0.00002055,0.00003302,0.0
 0002259,0.00008603,0.00013492,-0.00002463,-0.00001258,0.00003823,-0.00
 002829,0.00002235,0.00003588,0.00001316,-0.00001015,0.00027479,-0.0004
 8716,0.00007844,0.00020926,0.00001045,0.00014762,0.00030978,0.00025014
 ,0.00003726,-0.00012704,-0.00005826,0.00075560,0.00047123,-0.00014010,
 -0.02052590,0.00850432,0.01028931,0.25515243,0.00006504,-0.00002100,-0
 .00005728,0.00002417,0.00005883,0.00021754,0.00231075,-0.00030540,0.00
 017687,0.00001028,0.00009648,-0.00047095,-0.00010536,0.00210208,-0.000
 91400,-0.00048416,-0.00010196,-0.00067503,-0.00302105,-0.00560816,0.00
 090399,0.03080904,-0.01346269,-0.01195063,0.07669940,-0.07732242,-0.03
 505072,-0.00004988,-0.00000439,-0.00002343,0.00001871,0.00002768,0.000
 00269,-0.00003637,-0.00001653,0.00002896,-0.00000795,0.00001326,-0.000
 00325,-0.00006884,-0.00006634,-0.00007632,-0.00013363,-0.00089811,0.00
 022786,-0.00006411,0.00011479,0.00005328,-0.00008851,-0.00006801,0.000
 01672,-0.00009504,-0.00004634,0.00081485,-0.00000505,0.00010781,0.0001
 4869,0.00011326,0.00017168,0.00022110,0.00001216,0.00003096,-0.0001000
 8,-0.00066075,0.00116625,-0.00028580,-0.01357142,0.00557330,0.00734078
 ,-0.08624679,0.08700351,0.00000031,0.00003546,-0.00003743,0.00003313,0
 .00003617,-0.00004650,-0.00036509,0.00021730,0.00007187,0.00011458,-0.
 00005864,0.00012949,-0.00048172,-0.00040828,0.00143121,-0.00044936,-0.
 00008602,-0.00000406,-0.00045318,0.00135671,0.00006954,-0.00572593,0.0
 0229609,0.00144660,0.08467201,-0.03537155,-0.08443131,-0.00000497,-0.0
 0001674,0.00000605,0.00003612,0.00000623,0.00001652,-0.00001020,-0.000
 02218,0.00002353,-0.00001666,0.00000281,-0.00001374,0.00000333,0.00000
 293,0.00001827,0.00003369,0.00013340,0.00002525,-0.00000961,-0.0000613
 8,-0.00001008,-0.00000854,0.00000446,0.00000367,0.00022918,-0.00026639
 ,-0.00005130,0.00007184,0.00014636,0.00006655,0.00011615,0.00020232,0.
 00009550,-0.00017668,0.00012392,0.00000529,0.00009622,-0.00043390,-0.0
 0002040,-0.01239214,0.00559094,0.00528357,-0.09355190,0.03780026,0.088
 05095,-0.00001282,-0.00000806,0.00001630,0.00005398,0.00003240,0.00000
 106,0.00003203,0.00001782,0.00012304,0.00000186,0.00004297,-0.00020641
 ,0.00016333,0.00053543,-0.00019244,-0.00030796,-0.00027376,-0.00049957
 ,0.00095871,-0.00043702,-0.00082549,-0.00119973,0.00045555,-0.00203825
 ,-0.04661647,-0.00043539,-0.00049474,-0.00000798,0.00001120,0.00000026
 ,0.00004668,0.00000647,-0.00002159,-0.00001915,-0.00001847,0.00001894,
 -0.00001720,0.00001525,0.00000734,-0.00001777,-0.00000024,-0.00000395,
 -0.00001668,-0.00003808,-0.00000933,0.00003126,0.00005848,0.00002906,-
 0.00001064,0.00002895,0.00004933,-0.00007151,0.00006288,-0.00014892,0.
 00015682,0.00025859,0.00000831,0.00030378,0.00034444,0.00005431,-0.000
 09558,-0.00007069,0.00024480,0.00007608,0.00000806,0.00037305,0.000286
 85,0.00501210,-0.02520065,0.00021683,-0.00542389,0.02823940,0.04606526
 ,-0.00002702,-0.00019967,0.00013132,0.00012816,0.00004098,0.00000040,-
 0.00045916,0.00008631,0.00025897,0.00093743,-0.00043000,0.00198835,-0.
 00082408,-0.00587872,-0.00193341,-0.00080221,-0.00007746,-0.00011828,-
 0.00084245,0.00224366,-0.00000589,0.00159672,-0.00776252,0.03530659,-0
 .00032247,-0.05399919,0.04553407,-0.00000480,0.00005721,-0.00005046,0.
 00000210,0.00000296,-0.00011897,0.00003395,0.00002707,0.00000212,-0.00
 001120,-0.00003713,-0.00006953,-0.00003128,0.00003774,-0.00001751,0.00
 001332,0.00008154,-0.00008027,0.00003219,-0.00090205,-0.00016449,-0.00
 007810,0.00004234,0.00000027,-0.00008111,0.00002296,0.00005368,0.00014
 895,0.00010083,-0.00008323,0.00026868,0.00015051,-0.00002490,0.0006159
 2,-0.00008787,-0.00040067,-0.00034603,0.00133110,-0.00058326,0.0011575
 0,0.00253659,-0.01596034,-0.00092000,0.00145471,-0.01123028,-0.0001850
 0,0.06115808,0.00002865,0.00011873,0.00001261,-0.00005212,-0.00003584,
 -0.00006168,-0.00004676,0.00007400,0.00000647,-0.00031232,-0.00006278,
 -0.00040519,0.00079560,0.00068756,0.00200034,0.00012978,-0.00022851,0.
 00003427,-0.00008930,-0.00013861,0.00040220,-0.00067970,0.00115695,-0.
 00441649,-0.00040423,0.04597983,-0.29666858,0.00000294,0.00001024,0.00
 003150,0.00000401,0.00002772,0.00001922,-0.00003174,-0.00003239,0.0000
 0200,-0.00000291,0.00002159,0.00004547,0.00002866,0.00000550,0.0000217
 1,-0.00001180,0.00004444,0.00001711,-0.00005256,0.00020423,0.00009255,
 0.00004466,-0.00001223,-0.00000973,-0.00000322,-0.00014260,0.00013931,
 -0.00001402,0.00011942,0.00003131,0.00016864,0.00016113,-0.00000534,-0
 .00049400,0.00041858,0.00007715,0.00031598,0.00043050,0.00060120,0.000
 68797,0.00197291,-0.01262673,-0.00048836,0.00165390,-0.01212901,0.0004
 7614,-0.05243428,0.32278835\\0.00000162,0.00000075,0.00001155,-0.00000
 093,-0.00001405,-0.00000781,-0.00001112,-0.00000915,0.00001589,0.00001
 330,0.00000073,-0.00002743,-0.00001660,0.00000140,0.00001874,0.0000046
 3,0.00001904,-0.00001039,0.00001206,0.00001421,-0.00000852,-0.00000042
 ,-0.00001829,-0.00000268,0.00000462,-0.00000468,0.00001018,0.00000100,
 -0.00000111,0.00000426,0.00000223,0.00000570,0.00000526,-0.00000381,-0
 .00000143,-0.00000224,0.00000843,-0.00000304,-0.00000263,0.00000556,0.
 00000540,-0.00000040,-0.00000433,0.00001133,-0.00000816,-0.00000278,0.
 00000379,0.00000583,-0.00000053,-0.00000554,-0.00000142,-0.00000178,0.
 00000340,0.00000247,-0.00000322,0.00000105,-0.00000310,-0.00000502,0.0
 0000099,0.00000462,0.00000299,-0.00000667,-0.00000620,0.00000200,0.000
 00110,-0.00000126,0.00000244,0.00000198,-0.00000404,-0.00000356,-0.000
 00240,0.00000465,-0.00000677,-0.00000452,0.00000280\\\@


 WHEN ALL ELSE FAILS, LOOK AT THE SCHRODINGER EQUATION.
     -- RUSSELL T. PACK, APRIL 1978
 Job cpu time:       0 days  2 hours 53 minutes 55.1 seconds.
 Elapsed time:       0 days  0 hours 43 minutes 29.6 seconds.
 File lengths (MBytes):  RWF=    199 Int=      0 D2E=      0 Chk=     10 Scr=      1
 Normal termination of Gaussian 16 at Sun May 28 17:59:55 2023.
### All Done ###
