### Starting Gaussian ###
 Entering Gaussian System, Link 0=g16
 Initial command:
 /cluster/software/gaussian/gaussian-16-A.03/avx2/g16/l1.exe "/local/scratch/linjian/Gau-20417.inp" -scrdir="/local/scratch/linjian/"
 Entering Link 1 = /cluster/software/gaussian/gaussian-16-A.03/avx2/g16/l1.exe PID=     20418.
  
 Copyright (c) 1988,1990,1992,1993,1995,1998,2003,2009,2016,
            Gaussian, Inc.  All Rights Reserved.
  
 This is part of the Gaussian(R) 16 program.  It is based on
 the Gaussian(R) 09 system (copyright 2009, Gaussian, Inc.),
 the Gaussian(R) 03 system (copyright 2003, Gaussian, Inc.),
 the Gaussian(R) 98 system (copyright 1998, Gaussian, Inc.),
 the Gaussian(R) 94 system (copyright 1995, Gaussian, Inc.),
 the Gaussian 92(TM) system (copyright 1992, Gaussian, Inc.),
 the Gaussian 90(TM) system (copyright 1990, Gaussian, Inc.),
 the Gaussian 88(TM) system (copyright 1988, Gaussian, Inc.),
 the Gaussian 86(TM) system (copyright 1986, Carnegie Mellon
 University), and the Gaussian 82(TM) system (copyright 1983,
 Carnegie Mellon University). Gaussian is a federally registered
 trademark of Gaussian, Inc.
  
 This software contains proprietary and confidential information,
 including trade secrets, belonging to Gaussian, Inc.
  
 This software is provided under written license and may be
 used, copied, transmitted, or stored only in accord with that
 written license.
  
 The following legend is applicable only to US Government
 contracts under FAR:
  
                    RESTRICTED RIGHTS LEGEND
  
 Use, reproduction and disclosure by the US Government is
 subject to restrictions as set forth in subparagraphs (a)
 and (c) of the Commercial Computer Software - Restricted
 Rights clause in FAR 52.227-19.
  
 Gaussian, Inc.
 340 Quinnipiac St., Bldg. 40, Wallingford CT 06492
  
  
 ---------------------------------------------------------------
 Warning -- This program may not be used in any manner that
 competes with the business of Gaussian, Inc. or will provide
 assistance to any competitor of Gaussian, Inc.  The licensee
 of this program is prohibited from giving any competitor of
 Gaussian, Inc. access to this program.  By using this program,
 the user acknowledges that Gaussian, Inc. is engaged in the
 business of creating and licensing software in the field of
 computational chemistry and represents and warrants to the
 licensee that it is not a competitor of Gaussian, Inc. and that
 it will not use this program in any manner prohibited above.
 ---------------------------------------------------------------
  

 Cite this work as:
 Gaussian 16, Revision A.03,
 M. J. Frisch, G. W. Trucks, H. B. Schlegel, G. E. Scuseria, 
 M. A. Robb, J. R. Cheeseman, G. Scalmani, V. Barone, 
 G. A. Petersson, H. Nakatsuji, X. Li, M. Caricato, A. V. Marenich, 
 J. Bloino, B. G. Janesko, R. Gomperts, B. Mennucci, H. P. Hratchian, 
 J. V. Ortiz, A. F. Izmaylov, J. L. Sonnenberg, D. Williams-Young, 
 F. Ding, F. Lipparini, F. Egidi, J. Goings, B. Peng, A. Petrone, 
 T. Henderson, D. Ranasinghe, V. G. Zakrzewski, J. Gao, N. Rega, 
 G. Zheng, W. Liang, M. Hada, M. Ehara, K. Toyota, R. Fukuda, 
 J. Hasegawa, M. Ishida, T. Nakajima, Y. Honda, O. Kitao, H. Nakai, 
 T. Vreven, K. Throssell, J. A. Montgomery, Jr., J. E. Peralta, 
 F. Ogliaro, M. J. Bearpark, J. J. Heyd, E. N. Brothers, K. N. Kudin, 
 V. N. Staroverov, T. A. Keith, R. Kobayashi, J. Normand, 
 K. Raghavachari, A. P. Rendell, J. C. Burant, S. S. Iyengar, 
 J. Tomasi, M. Cossi, J. M. Millam, M. Klene, C. Adamo, R. Cammi, 
 J. W. Ochterski, R. L. Martin, K. Morokuma, O. Farkas, 
 J. B. Foresman, and D. J. Fox, Gaussian, Inc., Wallingford CT, 2016.
 
 ******************************************
 Gaussian 16:  ES64L-G16RevA.03 25-Dec-2016
                28-May-2023 
 ******************************************
 %chk=CCC1qCrCC2CC1C2.chk
 %NProcShared=20
 Will use up to   20 processors via shared memory.
 -----------------------------
 # opt freq b3lyp/6-31g(2df,p)
 -----------------------------
 1/18=20,19=15,26=3,38=1/1,3;
 2/9=110,12=2,17=6,18=5,40=1/2;
 3/5=1,6=6,7=104,11=2,25=1,30=1,71=1,74=-5/1,2,3;
 4//1;
 5/5=2,38=5/2;
 6/7=2,8=2,9=2,10=2,28=1/1;
 7//1,2,3,16;
 1/18=20,19=15,26=3/3(2);
 2/9=110/2;
 99//99;
 2/9=110/2;
 3/5=1,6=6,7=104,11=2,25=1,30=1,71=1,74=-5/1,2,3;
 4/5=5,16=3,69=1/1;
 5/5=2,38=5/2;
 7//1,2,3,16;
 1/18=20,19=15,26=3/3(-5);
 2/9=110/2;
 6/7=2,8=2,9=2,10=2,19=2,28=1/1;
 99/9=1/99;
 -------------------
 Title Card Required
 -------------------
 Symbolic Z-matrix:
 Charge =  0 Multiplicity = 1
 C                     0.79946   0.093    -0.05645 
 C                     2.3101    0.05353  -0.02448 
 C                     2.95117  -1.26534  -0.52015 
 C                     3.04658  -1.22392  -2.0484 
 C                     2.35122  -2.63422  -0.10142 
 C                     3.47384  -3.16018   0.80288 
 C                     4.81405  -2.85148   0.05552 
 C                     4.29404  -1.39324   0.23543 
 C                     3.86155  -1.93187   1.66684 
 H                     0.4559    1.08286   0.26109 
 H                     0.37638  -0.63839   0.63572 
 H                     0.41729  -0.09673  -1.06134 
 H                     2.63531   0.30753   0.99102 
 H                     2.69964   0.88271  -0.63343 
 H                     2.0336   -1.21942  -2.47518 
 H                     3.55952  -2.09469  -2.46767 
 H                     3.56141  -0.3299   -2.41097 
 H                     2.23103  -3.31678  -0.95279 
 H                     1.39465  -2.57197   0.4189 
 H                     3.35772  -4.12604   1.28282 
 H                     4.91754  -3.21398  -0.96672 
 H                     5.73446  -3.08934   0.60555 
 H                     5.00792  -0.5748    0.20511 
 H                     3.0275   -1.4507    2.18602 
 H                     4.66279  -2.09031   2.398 
 

 GradGradGradGradGradGradGradGradGradGradGradGradGradGradGradGradGradGrad
 Berny optimization.
 Initialization pass.
                           ----------------------------
                           !    Initial Parameters    !
                           ! (Angstroms and Degrees)  !
 --------------------------                            --------------------------
 ! Name  Definition              Value          Derivative Info.                !
 --------------------------------------------------------------------------------
 ! R1    R(1,2)                  1.5115         estimate D2E/DX2                !
 ! R2    R(1,10)                 1.0948         estimate D2E/DX2                !
 ! R3    R(1,11)                 1.0923         estimate D2E/DX2                !
 ! R4    R(1,12)                 1.0917         estimate D2E/DX2                !
 ! R5    R(2,3)                  1.5479         estimate D2E/DX2                !
 ! R6    R(2,13)                 1.0961         estimate D2E/DX2                !
 ! R7    R(2,14)                 1.1            estimate D2E/DX2                !
 ! R8    R(3,4)                  1.5318         estimate D2E/DX2                !
 ! R9    R(3,5)                  1.5521         estimate D2E/DX2                !
 ! R10   R(3,8)                  1.5461         estimate D2E/DX2                !
 ! R11   R(4,15)                 1.0992         estimate D2E/DX2                !
 ! R12   R(4,16)                 1.0941         estimate D2E/DX2                !
 ! R13   R(4,17)                 1.0935         estimate D2E/DX2                !
 ! R14   R(5,6)                  1.5345         estimate D2E/DX2                !
 ! R15   R(5,18)                 1.0978         estimate D2E/DX2                !
 ! R16   R(5,19)                 1.0907         estimate D2E/DX2                !
 ! R17   R(6,7)                  1.5652         estimate D2E/DX2                !
 ! R18   R(6,9)                  1.551          estimate D2E/DX2                !
 ! R19   R(6,20)                 1.0848         estimate D2E/DX2                !
 ! R20   R(7,8)                  1.5586         estimate D2E/DX2                !
 ! R21   R(7,21)                 1.0895         estimate D2E/DX2                !
 ! R22   R(7,22)                 1.0983         estimate D2E/DX2                !
 ! R23   R(8,9)                  1.5894         estimate D2E/DX2                !
 ! R24   R(8,23)                 1.0865         estimate D2E/DX2                !
 ! R25   R(9,24)                 1.0939         estimate D2E/DX2                !
 ! R26   R(9,25)                 1.0962         estimate D2E/DX2                !
 ! A1    A(2,1,10)             109.3352         estimate D2E/DX2                !
 ! A2    A(2,1,11)             110.8692         estimate D2E/DX2                !
 ! A3    A(2,1,12)             111.395          estimate D2E/DX2                !
 ! A4    A(10,1,11)            107.4612         estimate D2E/DX2                !
 ! A5    A(10,1,12)            108.3149         estimate D2E/DX2                !
 ! A6    A(11,1,12)            109.3499         estimate D2E/DX2                !
 ! A7    A(1,2,3)              115.4288         estimate D2E/DX2                !
 ! A8    A(1,2,13)             108.0631         estimate D2E/DX2                !
 ! A9    A(1,2,14)             108.8154         estimate D2E/DX2                !
 ! A10   A(3,2,13)             111.7909         estimate D2E/DX2                !
 ! A11   A(3,2,14)             108.5609         estimate D2E/DX2                !
 ! A12   A(13,2,14)            103.4807         estimate D2E/DX2                !
 ! A13   A(2,3,4)              108.798          estimate D2E/DX2                !
 ! A14   A(2,3,5)              120.3288         estimate D2E/DX2                !
 ! A15   A(2,3,8)              105.8843         estimate D2E/DX2                !
 ! A16   A(4,3,5)              108.4864         estimate D2E/DX2                !
 ! A17   A(4,3,8)              115.8297         estimate D2E/DX2                !
 ! A18   A(5,3,8)               97.5229         estimate D2E/DX2                !
 ! A19   A(3,4,15)             109.2731         estimate D2E/DX2                !
 ! A20   A(3,4,16)             112.9541         estimate D2E/DX2                !
 ! A21   A(3,4,17)             112.4719         estimate D2E/DX2                !
 ! A22   A(15,4,16)            106.6489         estimate D2E/DX2                !
 ! A23   A(15,4,17)            107.5649         estimate D2E/DX2                !
 ! A24   A(16,4,17)            107.6312         estimate D2E/DX2                !
 ! A25   A(3,5,6)              100.2819         estimate D2E/DX2                !
 ! A26   A(3,5,18)             112.4233         estimate D2E/DX2                !
 ! A27   A(3,5,19)             114.668          estimate D2E/DX2                !
 ! A28   A(6,5,18)             108.9058         estimate D2E/DX2                !
 ! A29   A(6,5,19)             112.3368         estimate D2E/DX2                !
 ! A30   A(18,5,19)            108.0249         estimate D2E/DX2                !
 ! A31   A(5,6,7)              106.1068         estimate D2E/DX2                !
 ! A32   A(5,6,9)              103.8692         estimate D2E/DX2                !
 ! A33   A(5,6,20)             119.1835         estimate D2E/DX2                !
 ! A34   A(7,6,9)               84.0155         estimate D2E/DX2                !
 ! A35   A(7,6,20)             118.5881         estimate D2E/DX2                !
 ! A36   A(9,6,20)             119.0424         estimate D2E/DX2                !
 ! A37   A(6,7,8)               81.0099         estimate D2E/DX2                !
 ! A38   A(6,7,21)             117.6255         estimate D2E/DX2                !
 ! A39   A(6,7,22)             115.8308         estimate D2E/DX2                !
 ! A40   A(8,7,21)             116.8257         estimate D2E/DX2                !
 ! A41   A(8,7,22)             115.1138         estimate D2E/DX2                !
 ! A42   A(21,7,22)            108.5548         estimate D2E/DX2                !
 ! A43   A(3,8,7)              108.1051         estimate D2E/DX2                !
 ! A44   A(3,8,9)              103.4039         estimate D2E/DX2                !
 ! A45   A(3,8,23)             119.6521         estimate D2E/DX2                !
 ! A46   A(7,8,9)               82.9736         estimate D2E/DX2                !
 ! A47   A(7,8,23)             118.8395         estimate D2E/DX2                !
 ! A48   A(9,8,23)             117.3371         estimate D2E/DX2                !
 ! A49   A(6,9,8)               80.4872         estimate D2E/DX2                !
 ! A50   A(6,9,24)             114.9689         estimate D2E/DX2                !
 ! A51   A(6,9,25)             116.0906         estimate D2E/DX2                !
 ! A52   A(8,9,24)             119.0669         estimate D2E/DX2                !
 ! A53   A(8,9,25)             116.7942         estimate D2E/DX2                !
 ! A54   A(24,9,25)            107.7157         estimate D2E/DX2                !
 ! D1    D(10,1,2,3)          -176.963          estimate D2E/DX2                !
 ! D2    D(10,1,2,13)           57.0634         estimate D2E/DX2                !
 ! D3    D(10,1,2,14)          -54.6627         estimate D2E/DX2                !
 ! D4    D(11,1,2,3)            64.7364         estimate D2E/DX2                !
 ! D5    D(11,1,2,13)          -61.2372         estimate D2E/DX2                !
 ! D6    D(11,1,2,14)         -172.9633         estimate D2E/DX2                !
 ! D7    D(12,1,2,3)           -57.2836         estimate D2E/DX2                !
 ! D8    D(12,1,2,13)          176.7428         estimate D2E/DX2                !
 ! D9    D(12,1,2,14)           65.0167         estimate D2E/DX2                !
 ! D10   D(1,2,3,4)             83.4232         estimate D2E/DX2                !
 ! D11   D(1,2,3,5)            -42.5346         estimate D2E/DX2                !
 ! D12   D(1,2,3,8)           -151.4505         estimate D2E/DX2                !
 ! D13   D(13,2,3,4)          -152.5331         estimate D2E/DX2                !
 ! D14   D(13,2,3,5)            81.5091         estimate D2E/DX2                !
 ! D15   D(13,2,3,8)           -27.4068         estimate D2E/DX2                !
 ! D16   D(14,2,3,4)           -39.0129         estimate D2E/DX2                !
 ! D17   D(14,2,3,5)          -164.9707         estimate D2E/DX2                !
 ! D18   D(14,2,3,8)            86.1134         estimate D2E/DX2                !
 ! D19   D(2,3,4,15)           -65.739          estimate D2E/DX2                !
 ! D20   D(2,3,4,16)           175.725          estimate D2E/DX2                !
 ! D21   D(2,3,4,17)            53.6416         estimate D2E/DX2                !
 ! D22   D(5,3,4,15)            66.8114         estimate D2E/DX2                !
 ! D23   D(5,3,4,16)           -51.7246         estimate D2E/DX2                !
 ! D24   D(5,3,4,17)          -173.8079         estimate D2E/DX2                !
 ! D25   D(8,3,4,15)           175.1845         estimate D2E/DX2                !
 ! D26   D(8,3,4,16)            56.6486         estimate D2E/DX2                !
 ! D27   D(8,3,4,17)           -65.4348         estimate D2E/DX2                !
 ! D28   D(2,3,5,6)           -111.8574         estimate D2E/DX2                !
 ! D29   D(2,3,5,18)           132.6057         estimate D2E/DX2                !
 ! D30   D(2,3,5,19)             8.6969         estimate D2E/DX2                !
 ! D31   D(4,3,5,6)            122.0402         estimate D2E/DX2                !
 ! D32   D(4,3,5,18)             6.5033         estimate D2E/DX2                !
 ! D33   D(4,3,5,19)          -117.4055         estimate D2E/DX2                !
 ! D34   D(8,3,5,6)              1.5398         estimate D2E/DX2                !
 ! D35   D(8,3,5,18)          -113.9971         estimate D2E/DX2                !
 ! D36   D(8,3,5,19)           122.0941         estimate D2E/DX2                !
 ! D37   D(2,3,8,7)            166.053          estimate D2E/DX2                !
 ! D38   D(2,3,8,9)             79.1708         estimate D2E/DX2                !
 ! D39   D(2,3,8,23)           -53.5858         estimate D2E/DX2                !
 ! D40   D(4,3,8,7)            -73.2861         estimate D2E/DX2                !
 ! D41   D(4,3,8,9)           -160.1683         estimate D2E/DX2                !
 ! D42   D(4,3,8,23)            67.0752         estimate D2E/DX2                !
 ! D43   D(5,3,8,7)             41.5016         estimate D2E/DX2                !
 ! D44   D(5,3,8,9)            -45.3806         estimate D2E/DX2                !
 ! D45   D(5,3,8,23)          -178.1372         estimate D2E/DX2                !
 ! D46   D(3,5,6,7)            -43.7182         estimate D2E/DX2                !
 ! D47   D(3,5,6,9)             43.9618         estimate D2E/DX2                !
 ! D48   D(3,5,6,20)           179.2484         estimate D2E/DX2                !
 ! D49   D(18,5,6,7)            74.4399         estimate D2E/DX2                !
 ! D50   D(18,5,6,9)           162.12           estimate D2E/DX2                !
 ! D51   D(18,5,6,20)          -62.5935         estimate D2E/DX2                !
 ! D52   D(19,5,6,7)          -165.9345         estimate D2E/DX2                !
 ! D53   D(19,5,6,9)           -78.2544         estimate D2E/DX2                !
 ! D54   D(19,5,6,20)           57.0321         estimate D2E/DX2                !
 ! D55   D(5,6,7,8)             61.4588         estimate D2E/DX2                !
 ! D56   D(5,6,7,21)           -54.1917         estimate D2E/DX2                !
 ! D57   D(5,6,7,22)           175.0876         estimate D2E/DX2                !
 ! D58   D(9,6,7,8)            -41.2853         estimate D2E/DX2                !
 ! D59   D(9,6,7,21)          -156.9358         estimate D2E/DX2                !
 ! D60   D(9,6,7,22)            72.3435         estimate D2E/DX2                !
 ! D61   D(20,6,7,8)          -161.2035         estimate D2E/DX2                !
 ! D62   D(20,6,7,21)           83.146          estimate D2E/DX2                !
 ! D63   D(20,6,7,22)          -47.5747         estimate D2E/DX2                !
 ! D64   D(5,6,9,8)            -64.7649         estimate D2E/DX2                !
 ! D65   D(5,6,9,24)            52.9688         estimate D2E/DX2                !
 ! D66   D(5,6,9,25)           179.9658         estimate D2E/DX2                !
 ! D67   D(7,6,9,8)             40.3908         estimate D2E/DX2                !
 ! D68   D(7,6,9,24)           158.1244         estimate D2E/DX2                !
 ! D69   D(7,6,9,25)           -74.8785         estimate D2E/DX2                !
 ! D70   D(20,6,9,8)           159.8708         estimate D2E/DX2                !
 ! D71   D(20,6,9,24)          -82.3955         estimate D2E/DX2                !
 ! D72   D(20,6,9,25)           44.6015         estimate D2E/DX2                !
 ! D73   D(6,7,8,3)            -61.6743         estimate D2E/DX2                !
 ! D74   D(6,7,8,9)             40.1808         estimate D2E/DX2                !
 ! D75   D(6,7,8,23)           157.59           estimate D2E/DX2                !
 ! D76   D(21,7,8,3)            54.8172         estimate D2E/DX2                !
 ! D77   D(21,7,8,9)           156.6723         estimate D2E/DX2                !
 ! D78   D(21,7,8,23)          -85.9185         estimate D2E/DX2                !
 ! D79   D(22,7,8,3)          -176.0699         estimate D2E/DX2                !
 ! D80   D(22,7,8,9)           -74.2148         estimate D2E/DX2                !
 ! D81   D(22,7,8,23)           43.1944         estimate D2E/DX2                !
 ! D82   D(3,8,9,6)             66.3072         estimate D2E/DX2                !
 ! D83   D(3,8,9,24)           -47.0551         estimate D2E/DX2                !
 ! D84   D(3,8,9,25)          -179.1776         estimate D2E/DX2                !
 ! D85   D(7,8,9,6)            -40.701          estimate D2E/DX2                !
 ! D86   D(7,8,9,24)          -154.0633         estimate D2E/DX2                !
 ! D87   D(7,8,9,25)            73.8142         estimate D2E/DX2                !
 ! D88   D(23,8,9,6)          -159.6082         estimate D2E/DX2                !
 ! D89   D(23,8,9,24)           87.0295         estimate D2E/DX2                !
 ! D90   D(23,8,9,25)          -45.093          estimate D2E/DX2                !
 --------------------------------------------------------------------------------
 Trust Radius=3.00D-01 FncErr=1.00D-07 GrdErr=1.00D-06 EigMax=2.50D+02 EigMin=1.00D-04
 Number of steps in this run=    150 maximum allowed number of steps=    150.
 GradGradGradGradGradGradGradGradGradGradGradGradGradGradGradGradGradGrad

                          Input orientation:                          
 ---------------------------------------------------------------------
 Center     Atomic      Atomic             Coordinates (Angstroms)
 Number     Number       Type             X           Y           Z
 ---------------------------------------------------------------------
      1          6           0        0.799460    0.093000   -0.056450
      2          6           0        2.310100    0.053530   -0.024480
      3          6           0        2.951170   -1.265340   -0.520150
      4          6           0        3.046580   -1.223920   -2.048400
      5          6           0        2.351220   -2.634220   -0.101420
      6          6           0        3.473840   -3.160180    0.802880
      7          6           0        4.814050   -2.851480    0.055520
      8          6           0        4.294040   -1.393240    0.235430
      9          6           0        3.861550   -1.931870    1.666840
     10          1           0        0.455900    1.082860    0.261090
     11          1           0        0.376380   -0.638390    0.635720
     12          1           0        0.417290   -0.096730   -1.061340
     13          1           0        2.635310    0.307530    0.991020
     14          1           0        2.699640    0.882710   -0.633430
     15          1           0        2.033600   -1.219420   -2.475180
     16          1           0        3.559520   -2.094690   -2.467670
     17          1           0        3.561410   -0.329900   -2.410970
     18          1           0        2.231030   -3.316780   -0.952790
     19          1           0        1.394650   -2.571970    0.418900
     20          1           0        3.357720   -4.126040    1.282820
     21          1           0        4.917540   -3.213980   -0.966720
     22          1           0        5.734460   -3.089340    0.605550
     23          1           0        5.007920   -0.574800    0.205110
     24          1           0        3.027500   -1.450700    2.186020
     25          1           0        4.662790   -2.090310    2.398000
 ---------------------------------------------------------------------
                    Distance matrix (angstroms):
                    1          2          3          4          5
     1  C    0.000000
     2  C    1.511494   0.000000
     3  C    2.586496   1.547927   0.000000
     4  C    3.278977   2.504103   1.531785   0.000000
     5  C    3.138106   2.689165   1.552130   2.502639   0.000000
     6  C    4.298132   3.516639   2.369390   3.472960   1.534493
     7  C    4.979903   3.836046   2.513475   3.193647   2.477370
     8  C    3.808700   2.469153   1.546143   2.607816   2.329817
     9  C    4.055394   3.034695   2.460890   3.868899   2.429225
    10  H    1.094846   2.139890   3.514364   4.167325   4.188118
    11  H    1.092258   2.157288   2.891132   3.831098   2.902879
    12  H    1.091721   2.163420   2.842373   3.026221   3.331724
    13  H    2.124514   1.096138   2.203933   3.428200   3.150877
    14  H    2.137108   1.100046   2.165691   2.561327   3.573965
    15  H    3.015925   2.775389   2.160136   1.099222   2.781596
    16  H    4.268243   3.484979   2.202441   1.094137   2.711129
    17  H    3.653899   2.721788   2.196051   1.093517   3.479723
    18  H    3.805183   3.496713   2.216796   2.499109   1.097800
    19  H    2.771692   2.815650   2.238716   3.260933   1.090704
    20  H    5.112596   4.502815   3.405817   4.429011   2.270394
    21  H    5.359411   4.285228   2.804146   2.937833   2.769632
    22  H    5.909294   4.690502   3.512959   4.212831   3.486152
    23  H    4.269134   2.779522   2.287590   3.057208   3.375385
    24  H    3.517932   2.768335   2.713584   4.240531   2.662791
    25  H    5.071142   3.999951   3.482215   4.809703   3.447651
                    6          7          8          9         10
     6  C    0.000000
     7  C    1.565249   0.000000
     8  C    2.028991   1.558603   0.000000
     9  C    1.550965   2.085495   1.589372   0.000000
    10  H    5.234968   5.874927   4.567609   4.760586   0.000000
    11  H    3.997703   4.992726   4.009749   3.857811   1.763341
    12  H    4.711957   5.307308   4.288559   4.761684   1.772497
    13  H    3.572610   3.949862   2.492974   2.641081   2.425647
    14  H    4.359740   4.346212   2.911525   3.816168   2.423756
    15  H    4.072655   4.098654   3.533725   4.583156   3.908555
    16  H    3.440800   2.917716   2.887612   4.148723   5.213004
    17  H    4.283338   3.743133   2.944634   4.391461   4.333588
    18  H    2.156728   2.811616   3.060700   3.382164   4.897083
    19  H    2.194644   3.449995   3.135208   2.837724   3.776763
    20  H    1.084763   2.291651   3.072770   2.283790   6.049556
    21  H    2.284436   1.089537   2.269143   3.113609   6.314791
    22  H    2.270322   1.098301   2.255782   2.444149   6.737143
    23  H    3.065113   2.289811   1.086457   2.300534   4.844776
    24  H    2.243795   3.113354   2.326419   1.093943   4.091138
    25  H    2.258901   2.467686   2.301867   1.096213   5.686239
                   11         12         13         14         15
    11  H    0.000000
    12  H    1.781876   0.000000
    13  H    2.474625   3.048806   0.000000
    14  H    3.053199   2.520224   1.724473   0.000000
    15  H    3.572348   2.423187   3.835124   2.873082   0.000000
    16  H    4.678057   3.980354   4.311306   3.601214   1.759143
    17  H    4.418360   3.429484   3.582948   2.317913   1.769060
    18  H    3.624481   3.697318   4.132489   4.237606   2.599148
    19  H    2.196046   3.045186   3.187174   3.839949   3.257813
    20  H    4.633663   5.511493   4.501507   5.403023   4.931967
    21  H    5.461100   5.475258   4.630589   4.670442   3.817176
    22  H    5.892121   6.325072   4.614330   5.149989   5.165643
    23  H    4.651949   4.786056   2.650554   2.855808   4.055375
    24  H    3.176746   4.380842   2.161761   3.674451   4.771594
    25  H    4.856646   5.828007   3.440916   4.677860   5.605263
                   16         17         18         19         20
    16  H    0.000000
    17  H    1.765702   0.000000
    18  H    2.356534   3.580175   0.000000
    19  H    3.639608   4.210688   1.770821   0.000000
    20  H    4.270045   5.300590   2.631023   2.648610   0.000000
    21  H    2.312981   3.498980   2.688512   3.839645   2.885363
    22  H    3.894146   4.629908   3.841116   4.374524   2.679988
    23  H    3.398776   2.999374   4.070664   4.134019   4.061518
    24  H    4.728065   4.761677   3.737479   2.654460   2.842932
    25  H    4.989185   5.238156   4.318041   3.850918   2.662899
                   21         22         23         24         25
    21  H    0.000000
    22  H    1.776211   0.000000
    23  H    2.889053   2.647853   0.000000
    24  H    4.076908   3.537041   2.934837   0.000000
    25  H    3.556525   2.315041   2.687871   1.768675   0.000000
 Stoichiometry    C9H16
 Framework group  C1[X(C9H16)]
 Deg. of freedom    69
 Full point group                 C1      NOp   1
 Largest Abelian subgroup         C1      NOp   1
 Largest concise Abelian subgroup C1      NOp   1
                         Standard orientation:                         
 ---------------------------------------------------------------------
 Center     Atomic      Atomic             Coordinates (Angstroms)
 Number     Number       Type             X           Y           Z
 ---------------------------------------------------------------------
      1          6           0        2.657057   -0.786833    0.285533
      2          6           0        1.571065   -0.405752   -0.694268
      3          6           0        0.395623    0.407712   -0.100391
      4          6           0        0.790637    1.887093   -0.058399
      5          6           0       -0.209219    0.020574    1.275617
      6          6           0       -1.594061   -0.473695    0.836780
      7          6           0       -2.110407    0.561239   -0.217879
      8          6           0       -0.837533    0.064079   -0.967456
      9          6           0       -1.298643   -1.350344   -0.408092
     10          1           0        3.459031   -1.308328   -0.246979
     11          1           0        2.272166   -1.468482    1.047269
     12          1           0        3.083126    0.093771    0.770155
     13          1           0        1.224015   -1.319988   -1.189491
     14          1           0        2.020178    0.174987   -1.513500
     15          1           0        1.619494    2.021314    0.651017
     16          1           0       -0.021689    2.536149    0.282171
     17          1           0        1.125402    2.258097   -1.031059
     18          1           0       -0.334195    0.887802    1.937025
     19          1           0        0.349508   -0.741531    1.820277
     20          1           0       -2.286926   -0.840300    1.586614
     21          1           0       -2.131260    1.611090    0.072753
     22          1           0       -3.063858    0.314117   -0.703808
     23          1           0       -0.785474    0.181079   -2.046340
     24          1           0       -0.548395   -2.131660   -0.255168
     25          1           0       -2.168233   -1.812559   -0.889604
 ---------------------------------------------------------------------
 Rotational constants (GHZ):           2.6934415           1.3685154           1.2177787
 Standard basis: 6-31G(2df,p) (6D, 7F)
 There are   359 symmetry adapted cartesian basis functions of A   symmetry.
 There are   332 symmetry adapted basis functions of A   symmetry.
   332 basis functions,   508 primitive gaussians,   359 cartesian basis functions
    35 alpha electrons       35 beta electrons
       nuclear repulsion energy       492.9575255145 Hartrees.
 NAtoms=   25 NActive=   25 NUniq=   25 SFac= 1.00D+00 NAtFMM=   60 NAOKFM=F Big=F
 Integral buffers will be    131072 words long.
 Raffenetti 2 integral format.
 Two-electron integral symmetry is turned on.
 One-electron integrals computed using PRISM.
 PrsmSu:  requested number of processors reduced to:  13 ShMem   1 Linda.
 NBasis=   332 RedAO= T EigKep=  3.67D-04  NBF=   332
 NBsUse=   332 1.00D-06 EigRej= -1.00D+00 NBFU=   332
 ExpMin= 1.61D-01 ExpMax= 3.05D+03 ExpMxC= 4.57D+02 IAcc=3 IRadAn=         5 AccDes= 0.00D+00
 Harris functional with IExCor=  402 and IRadAn=       5 diagonalized for initial guess.
 HarFok:  IExCor=  402 AccDes= 0.00D+00 IRadAn=         5 IDoV= 1 UseB2=F ITyADJ=14
 ICtDFT=  3500011 ScaDFX=  1.000000  1.000000  1.000000  1.000000
 FoFCou: FMM=F IPFlag=           0 FMFlag=      100000 FMFlg1=           0
         NFxFlg=           0 DoJE=T BraDBF=F KetDBF=T FulRan=T
         wScrn=  0.000000 ICntrl=       500 IOpCl=  0 I1Cent=   200000004 NGrid=           0
         NMat0=    1 NMatS0=      1 NMatT0=    0 NMatD0=    1 NMtDS0=    0 NMtDT0=    0
 Petite list used in FoFCou.
 Requested convergence on RMS density matrix=1.00D-08 within 128 cycles.
 Requested convergence on MAX density matrix=1.00D-06.
 Requested convergence on             energy=1.00D-06.
 No special actions if energy rises.
 Integral accuracy reduced to 1.0D-05 until final iterations.
 Initial convergence to 1.0D-05 achieved.  Increase integral accuracy.
 SCF Done:  E(RB3LYP) =  -352.572678838     A.U. after   12 cycles
            NFock= 12  Conv=0.57D-08     -V/T= 2.0088

 **********************************************************************

            Population analysis using the SCF density.

 **********************************************************************

 Orbital symmetries:
       Occupied  (A) (A) (A) (A) (A) (A) (A) (A) (A) (A) (A) (A)
                 (A) (A) (A) (A) (A) (A) (A) (A) (A) (A) (A) (A)
                 (A) (A) (A) (A) (A) (A) (A) (A) (A) (A) (A)
       Virtual   (A) (A) (A) (A) (A) (A) (A) (A) (A) (A) (A) (A)
                 (A) (A) (A) (A) (A) (A) (A) (A) (A) (A) (A) (A)
                 (A) (A) (A) (A) (A) (A) (A) (A) (A) (A) (A) (A)
                 (A) (A) (A) (A) (A) (A) (A) (A) (A) (A) (A) (A)
                 (A) (A) (A) (A) (A) (A) (A) (A) (A) (A) (A) (A)
                 (A) (A) (A) (A) (A) (A) (A) (A) (A) (A) (A) (A)
                 (A) (A) (A) (A) (A) (A) (A) (A) (A) (A) (A) (A)
                 (A) (A) (A) (A) (A) (A) (A) (A) (A) (A) (A) (A)
                 (A) (A) (A) (A) (A) (A) (A) (A) (A) (A) (A) (A)
                 (A) (A) (A) (A) (A) (A) (A) (A) (A) (A) (A) (A)
                 (A) (A) (A) (A) (A) (A) (A) (A) (A) (A) (A) (A)
                 (A) (A) (A) (A) (A) (A) (A) (A) (A) (A) (A) (A)
                 (A) (A) (A) (A) (A) (A) (A) (A) (A) (A) (A) (A)
                 (A) (A) (A) (A) (A) (A) (A) (A) (A) (A) (A) (A)
                 (A) (A) (A) (A) (A) (A) (A) (A) (A) (A) (A) (A)
                 (A) (A) (A) (A) (A) (A) (A) (A) (A) (A) (A) (A)
                 (A) (A) (A) (A) (A) (A) (A) (A) (A) (A) (A) (A)
                 (A) (A) (A) (A) (A) (A) (A) (A) (A) (A) (A) (A)
                 (A) (A) (A) (A) (A) (A) (A) (A) (A) (A) (A) (A)
                 (A) (A) (A) (A) (A) (A) (A) (A) (A) (A) (A) (A)
                 (A) (A) (A) (A) (A) (A) (A) (A) (A) (A) (A) (A)
                 (A) (A) (A) (A) (A) (A) (A) (A) (A) (A) (A) (A)
                 (A) (A) (A) (A) (A) (A) (A) (A) (A) (A) (A) (A)
                 (A) (A) (A) (A) (A) (A) (A) (A) (A) (A) (A) (A)
                 (A) (A) (A) (A) (A) (A) (A) (A) (A)
 The electronic state is 1-A.
 Alpha  occ. eigenvalues --  -10.18766 -10.18127 -10.18089 -10.17308 -10.17295
 Alpha  occ. eigenvalues --  -10.17233 -10.17063 -10.16687 -10.16669  -0.88278
 Alpha  occ. eigenvalues --   -0.78539  -0.72580  -0.69415  -0.65501  -0.63950
 Alpha  occ. eigenvalues --   -0.59818  -0.53884  -0.51606  -0.48614  -0.46697
 Alpha  occ. eigenvalues --   -0.45173  -0.43188  -0.40611  -0.39344  -0.38347
 Alpha  occ. eigenvalues --   -0.37446  -0.35678  -0.35232  -0.33767  -0.32488
 Alpha  occ. eigenvalues --   -0.30695  -0.30513  -0.29137  -0.28639  -0.28171
 Alpha virt. eigenvalues --    0.08093   0.10850   0.12115   0.12531   0.13191
 Alpha virt. eigenvalues --    0.13419   0.14885   0.15401   0.16253   0.16565
 Alpha virt. eigenvalues --    0.17037   0.17549   0.18664   0.19397   0.20219
 Alpha virt. eigenvalues --    0.21194   0.23073   0.23328   0.23895   0.24198
 Alpha virt. eigenvalues --    0.24925   0.26083   0.26664   0.29296   0.30559
 Alpha virt. eigenvalues --    0.32171   0.43635   0.45189   0.46671   0.47384
 Alpha virt. eigenvalues --    0.48817   0.50115   0.52502   0.53340   0.54224
 Alpha virt. eigenvalues --    0.55039   0.55656   0.57325   0.57548   0.59772
 Alpha virt. eigenvalues --    0.60500   0.62015   0.63469   0.65071   0.65789
 Alpha virt. eigenvalues --    0.66765   0.67237   0.69601   0.70507   0.72262
 Alpha virt. eigenvalues --    0.73297   0.74221   0.75171   0.75360   0.76594
 Alpha virt. eigenvalues --    0.77299   0.77681   0.78532   0.79937   0.80162
 Alpha virt. eigenvalues --    0.81403   0.83912   0.84957   0.85452   0.86388
 Alpha virt. eigenvalues --    0.87990   0.89841   0.92312   0.93645   0.96922
 Alpha virt. eigenvalues --    0.99911   1.03528   1.04472   1.07638   1.09496
 Alpha virt. eigenvalues --    1.14848   1.15755   1.16316   1.21056   1.24245
 Alpha virt. eigenvalues --    1.26501   1.27993   1.29954   1.30548   1.35634
 Alpha virt. eigenvalues --    1.36546   1.39313   1.40504   1.42939   1.44461
 Alpha virt. eigenvalues --    1.45315   1.46741   1.47502   1.50872   1.51852
 Alpha virt. eigenvalues --    1.54190   1.55432   1.56446   1.56633   1.58745
 Alpha virt. eigenvalues --    1.60002   1.62485   1.63298   1.64480   1.65863
 Alpha virt. eigenvalues --    1.68715   1.70414   1.73121   1.74439   1.75817
 Alpha virt. eigenvalues --    1.77410   1.80173   1.82893   1.86158   1.87752
 Alpha virt. eigenvalues --    1.88941   1.92175   1.93824   1.95652   1.97258
 Alpha virt. eigenvalues --    1.97820   1.99432   2.00273   2.04246   2.19295
 Alpha virt. eigenvalues --    2.21608   2.23870   2.26737   2.27758   2.30182
 Alpha virt. eigenvalues --    2.31923   2.33353   2.34040   2.35766   2.37043
 Alpha virt. eigenvalues --    2.37569   2.38335   2.41296   2.44001   2.49581
 Alpha virt. eigenvalues --    2.51130   2.54203   2.55345   2.56840   2.58772
 Alpha virt. eigenvalues --    2.62455   2.64641   2.70236   2.70947   2.75558
 Alpha virt. eigenvalues --    2.75962   2.77869   2.78047   2.80266   2.81421
 Alpha virt. eigenvalues --    2.83174   2.86116   2.86611   2.87882   2.89377
 Alpha virt. eigenvalues --    2.90468   2.91860   2.93445   2.94563   2.95005
 Alpha virt. eigenvalues --    2.97120   2.98430   2.99937   3.01901   3.03559
 Alpha virt. eigenvalues --    3.04340   3.05862   3.10642   3.11300   3.12383
 Alpha virt. eigenvalues --    3.12896   3.15386   3.17621   3.20877   3.21677
 Alpha virt. eigenvalues --    3.22867   3.26281   3.28949   3.29636   3.31136
 Alpha virt. eigenvalues --    3.32636   3.34127   3.37446   3.38900   3.40343
 Alpha virt. eigenvalues --    3.42697   3.46129   3.47890   3.49932   3.51262
 Alpha virt. eigenvalues --    3.56481   3.57355   3.58818   3.60738   3.62000
 Alpha virt. eigenvalues --    3.63572   3.64312   3.66293   3.70480   3.75846
 Alpha virt. eigenvalues --    3.77520   3.79451   3.80595   3.84981   3.87297
 Alpha virt. eigenvalues --    3.89102   3.92194   3.94111   3.94162   3.97729
 Alpha virt. eigenvalues --    4.00437   4.01493   4.09632   4.12727   4.16000
 Alpha virt. eigenvalues --    4.20691   4.25776   4.29602   4.31863   4.34821
 Alpha virt. eigenvalues --    4.37644   4.38962   4.40116   4.42058   4.43696
 Alpha virt. eigenvalues --    4.45130   4.47030   4.49128   4.52295   4.53140
 Alpha virt. eigenvalues --    4.53802   4.56771   4.59039   4.61394   4.62974
 Alpha virt. eigenvalues --    4.64048   4.65565   4.65896   4.67746   4.69161
 Alpha virt. eigenvalues --    4.70346   4.71423   4.74497   4.75579   4.76259
 Alpha virt. eigenvalues --    4.78567   4.80506   4.81208   4.82022   4.83424
 Alpha virt. eigenvalues --    4.85623   4.85927   4.88765   4.90129   4.90572
 Alpha virt. eigenvalues --    4.92038   4.95659   4.97319   4.98687   5.00355
 Alpha virt. eigenvalues --    5.02689   5.08259   5.11946   5.14374   5.21727
 Alpha virt. eigenvalues --    5.22453   5.25934   5.28672   5.35834   5.37578
 Alpha virt. eigenvalues --    5.42009   5.46230   5.49379   5.51392   5.55845
 Alpha virt. eigenvalues --    5.62037   5.64829   5.68849   5.80084   5.89174
 Alpha virt. eigenvalues --    6.28309   6.53693   7.54526  11.19448  11.42932
 Alpha virt. eigenvalues --   11.76096  11.94385  11.99527  12.31334  12.59664
 Alpha virt. eigenvalues --   12.74249  13.19865
          Condensed to atoms (all electrons):
               1          2          3          4          5          6
     1  C    4.971927   0.392273  -0.021598   0.000564  -0.010017  -0.000062
     2  C    0.392273   4.932811   0.425356  -0.056892  -0.036625   0.002492
     3  C   -0.021598   0.425356   4.332876   0.387052   0.334537  -0.033205
     4  C    0.000564  -0.056892   0.387052   5.166685  -0.053476   0.001703
     5  C   -0.010017  -0.036625   0.334537  -0.053476   5.082677   0.401212
     6  C   -0.000062   0.002492  -0.033205   0.001703   0.401212   4.707442
     7  C   -0.000176   0.002764  -0.007195  -0.002101  -0.027564   0.370879
     8  C    0.003489  -0.050371   0.411103  -0.046859  -0.049574  -0.041283
     9  C    0.000215  -0.004486  -0.012477   0.003253  -0.035769   0.375608
    10  H    0.370533  -0.021320   0.002351  -0.000044   0.000307  -0.000009
    11  H    0.379735  -0.029422  -0.006046  -0.000204   0.001319  -0.000046
    12  H    0.378082  -0.028925  -0.004149   0.001251  -0.000135   0.000046
    13  H   -0.039746   0.355848  -0.018790   0.006549  -0.001251   0.000518
    14  H   -0.039026   0.355972  -0.021832  -0.015666   0.005040  -0.000043
    15  H    0.000350  -0.004661  -0.015617   0.361773  -0.005446   0.000043
    16  H   -0.000056   0.005238  -0.011975   0.360138  -0.005246  -0.000197
    17  H   -0.000037  -0.005742  -0.017827   0.358911   0.005636  -0.000100
    18  H    0.000072   0.004291  -0.019824  -0.015540   0.354580  -0.027882
    19  H    0.002711  -0.012728  -0.020175   0.004667   0.351578  -0.025902
    20  H   -0.000012  -0.000101   0.008580  -0.000141  -0.051901   0.365445
    21  H   -0.000000   0.000158  -0.005170   0.000391  -0.004681  -0.026195
    22  H    0.000002  -0.000117   0.002179   0.000084   0.003765  -0.024082
    23  H    0.000083  -0.003883  -0.050921  -0.001776   0.012865   0.006620
    24  H   -0.000331  -0.000877  -0.004142   0.000132  -0.003874  -0.030083
    25  H    0.000004   0.000316   0.001935  -0.000141   0.004274  -0.024805
               7          8          9         10         11         12
     1  C   -0.000176   0.003489   0.000215   0.370533   0.379735   0.378082
     2  C    0.002764  -0.050371  -0.004486  -0.021320  -0.029422  -0.028925
     3  C   -0.007195   0.411103  -0.012477   0.002351  -0.006046  -0.004149
     4  C   -0.002101  -0.046859   0.003253  -0.000044  -0.000204   0.001251
     5  C   -0.027564  -0.049574  -0.035769   0.000307   0.001319  -0.000135
     6  C    0.370879  -0.041283   0.375608  -0.000009  -0.000046   0.000046
     7  C    5.016905   0.343184  -0.080645   0.000002  -0.000006   0.000006
     8  C    0.343184   4.850999   0.347318  -0.000191   0.000363   0.000127
     9  C   -0.080645   0.347318   4.994689   0.000003   0.000063  -0.000022
    10  H    0.000002  -0.000191   0.000003   0.610161  -0.031442  -0.031597
    11  H   -0.000006   0.000363   0.000063  -0.031442   0.596700  -0.034069
    12  H    0.000006   0.000127  -0.000022  -0.031597  -0.034069   0.600437
    13  H    0.000563  -0.011113   0.001317  -0.002649  -0.005382   0.006100
    14  H   -0.000151   0.001087  -0.000002  -0.003406   0.006076  -0.004426
    15  H    0.000081   0.004769  -0.000159  -0.000142   0.000111   0.004028
    16  H    0.001488  -0.006277   0.000210   0.000004  -0.000001  -0.000167
    17  H   -0.000155  -0.002272  -0.000021  -0.000014   0.000012   0.000056
    18  H   -0.007275   0.002431   0.005221   0.000001  -0.000104  -0.000169
    19  H    0.004427   0.004550  -0.006048  -0.000234   0.005529   0.000452
    20  H   -0.043784   0.008712  -0.042039   0.000000   0.000012  -0.000000
    21  H    0.348986  -0.026289   0.010255   0.000000  -0.000001  -0.000000
    22  H    0.373146  -0.019820  -0.005980  -0.000000   0.000000  -0.000000
    23  H   -0.046205   0.359206  -0.042667   0.000001   0.000008  -0.000001
    24  H    0.010279  -0.027251   0.351181   0.000033   0.000533  -0.000010
    25  H   -0.003861  -0.021817   0.371119  -0.000000  -0.000004   0.000000
              13         14         15         16         17         18
     1  C   -0.039746  -0.039026   0.000350  -0.000056  -0.000037   0.000072
     2  C    0.355848   0.355972  -0.004661   0.005238  -0.005742   0.004291
     3  C   -0.018790  -0.021832  -0.015617  -0.011975  -0.017827  -0.019824
     4  C    0.006549  -0.015666   0.361773   0.360138   0.358911  -0.015540
     5  C   -0.001251   0.005040  -0.005446  -0.005246   0.005636   0.354580
     6  C    0.000518  -0.000043   0.000043  -0.000197  -0.000100  -0.027882
     7  C    0.000563  -0.000151   0.000081   0.001488  -0.000155  -0.007275
     8  C   -0.011113   0.001087   0.004769  -0.006277  -0.002272   0.002431
     9  C    0.001317  -0.000002  -0.000159   0.000210  -0.000021   0.005221
    10  H   -0.002649  -0.003406  -0.000142   0.000004  -0.000014   0.000001
    11  H   -0.005382   0.006076   0.000111  -0.000001   0.000012  -0.000104
    12  H    0.006100  -0.004426   0.004028  -0.000167   0.000056  -0.000169
    13  H    0.648848  -0.041322  -0.000065  -0.000225   0.000083  -0.000180
    14  H   -0.041322   0.657928   0.000381   0.000159   0.006826  -0.000104
    15  H   -0.000065   0.000381   0.604115  -0.033451  -0.032997   0.002492
    16  H   -0.000225   0.000159  -0.033451   0.601525  -0.032358   0.004419
    17  H    0.000083   0.006826  -0.032997  -0.032358   0.611665   0.000307
    18  H   -0.000180  -0.000104   0.002492   0.004419   0.000307   0.641980
    19  H    0.000459   0.000051   0.000484  -0.000079  -0.000222  -0.041119
    20  H    0.000007   0.000005   0.000002  -0.000026   0.000006   0.000266
    21  H    0.000001  -0.000002  -0.000149   0.004177   0.000160   0.002617
    22  H   -0.000015   0.000002   0.000002  -0.000128  -0.000019  -0.000011
    23  H    0.000656   0.001814  -0.000103  -0.000084   0.001938  -0.000191
    24  H    0.003759   0.000042  -0.000005  -0.000002  -0.000001  -0.000121
    25  H   -0.000260  -0.000021   0.000002  -0.000000  -0.000002  -0.000162
              19         20         21         22         23         24
     1  C    0.002711  -0.000012  -0.000000   0.000002   0.000083  -0.000331
     2  C   -0.012728  -0.000101   0.000158  -0.000117  -0.003883  -0.000877
     3  C   -0.020175   0.008580  -0.005170   0.002179  -0.050921  -0.004142
     4  C    0.004667  -0.000141   0.000391   0.000084  -0.001776   0.000132
     5  C    0.351578  -0.051901  -0.004681   0.003765   0.012865  -0.003874
     6  C   -0.025902   0.365445  -0.026195  -0.024082   0.006620  -0.030083
     7  C    0.004427  -0.043784   0.348986   0.373146  -0.046205   0.010279
     8  C    0.004550   0.008712  -0.026289  -0.019820   0.359206  -0.027251
     9  C   -0.006048  -0.042039   0.010255  -0.005980  -0.042667   0.351181
    10  H   -0.000234   0.000000   0.000000  -0.000000   0.000001   0.000033
    11  H    0.005529   0.000012  -0.000001   0.000000   0.000008   0.000533
    12  H    0.000452  -0.000000  -0.000000  -0.000000  -0.000001  -0.000010
    13  H    0.000459   0.000007   0.000001  -0.000015   0.000656   0.003759
    14  H    0.000051   0.000005  -0.000002   0.000002   0.001814   0.000042
    15  H    0.000484   0.000002  -0.000149   0.000002  -0.000103  -0.000005
    16  H   -0.000079  -0.000026   0.004177  -0.000128  -0.000084  -0.000002
    17  H   -0.000222   0.000006   0.000160  -0.000019   0.001938  -0.000001
    18  H   -0.041119   0.000266   0.002617  -0.000011  -0.000191  -0.000121
    19  H    0.634720  -0.000981  -0.000116  -0.000105  -0.000154   0.002780
    20  H   -0.000981   0.712065   0.001106  -0.001876  -0.000749   0.000908
    21  H   -0.000116   0.001106   0.661114  -0.043999   0.001446  -0.000753
    22  H   -0.000105  -0.001876  -0.043999   0.614687  -0.001726   0.000110
    23  H   -0.000154  -0.000749   0.001446  -0.001726   0.716471   0.001052
    24  H    0.002780   0.000908  -0.000753   0.000110   0.001052   0.660987
    25  H    0.000019  -0.002161   0.000012   0.003599  -0.001412  -0.043329
              25
     1  C    0.000004
     2  C    0.000316
     3  C    0.001935
     4  C   -0.000141
     5  C    0.004274
     6  C   -0.024805
     7  C   -0.003861
     8  C   -0.021817
     9  C    0.371119
    10  H   -0.000000
    11  H   -0.000004
    12  H    0.000000
    13  H   -0.000260
    14  H   -0.000021
    15  H    0.000002
    16  H   -0.000000
    17  H   -0.000002
    18  H   -0.000162
    19  H    0.000019
    20  H   -0.002161
    21  H    0.000012
    22  H    0.003599
    23  H   -0.001412
    24  H   -0.043329
    25  H    0.619893
 Mulliken charges:
               1
     1  C   -0.388982
     2  C   -0.221369
     3  C    0.364973
     4  C   -0.460316
     5  C   -0.272232
     6  C    0.001886
     7  C   -0.253592
     8  C   -0.034220
     9  C   -0.230137
    10  H    0.107652
    11  H    0.116268
    12  H    0.113083
    13  H    0.096288
    14  H    0.090617
    15  H    0.114161
    16  H    0.112917
    17  H    0.106166
    18  H    0.094004
    19  H    0.095436
    20  H    0.046658
    21  H    0.076934
    22  H    0.100303
    23  H    0.047714
    24  H    0.078986
    25  H    0.096801
 Sum of Mulliken charges =  -0.00000
 Mulliken charges with hydrogens summed into heavy atoms:
               1
     1  C   -0.051978
     2  C   -0.034464
     3  C    0.364973
     4  C   -0.127072
     5  C   -0.082792
     6  C    0.048544
     7  C   -0.076354
     8  C    0.013494
     9  C   -0.054350
 Electronic spatial extent (au):  <R**2>=           1205.2750
 Charge=             -0.0000 electrons
 Dipole moment (field-independent basis, Debye):
    X=              0.0302    Y=             -0.0596    Z=             -0.0605  Tot=              0.0901
 Quadrupole moment (field-independent basis, Debye-Ang):
   XX=            -58.1026   YY=            -58.3815   ZZ=            -58.1780
   XY=              0.3102   XZ=              0.1315   YZ=              0.2930
 Traceless Quadrupole moment (field-independent basis, Debye-Ang):
   XX=              0.1181   YY=             -0.1608   ZZ=              0.0427
   XY=              0.3102   XZ=              0.1315   YZ=              0.2930
 Octapole moment (field-independent basis, Debye-Ang**2):
  XXX=             -3.3527  YYY=             -1.4462  ZZZ=             -0.7131  XYY=             -0.0098
  XXY=             -0.8443  XXZ=             -3.1809  XZZ=              0.4666  YZZ=              0.3386
  YYZ=              0.6699  XYZ=             -0.3072
 Hexadecapole moment (field-independent basis, Debye-Ang**3):
 XXXX=           -948.7012 YYYY=           -437.0233 ZZZZ=           -287.8107 XXXY=              7.9367
 XXXZ=              1.2176 YYYX=             -4.1516 YYYZ=              1.8778 ZZZX=             -1.3244
 ZZZY=             -1.7198 XXYY=           -229.5093 XXZZ=           -205.0601 YYZZ=           -118.2751
 XXYZ=              4.4609 YYXZ=             -0.4523 ZZXY=              1.7838
 N-N= 4.929575255145D+02 E-N=-1.800926478744D+03  KE= 3.495101357253D+02
 PrsmSu:  requested number of processors reduced to:  13 ShMem   1 Linda.
 Calling FoFJK, ICntrl=      2127 FMM=F ISym2X=0 I1Cent= 0 IOpClX= 0 NMat=1 NMatS=1 NMatT=0.
 ***** Axes restored to original set *****
 -------------------------------------------------------------------
 Center     Atomic                   Forces (Hartrees/Bohr)
 Number     Number              X              Y              Z
 -------------------------------------------------------------------
      1        6          -0.005506360    0.005289920    0.001414017
      2        6          -0.001538540    0.002590416    0.000968875
      3        6           0.015317971    0.007661501   -0.001366837
      4        6           0.000918251    0.001974734   -0.004423603
      5        6           0.002095599   -0.010783370    0.006853139
      6        6           0.021090420   -0.011206375    0.019128307
      7        6          -0.016142772    0.001179115   -0.021611442
      8        6           0.026028994   -0.004469963    0.023206965
      9        6          -0.020915348    0.007863565   -0.005353862
     10        1          -0.003018472   -0.000311178   -0.001122438
     11        1          -0.003024912   -0.000885629   -0.000994104
     12        1          -0.003437973   -0.000995462   -0.000666275
     13        1           0.000614972   -0.004828193    0.000176668
     14        1           0.000470295   -0.003333224   -0.002009586
     15        1           0.001977955    0.000560097   -0.000174193
     16        1           0.000326906   -0.000325186    0.001524854
     17        1           0.000916563    0.001498827    0.000136815
     18        1          -0.003444154    0.004583390   -0.000346518
     19        1          -0.000934702   -0.000262458    0.001486632
     20        1          -0.005959890   -0.005424704   -0.000179245
     21        1           0.000872904   -0.002651532   -0.004288833
     22        1          -0.007466430    0.002703304    0.002029848
     23        1          -0.001051966    0.006571659   -0.005973669
     24        1          -0.000016780    0.003976077    0.000023673
     25        1           0.001827468   -0.000975330   -0.008439187
 -------------------------------------------------------------------
 Cartesian Forces:  Max     0.026028994 RMS     0.007690871

 GradGradGradGradGradGradGradGradGradGradGradGradGradGradGradGradGradGrad
 Berny optimization.
 FormGI is forming the generalized inverse of G from B-inverse, IUseBI=4.
 Internal  Forces:  Max     0.015088207 RMS     0.003585070
 Search for a local minimum.
 Step number   1 out of a maximum of  150
 All quantities printed in internal units (Hartrees-Bohrs-Radians)
 Mixed Optimization -- RFO/linear search
 Second derivative matrix not updated -- first step.
 ITU=  0
     Eigenvalues ---    0.00230   0.00345   0.00511   0.00614   0.01912
     Eigenvalues ---    0.01992   0.02229   0.02774   0.02915   0.03213
     Eigenvalues ---    0.03291   0.03709   0.03770   0.03832   0.04229
     Eigenvalues ---    0.04544   0.04729   0.05186   0.05199   0.05310
     Eigenvalues ---    0.05613   0.05626   0.05913   0.06105   0.06402
     Eigenvalues ---    0.06587   0.06754   0.06797   0.07496   0.07937
     Eigenvalues ---    0.08897   0.08950   0.10778   0.12156   0.12629
     Eigenvalues ---    0.12943   0.16000   0.16000   0.16000   0.16000
     Eigenvalues ---    0.16000   0.16000   0.18865   0.20905   0.21846
     Eigenvalues ---    0.22231   0.23151   0.24978   0.26836   0.27828
     Eigenvalues ---    0.28512   0.29259   0.31201   0.33677   0.33768
     Eigenvalues ---    0.33871   0.33927   0.34104   0.34113   0.34259
     Eigenvalues ---    0.34339   0.34361   0.34409   0.34553   0.34614
     Eigenvalues ---    0.34731   0.34866   0.35225   0.35425
 RFO step:  Lambda=-1.82302368D-02 EMin= 2.30000000D-03
 Linear search not attempted -- first point.
 Iteration  1 RMS(Cart)=  0.07342446 RMS(Int)=  0.00237964
 Iteration  2 RMS(Cart)=  0.00339760 RMS(Int)=  0.00083262
 Iteration  3 RMS(Cart)=  0.00000616 RMS(Int)=  0.00083261
 Iteration  4 RMS(Cart)=  0.00000001 RMS(Int)=  0.00083261
 Variable       Old X    -DE/DX   Delta X   Delta X   Delta X     New X
                                 (Linear)    (Quad)   (Total)
    R1        2.85631   0.01509   0.00000   0.04569   0.04569   2.90200
    R2        2.06896   0.00034   0.00000   0.00094   0.00094   2.06990
    R3        2.06407   0.00113   0.00000   0.00312   0.00312   2.06718
    R4        2.06305   0.00199   0.00000   0.00546   0.00546   2.06852
    R5        2.92516   0.00357   0.00000   0.01205   0.01205   2.93720
    R6        2.07140  -0.00077   0.00000  -0.00215  -0.00215   2.06925
    R7        2.07879  -0.00123   0.00000  -0.00347  -0.00347   2.07531
    R8        2.89466   0.00329   0.00000   0.01058   0.01058   2.90523
    R9        2.93310   0.01107   0.00000   0.05071   0.04966   2.98276
   R10        2.92179   0.00079   0.00000   0.00337   0.00252   2.92431
   R11        2.07723  -0.00175   0.00000  -0.00493  -0.00493   2.07230
   R12        2.06762  -0.00017   0.00000  -0.00048  -0.00048   2.06714
   R13        2.06645   0.00161   0.00000   0.00445   0.00445   2.07090
   R14        2.89977  -0.00211   0.00000  -0.00332  -0.00280   2.89697
   R15        2.07454  -0.00220   0.00000  -0.00616  -0.00616   2.06838
   R16        2.06113   0.00151   0.00000   0.00414   0.00414   2.06527
   R17        2.95789  -0.00056   0.00000  -0.00989  -0.00923   2.94867
   R18        2.93090   0.00101   0.00000   0.00727   0.00771   2.93861
   R19        2.04991   0.00539   0.00000   0.01447   0.01447   2.06437
   R20        2.94533   0.00054   0.00000   0.00218   0.00308   2.94841
   R21        2.05893   0.00499   0.00000   0.01360   0.01360   2.07252
   R22        2.07549  -0.00583   0.00000  -0.01632  -0.01632   2.05917
   R23        3.00348  -0.00323   0.00000  -0.02721  -0.02781   2.97567
   R24        2.05311   0.00443   0.00000   0.01195   0.01195   2.06505
   R25        2.06725   0.00177   0.00000   0.00490   0.00490   2.07216
   R26        2.07154  -0.00415   0.00000  -0.01156  -0.01156   2.05998
    A1        1.90826   0.00361   0.00000   0.02290   0.02268   1.93094
    A2        1.93503   0.00265   0.00000   0.01449   0.01435   1.94938
    A3        1.94421   0.00247   0.00000   0.01152   0.01144   1.95565
    A4        1.87555  -0.00235   0.00000  -0.00855  -0.00883   1.86672
    A5        1.89045  -0.00306   0.00000  -0.01660  -0.01674   1.87371
    A6        1.90852  -0.00361   0.00000  -0.02511  -0.02511   1.88341
    A7        2.01461   0.00560   0.00000   0.02082   0.02092   2.03554
    A8        1.88606   0.00037   0.00000   0.01452   0.01466   1.90072
    A9        1.89919  -0.00129   0.00000  -0.00468  -0.00453   1.89466
   A10        1.95112  -0.00419   0.00000  -0.02550  -0.02573   1.92538
   A11        1.89475  -0.00341   0.00000  -0.02726  -0.02732   1.86742
   A12        1.80608   0.00265   0.00000   0.02266   0.02230   1.82838
   A13        1.89888  -0.00158   0.00000  -0.00995  -0.00981   1.88907
   A14        2.10013  -0.00569   0.00000  -0.05420  -0.05351   2.04662
   A15        1.84803   0.00704   0.00000   0.06983   0.07069   1.91872
   A16        1.89344   0.00581   0.00000   0.03864   0.03830   1.93174
   A17        2.02161  -0.00471   0.00000  -0.04572  -0.04529   1.97631
   A18        1.70210  -0.00150   0.00000  -0.00375  -0.00363   1.69846
   A19        1.90718   0.00202   0.00000   0.01360   0.01364   1.92081
   A20        1.97142  -0.00230   0.00000  -0.01388  -0.01391   1.95751
   A21        1.96300  -0.00093   0.00000  -0.00660  -0.00666   1.95635
   A22        1.86137   0.00046   0.00000   0.00508   0.00514   1.86651
   A23        1.87736  -0.00035   0.00000  -0.00027  -0.00025   1.87711
   A24        1.87852   0.00124   0.00000   0.00307   0.00297   1.88148
   A25        1.75025   0.00147   0.00000   0.00673   0.00518   1.75543
   A26        1.96216  -0.00101   0.00000  -0.01729  -0.01746   1.94470
   A27        2.00133  -0.00123   0.00000  -0.00269  -0.00189   1.99945
   A28        1.90077  -0.00045   0.00000   0.02656   0.02705   1.92782
   A29        1.96065   0.00164   0.00000  -0.00171  -0.00114   1.95951
   A30        1.88539  -0.00027   0.00000  -0.00867  -0.00914   1.87625
   A31        1.85191  -0.00693   0.00000  -0.07437  -0.07424   1.77768
   A32        1.81286  -0.00442   0.00000  -0.04147  -0.03936   1.77350
   A33        2.08015   0.00022   0.00000  -0.00761  -0.00734   2.07280
   A34        1.46635   0.00173   0.00000   0.04394   0.04038   1.50672
   A35        2.06975   0.00438   0.00000   0.04257   0.04093   2.11069
   A36        2.07768   0.00431   0.00000   0.04010   0.03802   2.11571
   A37        1.41389   0.00476   0.00000   0.02831   0.02574   1.43963
   A38        2.05295   0.00261   0.00000   0.01803   0.01796   2.07091
   A39        2.02163  -0.00712   0.00000  -0.05094  -0.05072   1.97091
   A40        2.03899   0.00317   0.00000   0.02871   0.02879   2.06778
   A41        2.00911  -0.00651   0.00000  -0.03933  -0.03875   1.97037
   A42        1.89464   0.00267   0.00000   0.01361   0.01362   1.90826
   A43        1.88679  -0.00687   0.00000  -0.07808  -0.07826   1.80853
   A44        1.80474  -0.00264   0.00000  -0.02662  -0.02510   1.77964
   A45        2.08832  -0.00087   0.00000  -0.01716  -0.01675   2.07158
   A46        1.44816   0.00265   0.00000   0.04989   0.04692   1.49509
   A47        2.07414   0.00542   0.00000   0.04411   0.04118   2.11532
   A48        2.04792   0.00262   0.00000   0.04251   0.04085   2.08877
   A49        1.40477   0.00536   0.00000   0.03169   0.02972   1.43449
   A50        2.00659   0.00232   0.00000   0.03826   0.03884   2.04542
   A51        2.02616  -0.00547   0.00000  -0.03507  -0.03448   1.99168
   A52        2.07811   0.00031   0.00000  -0.00190  -0.00233   2.07578
   A53        2.03844  -0.00655   0.00000  -0.05684  -0.05714   1.98131
   A54        1.87999   0.00357   0.00000   0.02245   0.02189   1.90189
    D1       -3.08859   0.00053   0.00000   0.01410   0.01421  -3.07438
    D2        0.99594   0.00164   0.00000   0.02064   0.02060   1.01655
    D3       -0.95404  -0.00100   0.00000  -0.01065  -0.01062  -0.96466
    D4        1.12986  -0.00042   0.00000   0.00162   0.00161   1.13148
    D5       -1.06879   0.00069   0.00000   0.00815   0.00801  -1.06078
    D6       -3.01878  -0.00195   0.00000  -0.02313  -0.02321  -3.04199
    D7       -0.99979   0.00063   0.00000   0.01559   0.01570  -0.98409
    D8        3.08474   0.00174   0.00000   0.02213   0.02209   3.10684
    D9        1.13476  -0.00091   0.00000  -0.00916  -0.00913   1.12563
   D10        1.45601   0.00008   0.00000  -0.03826  -0.03816   1.41785
   D11       -0.74237  -0.00191   0.00000  -0.03822  -0.03927  -0.78164
   D12       -2.64331  -0.00221   0.00000  -0.05632  -0.05525  -2.69856
   D13       -2.66220   0.00155   0.00000  -0.02318  -0.02330  -2.68551
   D14        1.42260  -0.00044   0.00000  -0.02315  -0.02442   1.39819
   D15       -0.47834  -0.00074   0.00000  -0.04124  -0.04039  -0.51873
   D16       -0.68090   0.00049   0.00000  -0.02553  -0.02533  -0.70623
   D17       -2.87928  -0.00150   0.00000  -0.02549  -0.02644  -2.90573
   D18        1.50296  -0.00179   0.00000  -0.04359  -0.04242   1.46054
   D19       -1.14736   0.00313   0.00000   0.03845   0.03863  -1.10873
   D20        3.06698   0.00265   0.00000   0.03165   0.03188   3.09886
   D21        0.93622   0.00345   0.00000   0.04306   0.04322   0.97944
   D22        1.16608  -0.00104   0.00000  -0.01019  -0.00966   1.15642
   D23       -0.90276  -0.00152   0.00000  -0.01699  -0.01641  -0.91917
   D24       -3.03352  -0.00072   0.00000  -0.00558  -0.00508  -3.03860
   D25        3.05755  -0.00168   0.00000  -0.01423  -0.01497   3.04257
   D26        0.98870  -0.00216   0.00000  -0.02103  -0.02172   0.96698
   D27       -1.14205  -0.00136   0.00000  -0.00962  -0.01039  -1.15244
   D28       -1.95228  -0.00595   0.00000  -0.07030  -0.07068  -2.02296
   D29        2.31441  -0.00584   0.00000  -0.09769  -0.09756   2.21684
   D30        0.15179  -0.00363   0.00000  -0.06934  -0.06964   0.08215
   D31        2.13000  -0.00453   0.00000  -0.04791  -0.04806   2.08194
   D32        0.11350  -0.00442   0.00000  -0.07530  -0.07495   0.03855
   D33       -2.04911  -0.00221   0.00000  -0.04695  -0.04703  -2.09614
   D34        0.02687  -0.00063   0.00000  -0.00890  -0.00908   0.01779
   D35       -1.98962  -0.00052   0.00000  -0.03630  -0.03597  -2.02559
   D36        2.13094   0.00169   0.00000  -0.00794  -0.00805   2.12290
   D37        2.89817  -0.00278   0.00000  -0.00417  -0.00512   2.89306
   D38        1.38179  -0.00328   0.00000  -0.03219  -0.03133   1.35046
   D39       -0.93525  -0.00365   0.00000  -0.05192  -0.05067  -0.98591
   D40       -1.27908  -0.00255   0.00000   0.00602   0.00421  -1.27487
   D41       -2.79546  -0.00305   0.00000  -0.02200  -0.02200  -2.81747
   D42        1.17068  -0.00342   0.00000  -0.04174  -0.04134   1.12934
   D43        0.72434   0.00162   0.00000   0.03216   0.03007   0.75441
   D44       -0.79204   0.00112   0.00000   0.00414   0.00386  -0.78818
   D45       -3.10908   0.00075   0.00000  -0.01560  -0.01548  -3.12456
   D46       -0.76303  -0.00061   0.00000  -0.01887  -0.01756  -0.78059
   D47        0.76728  -0.00162   0.00000  -0.00105  -0.00073   0.76655
   D48        3.12847   0.00028   0.00000   0.00752   0.00760   3.13607
   D49        1.29922  -0.00121   0.00000  -0.02474  -0.02398   1.27524
   D50        2.82953  -0.00222   0.00000  -0.00692  -0.00715   2.82238
   D51       -1.09246  -0.00032   0.00000   0.00164   0.00118  -1.09128
   D52       -2.89610  -0.00081   0.00000  -0.01892  -0.01790  -2.91400
   D53       -1.36580  -0.00183   0.00000  -0.00110  -0.00107  -1.36687
   D54        0.99540   0.00007   0.00000   0.00746   0.00726   1.00266
   D55        1.07266   0.00555   0.00000   0.06930   0.06966   1.14231
   D56       -0.94582  -0.00063   0.00000   0.02117   0.02132  -0.92451
   D57        3.05585   0.00022   0.00000   0.03659   0.03654   3.09239
   D58       -0.72056   0.00939   0.00000   0.09740   0.09821  -0.62235
   D59       -2.73905   0.00321   0.00000   0.04926   0.04987  -2.68918
   D60        1.26263   0.00406   0.00000   0.06468   0.06509   1.32772
   D61       -2.81353   0.00259   0.00000   0.01790   0.01742  -2.79611
   D62        1.45117  -0.00359   0.00000  -0.03023  -0.03092   1.42025
   D63       -0.83034  -0.00274   0.00000  -0.01481  -0.01570  -0.84604
   D64       -1.13036  -0.00158   0.00000  -0.02180  -0.02239  -1.15275
   D65        0.92448   0.00123   0.00000  -0.00789  -0.00744   0.91703
   D66        3.14100   0.00349   0.00000   0.02849   0.02892  -3.11327
   D67        0.70495  -0.00815   0.00000  -0.08674  -0.08867   0.61629
   D68        2.75979  -0.00534   0.00000  -0.07283  -0.07372   2.68607
   D69       -1.30688  -0.00308   0.00000  -0.03645  -0.03736  -1.34423
   D70        2.79027  -0.00124   0.00000  -0.00416  -0.00464   2.78563
   D71       -1.43807   0.00158   0.00000   0.00975   0.01030  -1.42777
   D72        0.77844   0.00384   0.00000   0.04613   0.04667   0.82511
   D73       -1.07642  -0.00638   0.00000  -0.07703  -0.07719  -1.15361
   D74        0.70129  -0.00795   0.00000  -0.08523  -0.08726   0.61402
   D75        2.75046  -0.00267   0.00000  -0.00207  -0.00166   2.74880
   D76        0.95674  -0.00090   0.00000  -0.04086  -0.04039   0.91635
   D77        2.73445  -0.00247   0.00000  -0.04905  -0.05047   2.68398
   D78       -1.49956   0.00281   0.00000   0.03410   0.03513  -1.46443
   D79       -3.07300  -0.00037   0.00000  -0.03175  -0.03125  -3.10425
   D80       -1.29529  -0.00194   0.00000  -0.03995  -0.04133  -1.33663
   D81        0.75388   0.00334   0.00000   0.04321   0.04427   0.79815
   D82        1.15728   0.00232   0.00000   0.02419   0.02389   1.18117
   D83       -0.82127  -0.00322   0.00000  -0.03642  -0.03653  -0.85780
   D84       -3.12724  -0.00156   0.00000  -0.00258  -0.00328  -3.13052
   D85       -0.71037   0.00869   0.00000   0.09254   0.09344  -0.61693
   D86       -2.68891   0.00315   0.00000   0.03192   0.03302  -2.65589
   D87        1.28830   0.00481   0.00000   0.06576   0.06627   1.35457
   D88       -2.78569   0.00077   0.00000   0.01026   0.00996  -2.77573
   D89        1.51895  -0.00477   0.00000  -0.05036  -0.05047   1.46849
   D90       -0.78702  -0.00311   0.00000  -0.01651  -0.01721  -0.80423
         Item               Value     Threshold  Converged?
 Maximum Force            0.015088     0.000450     NO 
 RMS     Force            0.003585     0.000300     NO 
 Maximum Displacement     0.308536     0.001800     NO 
 RMS     Displacement     0.073888     0.001200     NO 
 Predicted change in Energy=-1.119116D-02
 GradGradGradGradGradGradGradGradGradGradGradGradGradGradGradGradGradGrad

                          Input orientation:                          
 ---------------------------------------------------------------------
 Center     Atomic      Atomic             Coordinates (Angstroms)
 Number     Number       Type             X           Y           Z
 ---------------------------------------------------------------------
      1          6           0        0.742861    0.074889   -0.115445
      2          6           0        2.273997    0.048630   -0.000464
      3          6           0        2.986055   -1.248974   -0.474854
      4          6           0        3.118770   -1.192836   -2.005468
      5          6           0        2.360434   -2.624755   -0.019660
      6          6           0        3.495494   -3.175701    0.851096
      7          6           0        4.748249   -2.881189   -0.031294
      8          6           0        4.344537   -1.400681    0.250545
      9          6           0        3.900656   -1.917492    1.670197
     10          1           0        0.350334    1.053955    0.179737
     11          1           0        0.275489   -0.666687    0.538970
     12          1           0        0.404210   -0.117789   -1.138366
     13          1           0        2.556290    0.281646    1.031544
     14          1           0        2.683421    0.875530   -0.596004
     15          1           0        2.125017   -1.187156   -2.469130
     16          1           0        3.652198   -2.060069   -2.405403
     17          1           0        3.645012   -0.291950   -2.340745
     18          1           0        2.179572   -3.283998   -0.874472
     19          1           0        1.420976   -2.536278    0.531711
     20          1           0        3.364044   -4.147101    1.333263
     21          1           0        4.754270   -3.232845   -1.070101
     22          1           0        5.683305   -3.164762    0.451018
     23          1           0        5.073860   -0.590560    0.173370
     24          1           0        3.101736   -1.387035    2.201929
     25          1           0        4.733884   -2.080461    2.353925
 ---------------------------------------------------------------------
                    Distance matrix (angstroms):
                    1          2          3          4          5
     1  C    0.000000
     2  C    1.535671   0.000000
     3  C    2.629393   1.554301   0.000000
     4  C    3.290024   2.504980   1.537382   0.000000
     5  C    3.148618   2.674851   1.578409   2.562986   0.000000
     6  C    4.367782   3.551552   2.393731   3.497661   1.533009
     7  C    4.978816   3.834934   2.442580   3.066447   2.401573
     8  C    3.909389   2.539812   1.547479   2.575907   2.346920
     9  C    4.138813   3.050044   2.425831   3.827138   2.393349
    10  H    1.095345   2.177987   3.560758   4.181798   4.196805
    11  H    1.093907   2.190137   2.951960   3.851655   2.914291
    12  H    1.094613   2.195136   2.895817   3.045724   3.370934
    13  H    2.155657   1.095000   2.190144   3.422561   3.096863
    14  H    2.153540   1.098207   2.149368   2.540523   3.562090
    15  H    3.007149   2.764720   2.173096   1.096613   2.849915
    16  H    4.273896   3.482784   2.197416   1.093885   2.771154
    17  H    3.675460   2.733604   2.198105   1.095873   3.532641
    18  H    3.731271   3.446624   2.225181   2.556209   1.094539
    19  H    2.774318   2.773554   2.262696   3.335358   1.092895
    20  H    5.176345   4.535547   3.436757   4.464858   2.270500
    21  H    5.286197   4.250172   2.723352   2.776942   2.683962
    22  H    5.934998   4.706709   3.435497   4.061976   3.399208
    23  H    4.391330   2.877154   2.283119   2.988720   3.396746
    24  H    3.615486   2.756233   2.682836   4.211911   2.648950
    25  H    5.164454   4.015871   3.427574   4.732946   3.400503
                    6          7          8          9         10
     6  C    0.000000
     7  C    1.560367   0.000000
     8  C    2.057239   1.560231   0.000000
     9  C    1.555047   2.131243   1.574655   0.000000
    10  H    5.313449   5.905214   4.688700   4.863718   0.000000
    11  H    4.094020   5.023425   4.144766   3.998253   1.759335
    12  H    4.781718   5.266182   4.370477   4.832401   1.764450
    13  H    3.587187   3.992222   2.576434   2.655449   2.487625
    14  H    4.377903   4.323812   2.942293   3.797144   2.465138
    15  H    4.105657   3.961583   3.516887   4.562928   3.897253
    16  H    3.445864   2.740796   2.822797   4.085655   5.223256
    17  H    4.304210   3.640722   2.904032   4.335366   4.361100
    18  H    2.172778   2.733369   3.082145   3.362262   4.824449
    19  H    2.194195   3.392150   3.148943   2.797831   3.762968
    20  H    1.092420   2.319606   3.110702   2.317894   6.120788
    21  H    2.297560   1.096731   2.295389   3.157221   6.271635
    22  H    2.224118   1.089664   2.223617   2.493976   6.805274
    23  H    3.103789   2.322690   1.092778   2.318975   5.001616
    24  H    2.275767   3.151314   2.313577   1.096538   4.197369
    25  H    2.234201   2.516076   2.244527   1.090097   5.810952
                   11         12         13         14         15
    11  H    0.000000
    12  H    1.769552   0.000000
    13  H    2.518734   3.082127   0.000000
    14  H    3.076481   2.544729   1.737173   0.000000
    15  H    3.569357   2.423975   3.820745   2.841671   0.000000
    16  H    4.691802   3.990897   4.300842   3.581926   1.760204
    17  H    4.448244   3.461047   3.589799   2.309066   1.768690
    18  H    3.531807   3.639565   4.060619   4.199176   2.634892
    19  H    2.192615   3.109994   3.078874   3.808666   3.364646
    20  H    4.720524   5.577179   4.511907   5.423296   4.975404
    21  H    5.406825   5.350819   4.647546   4.625141   3.613184
    22  H    5.957566   6.299130   4.689666   5.139992   5.009950
    23  H    4.812880   4.873376   2.799172   2.907843   4.004299
    24  H    3.357381   4.477188   2.109932   3.622515   4.776267
    25  H    5.016981   5.898666   3.474213   4.652350   5.555721
                   16         17         18         19         20
    16  H    0.000000
    17  H    1.769315   0.000000
    18  H    2.451608   3.640031   0.000000
    19  H    3.719107   4.270168   1.764058   0.000000
    20  H    4.291428   5.332866   2.649908   2.648159   0.000000
    21  H    2.091172   3.390259   2.582626   3.763224   2.923140
    22  H    3.674899   4.494622   3.747971   4.309170   2.668767
    23  H    3.290995   2.907154   4.090169   4.154248   4.113125
    24  H    4.688655   4.704279   3.730026   2.633504   2.905400
    25  H    4.880744   5.140461   4.289004   3.808358   2.681271
                   21         22         23         24         25
    21  H    0.000000
    22  H    1.783689   0.000000
    23  H    2.937691   2.659892   0.000000
    24  H    4.104152   3.590334   2.939165   0.000000
    25  H    3.612805   2.387083   2.662744   1.779844   0.000000
 Stoichiometry    C9H16
 Framework group  C1[X(C9H16)]
 Deg. of freedom    69
 Full point group                 C1      NOp   1
 Largest Abelian subgroup         C1      NOp   1
 Largest concise Abelian subgroup C1      NOp   1
                         Standard orientation:                         
 ---------------------------------------------------------------------
 Center     Atomic      Atomic             Coordinates (Angstroms)
 Number     Number       Type             X           Y           Z
 ---------------------------------------------------------------------
      1          6           0        2.715804   -0.732703    0.281309
      2          6           0        1.593397   -0.365463   -0.700334
      3          6           0        0.370919    0.390948   -0.109369
      4          6           0        0.735673    1.880090    0.004452
      5          6           0       -0.220718   -0.143740    1.252780
      6          6           0       -1.618427   -0.581394    0.800026
      7          6           0       -2.060378    0.624322   -0.086356
      8          6           0       -0.880813    0.134015   -0.982205
      9          6           0       -1.299962   -1.315874   -0.533125
     10          1           0        3.553965   -1.199052   -0.247639
     11          1           0        2.375671   -1.449221    1.034663
     12          1           0        3.107752    0.145268    0.804493
     13          1           0        1.265003   -1.272186   -1.219021
     14          1           0        2.014103    0.271614   -1.489763
     15          1           0        1.563647    2.011474    0.711388
     16          1           0       -0.098899    2.482069    0.375526
     17          1           0        1.051586    2.301634   -0.956504
     18          1           0       -0.292573    0.654533    1.998173
     19          1           0        0.344557   -0.963714    1.702809
     20          1           0       -2.297918   -1.015234    1.537221
     21          1           0       -2.010311    1.634697    0.337265
     22          1           0       -3.035148    0.475427   -0.550059
     23          1           0       -0.837969    0.379704   -2.046143
     24          1           0       -0.537049   -2.102880   -0.501826
     25          1           0       -2.179377   -1.695337   -1.053652
 ---------------------------------------------------------------------
 Rotational constants (GHZ):           2.7025160           1.3561362           1.2099636
 Standard basis: 6-31G(2df,p) (6D, 7F)
 There are   359 symmetry adapted cartesian basis functions of A   symmetry.
 There are   332 symmetry adapted basis functions of A   symmetry.
   332 basis functions,   508 primitive gaussians,   359 cartesian basis functions
    35 alpha electrons       35 beta electrons
       nuclear repulsion energy       492.0634661740 Hartrees.
 NAtoms=   25 NActive=   25 NUniq=   25 SFac= 1.00D+00 NAtFMM=   60 NAOKFM=F Big=F
 Integral buffers will be    131072 words long.
 Raffenetti 2 integral format.
 Two-electron integral symmetry is turned on.
 One-electron integrals computed using PRISM.
 PrsmSu:  requested number of processors reduced to:  13 ShMem   1 Linda.
 NBasis=   332 RedAO= T EigKep=  3.81D-04  NBF=   332
 NBsUse=   332 1.00D-06 EigRej= -1.00D+00 NBFU=   332
 Initial guess from the checkpoint file:  "CCC1qCrCC2CC1C2.chk"
 B after Tr=    -0.000000    0.000000   -0.000000
         Rot=    0.999328   -0.036257   -0.001251   -0.005153 Ang=  -4.20 deg.
 ExpMin= 1.61D-01 ExpMax= 3.05D+03 ExpMxC= 4.57D+02 IAcc=2 IRadAn=         4 AccDes= 0.00D+00
 Harris functional with IExCor=  402 and IRadAn=       4 diagonalized for initial guess.
 HarFok:  IExCor=  402 AccDes= 0.00D+00 IRadAn=         4 IDoV= 1 UseB2=F ITyADJ=14
 ICtDFT=  3500011 ScaDFX=  1.000000  1.000000  1.000000  1.000000
 FoFCou: FMM=F IPFlag=           0 FMFlag=      100000 FMFlg1=           0
         NFxFlg=           0 DoJE=T BraDBF=F KetDBF=T FulRan=T
         wScrn=  0.000000 ICntrl=       500 IOpCl=  0 I1Cent=   200000004 NGrid=           0
         NMat0=    1 NMatS0=      1 NMatT0=    0 NMatD0=    1 NMtDS0=    0 NMtDT0=    0
 Petite list used in FoFCou.
 Requested convergence on RMS density matrix=1.00D-08 within 128 cycles.
 Requested convergence on MAX density matrix=1.00D-06.
 Requested convergence on             energy=1.00D-06.
 No special actions if energy rises.
 Integral accuracy reduced to 1.0D-05 until final iterations.
 Initial convergence to 1.0D-05 achieved.  Increase integral accuracy.
 SCF Done:  E(RB3LYP) =  -352.582344916     A.U. after   10 cycles
            NFock= 10  Conv=0.58D-08     -V/T= 2.0091
 PrsmSu:  requested number of processors reduced to:  13 ShMem   1 Linda.
 Calling FoFJK, ICntrl=      2127 FMM=F ISym2X=0 I1Cent= 0 IOpClX= 0 NMat=1 NMatS=1 NMatT=0.
 ***** Axes restored to original set *****
 -------------------------------------------------------------------
 Center     Atomic                   Forces (Hartrees/Bohr)
 Number     Number              X              Y              Z
 -------------------------------------------------------------------
      1        6           0.001252401    0.000704607    0.000251243
      2        6          -0.002603354   -0.000160115   -0.000727680
      3        6           0.000190025    0.004557823   -0.002966364
      4        6          -0.001579841   -0.001405078   -0.001290152
      5        6          -0.003228757   -0.002874373   -0.000071373
      6        6           0.008613645    0.000554053    0.002620508
      7        6          -0.002861659    0.001069263   -0.000474722
[...]
 -0.01103626,-0.02009531,0.00665769,0.10040109,0.25993187,0.00015863,-0
 .00026137,0.00001493,0.00010257,0.00180148,0.00129353,0.01419800,0.029
 03551,-0.01007801,0.02975002,0.06313019,-0.06804346,-0.00001821,-0.001
 61172,-0.00565957,0.00098301,0.00080876,-0.00021068,-0.00010153,-0.000
 22438,-0.00030942,0.00072392,0.00018208,0.00161753,0.00017043,-0.00006
 053,0.00017582,0.00006388,-0.00002106,0.00004060,-0.00022157,0.0000117
 4,-0.00002041,0.00013965,-0.00000598,-0.00004217,-0.00046949,-0.000116
 19,0.00037166,-0.00016452,-0.00108880,-0.00017792,-0.00430738,-0.01158
 342,0.00330192,-0.00580024,-0.00980045,0.00291984,-0.03410856,-0.07117
 363,0.07551617,0.00016451,-0.00001983,-0.00009427,-0.00051502,0.000115
 10,0.00023602,-0.00364879,-0.00490451,-0.00582841,0.00121246,-0.000176
 66,-0.00061539,-0.06542861,-0.04034189,-0.04877079,-0.00705472,-0.0160
 4542,-0.01675035,0.00239003,-0.00040665,-0.00156277,-0.00041158,-0.001
 35990,-0.00004781,-0.00440595,0.00210099,-0.00247204,0.00000162,-0.000
 03556,0.00001665,0.00009683,-0.00007279,0.00022875,0.00003050,0.000053
 52,-0.00001719,-0.00004236,-0.00013696,-0.00021941,0.00008842,-0.00000
 308,-0.00028274,0.00012201,-0.00000118,0.00032732,-0.00032430,-0.00001
 450,0.00017516,0.00006850,0.00018638,-0.00003319,0.07103376,-0.0003050
 6,-0.00000513,-0.00011472,-0.00285488,-0.00223968,0.00129931,-0.005384
 07,-0.01458881,-0.01878437,0.00041404,0.00145256,-0.00191986,-0.041428
 75,-0.14300066,-0.11922837,0.00330626,0.00978080,0.01067051,-0.0010600
 2,0.00039451,-0.00012275,-0.00025414,-0.00266968,0.00091028,0.00279798
 ,-0.00059983,0.00186102,0.00012837,0.00005396,0.00006406,0.00020572,0.
 00006418,-0.00016078,0.00008605,-0.00011716,0.00012950,-0.00004638,0.0
 0027654,0.00014458,0.00064840,-0.00132080,-0.00011112,0.00054153,-0.00
 030026,0.00064924,-0.00044042,0.00024217,0.00060022,0.00029818,0.00051
 436,-0.00014697,0.04628626,0.15358890,-0.00026564,-0.00015617,0.000109
 71,0.00099680,0.00116628,-0.00047247,0.00377550,0.00821724,0.00845022,
 0.00043169,0.00104932,0.00075022,-0.05024435,-0.12014637,-0.19123521,-
 0.00371538,-0.01116557,-0.01205967,0.00120120,0.00013867,0.00082802,0.
 00074206,0.00173750,-0.00088295,-0.00303195,0.00260783,-0.00160629,0.0
 0003361,0.00002491,-0.00000279,-0.00009574,0.00011761,-0.00014694,-0.0
 0000106,-0.00005618,0.00004159,0.00003137,0.00015680,0.00016043,-0.000
 26604,0.00047090,0.00029393,-0.00014485,-0.00016298,0.00037332,-0.0000
 4016,-0.00002132,0.00025836,0.00002176,0.00002441,0.00013917,0.0559457
 3,0.12813553,0.20813494,0.00022356,0.00021872,-0.00032582,-0.00006283,
 0.00118985,0.00065641,-0.00595431,0.00077605,0.00371654,-0.00043576,-0
 .00052943,-0.00048729,-0.20517448,0.02854264,0.12182058,-0.01894066,0.
 00180702,0.01434346,-0.00372167,0.00205310,-0.00362306,-0.00047620,-0.
 00035633,0.00078653,0.00128977,0.00124724,0.00161814,0.00016377,0.0000
 1090,0.00005320,0.00016911,0.00050759,-0.00006511,0.00002007,0.0001486
 2,-0.00010534,-0.00001886,-0.00043999,-0.00045656,0.00003817,0.0000877
 3,-0.00030470,0.00008312,0.00002081,0.00008425,-0.00003582,0.00007534,
 -0.00000513,-0.00002555,0.00006302,0.00020876,0.00712704,-0.00121766,-
 0.00504326,0.22632202,0.00011212,-0.00063450,0.00020716,-0.00018878,0.
 00108844,0.00100050,-0.02038622,0.00418017,0.01543168,-0.00181955,-0.0
 0277377,-0.00016174,0.02936719,-0.05143216,-0.02475478,0.01039612,-0.0
 0182365,-0.00939989,0.00231751,-0.00132910,0.00208540,-0.00098809,-0.0
 0296033,0.00160457,-0.00130173,0.00070177,-0.00004524,0.00007375,0.000
 15428,-0.00009134,0.00064815,-0.00041918,0.00036727,-0.00007642,0.0001
 8130,-0.00008459,-0.00005967,-0.00014055,-0.00044562,0.00002347,0.0004
 5893,-0.00013950,0.00025064,0.00007897,0.00008504,-0.00010855,0.000047
 73,0.00001209,0.00003051,-0.00013383,0.00126951,0.01567314,-0.00288232
 ,-0.01165693,-0.03299206,0.05675809,0.00056416,0.00045653,-0.00005894,
 0.00036153,-0.00117552,0.00077210,0.00661594,-0.00287289,-0.00696790,0
 .00124567,0.00203086,0.00002776,0.12317045,-0.02403939,-0.14197289,-0.
 01431931,0.00151757,0.01096781,-0.00363431,0.00096605,-0.00147893,-0.0
 0024061,0.00058971,-0.00053245,0.00052652,0.00094810,0.00169900,-0.000
 22053,-0.00028454,0.00011075,-0.00092114,0.00010628,-0.00009093,-0.000
 05477,-0.00025629,0.00007994,-0.00021896,0.00030995,0.00042773,-0.0000
 9893,-0.00023259,0.00014226,-0.00002054,-0.00010055,-0.00005047,-0.000
 25388,-0.00003322,0.00034714,-0.00002838,0.00046483,-0.00076020,0.0194
 7331,-0.00367351,-0.01433393,-0.13240483,0.02554256,0.14998521,0.00010
 936,0.00000024,0.00004779,0.00069945,0.00038858,-0.00052003,-0.0044021
 1,0.00132049,-0.00289223,0.00049484,0.00109349,0.00018815,0.00619105,0
 .02183112,-0.00942523,-0.05164421,-0.02325997,0.01373532,0.00150932,-0
 .01803378,0.00467105,-0.00472286,-0.00431976,0.00153025,-0.00264117,-0
 .00493017,0.00445644,-0.00000768,0.00002344,-0.00000049,0.00006746,-0.
 00004630,-0.00001094,0.00001617,-0.00000261,-0.00000164,-0.00006778,0.
 00001038,0.00007360,-0.00011716,0.00046526,0.00010158,0.00005584,-0.00
 003992,0.00011176,0.00001412,-0.00010733,-0.00014910,0.00011116,0.0000
 8529,-0.00051701,0.00060497,-0.00086144,0.00017398,0.00045521,-0.00044
 079,0.00092084,0.05098760,-0.00006949,-0.00008735,-0.00002077,-0.00003
 675,-0.00001914,0.00011265,-0.00011788,0.00056996,0.00032737,-0.000020
 19,-0.00045539,-0.00004287,-0.00261976,-0.00459376,0.00099600,-0.02288
 310,-0.25778357,0.10592984,0.00006169,0.00164924,-0.00216895,-0.002917
 55,-0.00473158,0.00016376,0.00066711,-0.00946978,0.01153843,0.00004961
 ,-0.00003467,0.00000103,0.00000936,0.00003831,0.00000856,0.00002235,0.
 00001126,0.00002049,-0.00001769,0.00004895,0.00005865,0.00005259,-0.00
 004696,-0.00000423,0.00004285,0.00001401,0.00007862,-0.00003423,0.0000
 4449,0.00001886,0.00002781,0.00004377,0.00014297,0.00036124,0.00023670
 ,0.00040017,0.00036986,-0.00006879,-0.00014038,0.02788658,0.27446999,0
 .00004028,0.00001974,0.00009648,0.00053182,0.00037708,-0.00061052,-0.0
 0219209,0.00092045,-0.00007716,0.00015741,0.00027608,0.00004859,0.0042
 3900,0.01065932,-0.00526755,0.01357130,0.10577962,-0.10729433,-0.00444
 098,0.01247056,-0.00425704,0.00073835,-0.00039590,-0.00188994,0.000264
 74,-0.01247869,0.01098940,-0.00004099,0.00003166,-0.00000502,0.0000205
 3,-0.00003388,-0.00001279,0.00002523,-0.00000454,0.00000124,-0.0000570
 6,0.00003544,0.00015468,-0.00019431,0.00025022,0.00011550,-0.00001649,
 0.00003601,0.00001623,-0.00002625,0.00001061,0.00005835,0.00004493,0.0
 0009274,-0.00018896,0.00024903,-0.00039693,-0.00001425,-0.00028735,-0.
 00014487,0.00042839,-0.01273674,-0.11879530,0.10518392,0.00002836,-0.0
 0003962,-0.00003511,0.00002946,0.00001721,-0.00001006,0.00064393,0.000
 29994,0.00047365,-0.00048774,0.00094477,-0.00036947,0.00229789,-0.0003
 3838,0.00103636,0.00350368,0.00908981,0.01676057,-0.05224504,-0.008557
 20,-0.02154147,-0.00254593,0.00130577,0.00370305,-0.00331084,0.0018695
 7,0.00297354,0.00001949,-0.00002210,-0.00000158,-0.00001842,-0.0000008
 2,0.00000626,-0.00001961,0.00001518,-0.00001723,0.00007853,-0.00010353
 ,-0.00004666,0.00000618,-0.00002110,-0.00001119,0.00004904,-0.00014759
 ,-0.00001543,-0.00044715,0.00109866,-0.00119397,0.00001613,-0.00007928
 ,0.00000686,-0.00028581,-0.00031249,-0.00043532,0.00017600,-0.00024688
 ,-0.00017741,-0.00021482,-0.00008350,0.00030775,0.05235844,-0.00000550
 ,0.00007248,-0.00002838,-0.00021649,-0.00001243,0.00011469,-0.00165868
 ,0.00118748,-0.00066339,0.00072770,-0.00081933,-0.00038122,0.00110311,
 0.00018835,-0.00027684,0.00423723,0.00207628,0.00819207,-0.00783089,-0
 .07954827,-0.08092919,-0.00393095,-0.00122786,-0.02349418,0.00255990,-
 0.00336460,-0.00189829,-0.00000703,0.00000524,0.00003017,0.00001884,-0
 .00000773,0.00000593,0.00005903,-0.00003446,0.00006552,-0.00015081,0.0
 0013720,0.00009696,-0.00000561,0.00004663,-0.00001288,-0.00026950,0.00
 040176,0.00026296,0.00082568,-0.00026652,0.00182225,-0.00016391,0.0002
 0593,-0.00000352,0.00017641,0.00007840,-0.00018912,0.00005127,-0.00013
 349,0.00015784,-0.00008587,0.00010889,0.00048913,0.00376008,0.07764845
 ,-0.00001311,-0.00004050,0.00000133,0.00024514,0.00005652,0.00009456,-
 0.00041512,-0.00035565,-0.00071998,-0.00043334,0.00086446,-0.00110969,
 -0.00144552,0.00023526,0.00058856,-0.00516393,-0.00666852,-0.01073153,
 -0.01996023,-0.08201530,-0.27816663,0.00169327,0.00121958,-0.00038984,
 0.00452618,-0.00250198,-0.00340029,0.00003333,-0.00001129,0.00003474,-
 0.00000140,0.00000466,-0.00001442,0.00007216,-0.00003989,0.00005222,-0
 .00011231,0.00011637,0.00010893,-0.00002488,-0.00003249,0.00001087,-0.
 00010304,0.00006378,0.00023226,-0.00160670,0.00182841,-0.00026797,-0.0
 0020754,0.00032287,0.00014121,0.00075986,-0.00002715,0.00066736,0.0000
 0310,0.00024912,0.00010529,0.00040326,0.00002904,-0.00055512,0.0224326
 8,0.09159304,0.30414469,-0.00005763,0.00007533,0.00014367,0.00003086,-
 0.00024848,-0.00028677,-0.00008269,-0.00056456,0.00087356,0.00011005,-
 0.00007609,0.00020338,-0.00308723,0.00038272,0.00412649,-0.01844020,0.
 00761983,-0.00973946,-0.25205862,0.05920362,-0.09407591,-0.00158652,-0
 .00135845,-0.00054836,-0.00019529,-0.00140283,-0.00171352,-0.00003304,
 0.00006529,-0.00003868,0.00011392,0.00001261,-0.00000617,0.00001299,0.
 00001371,-0.00002465,-0.00003768,-0.00000024,0.00008107,-0.00000338,0.
 00011022,0.00000128,0.00000964,-0.00001451,-0.00000395,-0.00002014,-0.
 00002168,-0.00000754,0.00002457,0.00004334,-0.00006714,0.00024239,-0.0
 0016508,0.00004903,-0.00121045,0.00075896,-0.00086852,0.00089909,-0.00
 057399,-0.00018789,-0.00122124,0.00043759,-0.00028758,0.27493250,0.000
 04784,-0.00075254,-0.00040396,0.00204133,0.00058526,0.00125971,0.00134
 901,-0.00587153,-0.00307621,0.00004120,-0.00003224,-0.00065268,-0.0025
 7670,-0.00090700,0.00229007,-0.01274086,0.00315422,-0.00504874,0.05800
 874,-0.05679612,0.02166471,0.02894784,-0.00593511,0.01075659,0.0004550
 7,-0.00136911,0.00155240,0.00031186,-0.00005907,0.00009736,0.00004466,
 0.00005781,-0.00001521,0.00001731,0.00001062,0.00003845,-0.00002515,0.
 00004471,-0.00005844,-0.00006798,0.00001193,0.00003694,-0.00000430,0.0
 0003451,0.00013140,-0.00013666,0.00009957,0.00018858,-0.00000707,0.000
 03688,0.00005823,0.00022555,0.00001124,0.00019392,-0.00080727,0.000690
 54,-0.00043188,0.00067921,0.00007289,-0.00062307,-0.00950391,0.0026751
 8,-0.00396621,-0.06488162,0.06289562,0.00003933,0.00003617,0.00005461,
 0.00014100,-0.00010931,0.00007586,0.00093092,0.00053010,-0.00104456,-0
 .00004453,-0.00008468,-0.00026276,0.00277047,-0.00089604,-0.00253804,0
 .01462228,-0.00688067,0.00666656,-0.09736871,0.02311733,-0.09266910,0.
 00054842,0.00091192,-0.00111199,0.00301599,-0.00048122,0.00033482,-0.0
 0002880,-0.00002663,0.00003718,-0.00006852,-0.00003098,-0.00000968,0.0
 0003714,-0.00004804,0.00003113,-0.00002885,0.00007116,0.00007928,-0.00
 001257,-0.00002936,-0.00002299,-0.00010245,0.00013316,0.00000756,-0.00
 014752,0.00012715,0.00064543,-0.00018097,0.00026718,0.00007677,0.00011
 380,0.00024446,0.00008061,0.00096526,-0.00039378,0.00083532,-0.0007773
 4,0.00029597,0.00091177,-0.02566586,0.00734164,-0.01059954,0.10098938,
 -0.02388432,0.09828535,0.00005970,0.00046311,-0.00006813,0.00092542,-0
 .00163704,0.00013780,-0.01183270,-0.01927022,0.00686298,0.00060774,-0.
 00022220,0.00112462,-0.00370649,-0.00041106,-0.00163667,-0.00105384,0.
 00110293,-0.00009509,0.00768940,0.00735550,-0.00288116,-0.15894904,-0.
 12667135,0.02913502,-0.00173450,0.00076142,-0.00256422,-0.00008958,0.0
 0006650,-0.00003211,0.00026052,-0.00000515,0.00004514,0.00001164,-0.00
 001140,-0.00000261,-0.00009694,0.00008957,0.00010980,-0.00000325,0.001
 06154,-0.00014895,0.00014720,0.00028869,-0.00016132,0.00003003,-0.0000
 3547,-0.00021707,0.00019421,0.00047201,-0.00065562,-0.00058415,-0.0008
 3830,0.00040412,-0.00043807,-0.00095763,0.00016581,0.00114709,0.000017
 90,-0.00042035,0.00008093,0.00016005,0.00005237,0.00034487,-0.00108272
 ,-0.00001150,0.16676155,-0.00009133,0.00014796,0.00001588,-0.00029239,
 0.00061907,-0.00002263,0.00461243,0.00342613,-0.00083036,-0.00015487,0
 .00002852,-0.00039873,0.00162429,0.00012447,0.00107102,-0.00054396,-0.
 00662313,0.00219657,-0.01593611,-0.00855013,0.00562369,-0.12690747,-0.
 19630730,0.03082840,-0.00006974,-0.00265992,-0.00103988,-0.00003213,0.
 00000343,-0.00001265,0.00009216,-0.00001962,0.00000749,-0.00001251,0.0
 0001231,-0.00001355,0.00000777,-0.00004166,-0.00007828,-0.00013550,0.0
 0026668,0.00000333,0.00004340,0.00005010,-0.00014222,-0.00008985,-0.00
 006245,0.00009860,-0.00018775,0.00020338,-0.00026653,0.00000060,0.0002
 0288,-0.00006713,-0.00004138,0.00016659,-0.00008811,-0.00203858,-0.000
 31785,0.00059939,-0.00014863,-0.00079995,-0.00020691,0.00052153,0.0011
 6181,0.00009224,0.13964850,0.20869627,0.00001273,0.00000784,0.00000288
 ,0.00060096,-0.00045648,-0.00011661,-0.00688343,-0.01027902,0.00206057
 ,0.00033495,-0.00042566,0.00100074,-0.00281011,0.00027383,-0.00026341,
 0.00078309,0.00285386,-0.00365716,-0.00699680,-0.00248043,-0.00003080,
 0.02928468,0.03088332,-0.05837775,0.01507049,0.01662161,0.00354036,-0.
 00001611,0.00002666,-0.00001924,0.00001760,-0.00001529,-0.00000421,-0.
 00000523,0.00000472,-0.00001211,-0.00001757,0.00016464,0.00006899,0.00
 017643,0.00013784,0.00016685,0.00017032,0.00016487,0.00003235,0.000020
 89,-0.00008754,-0.00008011,0.00003779,0.00024876,-0.00013273,-0.000168
 37,-0.00040038,0.00030755,-0.00026756,-0.00047691,0.00015849,0.0007427
 0,0.00141686,0.00169024,-0.00030424,-0.00048567,0.00003193,0.00017313,
 0.00061050,0.00030160,-0.02970518,-0.03784828,0.05272597,0.00020894,-0
 .00013716,-0.00019819,-0.00064784,0.00123903,-0.00043108,-0.00012323,0
 .00027610,-0.00034835,0.00014931,-0.00003301,0.00003918,0.00161554,-0.
 00047776,0.00041980,0.00748181,-0.00474299,-0.00607022,0.00020915,-0.0
 0024647,0.00100002,-0.00367966,0.00330402,-0.00075775,-0.16784917,0.08
 642567,0.09669080,0.00006728,-0.00002815,0.00002100,-0.00007566,-0.000
 02594,-0.00000750,-0.00012604,-0.00001967,-0.00008204,-0.00040872,0.00
 117249,-0.00182499,-0.00001059,0.00001450,-0.00016037,0.00001422,0.000
 00341,0.00009822,-0.00001259,-0.00002582,-0.00005861,-0.00002376,-0.00
 001560,0.00001264,0.00007628,0.00001582,0.00017444,0.00007710,-0.00005
 771,0.00029625,0.00006123,-0.00007551,-0.00001137,0.00108208,0.0005080
 4,-0.00038269,0.00054468,-0.00041203,-0.00017069,-0.00022835,0.0000612
 7,0.00056860,0.17777365,-0.00001184,0.00006531,-0.00007900,0.00051579,
 -0.00066641,0.00072651,0.00017780,0.00020057,-0.00117612,-0.00024937,-
 0.00006968,-0.00016347,0.00175026,0.00085234,0.00152349,0.01814146,-0.
 00629241,-0.00934369,-0.00091510,-0.00244072,-0.00287445,-0.01031126,0
 .00723366,0.00300140,0.08613400,-0.11476175,-0.07112190,0.00000154,0.0
 0001109,0.00000385,0.00000075,-0.00001198,-0.00000937,0.00000363,0.000
 01282,0.00003013,0.00126928,-0.00086870,0.00151057,-0.00007279,-0.0000
 1137,0.00014977,-0.00001301,0.00004256,-0.00006074,-0.00002080,0.00000
 759,0.00006243,0.00001264,0.00003718,-0.00001241,-0.00007043,-0.000139
 17,0.00032689,-0.00084889,0.00038778,0.00000855,0.00009843,-0.00072676
 ,-0.00052361,0.00132019,0.00143042,-0.00100949,-0.00018886,-0.00002492
 ,0.00028254,-0.00026889,0.00012598,0.00045080,-0.09947438,0.11806709,-
 0.00037167,0.00012935,0.00064887,0.00009354,-0.00011343,-0.00147307,0.
 00165028,-0.00049100,0.00113226,-0.00005942,0.00015171,0.00015130,0.00
 089808,-0.00038891,0.00063063,0.00565696,-0.00161346,-0.00644659,-0.00
 055300,-0.00229936,-0.00783223,0.01196930,-0.01430690,-0.00751484,0.09
 491729,-0.07023596,-0.12730380,-0.00007505,0.00002095,-0.00004442,0.00
 005176,0.00001402,-0.00004111,0.00028742,-0.00004277,0.00016120,-0.001
 30931,0.00147590,0.00059405,-0.00000114,-0.00010916,0.00031337,-0.0000
 7403,-0.00002570,-0.00006039,0.00003915,0.00002900,0.00030210,0.000014
 79,0.00000854,0.00002136,-0.00013694,0.00014286,0.00021331,-0.00067874
 ,-0.00005266,-0.00000614,-0.00020187,-0.00013394,0.00000230,0.00164230
 ,-0.00189264,-0.00074713,0.00035196,0.00005556,0.00034876,0.00021438,0
 .00016435,-0.00058674,-0.10351958,0.08116336,0.13804781,0.00006782,-0.
 00000302,-0.00010974,-0.00010147,0.00005108,0.00031945,-0.00032471,-0.
 00025429,0.00224360,0.00065874,0.00005508,0.00034262,-0.00015217,-0.00
 277646,-0.00152047,-0.01028647,0.00296084,-0.00609634,0.00034555,0.000
 00315,0.00248549,0.00661433,-0.00069371,0.00513959,-0.23414815,0.04312
 388,-0.11521705,-0.00000891,0.00002791,0.00000527,0.00003132,-0.000007
 15,0.00000740,-0.00007348,0.00001220,-0.00005253,0.00011908,-0.0002556
 7,-0.00036003,0.00000510,0.00009742,-0.00018234,0.00008825,-0.00008076
 ,0.00023002,0.00002036,-0.00006665,-0.00010072,0.00000736,0.00003702,-
 0.00005391,-0.00055803,0.00044007,-0.00069752,0.00034971,-0.00002747,0
 .00012164,0.00039382,-0.00011930,0.00042151,0.00042644,-0.00029969,-0.
 00006397,0.00076855,0.00007665,0.00043432,0.00045660,0.00007025,-0.000
 81978,-0.01617566,0.00301984,-0.01080647,0.25147604,-0.00016079,-0.000
 07304,0.00010721,0.00007618,0.00012317,-0.00004645,-0.00161999,-0.0016
 4995,0.00320713,0.00120174,0.00017489,0.00014630,-0.00109292,-0.004647
 77,-0.00426398,-0.02191983,0.00641921,-0.01612395,-0.00186532,-0.00121
 034,-0.00052611,0.01464596,-0.00304714,0.00941500,0.04445680,-0.050695
 27,0.02183067,0.00004827,0.00000702,-0.00001235,0.00007305,0.00001949,
 -0.00001906,0.00007473,0.00001687,0.00005951,-0.00018061,0.00023841,0.
 00026717,0.00000896,-0.00004070,0.00019880,0.00009153,-0.00005359,0.00
 050566,-0.00004931,0.00002869,0.00001785,0.00003431,0.00000352,-0.0000
 6352,-0.00158982,0.00096626,-0.00114623,0.00006325,-0.00016291,0.00023
 003,0.00028402,0.00102715,0.00134877,-0.00011617,-0.00004805,0.0002922
 7,0.00025165,0.00020485,-0.00058601,-0.00007629,0.00014643,-0.00091043
 ,0.01275183,-0.00246052,0.00835029,-0.04539123,0.05471331,-0.00006310,
 0.00006316,0.00018185,0.00044653,-0.00054127,-0.00036004,0.00188994,-0
 .00055575,-0.00474946,-0.00208544,0.00010072,-0.00030747,0.00056740,-0
 .00056469,-0.00180732,-0.00504038,0.00362197,-0.00474224,-0.00229898,0
 .00150399,-0.00038673,-0.02159445,0.00116967,-0.01213707,-0.11193487,0
 .02035604,-0.11652804,-0.00006434,0.00003293,-0.00000439,0.00002176,-0
 .00001570,-0.00001935,0.00009568,-0.00003754,0.00003714,-0.00014742,0.
 00022058,0.00036327,-0.00003163,0.00004504,0.00014392,0.00007699,0.000
 12745,-0.00074141,0.00003385,-0.00005508,0.00004445,0.00005444,0.00005
 389,-0.00000699,-0.00052597,0.00023534,-0.00005425,-0.00020149,-0.0000
 0703,0.00016563,0.00007588,-0.00023283,0.00047561,0.00048199,0.0000831
 1,0.00048819,0.00086319,-0.00077372,-0.00051394,0.00034795,0.00031432,
 0.00119235,0.01470248,-0.00286604,0.00948915,0.12432998,-0.02227858,0.
 12977714\\-0.00000058,-0.00000198,0.00000127,-0.00000379,0.00000200,-0
 .00000004,0.00000719,0.00000288,0.00000170,-0.00000324,-0.00000203,-0.
 00000532,-0.00000143,-0.00000503,0.00000146,0.00000513,0.00000413,-0.0
 0000149,0.00000417,-0.00000102,-0.00000174,-0.00000577,-0.00000406,0.0
 0000047,0.00000069,0.00000443,0.00000355,-0.00000059,-0.00000079,-0.00
 000031,-0.00000058,-0.00000138,0.00000131,-0.00000136,-0.00000166,0.00
 000060,0.00000027,-0.00000111,0.00000031,-0.00000078,-0.00000110,-0.00
 000131,-0.00000027,-0.00000235,0.00000145,-0.00000110,-0.00000056,0.00
 000011,-0.00000130,-0.00000115,-0.00000011,0.00000009,0.00000079,0.000
 00093,0.00000063,0.00000110,0.00000202,0.00000097,0.00000214,0.0000005
 9,-0.00000047,0.00000018,-0.00000005,0.00000111,0.00000173,-0.00000069
 ,-0.00000079,0.00000034,-0.00000195,-0.00000013,0.00000227,-0.00000098
 ,0.00000192,0.00000220,-0.00000178\\\@


 ... THE UNIVERSE IS NOT ONLY QUEERER THAN WE SUPPOSE,
 BUT QUEERER THAN WE CAN SUPPOSE ... 

                                   -- J. B. S. HALDANE
 Job cpu time:       0 days  2 hours 54 minutes 51.5 seconds.
 Elapsed time:       0 days  0 hours 43 minutes 43.4 seconds.
 File lengths (MBytes):  RWF=    199 Int=      0 D2E=      0 Chk=     10 Scr=      1
 Normal termination of Gaussian 16 at Sun May 28 21:27:54 2023.
### All Done ###
