### Starting Gaussian ###
 Entering Gaussian System, Link 0=g16
 Initial command:
 /cluster/software/gaussian/gaussian-16-A.03/avx2/g16/l1.exe "/local/scratch/yxie/Gau-8970.inp" -scrdir="/local/scratch/yxie/"
 Entering Link 1 = /cluster/software/gaussian/gaussian-16-A.03/avx2/g16/l1.exe PID=      8975.
  
 Copyright (c) 1988,1990,1992,1993,1995,1998,2003,2009,2016,
            Gaussian, Inc.  All Rights Reserved.
  
 This is part of the Gaussian(R) 16 program.  It is based on
 the Gaussian(R) 09 system (copyright 2009, Gaussian, Inc.),
 the Gaussian(R) 03 system (copyright 2003, Gaussian, Inc.),
 the Gaussian(R) 98 system (copyright 1998, Gaussian, Inc.),
 the Gaussian(R) 94 system (copyright 1995, Gaussian, Inc.),
 the Gaussian 92(TM) system (copyright 1992, Gaussian, Inc.),
 the Gaussian 90(TM) system (copyright 1990, Gaussian, Inc.),
 the Gaussian 88(TM) system (copyright 1988, Gaussian, Inc.),
 the Gaussian 86(TM) system (copyright 1986, Carnegie Mellon
 University), and the Gaussian 82(TM) system (copyright 1983,
 Carnegie Mellon University). Gaussian is a federally registered
 trademark of Gaussian, Inc.
  
 This software contains proprietary and confidential information,
 including trade secrets, belonging to Gaussian, Inc.
  
 This software is provided under written license and may be
 used, copied, transmitted, or stored only in accord with that
 written license.
  
 The following legend is applicable only to US Government
 contracts under FAR:
  
                    RESTRICTED RIGHTS LEGEND
  
 Use, reproduction and disclosure by the US Government is
 subject to restrictions as set forth in subparagraphs (a)
 and (c) of the Commercial Computer Software - Restricted
 Rights clause in FAR 52.227-19.
  
 Gaussian, Inc.
 340 Quinnipiac St., Bldg. 40, Wallingford CT 06492
  
  
 ---------------------------------------------------------------
 Warning -- This program may not be used in any manner that
 competes with the business of Gaussian, Inc. or will provide
 assistance to any competitor of Gaussian, Inc.  The licensee
 of this program is prohibited from giving any competitor of
 Gaussian, Inc. access to this program.  By using this program,
 the user acknowledges that Gaussian, Inc. is engaged in the
 business of creating and licensing software in the field of
 computational chemistry and represents and warrants to the
 licensee that it is not a competitor of Gaussian, Inc. and that
 it will not use this program in any manner prohibited above.
 ---------------------------------------------------------------
  

 Cite this work as:
 Gaussian 16, Revision A.03,
 M. J. Frisch, G. W. Trucks, H. B. Schlegel, G. E. Scuseria, 
 M. A. Robb, J. R. Cheeseman, G. Scalmani, V. Barone, 
 G. A. Petersson, H. Nakatsuji, X. Li, M. Caricato, A. V. Marenich, 
 J. Bloino, B. G. Janesko, R. Gomperts, B. Mennucci, H. P. Hratchian, 
 J. V. Ortiz, A. F. Izmaylov, J. L. Sonnenberg, D. Williams-Young, 
 F. Ding, F. Lipparini, F. Egidi, J. Goings, B. Peng, A. Petrone, 
 T. Henderson, D. Ranasinghe, V. G. Zakrzewski, J. Gao, N. Rega, 
 G. Zheng, W. Liang, M. Hada, M. Ehara, K. Toyota, R. Fukuda, 
 J. Hasegawa, M. Ishida, T. Nakajima, Y. Honda, O. Kitao, H. Nakai, 
 T. Vreven, K. Throssell, J. A. Montgomery, Jr., J. E. Peralta, 
 F. Ogliaro, M. J. Bearpark, J. J. Heyd, E. N. Brothers, K. N. Kudin, 
 V. N. Staroverov, T. A. Keith, R. Kobayashi, J. Normand, 
 K. Raghavachari, A. P. Rendell, J. C. Burant, S. S. Iyengar, 
 J. Tomasi, M. Cossi, J. M. Millam, M. Klene, C. Adamo, R. Cammi, 
 J. W. Ochterski, R. L. Martin, K. Morokuma, O. Farkas, 
 J. B. Foresman, and D. J. Fox, Gaussian, Inc., Wallingford CT, 2016.
 
 ******************************************
 Gaussian 16:  ES64L-G16RevA.03 25-Dec-2016
                26-May-2023 
 ******************************************
 %chk=CCC1CCqNrCCqCrCCCO1.chk
 %NProcShared=20
 Will use up to   20 processors via shared memory.
 ----------------------------------------------------------------
 # opt freq b3lyp/6-31+g(2df,p) Geom=AllCheckpoint TD(NStates=10)
 ----------------------------------------------------------------
 1/18=20,19=15,26=3,29=7,38=1/1,3;
 2/9=110,12=2,40=1/2;
 3/5=1,6=6,7=114,11=9,14=-4,25=1,30=1,71=1,74=-5/1,2,3,8;
 4//1;
 5/5=2,38=5/2;
 8/6=1,10=2,108=10/1;
 9/15=2,41=10,42=1,70=2/14;
 10/5=4/2;
 6/7=2,8=2,9=2,10=2/1;
 7/12=6,13=5/1,2,3,16;
 1/18=20,19=15,26=3/3(2);
 2/9=110/2;
 99//99;
 2/9=110/2;
 3/5=1,6=6,7=114,11=9,14=-2,25=1,30=1,71=1,74=-5/1,2,3,8;
 4/5=5,16=3,69=1/1;
 5/5=2,38=5/2;
 8/6=1,10=2,108=10/1;
 9/15=2,41=10,42=1,49=4,70=2/14;
 10/5=4/2;
 7/12=6,13=5/1,2,3,16;
 1/18=20,19=15,26=3/3(-8);
 2/9=110/2;
 6/7=2,8=2,9=2,10=2/1;
 99//99;
 Structure from the checkpoint file:  "CCC1CCqNrCCqCrCCCO1.chk"
 -------------------
 Title Card Required
 -------------------
 Charge =  0 Multiplicity = 1
 Redundant internal coordinates found in file.  (old form).
 C,0,1.2425629479,-1.5653084105,-1.0101870938
 C,0,2.1838974956,-0.4955725771,-0.4394429298
 C,0,2.6279267651,-0.7543584679,1.018980574
 C,0,4.0859837482,-0.2943713926,1.3399811722
 C,0,4.2638230925,0.9817012359,2.1930729685
 N,0,3.9693442226,0.652461295,3.5922159725
 C,0,3.5843780089,2.2252718657,1.5080994299
 C,0,2.6445130198,3.1879353741,2.2730249108
 C,0,3.3375140257,3.9751187615,3.3968202049
 C,0,1.3053303927,2.5906831051,2.7612998997
 C,0,0.4818808236,1.8606864002,1.6753109534
 C,0,0.488545121,0.3286405861,1.7988099001
 O,0,1.7668836983,-0.2307779632,2.044446333
 H,0,0.9779443463,-1.3406501528,-2.0484412503
 H,0,0.3114567694,-1.6542458261,-0.4426281769
 H,0,1.7248872234,-2.5488033847,-0.9949921649
 H,0,1.7358475258,0.4978818991,-0.5407671881
 H,0,3.0861603482,-0.4764107785,-1.0594791958
 H,0,2.6128130953,-1.8475645401,1.144125654
 H,0,4.6257728155,-0.1648502786,0.3952443079
 H,0,4.5927481023,-1.0973531092,1.8831940123
 H,0,5.3429889745,1.1802673425,2.1781828314
 H,0,2.9925881105,0.404846997,3.6875085019
 H,0,4.1681765192,1.4346408729,4.2031888574
 H,0,3.0347014777,1.8792307177,0.6285031349
 H,0,4.3897329369,2.8491777196,1.0982609367
 H,0,2.3679168811,3.93509908,1.5125470179
 H,0,3.5550902801,3.3534663915,4.2702714225
 H,0,2.7005811921,4.7971571739,3.7420377586
 H,0,4.2822842111,4.4090329248,3.0523246251
 H,0,0.7124921831,3.4227177912,3.1603077287
 H,0,1.4786102534,1.9189935382,3.6078028668
 H,0,0.8258055059,2.1658142044,0.6802433264
 H,0,-0.5699913975,2.1686649434,1.7298506867
 H,0,0.0008161154,-0.1195199962,0.9268998516
 H,0,-0.1118468315,0.048746658,2.6744321598
 Recover connectivity data from disk.

 GradGradGradGradGradGradGradGradGradGradGradGradGradGradGradGradGradGrad
 Berny optimization.
 Initialization pass.
                           ----------------------------
                           !    Initial Parameters    !
                           ! (Angstroms and Degrees)  !
 --------------------------                            --------------------------
 ! Name  Definition              Value          Derivative Info.                !
 --------------------------------------------------------------------------------
 ! R1    R(1,2)                  1.535          estimate D2E/DX2                !
 ! R2    R(1,14)                 1.0947         estimate D2E/DX2                !
 ! R3    R(1,15)                 1.0941         estimate D2E/DX2                !
 ! R4    R(1,16)                 1.0955         estimate D2E/DX2                !
 ! R5    R(2,3)                  1.5463         estimate D2E/DX2                !
 ! R6    R(2,17)                 1.0945         estimate D2E/DX2                !
 ! R7    R(2,18)                 1.0949         estimate D2E/DX2                !
 ! R8    R(3,4)                  1.5622         estimate D2E/DX2                !
 ! R9    R(3,13)                 1.4377         estimate D2E/DX2                !
 ! R10   R(3,19)                 1.1004         estimate D2E/DX2                !
 ! R11   R(4,5)                  1.5452         estimate D2E/DX2                !
 ! R12   R(4,20)                 1.0958         estimate D2E/DX2                !
 ! R13   R(4,21)                 1.0939         estimate D2E/DX2                !
 ! R14   R(5,6)                  1.4672         estimate D2E/DX2                !
 ! R15   R(5,7)                  1.5739         estimate D2E/DX2                !
 ! R16   R(5,22)                 1.0974         estimate D2E/DX2                !
 ! R17   R(6,23)                 1.0121         estimate D2E/DX2                !
 ! R18   R(6,24)                 1.0122         estimate D2E/DX2                !
 ! R19   R(7,8)                  1.5476         estimate D2E/DX2                !
 ! R20   R(7,25)                 1.0934         estimate D2E/DX2                !
 ! R21   R(7,26)                 1.0981         estimate D2E/DX2                !
 ! R22   R(8,9)                  1.5371         estimate D2E/DX2                !
 ! R23   R(8,10)                 1.5455         estimate D2E/DX2                !
 ! R24   R(8,27)                 1.1014         estimate D2E/DX2                !
 ! R25   R(9,28)                 1.0939         estimate D2E/DX2                !
 ! R26   R(9,29)                 1.0957         estimate D2E/DX2                !
 ! R27   R(9,30)                 1.0952         estimate D2E/DX2                !
 ! R28   R(10,11)                1.5461         estimate D2E/DX2                !
 ! R29   R(10,31)                1.0968         estimate D2E/DX2                !
 ! R30   R(10,32)                1.0944         estimate D2E/DX2                !
 ! R31   R(11,12)                1.537          estimate D2E/DX2                !
 ! R32   R(11,33)                1.0962         estimate D2E/DX2                !
 ! R33   R(11,34)                1.0974         estimate D2E/DX2                !
 ! R34   R(12,13)                1.4168         estimate D2E/DX2                !
 ! R35   R(12,35)                1.095          estimate D2E/DX2                !
 ! R36   R(12,36)                1.098          estimate D2E/DX2                !
 ! A1    A(2,1,14)             110.9685         estimate D2E/DX2                !
 ! A2    A(2,1,15)             112.6854         estimate D2E/DX2                !
 ! A3    A(2,1,16)             110.5173         estimate D2E/DX2                !
 ! A4    A(14,1,15)            107.6354         estimate D2E/DX2                !
 ! A5    A(14,1,16)            107.6866         estimate D2E/DX2                !
 ! A6    A(15,1,16)            107.1288         estimate D2E/DX2                !
 ! A7    A(1,2,3)              114.2143         estimate D2E/DX2                !
 ! A8    A(1,2,17)             110.3095         estimate D2E/DX2                !
 ! A9    A(1,2,18)             107.8773         estimate D2E/DX2                !
 ! A10   A(3,2,17)             110.9015         estimate D2E/DX2                !
 ! A11   A(3,2,18)             107.4811         estimate D2E/DX2                !
 ! A12   A(17,2,18)            105.6058         estimate D2E/DX2                !
 ! A13   A(2,3,4)              114.3633         estimate D2E/DX2                !
 ! A14   A(2,3,13)             116.0901         estimate D2E/DX2                !
 ! A15   A(2,3,19)             105.6385         estimate D2E/DX2                !
 ! A16   A(4,3,13)             107.7683         estimate D2E/DX2                !
 ! A17   A(4,3,19)             106.377          estimate D2E/DX2                !
 ! A18   A(13,3,19)            105.8092         estimate D2E/DX2                !
 ! A19   A(3,4,5)              117.646          estimate D2E/DX2                !
 ! A20   A(3,4,20)             108.5068         estimate D2E/DX2                !
 ! A21   A(3,4,21)             108.558          estimate D2E/DX2                !
 ! A22   A(5,4,20)             108.7647         estimate D2E/DX2                !
 ! A23   A(5,4,21)             106.1835         estimate D2E/DX2                !
 ! A24   A(20,4,21)            106.6601         estimate D2E/DX2                !
 ! A25   A(4,5,6)              108.5454         estimate D2E/DX2                !
 ! A26   A(4,5,7)              111.2555         estimate D2E/DX2                !
 ! A27   A(4,5,22)             104.7803         estimate D2E/DX2                !
 ! A28   A(6,5,7)              120.3751         estimate D2E/DX2                !
 ! A29   A(6,5,22)             104.5318         estimate D2E/DX2                !
 ! A30   A(7,5,22)             106.0006         estimate D2E/DX2                !
 ! A31   A(5,6,23)             109.7773         estimate D2E/DX2                !
 ! A32   A(5,6,24)             111.2698         estimate D2E/DX2                !
 ! A33   A(23,6,24)            108.7702         estimate D2E/DX2                !
 ! A34   A(5,7,8)              122.5828         estimate D2E/DX2                !
 ! A35   A(5,7,25)             108.4849         estimate D2E/DX2                !
 ! A36   A(5,7,26)             107.1417         estimate D2E/DX2                !
 ! A37   A(8,7,25)             106.8077         estimate D2E/DX2                !
 ! A38   A(8,7,26)             106.0482         estimate D2E/DX2                !
 ! A39   A(25,7,26)            104.3749         estimate D2E/DX2                !
 ! A40   A(7,8,9)              113.9599         estimate D2E/DX2                !
 ! A41   A(7,8,10)             116.2314         estimate D2E/DX2                !
 ! A42   A(7,8,27)             103.4861         estimate D2E/DX2                !
 ! A43   A(9,8,10)             110.9516         estimate D2E/DX2                !
 ! A44   A(9,8,27)             105.7006         estimate D2E/DX2                !
 ! A45   A(10,8,27)            105.2298         estimate D2E/DX2                !
 ! A46   A(8,9,28)             112.4818         estimate D2E/DX2                !
 ! A47   A(8,9,29)             110.6382         estimate D2E/DX2                !
 ! A48   A(8,9,30)             111.2125         estimate D2E/DX2                !
 ! A49   A(28,9,29)            106.8811         estimate D2E/DX2                !
 ! A50   A(28,9,30)            107.7409         estimate D2E/DX2                !
 ! A51   A(29,9,30)            107.6561         estimate D2E/DX2                !
 ! A52   A(8,10,11)            114.9646         estimate D2E/DX2                !
 ! A53   A(8,10,31)            106.8664         estimate D2E/DX2                !
 ! A54   A(8,10,32)            110.1422         estimate D2E/DX2                !
 ! A55   A(11,10,31)           109.0164         estimate D2E/DX2                !
 ! A56   A(11,10,32)           109.7455         estimate D2E/DX2                !
 ! A57   A(31,10,32)           105.6514         estimate D2E/DX2                !
 ! A58   A(10,11,12)           114.3232         estimate D2E/DX2                !
 ! A59   A(10,11,33)           109.8222         estimate D2E/DX2                !
 ! A60   A(10,11,34)           110.0656         estimate D2E/DX2                !
 ! A61   A(12,11,33)           110.4286         estimate D2E/DX2                !
 ! A62   A(12,11,34)           106.2542         estimate D2E/DX2                !
 ! A63   A(33,11,34)           105.5297         estimate D2E/DX2                !
 ! A64   A(11,12,13)           114.2926         estimate D2E/DX2                !
 ! A65   A(11,12,35)           110.0019         estimate D2E/DX2                !
 ! A66   A(11,12,36)           108.4092         estimate D2E/DX2                !
 ! A67   A(13,12,35)           112.2306         estimate D2E/DX2                !
 ! A68   A(13,12,36)           104.7413         estimate D2E/DX2                !
 ! A69   A(35,12,36)           106.6862         estimate D2E/DX2                !
 ! A70   A(3,13,12)            124.0885         estimate D2E/DX2                !
 ! D1    D(14,1,2,3)          -178.8951         estimate D2E/DX2                !
 ! D2    D(14,1,2,17)           55.4043         estimate D2E/DX2                !
 ! D3    D(14,1,2,18)          -59.4796         estimate D2E/DX2                !
 ! D4    D(15,1,2,3)            60.3181         estimate D2E/DX2                !
 ! D5    D(15,1,2,17)          -65.3825         estimate D2E/DX2                !
 ! D6    D(15,1,2,18)          179.7336         estimate D2E/DX2                !
 ! D7    D(16,1,2,3)           -59.5013         estimate D2E/DX2                !
 ! D8    D(16,1,2,17)          174.798          estimate D2E/DX2                !
 ! D9    D(16,1,2,18)           59.9142         estimate D2E/DX2                !
 ! D10   D(1,2,3,4)            145.5093         estimate D2E/DX2                !
 ! D11   D(1,2,3,13)           -87.9952         estimate D2E/DX2                !
 ! D12   D(1,2,3,19)            28.8821         estimate D2E/DX2                !
 ! D13   D(17,2,3,4)           -89.1016         estimate D2E/DX2                !
 ! D14   D(17,2,3,13)           37.394          estimate D2E/DX2                !
 ! D15   D(17,2,3,19)          154.2712         estimate D2E/DX2                !
 ! D16   D(18,2,3,4)            25.8708         estimate D2E/DX2                !
 ! D17   D(18,2,3,13)          152.3664         estimate D2E/DX2                !
 ! D18   D(18,2,3,19)          -90.7564         estimate D2E/DX2                !
 ! D19   D(2,3,4,5)            106.1257         estimate D2E/DX2                !
 ! D20   D(2,3,4,20)           -17.8112         estimate D2E/DX2                !
 ! D21   D(2,3,4,21)          -133.3604         estimate D2E/DX2                !
 ! D22   D(13,3,4,5)           -24.5727         estimate D2E/DX2                !
 ! D23   D(13,3,4,20)         -148.5096         estimate D2E/DX2                !
 ! D24   D(13,3,4,21)           95.9413         estimate D2E/DX2                !
 ! D25   D(19,3,4,5)          -137.6737         estimate D2E/DX2                !
 ! D26   D(19,3,4,20)           98.3894         estimate D2E/DX2                !
 ! D27   D(19,3,4,21)          -17.1598         estimate D2E/DX2                !
 ! D28   D(2,3,13,12)            8.7346         estimate D2E/DX2                !
 ! D29   D(4,3,13,12)          138.4708         estimate D2E/DX2                !
 ! D30   D(19,3,13,12)        -108.0476         estimate D2E/DX2                !
 ! D31   D(3,4,5,6)             75.8693         estimate D2E/DX2                !
 ! D32   D(3,4,5,7)            -58.7814         estimate D2E/DX2                !
 ! D33   D(3,4,5,22)          -172.8934         estimate D2E/DX2                !
 ! D34   D(20,4,5,6)          -160.3234         estimate D2E/DX2                !
 ! D35   D(20,4,5,7)            65.0259         estimate D2E/DX2                !
 ! D36   D(20,4,5,22)          -49.0861         estimate D2E/DX2                !
 ! D37   D(21,4,5,6)           -45.8747         estimate D2E/DX2                !
 ! D38   D(21,4,5,7)           179.4745         estimate D2E/DX2                !
 ! D39   D(21,4,5,22)           65.3625         estimate D2E/DX2                !
 ! D40   D(4,5,6,23)           -65.5871         estimate D2E/DX2                !
 ! D41   D(4,5,6,24)           173.9545         estimate D2E/DX2                !
 ! D42   D(7,5,6,23)            64.1936         estimate D2E/DX2                !
 ! D43   D(7,5,6,24)           -56.2647         estimate D2E/DX2                !
 ! D44   D(22,5,6,23)         -176.9909         estimate D2E/DX2                !
 ! D45   D(22,5,6,24)           62.5507         estimate D2E/DX2                !
 ! D46   D(4,5,7,8)            131.6042         estimate D2E/DX2                !
 ! D47   D(4,5,7,25)             6.4699         estimate D2E/DX2                !
 ! D48   D(4,5,7,26)          -105.6812         estimate D2E/DX2                !
 ! D49   D(6,5,7,8)              3.0274         estimate D2E/DX2                !
 ! D50   D(6,5,7,25)          -122.1068         estimate D2E/DX2                !
 ! D51   D(6,5,7,26)           125.7421         estimate D2E/DX2                !
 ! D52   D(22,5,7,8)          -115.048          estimate D2E/DX2                !
 ! D53   D(22,5,7,25)          119.8178         estimate D2E/DX2                !
 ! D54   D(22,5,7,26)            7.6667         estimate D2E/DX2                !
 ! D55   D(5,7,8,9)             64.8814         estimate D2E/DX2                !
 ! D56   D(5,7,8,10)           -66.0527         estimate D2E/DX2                !
 ! D57   D(5,7,8,27)           179.1553         estimate D2E/DX2                !
 ! D58   D(25,7,8,9)          -169.2366         estimate D2E/DX2                !
 ! D59   D(25,7,8,10)           59.8293         estimate D2E/DX2                !
 ! D60   D(25,7,8,27)          -54.9627         estimate D2E/DX2                !
 ! D61   D(26,7,8,9)           -58.3357         estimate D2E/DX2                !
 ! D62   D(26,7,8,10)          170.7301         estimate D2E/DX2                !
 ! D63   D(26,7,8,27)           55.9382         estimate D2E/DX2                !
 ! D64   D(7,8,9,28)           -73.8467         estimate D2E/DX2                !
 ! D65   D(7,8,9,29)           166.7016         estimate D2E/DX2                !
 ! D66   D(7,8,9,30)            47.1083         estimate D2E/DX2                !
 ! D67   D(10,8,9,28)           59.6312         estimate D2E/DX2                !
 ! D68   D(10,8,9,29)          -59.8205         estimate D2E/DX2                !
 ! D69   D(10,8,9,30)         -179.4138         estimate D2E/DX2                !
 ! D70   D(27,8,9,28)          173.1983         estimate D2E/DX2                !
 ! D71   D(27,8,9,29)           53.7466         estimate D2E/DX2                !
 ! D72   D(27,8,9,30)          -65.8467         estimate D2E/DX2                !
 ! D73   D(7,8,10,11)          -51.7036         estimate D2E/DX2                !
 ! D74   D(7,8,10,31)         -172.8162         estimate D2E/DX2                !
 ! D75   D(7,8,10,32)           72.8861         estimate D2E/DX2                !
 ! D76   D(9,8,10,11)          175.9633         estimate D2E/DX2                !
 ! D77   D(9,8,10,31)           54.8506         estimate D2E/DX2                !
 ! D78   D(9,8,10,32)          -59.447          estimate D2E/DX2                !
 ! D79   D(27,8,10,11)          62.0997         estimate D2E/DX2                !
 ! D80   D(27,8,10,31)         -59.013          estimate D2E/DX2                !
 ! D81   D(27,8,10,32)        -173.3107         estimate D2E/DX2                !
 ! D82   D(8,10,11,12)         106.3814         estimate D2E/DX2                !
 ! D83   D(8,10,11,33)         -18.3753         estimate D2E/DX2                !
 ! D84   D(8,10,11,34)        -134.1387         estimate D2E/DX2                !
 ! D85   D(31,10,11,12)       -133.6867         estimate D2E/DX2                !
 ! D86   D(31,10,11,33)        101.5565         estimate D2E/DX2                !
 ! D87   D(31,10,11,34)        -14.2069         estimate D2E/DX2                !
 ! D88   D(32,10,11,12)        -18.4162         estimate D2E/DX2                !
 ! D89   D(32,10,11,33)       -143.1729         estimate D2E/DX2                !
 ! D90   D(32,10,11,34)        101.0637         estimate D2E/DX2                !
 ! D91   D(10,11,12,13)        -45.1896         estimate D2E/DX2                !
 ! D92   D(10,11,12,35)       -172.4928         estimate D2E/DX2                !
 ! D93   D(10,11,12,36)         71.1992         estimate D2E/DX2                !
 ! D94   D(33,11,12,13)         79.2449         estimate D2E/DX2                !
 ! D95   D(33,11,12,35)        -48.0582         estimate D2E/DX2                !
 ! D96   D(33,11,12,36)       -164.3662         estimate D2E/DX2                !
 ! D97   D(34,11,12,13)       -166.789          estimate D2E/DX2                !
 ! D98   D(34,11,12,35)         65.9078         estimate D2E/DX2                !
 ! D99   D(34,11,12,36)        -50.4002         estimate D2E/DX2                !
 ! D100  D(11,12,13,3)         -95.9081         estimate D2E/DX2                !
 ! D101  D(35,12,13,3)          30.2414         estimate D2E/DX2                !
 ! D102  D(36,12,13,3)         145.6001         estimate D2E/DX2                !
 --------------------------------------------------------------------------------
 Trust Radius=3.00D-01 FncErr=1.00D-07 GrdErr=1.00D-06 EigMax=2.50D+02 EigMin=1.00D-04
 Number of steps in this run=    216 maximum allowed number of steps=    216.
 GradGradGradGradGradGradGradGradGradGradGradGradGradGradGradGradGradGrad

                          Input orientation:                          
 ---------------------------------------------------------------------
 Center     Atomic      Atomic             Coordinates (Angstroms)
 Number     Number       Type             X           Y           Z
 ---------------------------------------------------------------------
      1          6           0        1.242563   -1.565308   -1.010187
      2          6           0        2.183897   -0.495573   -0.439443
      3          6           0        2.627927   -0.754358    1.018981
      4          6           0        4.085984   -0.294371    1.339981
      5          6           0        4.263823    0.981701    2.193073
      6          7           0        3.969344    0.652461    3.592216
      7          6           0        3.584378    2.225272    1.508099
      8          6           0        2.644513    3.187935    2.273025
      9          6           0        3.337514    3.975119    3.396820
     10          6           0        1.305330    2.590683    2.761300
     11          6           0        0.481881    1.860686    1.675311
     12          6           0        0.488545    0.328641    1.798810
     13          8           0        1.766884   -0.230778    2.044446
     14          1           0        0.977944   -1.340650   -2.048441
     15          1           0        0.311457   -1.654246   -0.442628
     16          1           0        1.724887   -2.548803   -0.994992
     17          1           0        1.735848    0.497882   -0.540767
     18          1           0        3.086160   -0.476411   -1.059479
     19          1           0        2.612813   -1.847565    1.144126
     20          1           0        4.625773   -0.164850    0.395244
     21          1           0        4.592748   -1.097353    1.883194
     22          1           0        5.342989    1.180267    2.178183
     23          1           0        2.992588    0.404847    3.687509
     24          1           0        4.168177    1.434641    4.203189
     25          1           0        3.034701    1.879231    0.628503
     26          1           0        4.389733    2.849178    1.098261
     27          1           0        2.367917    3.935099    1.512547
     28          1           0        3.555090    3.353466    4.270271
     29          1           0        2.700581    4.797157    3.742038
     30          1           0        4.282284    4.409033    3.052325
     31          1           0        0.712492    3.422718    3.160308
     32          1           0        1.478610    1.918994    3.607803
     33          1           0        0.825806    2.165814    0.680243
     34          1           0       -0.569991    2.168665    1.729851
     35          1           0        0.000816   -0.119520    0.926900
     36          1           0       -0.111847    0.048747    2.674432
 ---------------------------------------------------------------------
                    Distance matrix (angstroms):
                    1          2          3          4          5
     1  C    0.000000
     2  C    1.534990   0.000000
     3  C    2.587353   1.546328   0.000000
     4  C    3.901745   2.612425   1.562229   0.000000
     5  C    5.086860   3.665865   2.658675   1.545236   0.000000
     6  N    5.791023   4.556323   3.224916   2.445947   1.467214
     7  C    5.118043   3.627294   3.167370   2.574582   1.573945
     8  C    5.944600   4.597595   4.136978   3.882637   2.737887
     9  C    7.382877   6.002902   5.340935   4.797847   3.356725
    10  C    5.612515   4.532285   3.996779   4.251555   3.415316
    11  C    4.419047   3.594579   3.445975   4.212633   3.917114
    12  C    3.470742   2.926316   2.521502   3.679705   3.851578
    13  O    3.374414   2.532533   1.437745   2.424570   2.779731
    14  H    1.094745   2.181136   3.532033   4.715508   5.846431
    15  H    1.094071   2.201946   2.883077   4.390217   5.432894
    16  H    1.095504   2.176024   2.844574   4.013644   5.392070
    17  H    2.172657   1.094517   2.190143   3.112558   3.754813
    18  H    2.141723   1.094939   2.146445   2.605800   3.753941
    19  H    2.568719   2.125921   1.100450   2.149651   3.439603
    20  H    3.922070   2.601699   2.174386   1.095753   2.162817
    21  H    4.451334   3.399903   2.173714   1.093924   2.127600
    22  H    5.875150   4.431734   3.529602   2.111209   1.097383
    23  H    5.386320   4.300752   2.932197   2.682407   2.045027
    24  H    6.688662   5.405286   4.159720   3.345773   2.062733
    25  H    4.214489   2.739355   2.693275   2.517130   2.182700
    26  H    5.817037   4.291573   4.011947   3.167427   2.168395
    27  H    6.155087   4.845098   4.722523   4.568364   3.574931
    28  H    7.577953   6.235117   5.320221   4.709052   3.231459
    29  H    8.074059   6.764963   6.183821   5.797662   4.404625
    30  H    7.838154   6.375800   5.790682   5.009258   3.533448
    31  H    6.523374   5.520529   5.069728   5.339549   4.416566
    32  H    5.789811   4.765266   3.894835   4.103705   3.261501
    33  H    4.117344   3.190782   3.448158   4.137213   3.938368
    34  H    4.973502   4.403169   4.390454   5.281728   4.998922
    35  H    2.717452   2.602720   2.704295   4.109721   4.581387
    36  H    4.244528   3.906782   3.300281   4.418175   4.499844
                    6          7          8          9         10
     6  N    0.000000
     7  C    2.639218   0.000000
     8  C    3.150249   1.547636   0.000000
     9  C    3.387837   2.586537   1.537148   0.000000
    10  C    3.397660   2.626422   1.545488   2.539748   0.000000
    11  C    4.158934   3.128318   2.606881   3.948298   1.546071
    12  C    3.929011   3.642239   3.612291   4.895617   2.590437
    13  O    2.833114   3.102118   3.536959   4.688855   2.947466
    14  H    6.688646   5.670827   6.477701   7.967173   6.220625
    15  H    5.914474   5.437647   6.022013   7.455745   5.410394
    16  H    6.027285   5.702190   6.666020   8.028085   6.379661
    17  H    4.700420   3.255579   3.997435   5.491913   3.933041
    18  H    4.867508   3.760289   4.972733   6.303800   5.213135
    19  H    3.752793   4.202905   5.160589   6.285178   4.901307
    20  H    3.364450   2.834719   4.323497   5.273368   4.921028
    21  H    2.524131   3.492469   4.723482   5.440280   5.017947
    22  H    2.040826   2.152617   3.364743   3.649411   4.316478
    23  H    1.012149   2.900687   3.141258   3.598654   2.912487
    24  H    1.012239   2.868697   3.020120   2.791820   3.407545
    25  H    3.340975   1.093425   2.137617   3.485401   2.836496
    26  H    3.349941   1.098100   2.130873   2.767360   3.513696
    27  H    4.203011   2.098406   1.101402   2.119482   2.120360
    28  H    2.815456   2.983836   2.201260   1.093942   2.814294
    29  H    4.337132   3.519399   2.179619   1.095722   2.788745
    30  H    3.808050   2.764148   2.186477   1.095239   3.500478
    31  H    4.297435   3.522981   2.138948   2.692921   1.096789
    32  H    2.794298   2.989451   2.179719   2.779872   1.094422
    33  H    4.544409   2.880730   2.624763   4.118501   2.177442
    34  H    5.135450   4.160669   3.415697   4.616347   2.181472
    35  H    4.842425   4.321777   4.443022   5.830963   3.523064
    36  H    4.226455   4.445185   4.196803   5.276015   2.911594
                   11         12         13         14         15
    11  C    0.000000
    12  C    1.537030   0.000000
    13  O    2.482281   1.416840   0.000000
    14  H    4.935683   4.222249   4.313464   0.000000
    15  H    4.107245   2.997873   3.214042   1.766687   0.000000
    16  H    5.302752   4.196851   3.822720   1.768421   1.761569
    17  H    2.888022   2.656695   2.686119   2.495536   2.582668
    18  H    4.441100   3.945317   3.381594   2.483854   3.076813
    19  H    4.309774   3.110787   2.034741   3.622463   2.802035
    20  H    4.786775   4.396610   3.301130   4.545411   4.640437
    21  H    5.068771   4.345695   2.960146   5.346378   4.903981
    22  H    4.934189   4.943159   3.846747   6.578221   6.341879
    23  H    3.531580   3.137391   2.146165   6.325083   5.337261
    24  H    4.490040   4.532545   3.633180   7.547364   6.782265
    25  H    2.759174   3.202633   2.839788   4.665181   4.587902
    26  H    4.072028   4.697142   4.154604   6.252735   6.267974
    27  H    2.808347   4.076828   4.242486   6.515074   6.268374
    28  H    4.290318   4.966024   4.582443   8.282665   7.603273
    29  H    4.221001   5.351344   5.388297   8.612189   8.052325
    30  H    4.778421   5.710811   5.373165   8.366321   8.046460
    31  H    2.167565   3.387793   3.962943   7.063371   6.238392
    32  H    2.175177   2.604209   2.673706   6.547445   5.525964
    33  H    1.096151   2.177187   2.913817   4.445690   4.014754
    34  H    1.097388   2.123898   3.364117   5.383947   4.484558
    35  H    2.170889   1.094968   2.092913   3.361338   2.080262
    36  H    2.152645   1.097964   2.001161   5.042182   3.577071
                   16         17         18         19         20
    16  H    0.000000
    17  H    3.080378   0.000000
    18  H    2.480329   1.744034   0.000000
    19  H    2.419912   3.018121   2.638180   0.000000
    20  H    4.003889   3.109180   2.140957   2.728435   0.000000
    21  H    4.314544   4.072130   3.363733   2.242584   1.756316
    22  H    6.088158   4.568349   4.280224   4.206055   2.345764
    23  H    5.679518   4.412071   4.829002   3.418535   3.718985
    24  H    6.989891   5.412842   5.702504   4.748673   4.155503
    25  H    4.894776   2.227631   2.898444   3.785876   2.600805
    26  H    6.373485   3.906163   4.173090   5.021846   3.103919
    27  H    6.981564   4.053403   5.156802   5.799561   4.812054
    28  H    8.118462   5.883035   6.579825   6.140961   5.342354
    29  H    8.795145   6.144664   7.142391   7.135067   6.287202
    30  H    8.445859   5.889970   6.496553   6.750805   5.300799
    31  H    7.345102   4.826995   6.216438   5.954165   5.985815
    32  H    6.419313   4.392763   5.486866   4.641452   4.956568
    33  H    5.083540   2.258549   3.888083   4.417668   4.466875
    34  H    5.911493   3.641993   5.305114   5.157850   5.849994
    35  H    3.545068   2.354902   3.686790   3.139403   4.655635
    36  H    4.856494   3.735399   4.944202   3.655353   5.261688
                   21         22         23         24         25
    21  H    0.000000
    22  H    2.416078   0.000000
    23  H    2.841244   2.898918   0.000000
    24  H    3.460293   2.354897   1.645725   0.000000
    25  H    3.586337   2.866749   3.396041   3.776348   0.000000
    26  H    4.028950   2.204584   3.825045   3.419149   1.731352
    27  H    5.514783   4.108920   4.193251   4.090572   2.335108
    28  H    5.156032   3.506595   3.057839   2.015506   3.963162
    29  H    6.463811   4.744455   4.402344   3.697704   4.280190
    30  H    5.637689   3.509152   4.254442   3.191319   3.719042
    31  H    6.092491   5.237810   3.818943   4.120899   3.766304
    32  H    4.665884   4.186043   2.142690   2.796936   3.361432
    33  H    5.126910   4.860049   4.103608   4.910927   2.228010
    34  H    6.110996   6.011761   4.431191   5.395037   3.780284
    35  H    4.791294   5.638614   4.104463   5.524163   3.645340
    36  H    4.906406   5.593017   3.284912   4.751463   4.175795
                   26         27         28         29         30
    26  H    0.000000
    27  H    2.332080   0.000000
    28  H    3.318522   3.058222   0.000000
    29  H    3.692887   2.413387   1.758823   0.000000
    30  H    2.502610   2.502065   1.768170   1.768652   0.000000
    31  H    4.254772   2.391251   3.052405   2.485959   3.705117
    32  H    3.954450   3.040665   2.609281   3.129706   3.790704
    33  H    3.652849   2.490222   4.663455   4.451217   4.754581
    34  H    5.045876   3.434940   4.987363   4.653441   5.505703
    35  H    5.301426   4.731394   5.989377   6.275942   6.584542
    36  H    5.530909   4.754255   5.187900   5.621115   6.201878
                   31         32         33         34         35
    31  H    0.000000
    32  H    1.745960   0.000000
    33  H    2.782690   3.009598   0.000000
    34  H    2.294258   2.790306   1.746406   0.000000
    35  H    4.247593   3.677860   2.442171   2.491253   0.000000
    36  H    3.507035   2.626511   3.055807   2.365626   1.759226
                   36
    36  H    0.000000
 Stoichiometry    C11H23NO
 Framework group  C1[X(C11H23NO)]
 Deg. of freedom   102
 Full point group                 C1      NOp   1
 Largest Abelian subgroup         C1      NOp   1
 Largest concise Abelian subgroup C1      NOp   1
                         Standard orientation:                         
 ---------------------------------------------------------------------
 Center     Atomic      Atomic             Coordinates (Angstroms)
 Number     Number       Type             X           Y           Z
 ---------------------------------------------------------------------
      1          6           0        3.835727   -0.370668   -0.544252
      2          6           0        2.436864    0.163052   -0.882664
      3          6           0        1.668090    0.740165    0.328558
      4          6           0        0.751251    1.958589   -0.011160
      5          6           0       -0.774995    1.719647   -0.046279
      6          7           0       -1.264822    1.627744    1.333700
      7          6           0       -1.155509    0.615164   -1.101090
      8          6           0       -2.101485   -0.563815   -0.768950
      9          6           0       -3.542811   -0.136454   -0.448380
     10          6           0       -1.583287   -1.583497    0.270402
     11          6           0       -0.174483   -2.151063   -0.018524
     12          6           0        0.929596   -1.602255    0.899233
     13          8           0        0.886990   -0.198600    1.087316
     14          1           0        4.338679   -0.747514   -1.440629
     15          1           0        3.811626   -1.182791    0.188460
     16          1           0        4.458951    0.425676   -0.122876
     17          1           0        1.847564   -0.608921   -1.387391
     18          1           0        2.552753    0.970072   -1.613539
     19          1           0        2.439366    1.114993    1.018216
     20          1           0        1.065591    2.372064   -0.975994
     21          1           0        0.920379    2.740330    0.735129
     22          1           0       -1.196728    2.658828   -0.426186
     23          1           0       -0.878784    0.805456    1.780090
     24          1           0       -2.275002    1.569599    1.361675
     25          1           0       -0.233196    0.179284   -1.494696
     26          1           0       -1.602706    1.129996   -1.961779
     27          1           0       -2.159787   -1.121307   -1.717048
     28          1           0       -3.631943    0.327384    0.538340
     29          1           0       -4.213006   -1.003294   -0.454193
     30          1           0       -3.918036    0.578513   -1.188365
     31          1           0       -2.303996   -2.409968    0.292091
     32          1           0       -1.606771   -1.144884    1.272812
     33          1           0        0.084690   -1.984755   -1.070531
     34          1           0       -0.172486   -3.240181    0.115934
     35          1           0        1.909992   -1.944050    0.551448
     36          1           0        0.786930   -2.023126    1.903245
 ---------------------------------------------------------------------
 Rotational constants (GHZ):           1.1495124           0.5870111           0.4809704
 Standard basis: 6-31+G(2df,p) (6D, 7F)
 There are   570 symmetry adapted cartesian basis functions of A   symmetry.
 There are   531 symmetry adapted basis functions of A   symmetry.
   531 basis functions,   785 primitive gaussians,   570 cartesian basis functions
    52 alpha electrons       52 beta electrons
       nuclear repulsion energy       929.1653757791 Hartrees.
 NAtoms=   36 NActive=   36 NUniq=   36 SFac= 1.00D+00 NAtFMM=   60 NAOKFM=F Big=F
 Integral buffers will be    131072 words long.
 Regular integral format.
 Two-electron integral symmetry is turned on.
 One-electron integrals computed using PRISM.
 PrsmSu:  requested number of processors reduced to:  12 ShMem   1 Linda.
 NBasis=   531 RedAO= T EigKep=  8.09D-06  NBF=   531
 NBsUse=   531 1.00D-06 EigRej= -1.00D+00 NBFU=   531
 ExpMin= 4.38D-02 ExpMax= 5.48D+03 ExpMxC= 8.25D+02 IAcc=3 IRadAn=         5 AccDes= 0.00D+00
 Harris functional with IExCor=  402 and IRadAn=       5 diagonalized for initial guess.
 HarFok:  IExCor=  402 AccDes= 0.00D+00 IRadAn=         5 IDoV= 1 UseB2=F ITyADJ=14
 ICtDFT=  3500011 ScaDFX=  1.000000  1.000000  1.000000  1.000000
 FoFCou: FMM=F IPFlag=           0 FMFlag=      100000 FMFlg1=           0
         NFxFlg=           0 DoJE=T BraDBF=F KetDBF=T FulRan=T
         wScrn=  0.000000 ICntrl=       500 IOpCl=  0 I1Cent=   200000004 NGrid=           0
         NMat0=    1 NMatS0=      1 NMatT0=    0 NMatD0=    1 NMtDS0=    0 NMtDT0=    0
 Petite list used in FoFCou.
 Requested convergence on RMS density matrix=1.00D-08 within 128 cycles.
 Requested convergence on MAX density matrix=1.00D-06.
 Requested convergence on             energy=1.00D-06.
 No special actions if energy rises.
 SCF Done:  E(RB3LYP) =  -563.023765578     A.U. after   13 cycles
            NFock= 13  Conv=0.22D-08     -V/T= 2.0085
 DoSCS=F DFT=T ScalE2(SS,OS)=  1.000000  1.000000
 ExpMin= 4.38D-02 ExpMax= 5.48D+03 ExpMxC= 8.25D+02 IAcc=3 IRadAn=         5 AccDes= 0.00D+00
 HarFok:  IExCor=  205 AccDes= 0.00D+00 IRadAn=         5 IDoV=-2 UseB2=F ITyADJ=14
 ICtDFT= 12500011 ScaDFX=  1.000000  1.000000  1.000000  1.000000
 Range of M.O.s used for correlation:    14   531
 NBasis=   531 NAE=    52 NBE=    52 NFC=    13 NFV=     0
 NROrb=    518 NOA=    39 NOB=    39 NVA=   479 NVB=   479

 **** Warning!!: The largest alpha MO coefficient is  0.66421969D+02

 Orbital symmetries:
       Occupied  (A) (A) (A) (A) (A) (A) (A) (A) (A) (A) (A) (A)
                 (A) (A) (A) (A) (A) (A) (A) (A) (A) (A) (A) (A)
                 (A) (A) (A) (A) (A) (A) (A) (A) (A) (A) (A) (A)
                 (A) (A) (A) (A) (A) (A) (A) (A) (A) (A) (A) (A)
                 (A) (A) (A) (A)
       Virtual   (A) (A) (A) (A) (A) (A) (A) (A) (A) (A) (A) (A)
                 (A) (A) (A) (A) (A) (A) (A) (A) (A) (A) (A) (A)
                 (A) (A) (A) (A) (A) (A) (A) (A) (A) (A) (A) (A)
                 (A) (A) (A) (A) (A) (A) (A) (A) (A) (A) (A) (A)
                 (A) (A) (A) (A) (A) (A) (A) (A) (A) (A) (A) (A)
                 (A) (A) (A) (A) (A) (A) (A) (A) (A) (A) (A) (A)
                 (A) (A) (A) (A) (A) (A) (A) (A) (A) (A) (A) (A)
                 (A) (A) (A) (A) (A) (A) (A) (A) (A) (A) (A) (A)
                 (A) (A) (A) (A) (A) (A) (A) (A) (A) (A) (A) (A)
                 (A) (A) (A) (A) (A) (A) (A) (A) (A) (A) (A) (A)
                 (A) (A) (A) (A) (A) (A) (A) (A) (A) (A) (A) (A)
                 (A) (A) (A) (A) (A) (A) (A) (A) (A) (A) (A) (A)
                 (A) (A) (A) (A) (A) (A) (A) (A) (A) (A) (A) (A)
                 (A) (A) (A) (A) (A) (A) (A) (A) (A) (A) (A) (A)
                 (A) (A) (A) (A) (A) (A) (A) (A) (A) (A) (A) (A)
                 (A) (A) (A) (A) (A) (A) (A) (A) (A) (A) (A) (A)
                 (A) (A) (A) (A) (A) (A) (A) (A) (A) (A) (A) (A)
                 (A) (A) (A) (A) (A) (A) (A) (A) (A) (A) (A) (A)
                 (A) (A) (A) (A) (A) (A) (A) (A) (A) (A) (A) (A)
                 (A) (A) (A) (A) (A) (A) (A) (A) (A) (A) (A) (A)
                 (A) (A) (A) (A) (A) (A) (A) (A) (A) (A) (A) (A)
                 (A) (A) (A) (A) (A) (A) (A) (A) (A) (A) (A) (A)
                 (A) (A) (A) (A) (A) (A) (A) (A) (A) (A) (A) (A)
                 (A) (A) (A) (A) (A) (A) (A) (A) (A) (A) (A) (A)
                 (A) (A) (A) (A) (A) (A) (A) (A) (A) (A) (A) (A)
                 (A) (A) (A) (A) (A) (A) (A) (A) (A) (A) (A) (A)
                 (A) (A) (A) (A) (A) (A) (A) (A) (A) (A) (A) (A)
                 (A) (A) (A) (A) (A) (A) (A) (A) (A) (A) (A) (A)
                 (A) (A) (A) (A) (A) (A) (A) (A) (A) (A) (A) (A)
                 (A) (A) (A) (A) (A) (A) (A) (A) (A) (A) (A) (A)
                 (A) (A) (A) (A) (A) (A) (A) (A) (A) (A) (A) (A)
                 (A) (A) (A) (A) (A) (A) (A) (A) (A) (A) (A) (A)
                 (A) (A) (A) (A) (A) (A) (A) (A) (A) (A) (A) (A)
                 (A) (A) (A) (A) (A) (A) (A) (A) (A) (A) (A) (A)
                 (A) (A) (A) (A) (A) (A) (A) (A) (A) (A) (A) (A)
                 (A) (A) (A) (A) (A) (A) (A) (A) (A) (A) (A) (A)
                 (A) (A) (A) (A) (A) (A) (A) (A) (A) (A) (A) (A)
                 (A) (A) (A) (A) (A) (A) (A) (A) (A) (A) (A) (A)
                 (A) (A) (A) (A) (A) (A) (A) (A) (A) (A) (A) (A)
                 (A) (A) (A) (A) (A) (A) (A) (A) (A) (A) (A)
    40 initial guesses have been made.
 Convergence on wavefunction:    0.000001000000000
 Iteration     1 Dimension    40 NMult     0 NNew     40
 CISAX will form     3 AO SS matrices at one time.
 New state      5 was old state      6
 New state      6 was old state      5
 New state     10 was old state     12
 Iteration     2 Dimension    60 NMult    40 NNew     20
 Iteration     3 Dimension    80 NMult    60 NNew     20
 Iteration     4 Dimension   100 NMult    80 NNew     20
 Iteration     5 Dimension   120 NMult   100 NNew     20
 Iteration     6 Dimension   140 NMult   120 NNew     20
 Iteration     7 Dimension   160 NMult   140 NNew     20
 Iteration     8 Dimension   180 NMult   160 NNew     20
 Iteration     9 Dimension   200 NMult   180 NNew     20
 Iteration    10 Dimension   216 NMult   200 NNew     16
 Iteration    11 Dimension   222 NMult   216 NNew      6
 ***********************************************************************
 Excited states from <AA,BB:AA,BB> singles matrix:
 ***********************************************************************
 
 Ground to excited state transition densities written to RWF  633
 Ground to excited state transition electric dipole moments (Au):
       state          X           Y           Z        Dip. S.      Osc.
         1         0.1281      0.1818      0.2895      0.1333      0.0172
         2         0.0257     -0.2006     -0.1056      0.0521      0.0072
         3         0.0144     -0.0232     -0.0156      0.0010      0.0001
         4        -0.1824     -0.1423     -0.0874      0.0612      0.0087
         5        -0.1590      0.1591      0.1658      0.0781      0.0117
         6        -0.0229      0.0361      0.0381      0.0033      0.0005
         7         0.0133     -0.3219      0.0867      0.1113      0.0170
         8         0.1206     -0.0081     -0.0307      0.0156      0.0024
         9        -0.1871      0.2829     -0.0633      0.1190      0.0185
        10         0.1882      0.0191      0.3469      0.1561      0.0246
 Ground to excited state transition velocity dipole moments (Au):
       state          X           Y           Z        Dip. S.      Osc.
         1        -0.0264     -0.0343     -0.0553      0.0049      0.0170
         2        -0.0040      0.0416      0.0206      0.0022      0.0070
         3        -0.0031      0.0064      0.0037      0.0001      0.0002
         4         0.0377      0.0330      0.0194      0.0029      0.0090
         5         0.0352     -0.0347     -0.0386      0.0039      0.0117
         6         0.0054     -0.0095     -0.0086      0.0002      0.0006
         7        -0.0038      0.0764     -0.0207      0.0063      0.0183
         8        -0.0257      0.0020      0.0068      0.0007      0.0020
         9         0.0434     -0.0649      0.0161      0.0064      0.0182
        10        -0.0419     -0.0037     -0.0801      0.0082      0.0231
 Ground to excited state transition magnetic dipole moments (Au):
       state          X           Y           Z
         1         0.1974     -0.3878      0.3455
         2        -0.3343      0.0817     -0.2303
         3        -0.1990      0.0604     -0.1868
         4        -0.1985     -0.0110     -0.0965
         5         0.0051      0.0016     -0.1271
         6         0.1106      0.0707     -0.1109
         7        -0.0879      0.1157     -0.1562
         8        -0.0864      0.2486     -0.1495
         9         0.0882      0.1297     -0.2092
        10         0.1765      0.3658     -0.1693
 Ground to excited state transition velocity quadrupole moments (Au):
       state          XX          YY          ZZ          XY          XZ          YZ
         1         0.1556     -0.2204     -0.1038     -0.0015      0.1551     -0.3416
         2        -0.1020     -0.0147      0.0847      0.0174     -0.0615      0.1169
         3        -0.1174      0.0932      0.2266     -0.2282      0.0333     -0.0522
         4         0.1450      0.1967      0.1644      0.0625      0.0350      0.0170
         5         0.1903      0.2893      0.1766      0.0104      0.0035     -0.1272
         6         0.1245     -0.0454      0.0074     -0.1851     -0.1110     -0.0046
         7        -0.0166     -0.0255      0.0965      0.1165      0.0568     -0.0082
         8        -0.1282      0.2066      0.1791     -0.2538     -0.1674      0.0881
         9         0.1211      0.2765      0.0437     -0.2809      0.0381      0.0350
        10        -0.3068     -0.0393      0.1109      0.0013     -0.1693      0.1697
 <0|del|b> * <b|rxdel|0> + <0|del|b> * <b|delr+rdel|0>
 Rotatory Strengths (R) in cgs (10**-40 erg-esu-cm/Gauss)
       state          XX          YY          ZZ    R(velocity)    E-M Angle
         1        -0.7683    -28.0512    -11.4306    -13.4167      106.43
         2         2.6833     -7.2179      4.5522      0.0059       90.00
         3        -2.2687      1.5451      1.7505      0.3423       82.08
         4        -3.6041    -16.4331    -12.1377    -10.7250      144.96
         5         7.1952      1.5918      7.0505      5.2792       50.91
         6         1.2765     -0.0992      1.5749      0.9174       68.42
         7         8.2043      9.2678     20.7934     12.7552       42.76
         8        -2.9432      1.0150      7.0748      1.7156       77.92
         9       -20.9788      9.8605    -12.9948     -8.0377      112.43
        10        17.1696     -1.2831     -1.5026      4.7946       83.05
 1/2[<0|r|b>*<b|rxdel|0> + (<0|rxdel|b>*<b|r|0>)*]
 Rotatory Strengths (R) in cgs (10**-40 erg-esu-cm/Gauss)
       state          XX          YY          ZZ     R(length)
         1       -17.8881     49.8475    -70.7315    -12.9240
         2         6.0709     11.5940    -17.2068      0.1527
         3         2.0285      0.9917     -2.0602      0.3200
         4       -25.6147     -1.1110     -5.9604    -10.8954
         5         0.5737     -0.1755     14.9014      5.0999
         6         1.7890     -1.8084      2.9918      0.9908
         7         0.8238     26.3451      9.5782     12.2491
         8         7.3695      1.4262     -3.2430      1.8509
         9        11.6696    -25.9385     -9.3673     -7.8787
        10       -23.4939     -4.9473     41.5359      4.3649
  1/2[<0|del|b>*<b|r|0> + (<0|r|b>*<b|del|0>)*] (Au)
       state          X           Y           Z        Dip. S.   Osc.(frdel)
         1        -0.0034     -0.0062     -0.0160      0.0256      0.0171
         2        -0.0001     -0.0083     -0.0022      0.0106      0.0071
         3        -0.0000     -0.0001     -0.0001      0.0002      0.0002
         4        -0.0069     -0.0047     -0.0017      0.0133      0.0089
         5        -0.0056     -0.0055     -0.0064      0.0175      0.0117
         6        -0.0001     -0.0003     -0.0003      0.0008      0.0005
         7        -0.0001     -0.0246     -0.0018      0.0265      0.0176
         8        -0.0031     -0.0000     -0.0002      0.0033      0.0022
         9        -0.0081     -0.0184     -0.0010      0.0275      0.0183
        10        -0.0079     -0.0001     -0.0278      0.0357      0.0238

 Excitation energies and oscillator strengths:
 
 Excited State   1:      Singlet-A      5.2799 eV  234.82 nm  f=0.0172  <S**2>=0.000
      52 -> 53         0.61877
      52 -> 54        -0.29625
      52 -> 56        -0.10334
 This state for optimization and/or second-order correction.
 Total Energy, E(TD-HF/TD-DFT) =  -562.829733121    
 Copying the excited state density for this state as the 1-particle RhoCI density.
 
 Excited State   2:      Singlet-A      5.6271 eV  220.33 nm  f=0.0072  <S**2>=0.000
      52 -> 53         0.33150
      52 -> 54         0.56667
      52 -> 56         0.22200
 
 Excited State   3:      Singlet-A      5.7466 eV  215.75 nm  f=0.0001  <S**2>=0.000
      52 -> 55         0.57695
      52 -> 56         0.34835
      52 -> 59         0.10790
 
 Excited State   4:      Singlet-A      5.8209 eV  213.00 nm  f=0.0087  <S**2>=0.000
      52 -> 54        -0.24197
      52 -> 55        -0.36065
      52 -> 56         0.53915
      52 -> 57        -0.11404
 
 Excited State   5:      Singlet-A      6.1101 eV  202.92 nm  f=0.0117  <S**2>=0.000
      51 -> 53         0.68197
      51 -> 56        -0.11191
 
 Excited State   6:      Singlet-A      6.1613 eV  201.23 nm  f=0.0005  <S**2>=0.000
      52 -> 55        -0.12399
      52 -> 57         0.63044
      52 -> 58        -0.14001
      52 -> 59         0.17514
 
 Excited State   7:      Singlet-A      6.2445 eV  198.55 nm  f=0.0170  <S**2>=0.000
      51 -> 54        -0.15943
      52 -> 55        -0.11054
      52 -> 57         0.10891
      52 -> 58         0.61164
      52 -> 59         0.10493
      52 -> 60         0.19711
 
 Excited State   8:      Singlet-A      6.3145 eV  196.35 nm  f=0.0024  <S**2>=0.000
      51 -> 54         0.12753
      51 -> 56         0.13335
      52 -> 56        -0.12690
      52 -> 57        -0.22499
      52 -> 59         0.59078
      52 -> 62        -0.14613
 
 Excited State   9:      Singlet-A      6.3472 eV  195.34 nm  f=0.0185  <S**2>=0.000
      51 -> 54         0.63089
      51 -> 55        -0.15309
      52 -> 58         0.19343
      52 -> 59        -0.13213
 
 Excited State  10:      Singlet-A      6.4427 eV  192.44 nm  f=0.0246  <S**2>=0.000
      51 -> 53         0.13108
      51 -> 56         0.65102
      52 -> 59        -0.10873
      52 -> 60        -0.10243
 SavETr:  write IOETrn=   770 NScale= 10 NData=  16 NLR=1 NState=   10 LETran=     190.
