### Starting Gaussian ###
 Entering Gaussian System, Link 0=g16
 Initial command:
 /cluster/software/gaussian/gaussian-16-A.03/avx2/g16/l1.exe "/local/scratch/linjian/Gau-16302.inp" -scrdir="/local/scratch/linjian/"
 Entering Link 1 = /cluster/software/gaussian/gaussian-16-A.03/avx2/g16/l1.exe PID=     16303.
  
 Copyright (c) 1988,1990,1992,1993,1995,1998,2003,2009,2016,
            Gaussian, Inc.  All Rights Reserved.
  
 This is part of the Gaussian(R) 16 program.  It is based on
 the Gaussian(R) 09 system (copyright 2009, Gaussian, Inc.),
 the Gaussian(R) 03 system (copyright 2003, Gaussian, Inc.),
 the Gaussian(R) 98 system (copyright 1998, Gaussian, Inc.),
 the Gaussian(R) 94 system (copyright 1995, Gaussian, Inc.),
 the Gaussian 92(TM) system (copyright 1992, Gaussian, Inc.),
 the Gaussian 90(TM) system (copyright 1990, Gaussian, Inc.),
 the Gaussian 88(TM) system (copyright 1988, Gaussian, Inc.),
 the Gaussian 86(TM) system (copyright 1986, Carnegie Mellon
 University), and the Gaussian 82(TM) system (copyright 1983,
 Carnegie Mellon University). Gaussian is a federally registered
 trademark of Gaussian, Inc.
  
 This software contains proprietary and confidential information,
 including trade secrets, belonging to Gaussian, Inc.
  
 This software is provided under written license and may be
 used, copied, transmitted, or stored only in accord with that
 written license.
  
 The following legend is applicable only to US Government
 contracts under FAR:
  
                    RESTRICTED RIGHTS LEGEND
  
 Use, reproduction and disclosure by the US Government is
 subject to restrictions as set forth in subparagraphs (a)
 and (c) of the Commercial Computer Software - Restricted
 Rights clause in FAR 52.227-19.
  
 Gaussian, Inc.
 340 Quinnipiac St., Bldg. 40, Wallingford CT 06492
  
  
 ---------------------------------------------------------------
 Warning -- This program may not be used in any manner that
 competes with the business of Gaussian, Inc. or will provide
 assistance to any competitor of Gaussian, Inc.  The licensee
 of this program is prohibited from giving any competitor of
 Gaussian, Inc. access to this program.  By using this program,
 the user acknowledges that Gaussian, Inc. is engaged in the
 business of creating and licensing software in the field of
 computational chemistry and represents and warrants to the
 licensee that it is not a competitor of Gaussian, Inc. and that
 it will not use this program in any manner prohibited above.
 ---------------------------------------------------------------
  

 Cite this work as:
 Gaussian 16, Revision A.03,
 M. J. Frisch, G. W. Trucks, H. B. Schlegel, G. E. Scuseria, 
 M. A. Robb, J. R. Cheeseman, G. Scalmani, V. Barone, 
 G. A. Petersson, H. Nakatsuji, X. Li, M. Caricato, A. V. Marenich, 
 J. Bloino, B. G. Janesko, R. Gomperts, B. Mennucci, H. P. Hratchian, 
 J. V. Ortiz, A. F. Izmaylov, J. L. Sonnenberg, D. Williams-Young, 
 F. Ding, F. Lipparini, F. Egidi, J. Goings, B. Peng, A. Petrone, 
 T. Henderson, D. Ranasinghe, V. G. Zakrzewski, J. Gao, N. Rega, 
 G. Zheng, W. Liang, M. Hada, M. Ehara, K. Toyota, R. Fukuda, 
 J. Hasegawa, M. Ishida, T. Nakajima, Y. Honda, O. Kitao, H. Nakai, 
 T. Vreven, K. Throssell, J. A. Montgomery, Jr., J. E. Peralta, 
 F. Ogliaro, M. J. Bearpark, J. J. Heyd, E. N. Brothers, K. N. Kudin, 
 V. N. Staroverov, T. A. Keith, R. Kobayashi, J. Normand, 
 K. Raghavachari, A. P. Rendell, J. C. Burant, S. S. Iyengar, 
 J. Tomasi, M. Cossi, J. M. Millam, M. Klene, C. Adamo, R. Cammi, 
 J. W. Ochterski, R. L. Martin, K. Morokuma, O. Farkas, 
 J. B. Foresman, and D. J. Fox, Gaussian, Inc., Wallingford CT, 2016.
 
 ******************************************
 Gaussian 16:  ES64L-G16RevA.03 25-Dec-2016
                23-May-2023 
 ******************************************
 %chk=CCCCCNCCCqCCOrCqCrCdO.chk
 %NProcShared=20
 Will use up to   20 processors via shared memory.
 -----------------------------
 # opt freq b3lyp/6-31g(2df,p)
 -----------------------------
 1/18=20,19=15,26=3,38=1/1,3;
 2/9=110,12=2,17=6,18=5,40=1/2;
 3/5=1,6=6,7=104,11=2,25=1,30=1,71=1,74=-5/1,2,3;
 4//1;
 5/5=2,38=5/2;
 6/7=2,8=2,9=2,10=2,28=1/1;
 7//1,2,3,16;
 1/18=20,19=15,26=3/3(2);
 2/9=110/2;
 99//99;
 2/9=110/2;
 3/5=1,6=6,7=104,11=2,25=1,30=1,71=1,74=-5/1,2,3;
 4/5=5,16=3,69=1/1;
 5/5=2,38=5/2;
 7//1,2,3,16;
 1/18=20,19=15,26=3/3(-5);
 2/9=110/2;
 6/7=2,8=2,9=2,10=2,19=2,28=1/1;
 99/9=1/99;
 -------------------
 Title Card Required
 -------------------
 Symbolic Z-matrix:
 Charge =  0 Multiplicity = 1
 C                     0.94172   0.07133   0.05766 
 C                     2.45521   0.06982   0.05951 
 C                     2.98406  -0.80283   1.1851 
 C                     4.50163  -0.77152   1.17673 
 C                     5.03948  -1.59765   2.31536 
 N                     6.49833  -1.46704   2.31291 
 C                     6.99222  -2.34246   3.34886 
 C                     8.49259  -2.49759   3.40229 
 C                     8.9808   -3.44735   4.53411 
 C                     8.47086  -4.9081    4.35906 
 C                     6.96689  -5.14086   4.47903 
 O                     6.69613  -6.52926   4.40727 
 C                     10.54112  -3.42512   4.57641 
 C                     11.09739  -2.01215   4.77621 
 C                     11.11383  -4.29024   5.6927 
 O                     12.31124  -4.46641   5.85937 
 H                     0.5677    0.70259  -0.75196 
 H                     0.55533   0.45732   1.00626 
 H                     0.55515  -0.94269  -0.08433 
 H                     2.82612   1.09439   0.18116 
 H                     2.82819  -0.29973  -0.90284 
 H                     2.6261   -1.83381   1.06818 
 H                     2.61104  -0.44051   2.1514 
 H                     4.85654   0.25996   1.27782 
 H                     4.88051  -1.16467   0.22471 
 H                     4.72665  -2.64465   2.17525 
 H                     4.62833  -1.26333   3.27619 
 H                     6.78432  -0.50426   2.46664 
 H                     6.59819  -3.27156   2.99879 
 H                     6.58798  -2.09115   4.33712 
 H                     8.89429  -1.49158   3.53687 
 H                     8.86176  -2.87317   2.43958 
 H                     8.60935  -3.07024   5.49767 
 H                     8.92189  -5.55552   5.11962 
 H                     8.83004  -5.30802   3.40311 
 H                     6.39361  -4.77711   3.64452 
 H                     6.55832  -4.70099   5.3947 
 H                     6.77815  -6.74932   3.45896 
 H                     10.92328  -3.83469   3.6321 
 H                     10.7268  -1.58119   5.71291 
 H                     10.82915  -1.33957   3.95815 
 H                     12.19071  -2.01662   4.81571 
 H                     10.38827  -4.75004   6.38657 
 

 GradGradGradGradGradGradGradGradGradGradGradGradGradGradGradGradGradGrad
 Berny optimization.
 Initialization pass.
                           ----------------------------
                           !    Initial Parameters    !
                           ! (Angstroms and Degrees)  !
 --------------------------                            --------------------------
 ! Name  Definition              Value          Derivative Info.                !
 --------------------------------------------------------------------------------
 ! R1    R(1,2)                  1.5135         estimate D2E/DX2                !
 ! R2    R(1,17)                 1.0926         estimate D2E/DX2                !
 ! R3    R(1,18)                 1.0946         estimate D2E/DX2                !
 ! R4    R(1,19)                 1.0945         estimate D2E/DX2                !
 ! R5    R(2,3)                  1.5193         estimate D2E/DX2                !
 ! R6    R(2,20)                 1.0964         estimate D2E/DX2                !
 ! R7    R(2,21)                 1.0963         estimate D2E/DX2                !
 ! R8    R(3,4)                  1.5179         estimate D2E/DX2                !
 ! R9    R(3,22)                 1.0976         estimate D2E/DX2                !
 ! R10   R(3,23)                 1.0973         estimate D2E/DX2                !
 ! R11   R(4,5)                  1.5061         estimate D2E/DX2                !
 ! R12   R(4,24)                 1.0955         estimate D2E/DX2                !
 ! R13   R(4,25)                 1.0975         estimate D2E/DX2                !
 ! R14   R(5,6)                  1.4647         estimate D2E/DX2                !
 ! R15   R(5,26)                 1.1017         estimate D2E/DX2                !
 ! R16   R(5,27)                 1.0973         estimate D2E/DX2                !
 ! R17   R(6,7)                  1.4434         estimate D2E/DX2                !
 ! R18   R(6,28)                 1.0161         estimate D2E/DX2                !
 ! R19   R(7,8)                  1.5093         estimate D2E/DX2                !
 ! R20   R(7,29)                 1.0682         estimate D2E/DX2                !
 ! R21   R(7,30)                 1.0969         estimate D2E/DX2                !
 ! R22   R(8,9)                  1.5561         estimate D2E/DX2                !
 ! R23   R(8,31)                 1.0916         estimate D2E/DX2                !
 ! R24   R(8,32)                 1.0973         estimate D2E/DX2                !
 ! R25   R(9,10)                 1.5571         estimate D2E/DX2                !
 ! R26   R(9,13)                 1.5611         estimate D2E/DX2                !
 ! R27   R(9,33)                 1.0994         estimate D2E/DX2                !
 ! R28   R(10,11)                1.5266         estimate D2E/DX2                !
 ! R29   R(10,34)                1.0959         estimate D2E/DX2                !
 ! R30   R(10,35)                1.0967         estimate D2E/DX2                !
 ! R31   R(11,12)                1.4164         estimate D2E/DX2                !
 ! R32   R(11,36)                1.0758         estimate D2E/DX2                !
 ! R33   R(11,37)                1.0949         estimate D2E/DX2                !
 ! R34   R(12,38)                0.977          estimate D2E/DX2                !
 ! R35   R(13,14)                1.5316         estimate D2E/DX2                !
 ! R36   R(13,15)                1.524          estimate D2E/DX2                !
 ! R37   R(13,39)                1.098          estimate D2E/DX2                !
 ! R38   R(14,40)                1.0957         estimate D2E/DX2                !
 ! R39   R(14,41)                1.0925         estimate D2E/DX2                !
 ! R40   R(14,42)                1.094          estimate D2E/DX2                !
 ! R41   R(15,16)                1.2217         estimate D2E/DX2                !
 ! R42   R(15,43)                1.1042         estimate D2E/DX2                !
 ! A1    A(2,1,17)             110.1079         estimate D2E/DX2                !
 ! A2    A(2,1,18)             110.6276         estimate D2E/DX2                !
 ! A3    A(2,1,19)             110.6367         estimate D2E/DX2                !
 ! A4    A(17,1,18)            108.5168         estimate D2E/DX2                !
 ! A5    A(17,1,19)            108.5566         estimate D2E/DX2                !
 ! A6    A(18,1,19)            108.3287         estimate D2E/DX2                !
 ! A7    A(1,2,3)              110.4613         estimate D2E/DX2                !
 ! A8    A(1,2,20)             109.7245         estimate D2E/DX2                !
 ! A9    A(1,2,21)             109.8458         estimate D2E/DX2                !
 ! A10   A(3,2,20)             109.6816         estimate D2E/DX2                !
 ! A11   A(3,2,21)             109.7744         estimate D2E/DX2                !
 ! A12   A(20,2,21)            107.2963         estimate D2E/DX2                !
 ! A13   A(2,3,4)              109.3953         estimate D2E/DX2                !
 ! A14   A(2,3,22)             110.309          estimate D2E/DX2                !
 ! A15   A(2,3,23)             110.1467         estimate D2E/DX2                !
 ! A16   A(4,3,22)             110.1722         estimate D2E/DX2                !
 ! A17   A(4,3,23)             109.7489         estimate D2E/DX2                !
 ! A18   A(22,3,23)            107.0425         estimate D2E/DX2                !
 ! A19   A(3,4,5)              109.9717         estimate D2E/DX2                !
 ! A20   A(3,4,24)             110.048          estimate D2E/DX2                !
 ! A21   A(3,4,25)             110.0319         estimate D2E/DX2                !
 ! A22   A(5,4,24)             109.3304         estimate D2E/DX2                !
 ! A23   A(5,4,25)             109.6355         estimate D2E/DX2                !
 ! A24   A(24,4,25)            107.7881         estimate D2E/DX2                !
 ! A25   A(4,5,6)              107.7894         estimate D2E/DX2                !
 ! A26   A(4,5,26)             108.8898         estimate D2E/DX2                !
 ! A27   A(4,5,27)             111.1662         estimate D2E/DX2                !
 ! A28   A(6,5,26)             111.5528         estimate D2E/DX2                !
 ! A29   A(6,5,27)             110.3347         estimate D2E/DX2                !
 ! A30   A(26,5,27)            107.129          estimate D2E/DX2                !
 ! A31   A(5,6,7)              106.5899         estimate D2E/DX2                !
 ! A32   A(5,6,28)             111.3825         estimate D2E/DX2                !
 ! A33   A(7,6,28)             111.7026         estimate D2E/DX2                !
 ! A34   A(6,7,8)              115.3331         estimate D2E/DX2                !
 ! A35   A(6,7,29)              99.5607         estimate D2E/DX2                !
 ! A36   A(6,7,30)             112.4306         estimate D2E/DX2                !
 ! A37   A(8,7,29)             106.7917         estimate D2E/DX2                !
 ! A38   A(8,7,30)             110.9771         estimate D2E/DX2                !
 ! A39   A(29,7,30)            111.0138         estimate D2E/DX2                !
 ! A40   A(7,8,9)              113.6009         estimate D2E/DX2                !
 ! A41   A(7,8,31)             105.9894         estimate D2E/DX2                !
 ! A42   A(7,8,32)             109.7886         estimate D2E/DX2                !
 ! A43   A(9,8,31)             110.9392         estimate D2E/DX2                !
 ! A44   A(9,8,32)             108.8845         estimate D2E/DX2                !
 ! A45   A(31,8,32)            107.4453         estimate D2E/DX2                !
 ! A46   A(8,9,10)             112.8347         estimate D2E/DX2                !
 ! A47   A(8,9,13)             108.9421         estimate D2E/DX2                !
 ! A48   A(8,9,33)             108.7914         estimate D2E/DX2                !
 ! A49   A(10,9,13)            110.1056         estimate D2E/DX2                !
 ! A50   A(10,9,33)            108.0401         estimate D2E/DX2                !
 ! A51   A(13,9,33)            108.0038         estimate D2E/DX2                !
 ! A52   A(9,10,11)            117.1839         estimate D2E/DX2                !
 ! A53   A(9,10,34)            109.9626         estimate D2E/DX2                !
 ! A54   A(9,10,35)            109.4406         estimate D2E/DX2                !
 ! A55   A(11,10,34)           105.1202         estimate D2E/DX2                !
 ! A56   A(11,10,35)           109.6061         estimate D2E/DX2                !
 ! A57   A(34,10,35)           104.7565         estimate D2E/DX2                !
 ! A58   A(10,11,12)           109.5001         estimate D2E/DX2                !
 ! A59   A(10,11,36)           114.3601         estimate D2E/DX2                !
 ! A60   A(10,11,37)           111.8443         estimate D2E/DX2                !
 ! A61   A(12,11,36)           100.9686         estimate D2E/DX2                !
 ! A62   A(12,11,37)           111.3976         estimate D2E/DX2                !
 ! A63   A(36,11,37)           108.3023         estimate D2E/DX2                !
 ! A64   A(11,12,38)           104.7103         estimate D2E/DX2                !
 ! A65   A(9,13,14)            112.3147         estimate D2E/DX2                !
 ! A66   A(9,13,15)            112.7919         estimate D2E/DX2                !
 ! A67   A(9,13,39)            108.6196         estimate D2E/DX2                !
 ! A68   A(14,13,15)           106.9572         estimate D2E/DX2                !
 ! A69   A(14,13,39)           109.2635         estimate D2E/DX2                !
 ! A70   A(15,13,39)           106.7035         estimate D2E/DX2                !
 ! A71   A(13,14,40)           110.5819         estimate D2E/DX2                !
 ! A72   A(13,14,41)           112.4014         estimate D2E/DX2                !
 ! A73   A(13,14,42)           111.3395         estimate D2E/DX2                !
 ! A74   A(40,14,41)           108.3588         estimate D2E/DX2                !
 ! A75   A(40,14,42)           107.984          estimate D2E/DX2                !
 ! A76   A(41,14,42)           105.9572         estimate D2E/DX2                !
 ! A77   A(13,15,16)           123.374          estimate D2E/DX2                !
 ! A78   A(13,15,43)           116.7261         estimate D2E/DX2                !
 ! A79   A(16,15,43)           119.8831         estimate D2E/DX2                !
 ! D1    D(17,1,2,3)           179.8422         estimate D2E/DX2                !
 ! D2    D(17,1,2,20)           58.801          estimate D2E/DX2                !
 ! D3    D(17,1,2,21)          -58.9216         estimate D2E/DX2                !
 ! D4    D(18,1,2,3)            59.8967         estimate D2E/DX2                !
 ! D5    D(18,1,2,20)          -61.1444         estimate D2E/DX2                !
 ! D6    D(18,1,2,21)         -178.8671         estimate D2E/DX2                !
 ! D7    D(19,1,2,3)           -60.157          estimate D2E/DX2                !
 ! D8    D(19,1,2,20)          178.8018         estimate D2E/DX2                !
 ! D9    D(19,1,2,21)           61.0792         estimate D2E/DX2                !
 ! D10   D(1,2,3,4)           -179.2126         estimate D2E/DX2                !
 ! D11   D(1,2,3,22)            59.4472         estimate D2E/DX2                !
 ! D12   D(1,2,3,23)           -58.4996         estimate D2E/DX2                !
 ! D13   D(20,2,3,4)           -58.1459         estimate D2E/DX2                !
 ! D14   D(20,2,3,22)         -179.4861         estimate D2E/DX2                !
 ! D15   D(20,2,3,23)           62.5671         estimate D2E/DX2                !
 ! D16   D(21,2,3,4)            59.5088         estimate D2E/DX2                !
 ! D17   D(21,2,3,22)          -61.8314         estimate D2E/DX2                !
 ! D18   D(21,2,3,23)         -179.7782         estimate D2E/DX2                !
 ! D19   D(2,3,4,5)            178.1965         estimate D2E/DX2                !
 ! D20   D(2,3,4,24)            57.6971         estimate D2E/DX2                !
 ! D21   D(2,3,4,25)           -60.9357         estimate D2E/DX2                !
 ! D22   D(22,3,4,5)           -60.3806         estimate D2E/DX2                !
 ! D23   D(22,3,4,24)          179.12           estimate D2E/DX2                !
 ! D24   D(22,3,4,25)           60.4872         estimate D2E/DX2                !
 ! D25   D(23,3,4,5)            57.2416         estimate D2E/DX2                !
 ! D26   D(23,3,4,24)          -63.2578         estimate D2E/DX2                !
 ! D27   D(23,3,4,25)          178.1094         estimate D2E/DX2                !
 ! D28   D(3,4,5,6)           -176.5325         estimate D2E/DX2                !
 ! D29   D(3,4,5,26)            62.2989         estimate D2E/DX2                !
 ! D30   D(3,4,5,27)           -55.4955         estimate D2E/DX2                !
 ! D31   D(24,4,5,6)           -55.6008         estimate D2E/DX2                !
 ! D32   D(24,4,5,26)         -176.7695         estimate D2E/DX2                !
 ! D33   D(24,4,5,27)           65.4362         estimate D2E/DX2                !
 ! D34   D(25,4,5,6)            62.3616         estimate D2E/DX2                !
 ! D35   D(25,4,5,26)          -58.807          estimate D2E/DX2                !
 ! D36   D(25,4,5,27)         -176.6014         estimate D2E/DX2                !
 ! D37   D(4,5,6,7)           -175.9255         estimate D2E/DX2                !
 ! D38   D(4,5,6,28)            61.9999         estimate D2E/DX2                !
 ! D39   D(26,5,6,7)           -56.4337         estimate D2E/DX2                !
 ! D40   D(26,5,6,28)         -178.5082         estimate D2E/DX2                !
 ! D41   D(27,5,6,7)            62.5193         estimate D2E/DX2                !
 ! D42   D(27,5,6,28)          -59.5553         estimate D2E/DX2                !
 ! D43   D(5,6,7,8)            172.4589         estimate D2E/DX2                !
 ! D44   D(5,6,7,29)            58.6387         estimate D2E/DX2                !
 ! D45   D(5,6,7,30)           -58.938          estimate D2E/DX2                !
 ! D46   D(28,6,7,8)           -65.6689         estimate D2E/DX2                !
 ! D47   D(28,6,7,29)         -179.4891         estimate D2E/DX2                !
 ! D48   D(28,6,7,30)           62.9342         estimate D2E/DX2                !
 ! D49   D(6,7,8,9)            179.9114         estimate D2E/DX2                !
 ! D50   D(6,7,8,31)            57.846          estimate D2E/DX2                !
 ! D51   D(6,7,8,32)           -57.9094         estimate D2E/DX2                !
 ! D52   D(29,7,8,9)           -70.5281         estimate D2E/DX2                !
 ! D53   D(29,7,8,31)          167.4065         estimate D2E/DX2                !
 ! D54   D(29,7,8,32)           51.6511         estimate D2E/DX2                !
 ! D55   D(30,7,8,9)            50.5928         estimate D2E/DX2                !
 ! D56   D(30,7,8,31)          -71.4725         estimate D2E/DX2                !
 ! D57   D(30,7,8,32)          172.7721         estimate D2E/DX2                !
 ! D58   D(7,8,9,10)            62.6131         estimate D2E/DX2                !
 ! D59   D(7,8,9,13)          -174.7816         estimate D2E/DX2                !
 ! D60   D(7,8,9,33)           -57.2685         estimate D2E/DX2                !
 ! D61   D(31,8,9,10)         -178.1094         estimate D2E/DX2                !
 ! D62   D(31,8,9,13)          -55.5041         estimate D2E/DX2                !
 ! D63   D(31,8,9,33)           62.009          estimate D2E/DX2                !
 ! D64   D(32,8,9,10)          -60.0654         estimate D2E/DX2                !
 ! D65   D(32,8,9,13)           62.5399         estimate D2E/DX2                !
 ! D66   D(32,8,9,33)         -179.9471         estimate D2E/DX2                !
 ! D67   D(8,9,10,11)          -65.7927         estimate D2E/DX2                !
 ! D68   D(8,9,10,34)          174.3048         estimate D2E/DX2                !
 ! D69   D(8,9,10,35)           59.7488         estimate D2E/DX2                !
 ! D70   D(13,9,10,11)         172.2552         estimate D2E/DX2                !
 ! D71   D(13,9,10,34)          52.3527         estimate D2E/DX2                !
 ! D72   D(13,9,10,35)         -62.2033         estimate D2E/DX2                !
 ! D73   D(33,9,10,11)          54.5206         estimate D2E/DX2                !
 ! D74   D(33,9,10,34)         -65.382          estimate D2E/DX2                !
 ! D75   D(33,9,10,35)        -179.9379         estimate D2E/DX2                !
 ! D76   D(8,9,13,14)           56.9277         estimate D2E/DX2                !
 ! D77   D(8,9,13,15)          177.887          estimate D2E/DX2                !
 ! D78   D(8,9,13,39)          -64.0429         estimate D2E/DX2                !
 ! D79   D(10,9,13,14)        -178.8401         estimate D2E/DX2                !
 ! D80   D(10,9,13,15)         -57.8808         estimate D2E/DX2                !
 ! D81   D(10,9,13,39)          60.1893         estimate D2E/DX2                !
 ! D82   D(33,9,13,14)         -61.083          estimate D2E/DX2                !
 ! D83   D(33,9,13,15)          59.8762         estimate D2E/DX2                !
 ! D84   D(33,9,13,39)         177.9464         estimate D2E/DX2                !
 ! D85   D(9,10,11,12)        -175.0652         estimate D2E/DX2                !
 ! D86   D(9,10,11,36)          72.4825         estimate D2E/DX2                !
 ! D87   D(9,10,11,37)         -51.0832         estimate D2E/DX2                !
 ! D88   D(34,10,11,12)        -52.631          estimate D2E/DX2                !
 ! D89   D(34,10,11,36)       -165.0833         estimate D2E/DX2                !
 ! D90   D(34,10,11,37)         71.351          estimate D2E/DX2                !
 ! D91   D(35,10,11,12)         59.4755         estimate D2E/DX2                !
 ! D92   D(35,10,11,36)        -52.9767         estimate D2E/DX2                !
 ! D93   D(35,10,11,37)       -176.5424         estimate D2E/DX2                !
 ! D94   D(10,11,12,38)        -76.7215         estimate D2E/DX2                !
 ! D95   D(36,11,12,38)         44.2321         estimate D2E/DX2                !
 ! D96   D(37,11,12,38)        159.0351         estimate D2E/DX2                !
 ! D97   D(9,13,14,40)          59.2518         estimate D2E/DX2                !
 ! D98   D(9,13,14,41)         -61.9925         estimate D2E/DX2                !
 ! D99   D(9,13,14,42)         179.3036         estimate D2E/DX2                !
 ! D100  D(15,13,14,40)        -65.0064         estimate D2E/DX2                !
 ! D101  D(15,13,14,41)        173.7492         estimate D2E/DX2                !
 ! D102  D(15,13,14,42)         55.0454         estimate D2E/DX2                !
 ! D103  D(39,13,14,40)        179.8515         estimate D2E/DX2                !
 ! D104  D(39,13,14,41)         58.6071         estimate D2E/DX2                !
 ! D105  D(39,13,14,42)        -60.0967         estimate D2E/DX2                !
 ! D106  D(9,13,15,16)         176.1818         estimate D2E/DX2                !
 ! D107  D(9,13,15,43)          -5.3129         estimate D2E/DX2                !
 ! D108  D(14,13,15,16)        -59.8525         estimate D2E/DX2                !
 ! D109  D(14,13,15,43)        118.6527         estimate D2E/DX2                !
 ! D110  D(39,13,15,16)         56.994          estimate D2E/DX2                !
 ! D111  D(39,13,15,43)       -124.5008         estimate D2E/DX2                !
 --------------------------------------------------------------------------------
 Trust Radius=3.00D-01 FncErr=1.00D-07 GrdErr=1.00D-06 EigMax=2.50D+02 EigMin=1.00D-04
 Number of steps in this run=    242 maximum allowed number of steps=    258.
 GradGradGradGradGradGradGradGradGradGradGradGradGradGradGradGradGradGrad

                          Input orientation:                          
 ---------------------------------------------------------------------
 Center     Atomic      Atomic             Coordinates (Angstroms)
 Number     Number       Type             X           Y           Z
 ---------------------------------------------------------------------
      1          6           0        0.941720    0.071330    0.057660
      2          6           0        2.455210    0.069820    0.059510
      3          6           0        2.984060   -0.802830    1.185100
      4          6           0        4.501630   -0.771520    1.176730
      5          6           0        5.039480   -1.597650    2.315360
      6          7           0        6.498330   -1.467040    2.312910
      7          6           0        6.992220   -2.342460    3.348860
      8          6           0        8.492590   -2.497590    3.402290
      9          6           0        8.980800   -3.447350    4.534110
     10          6           0        8.470860   -4.908100    4.359060
     11          6           0        6.966890   -5.140860    4.479030
     12          8           0        6.696130   -6.529260    4.407270
     13          6           0       10.541120   -3.425120    4.576410
     14          6           0       11.097390   -2.012150    4.776210
     15          6           0       11.113830   -4.290240    5.692700
     16          8           0       12.311240   -4.466410    5.859370
     17          1           0        0.567700    0.702590   -0.751960
     18          1           0        0.555330    0.457320    1.006260
     19          1           0        0.555150   -0.942690   -0.084330
     20          1           0        2.826120    1.094390    0.181160
     21          1           0        2.828190   -0.299730   -0.902840
     22          1           0        2.626100   -1.833810    1.068180
     23          1           0        2.611040   -0.440510    2.151400
     24          1           0        4.856540    0.259960    1.277820
     25          1           0        4.880510   -1.164670    0.224710
     26          1           0        4.726650   -2.644650    2.175250
     27          1           0        4.628330   -1.263330    3.276190
     28          1           0        6.784320   -0.504260    2.466640
     29          1           0        6.598190   -3.271560    2.998790
     30          1           0        6.587980   -2.091150    4.337120
     31          1           0        8.894290   -1.491580    3.536870
     32          1           0        8.861760   -2.873170    2.439580
     33          1           0        8.609350   -3.070240    5.497670
     34          1           0        8.921890   -5.555520    5.119620
     35          1           0        8.830040   -5.308020    3.403110
     36          1           0        6.393610   -4.777110    3.644520
     37          1           0        6.558320   -4.700990    5.394700
     38          1           0        6.778150   -6.749320    3.458960
     39          1           0       10.923280   -3.834690    3.632100
     40          1           0       10.726800   -1.581190    5.712910
     41          1           0       10.829150   -1.339570    3.958150
     42          1           0       12.190710   -2.016620    4.815710
     43          1           0       10.388270   -4.750040    6.386570
 ---------------------------------------------------------------------
                    Distance matrix (angstroms):
                    1          2          3          4          5
     1  C    0.000000
     2  C    1.513492   0.000000
     3  C    2.491271   1.519261   0.000000
     4  C    3.825660   2.478683   1.517916   0.000000
     5  C    4.967327   3.814153   2.476687   1.506072   0.000000
     6  N    6.191014   4.877148   3.750097   2.400305   1.464687
     7  C    7.298420   6.101096   4.808083   3.659104   2.331535
     8  C    8.648788   7.363133   6.175115   4.884690   3.730319
     9  C    9.851219   8.658860   7.360044   6.204436   4.886537
    10  C    9.999236   8.913690   7.551969   6.556928   5.187500
    11  C    9.111427   8.187710   6.747697   6.006149   4.577195
    12  O    9.777532   8.968627   7.546777   6.957283   5.607259
    13  C   11.171067   9.899441   8.688299   7.421244   6.222543
    14  C   11.390489  10.063257   8.954588   7.615738   6.551783
    15  C   12.419694  11.212255   9.928426   8.746231   7.453469
    16  O   13.546841  12.302727  11.057437   9.826970   8.583023
    17  H    1.092641   2.149785   3.443441   4.622624   5.890363
    18  H    1.094590   2.157785   2.742023   4.136713   5.103356
    19  H    1.094456   2.157799   2.744197   4.146598   5.128031
    20  H    2.147759   1.096411   2.152274   2.698169   4.086668
    21  H    2.149189   1.096266   2.153346   2.710645   4.114755
    22  H    2.736393   2.161117   1.097600   2.158207   2.726836
    23  H    2.726235   2.158871   1.097340   2.152645   2.695028
    24  H    4.104898   2.699411   2.155064   1.095505   2.135573
    25  H    4.131546   2.726415   2.156339   1.097478   2.140925
    26  H    5.117268   4.123608   2.722006   2.134547   1.101682
    27  H    5.072607   4.104482   2.699693   2.160014   1.097273
    28  H    6.345901   4.986485   4.021625   2.635521   2.064668
    29  H    7.198667   6.080170   4.737725   3.737067   2.387180
    30  H    7.407452   6.328312   4.958149   4.010280   2.594014
    31  H    8.819918   7.482764   6.398126   5.038274   4.045108
    32  H    8.778990   7.441089   6.356680   5.002245   4.031403
    33  H    9.912402   8.792440   7.441995   6.389679   5.003957
    34  H   10.998545   9.953246   8.563080   7.613917   6.213028
    35  H   10.117066   8.985504   7.706607   6.653701   5.414646
    36  H    8.129947   7.201113   5.785212   5.070930   3.702607
    37  H    9.099738   8.249872   6.759565   6.120619   4.628167
    38  H    9.599689   8.760408   7.411228   6.791554   5.556123
    39  H   11.298901   9.985830   8.843710   7.526582   6.430961
    40  H   11.421929  10.154111   9.003162   7.745014   6.624894
    41  H   10.722207   9.343910   8.338065   6.935163   6.023757
    42  H   12.391059  11.034248   9.970808   8.597348   7.587317
    43  H   12.350628  11.233707   9.872086   8.810425   7.424410
                    6          7          8          9         10
     6  N    0.000000
     7  C    1.443426   0.000000
     8  C    2.495166   1.509314   0.000000
     9  C    3.875308   2.565161   1.556088   0.000000
    10  C    4.463014   3.128800   2.593538   1.557072   0.000000
    11  C    4.290522   3.018107   3.236357   2.631890   1.526596
    12  O    5.481928   4.328648   4.526767   3.838486   2.404194
    13  C    5.030076   3.908161   2.536798   1.561052   2.555865
    14  C    5.245602   4.358767   2.984676   2.568728   3.931819
    15  C    6.379364   5.125924   3.915415   2.569555   3.024175
    16  O    7.440667   6.253463   4.949301   3.726477   4.146630
    17  H    7.019480   8.207528   9.502780  10.767766  10.957295
    18  H    6.381986   7.400006   8.801849   9.933817  10.133342
    19  H    6.429859   7.428460   8.807791   9.929496   9.905890
    20  H    4.958872   6.261202   7.442236   8.800890   9.238389
    21  H    5.017329   6.291967   7.446486   8.793324   8.986901
    22  H    4.083875   4.952093   6.348573   7.416090   7.378507
    23  H    4.023788   4.924029   6.355229   7.435875   7.692244
    24  H    2.597964   3.952585   5.033718   6.430948   7.018988
    25  H    2.658825   3.950547   4.992075   6.371337   6.633003
    26  H    2.131799   2.569336   3.963528   4.930146   4.889922
    27  H    2.113364   2.599573   4.058547   5.029543   5.405737
    28  H    1.016055   2.049515   2.786932   4.214349   5.081287
    29  H    1.933053   1.068193   2.085808   2.839884   2.834694
    30  H    2.120136   1.096916   2.160241   2.757475   3.388351
    31  H    2.690596   2.092179   1.091573   2.197045   3.539477
    32  H    2.753007   2.145606   1.097341   2.175065   2.824561
    33  H    4.143592   2.786065   2.175357   1.099379   2.166412
    34  H    5.519686   4.145235   3.533335   2.188761   1.095916
    35  H    4.623693   3.489280   2.830617   2.182655   1.096716
    36  H    3.569414   2.524533   3.108151   3.041905   2.200612
    37  H    4.467601   3.152205   3.544865   2.860181   2.184778
    38  H    5.412413   4.413430   4.584727   4.112252   2.658108
    39  H    5.189047   4.214286   2.783685   2.176438   2.773994
    40  H    5.427061   4.485014   3.342222   2.814363   4.241522
    41  H    4.634551   4.012363   2.666365   2.861969   4.296122
    42  H    6.242534   5.411295   3.988130   3.525593   4.733547
    43  H    6.519542   5.153376   4.192023   2.666380   2.795039
                   11         12         13         14         15
    11  C    0.000000
    12  O    1.416374   0.000000
    13  C    3.965900   4.944516   0.000000
    14  C    5.190200   6.317554   1.531614   0.000000
    15  C    4.403823   5.116797   1.523986   2.455589   0.000000
    16  O    5.560782   6.155762   2.421486   2.944496   1.221722
    17  H   10.122193  10.792357  12.037384  12.198559  13.329773
    18  H    9.192815   9.903969  11.293153  11.464983  12.489354
    19  H    8.919602   9.439061  11.296219  11.657934  12.492633
    20  H    8.631107   9.537139   9.963203   9.958865  11.316247
    21  H    8.338459   9.053467   9.963912  10.176623  11.317117
    22  H    6.435288   7.054213   8.802698   9.249002   9.973053
    23  H    6.817960   7.671361   8.813327   9.020965   9.982919
    24  H    6.623457   7.698770   7.534916   7.506625   8.907815
    25  H    6.185653   7.040533   7.489288   7.751385   8.861285
    26  H    4.069047   4.893972   6.338988   6.910237   7.475058
    27  H    4.685182   5.769329   6.428452   6.682779   7.554033
    28  H    5.057777   6.330438   5.205391   5.119611   6.594374
    29  H    2.412744   3.550495   4.249607   4.998813   5.355919
    30  H    3.076433   4.439982   4.179001   4.531426   5.211229
    31  H    4.233176   5.564865   2.744316   2.580815   4.172105
    32  H    3.590586   4.682814   2.773255   3.346526   4.202701
    33  H    2.832449   4.100512   2.169423   2.798286   2.792643
    34  H    2.098648   2.531723   2.730492   4.172074   2.594987
    35  H    2.157979   2.655812   2.801739   4.229544   3.390250
    36  H    1.075812   1.934770   4.460733   5.572367   5.168420
    37  H    1.094928   2.082446   4.261471   5.311831   4.583687
    38  H    1.913977   0.976957   5.143826   6.544598   5.462123
    39  H    4.251634   5.072513   1.097960   2.158924   2.118940
    40  H    5.322653   6.514169   2.173980   1.095660   2.736632
    41  H    5.444095   6.649545   2.194248   1.092492   3.434554
    42  H    6.096107   7.121878   2.182266   1.094042   2.664232
    43  H    3.936660   4.551390   2.248434   3.254559   1.104223
                   16         17         18         19         20
    16  O    0.000000
    17  H   14.433952   0.000000
    18  H   13.638080   1.775288   0.000000
    19  H   13.636342   1.775622   1.774659   0.000000
    20  H   12.374654   2.474809   2.498627   3.062268   0.000000
    21  H   12.370002   2.477342   3.063279   2.500013   1.765965
    22  H   11.121512   3.739418   3.088883   2.532036   3.066132
    23  H   11.137809   3.729801   2.518608   3.078532   2.506795
    24  H    9.944935   4.765509   4.314291   4.669451   2.453883
    25  H    9.892756   4.800091   4.684960   4.342064   3.053812
    26  H    8.626561   6.088468   5.328102   5.040216   4.644225
    27  H    8.715483   6.048103   4.970166   5.290246   4.287892
    28  H    7.599743   7.103678   6.469750   6.745534   4.842153
    29  H    6.499963   8.138108   7.375017   7.172698   6.420987
    30  H    6.380816   8.363462   7.347258   7.567246   6.447578
    31  H    5.091087   9.619800   8.929751   9.107998   7.400724
    32  H    5.111975   9.579322   9.063297   8.893629   7.567757
    33  H    3.972922  10.860951   9.873382  10.027728   8.891297
    34  H    3.636081  11.976305  11.093841  10.879413  10.284362
    35  H    4.342842  11.029882  10.366044   9.984596   9.349806
    36  H    6.326171   9.126740   8.273161   7.917999   7.693917
    37  H    5.776421  10.142368   9.049998   8.954476   8.642728
    38  H    6.448933  10.575089   9.832339   9.219413   9.374769
    39  H    2.699303  12.126208  11.524356  11.387433  10.088053
    40  H    3.294904  12.256325  11.391527  11.725107  10.008983
    41  H    3.948209  11.474010  10.839458  11.047816   9.178143
    42  H    2.665563  13.171462  12.490571  12.670832  10.901972
    43  H    2.014001  13.309146  12.359249  12.371690  11.395200
                   21         22         23         24         25
    21  H    0.000000
    22  H    2.505826   0.000000
    23  H    3.065184   1.764901   0.000000
    24  H    3.030303   3.066380   2.509197   0.000000
    25  H    2.496299   2.498310   3.063827   1.771775   0.000000
    26  H    4.310155   2.509059   3.055259   3.042862   2.453288
    27  H    4.651163   3.034746   2.451865   2.523088   3.063472
    28  H    5.200595   4.584123   4.185655   2.390327   3.014446
    29  H    6.186064   4.644554   4.962890   4.297292   3.883932
    30  H    6.693459   5.142829   4.828875   4.229057   4.548157
    31  H    7.611117   6.745499   6.519471   4.947183   5.214183
    32  H    7.361952   6.468730   6.713597   5.216127   4.865693
    33  H    9.058922   7.546418   7.354776   6.555986   6.733465
    34  H   10.051196   8.360757   8.648727   8.068848   7.718320
    35  H    8.924482   7.484043   7.995961   7.162958   6.547394
    36  H    7.310105   5.430900   5.945027   5.773727   5.199451
    37  H    8.540724   6.511670   6.652195   6.667517   6.484551
    38  H    8.730675   6.864225   7.673044   7.588146   6.726792
    39  H    9.929356   8.911813   9.099795   7.688571   7.433329
    40  H   10.382597   9.341235   8.935942   7.584182   8.029504
    41  H    9.419440   8.711270   8.462268   6.739046   7.025346
    42  H   11.104337  10.274199  10.067410   8.455148   8.674222
    43  H   11.405944   9.850937   9.848554   9.044306   9.008819
                   26         27         28         29         30
    26  H    0.000000
    27  H    1.769119   0.000000
    28  H    2.983318   2.424840   0.000000
    29  H    2.138667   2.826710   2.824142   0.000000
    30  H    2.905958   2.377201   2.460785   1.784545   0.000000
    31  H    4.533520   4.280008   2.563624   2.954646   2.513752
    32  H    4.149847   4.605804   3.150908   2.365413   3.063052
    33  H    5.127861   4.903919   4.370598   3.213984   2.528128
    34  H    5.894278   6.344745   6.092843   3.887670   4.249859
    35  H    5.043708   5.833523   5.304532   3.048245   4.030814
    36  H    3.079756   3.949497   4.449416   1.650909   2.780621
    37  H    4.236556   4.475539   5.122222   2.790205   2.816136
    38  H    4.764964   5.895016   6.323410   3.512685   4.744036
    39  H    6.475865   6.809182   5.438846   4.407335   4.725655
    40  H    7.046118   6.574951   5.219310   5.221994   4.391206
    41  H    6.490183   6.238674   4.391241   4.749103   4.323889
    42  H    7.942206   7.754170   6.085591   6.012683   5.623628
    43  H    7.363547   7.416773   6.810356   5.294116   5.070714
                   31         32         33         34         35
    31  H    0.000000
    32  H    1.764623   0.000000
    33  H    2.533396   3.074811   0.000000
    34  H    4.361361   3.792259   2.533223   0.000000
    35  H    3.819324   2.618757   3.073035   1.736692   0.000000
    36  H    4.130339   3.341950   3.355156   3.028868   2.505262
    37  H    4.382762   4.168872   2.622341   2.528310   3.081498
    38  H    5.668152   4.517201   4.587511   2.962865   2.508130
    39  H    3.100973   2.568363   3.069040   3.029775   2.569979
    40  H    2.846274   3.982747   2.597536   4.405110   4.777252
    41  H    1.986018   2.920378   3.208248   4.770837   4.478069
    42  H    3.574561   4.178706   3.794908   4.827148   4.911502
    43  H    4.579337   4.629428   2.603157   2.098626   3.411811
                   36         37         38         39         40
    36  H    0.000000
    37  H    1.759561   0.000000
    38  H    2.017899   2.826848   0.000000
    39  H    4.626686   4.786451   5.070222   0.000000
    40  H    5.767901   5.216381   6.883436   3.073538   0.000000
    41  H    5.620415   5.621638   6.776812   2.518093   1.774271
    42  H    6.526742   6.266170   7.316763   2.512507   1.771327
    43  H    4.845295   3.956606   5.059742   2.951475   3.257304
                   41         42         43
    41  H    0.000000
    42  H    1.745752   0.000000
    43  H    4.209858   3.631525   0.000000
 Stoichiometry    C13H27NO2
 Framework group  C1[X(C13H27NO2)]
 Deg. of freedom   123
 Full point group                 C1      NOp   1
 Largest Abelian subgroup         C1      NOp   1
 Largest concise Abelian subgroup C1      NOp   1
                         Standard orientation:                         
 ---------------------------------------------------------------------
 Center     Atomic      Atomic             Coordinates (Angstroms)
 Number     Number       Type             X           Y           Z
 ---------------------------------------------------------------------
      1          6           0        7.398377    0.160407    0.202649
      2          6           0        6.182106   -0.579640   -0.310841
      3          6           0        4.908797    0.068690    0.205402
      4          6           0        3.706498   -0.703020   -0.307442
      5          6           0        2.437832   -0.097321    0.232805
      6          7           0        1.318013   -0.924890   -0.221554
      7          6           0        0.112671   -0.269508    0.226895
      8          6           0       -1.175509   -0.863755   -0.288364
      9          6           0       -2.448593   -0.128287    0.221297
     10          6           0       -2.519036    1.354317   -0.249229
     11          6           0       -1.455853    2.308241    0.289442
     12          8           0       -1.737761    3.625746   -0.147391
     13          6           0       -3.711843   -0.906086   -0.264614
     14          6           0       -3.708208   -2.366833    0.195872
     15          6           0       -5.013222   -0.287020    0.231072
     16          8           0       -6.118037   -0.698968   -0.088751
     17          1           0        8.310503   -0.312128   -0.169644
     18          1           0        7.422913    0.149450    1.296909
     19          1           0        7.384986    1.202716   -0.130889
     20          1           0        6.221405   -1.626182    0.013692
     21          1           0        6.180918   -0.578171   -1.407105
     22          1           0        4.854485    1.115061   -0.121530
     23          1           0        4.905442    0.074013    1.302724
     24          1           0        3.770685   -1.750527    0.006787
     25          1           0        3.686810   -0.682697   -1.404556
     26          1           0        2.351754    0.937499   -0.135219
     27          1           0        2.456853   -0.049980    1.328892
     28          1           0        1.387137   -1.872187    0.139304
     29          1           0        0.232905    0.674447   -0.258417
     30          1           0        0.081800   -0.150304    1.316878
     31          1           0       -1.173946   -1.907614    0.030832
     32          1           0       -1.175786   -0.855280   -1.385672
     33          1           0       -2.446289   -0.136843    1.320641
     34          1           0       -3.476748    1.796203    0.048357
     35          1           0       -2.523710    1.389573   -1.345368
     36          1           0       -0.474920    2.160092   -0.126724
     37          1           0       -1.377817    2.257206    1.380392
     38          1           0       -1.454533    3.643089   -1.082231
     39          1           0       -3.743980   -0.872168   -1.361578
     40          1           0       -3.673684   -2.425886    1.289394
     41          1           0       -2.861299   -2.927931   -0.205939
     42          1           0       -4.605559   -2.893216   -0.142671
     43          1           0       -4.924134    0.560658    0.933079
 ---------------------------------------------------------------------
 Rotational constants (GHZ):           0.9701855           0.1393174           0.1239264
 Standard basis: 6-31G(2df,p) (6D, 7F)
 There are   631 symmetry adapted cartesian basis functions of A   symmetry.
 There are   583 symmetry adapted basis functions of A   symmetry.
   583 basis functions,   893 primitive gaussians,   631 cartesian basis functions
    64 alpha electrons       64 beta electrons
       nuclear repulsion energy      1112.1819329352 Hartrees.
 NAtoms=   43 NActive=   43 NUniq=   43 SFac= 1.00D+00 NAtFMM=   60 NAOKFM=F Big=F
 Integral buffers will be    131072 words long.
 Raffenetti 2 integral format.
 Two-electron integral symmetry is turned on.
 One-electron integrals computed using PRISM.
 PrsmSu:  requested number of processors reduced to:  12 ShMem   1 Linda.
 NBasis=   583 RedAO= T EigKep=  2.91D-04  NBF=   583
 NBsUse=   583 1.00D-06 EigRej= -1.00D+00 NBFU=   583
 ExpMin= 1.61D-01 ExpMax= 5.48D+03 ExpMxC= 8.25D+02 IAcc=3 IRadAn=         5 AccDes= 0.00D+00
 Harris functional with IExCor=  402 and IRadAn=       5 diagonalized for initial guess.
 HarFok:  IExCor=  402 AccDes= 0.00D+00 IRadAn=         5 IDoV= 1 UseB2=F ITyADJ=14
 ICtDFT=  3500011 ScaDFX=  1.000000  1.000000  1.000000  1.000000
 FoFCou: FMM=F IPFlag=           0 FMFlag=      100000 FMFlg1=           0
         NFxFlg=           0 DoJE=T BraDBF=F KetDBF=T FulRan=T
         wScrn=  0.000000 ICntrl=       500 IOpCl=  0 I1Cent=   200000004 NGrid=           0
         NMat0=    1 NMatS0=      1 NMatT0=    0 NMatD0=    1 NMtDS0=    0 NMtDT0=    0
 Petite list used in FoFCou.
 Requested convergence on RMS density matrix=1.00D-08 within 128 cycles.
 Requested convergence on MAX density matrix=1.00D-06.
 Requested convergence on             energy=1.00D-06.
 No special actions if energy rises.
 Integral accuracy reduced to 1.0D-05 until final iterations.
 Initial convergence to 1.0D-05 achieved.  Increase integral accuracy.
 SCF Done:  E(RB3LYP) =  -716.848806316     A.U. after   13 cycles
            NFock= 13  Conv=0.52D-08     -V/T= 2.0076

 **********************************************************************

            Population analysis using the SCF density.

 **********************************************************************

 Orbital symmetries:
       Occupied  (A) (A) (A) (A) (A) (A) (A) (A) (A) (A) (A) (A)
                 (A) (A) (A) (A) (A) (A) (A) (A) (A) (A) (A) (A)
                 (A) (A) (A) (A) (A) (A) (A) (A) (A) (A) (A) (A)
                 (A) (A) (A) (A) (A) (A) (A) (A) (A) (A) (A) (A)
                 (A) (A) (A) (A) (A) (A) (A) (A) (A) (A) (A) (A)
                 (A) (A) (A) (A)
       Virtual   (A) (A) (A) (A) (A) (A) (A) (A) (A) (A) (A) (A)
                 (A) (A) (A) (A) (A) (A) (A) (A) (A) (A) (A) (A)
                 (A) (A) (A) (A) (A) (A) (A) (A) (A) (A) (A) (A)
                 (A) (A) (A) (A) (A) (A) (A) (A) (A) (A) (A) (A)
                 (A) (A) (A) (A) (A) (A) (A) (A) (A) (A) (A) (A)
                 (A) (A) (A) (A) (A) (A) (A) (A) (A) (A) (A) (A)
                 (A) (A) (A) (A) (A) (A) (A) (A) (A) (A) (A) (A)
                 (A) (A) (A) (A) (A) (A) (A) (A) (A) (A) (A) (A)
                 (A) (A) (A) (A) (A) (A) (A) (A) (A) (A) (A) (A)
                 (A) (A) (A) (A) (A) (A) (A) (A) (A) (A) (A) (A)
                 (A) (A) (A) (A) (A) (A) (A) (A) (A) (A) (A) (A)
                 (A) (A) (A) (A) (A) (A) (A) (A) (A) (A) (A) (A)
                 (A) (A) (A) (A) (A) (A) (A) (A) (A) (A) (A) (A)
                 (A) (A) (A) (A) (A) (A) (A) (A) (A) (A) (A) (A)
                 (A) (A) (A) (A) (A) (A) (A) (A) (A) (A) (A) (A)
                 (A) (A) (A) (A) (A) (A) (A) (A) (A) (A) (A) (A)
                 (A) (A) (A) (A) (A) (A) (A) (A) (A) (A) (A) (A)
                 (A) (A) (A) (A) (A) (A) (A) (A) (A) (A) (A) (A)
                 (A) (A) (A) (A) (A) (A) (A) (A) (A) (A) (A) (A)
                 (A) (A) (A) (A) (A) (A) (A) (A) (A) (A) (A) (A)
                 (A) (A) (A) (A) (A) (A) (A) (A) (A) (A) (A) (A)
                 (A) (A) (A) (A) (A) (A) (A) (A) (A) (A) (A) (A)
                 (A) (A) (A) (A) (A) (A) (A) (A) (A) (A) (A) (A)
                 (A) (A) (A) (A) (A) (A) (A) (A) (A) (A) (A) (A)
                 (A) (A) (A) (A) (A) (A) (A) (A) (A) (A) (A) (A)
                 (A) (A) (A) (A) (A) (A) (A) (A) (A) (A) (A) (A)
                 (A) (A) (A) (A) (A) (A) (A) (A) (A) (A) (A) (A)
                 (A) (A) (A) (A) (A) (A) (A) (A) (A) (A) (A) (A)
                 (A) (A) (A) (A) (A) (A) (A) (A) (A) (A) (A) (A)
                 (A) (A) (A) (A) (A) (A) (A) (A) (A) (A) (A) (A)
                 (A) (A) (A) (A) (A) (A) (A) (A) (A) (A) (A) (A)
                 (A) (A) (A) (A) (A) (A) (A) (A) (A) (A) (A) (A)
                 (A) (A) (A) (A) (A) (A) (A) (A) (A) (A) (A) (A)
                 (A) (A) (A) (A) (A) (A) (A) (A) (A) (A) (A) (A)
                 (A) (A) (A) (A) (A) (A) (A) (A) (A) (A) (A) (A)
                 (A) (A) (A) (A) (A) (A) (A) (A) (A) (A) (A) (A)
                 (A) (A) (A) (A) (A) (A) (A) (A) (A) (A) (A) (A)
                 (A) (A) (A) (A) (A) (A) (A) (A) (A) (A) (A) (A)
                 (A) (A) (A) (A) (A) (A) (A) (A) (A) (A) (A) (A)
                 (A) (A) (A) (A) (A) (A) (A) (A) (A) (A) (A) (A)
                 (A) (A) (A) (A) (A) (A) (A) (A) (A) (A) (A) (A)
                 (A) (A) (A) (A) (A) (A) (A) (A) (A) (A) (A) (A)
                 (A) (A) (A) (A) (A) (A) (A) (A) (A) (A) (A) (A)
                 (A) (A) (A)
 The electronic state is 1-A.
 Alpha  occ. eigenvalues --  -19.13725 -19.13276 -14.30876 -10.26897 -10.22524
 Alpha  occ. eigenvalues --  -10.20224 -10.20063 -10.20018 -10.19372 -10.18713
 Alpha  occ. eigenvalues --  -10.18267 -10.18238 -10.17475 -10.17427 -10.17246
 Alpha  occ. eigenvalues --  -10.16869  -1.03508  -1.01664  -0.90967  -0.83244
 Alpha  occ. eigenvalues --   -0.80544  -0.76759  -0.75195  -0.72617  -0.68153
 Alpha  occ. eigenvalues --   -0.66108  -0.63888  -0.61023  -0.59732  -0.57975
 Alpha  occ. eigenvalues --   -0.57313  -0.56577  -0.51379  -0.50211  -0.48260
 Alpha  occ. eigenvalues --   -0.47319  -0.46451  -0.45474  -0.45202  -0.43963
 Alpha  occ. eigenvalues --   -0.43582  -0.42651  -0.41750  -0.41355  -0.41020
 Alpha  occ. eigenvalues --   -0.39485  -0.38748  -0.38395  -0.37502  -0.36851
 Alpha  occ. eigenvalues --   -0.36057  -0.35616  -0.34915  -0.34132  -0.33739
 Alpha  occ. eigenvalues --   -0.33604  -0.33441  -0.33048  -0.32601  -0.30363
 Alpha  occ. eigenvalues --   -0.29812  -0.26338  -0.24666  -0.22430
 Alpha virt. eigenvalues --   -0.02901   0.05417   0.07693   0.08690   0.09101
 Alpha virt. eigenvalues --    0.09509   0.09842   0.11551   0.11778   0.12121
 Alpha virt. eigenvalues --    0.12730   0.13415   0.14244   0.15324   0.15846
 Alpha virt. eigenvalues --    0.16112   0.16865   0.17108   0.17454   0.18089
 Alpha virt. eigenvalues --    0.18427   0.18740   0.19349   0.19601   0.20182
 Alpha virt. eigenvalues --    0.20533   0.20589   0.21627   0.21873   0.22606
 Alpha virt. eigenvalues --    0.22745   0.23546   0.24615   0.24731   0.25969
 Alpha virt. eigenvalues --    0.26170   0.27951   0.28515   0.28637   0.29933
 Alpha virt. eigenvalues --    0.30436   0.34623   0.35960   0.41874   0.42941
 Alpha virt. eigenvalues --    0.45843   0.46358   0.47127   0.47574   0.48911
 Alpha virt. eigenvalues --    0.50051   0.50521   0.50928   0.51673   0.52151
 Alpha virt. eigenvalues --    0.52345   0.52716   0.54159   0.55228   0.55825
 Alpha virt. eigenvalues --    0.56678   0.57415   0.57540   0.58843   0.58919
 Alpha virt. eigenvalues --    0.59747   0.60493   0.61156   0.62195   0.63188
 Alpha virt. eigenvalues --    0.63907   0.64644   0.65482   0.66428   0.66742
 Alpha virt. eigenvalues --    0.67663   0.68024   0.69679   0.70029   0.70833
 Alpha virt. eigenvalues --    0.71765   0.72739   0.72817   0.73200   0.73653
 Alpha virt. eigenvalues --    0.73818   0.74632   0.74878   0.75473   0.75968
 Alpha virt. eigenvalues --    0.75984   0.76969   0.77177   0.77884   0.78544
 Alpha virt. eigenvalues --    0.78965   0.79138   0.79387   0.79548   0.80677
 Alpha virt. eigenvalues --    0.81302   0.82009   0.82125   0.82932   0.83431
 Alpha virt. eigenvalues --    0.84447   0.85827   0.86118   0.86823   0.87514
 Alpha virt. eigenvalues --    0.87817   0.87992   0.89407   0.90013   0.90805
 Alpha virt. eigenvalues --    0.91676   0.92029   0.93683   0.95152   0.95955
 Alpha virt. eigenvalues --    0.96978   0.98371   1.00392   1.00881   1.01875
 Alpha virt. eigenvalues --    1.04097   1.04992   1.05656   1.08484   1.09544
 Alpha virt. eigenvalues --    1.10698   1.12077   1.14496   1.15156   1.16592
 Alpha virt. eigenvalues --    1.17733   1.18958   1.19128   1.19935   1.20772
 Alpha virt. eigenvalues --    1.21194   1.22470   1.23329   1.23938   1.24521
 Alpha virt. eigenvalues --    1.27645   1.28281   1.30083   1.31140   1.32054
 Alpha virt. eigenvalues --    1.32552   1.33720   1.34494   1.34932   1.36892
 Alpha virt. eigenvalues --    1.38365   1.38737   1.39595   1.40702   1.42224
 Alpha virt. eigenvalues --    1.44151   1.45453   1.47196   1.47682   1.48321
 Alpha virt. eigenvalues --    1.49160   1.51722   1.53106   1.53369   1.53973
 Alpha virt. eigenvalues --    1.54976   1.55476   1.56780   1.59293   1.60306
 Alpha virt. eigenvalues --    1.60691   1.62124   1.62932   1.64320   1.64990
 Alpha virt. eigenvalues --    1.65948   1.66454   1.67527   1.68493   1.69593
 Alpha virt. eigenvalues --    1.71627   1.72305   1.73948   1.74652   1.77568
 Alpha virt. eigenvalues --    1.78426   1.79814   1.80993   1.82719   1.84274
 Alpha virt. eigenvalues --    1.84894   1.85240   1.88880   1.89220   1.89852
 Alpha virt. eigenvalues --    1.90736   1.92147   1.93046   1.93495   1.94231
 Alpha virt. eigenvalues --    1.95336   1.95699   1.97048   1.99313   2.01549
 Alpha virt. eigenvalues --    2.03075   2.03770   2.07740   2.10502   2.13763
 Alpha virt. eigenvalues --    2.14095   2.15895   2.17771   2.18481   2.19773
 Alpha virt. eigenvalues --    2.20362   2.20785   2.23745   2.24044   2.24485
 Alpha virt. eigenvalues --    2.26566   2.27813   2.29862   2.32393   2.32835
 Alpha virt. eigenvalues --    2.34701   2.35431   2.37118   2.38070   2.41861
 Alpha virt. eigenvalues --    2.42760   2.43762   2.45206   2.45878   2.46200
 Alpha virt. eigenvalues --    2.49737   2.50929   2.52623   2.56204   2.56671
 Alpha virt. eigenvalues --    2.58273   2.59073   2.61647   2.64392   2.65890
 Alpha virt. eigenvalues --    2.67421   2.69803   2.71882   2.73046   2.73922
 Alpha virt. eigenvalues --    2.74203   2.74792   2.75525   2.76003   2.77023
 Alpha virt. eigenvalues --    2.77676   2.78396   2.79512   2.79768   2.80922
 Alpha virt. eigenvalues --    2.81272   2.82380   2.83249   2.83401   2.84123
 Alpha virt. eigenvalues --    2.84214   2.84868   2.85452   2.86505   2.87853
 Alpha virt. eigenvalues --    2.88017   2.90431   2.91004   2.91410   2.91608
 Alpha virt. eigenvalues --    2.92675   2.93417   2.94052   2.94575   2.95418
 Alpha virt. eigenvalues --    2.96392   2.97526   2.97785   2.98690   2.98771
 Alpha virt. eigenvalues --    3.00093   3.00312   3.02081   3.02405   3.03448
 Alpha virt. eigenvalues --    3.04886   3.06425   3.07969   3.08393   3.09744
 Alpha virt. eigenvalues --    3.10309   3.11637   3.12615   3.16461   3.17742
 Alpha virt. eigenvalues --    3.19345   3.21048   3.22633   3.23260   3.25564
 Alpha virt. eigenvalues --    3.26355   3.27424   3.28874   3.30824   3.32604
 Alpha virt. eigenvalues --    3.33783   3.34225   3.34380   3.37189   3.37846
 Alpha virt. eigenvalues --    3.38764   3.39793   3.40384   3.41699   3.43695
 Alpha virt. eigenvalues --    3.44743   3.47195   3.47588   3.48320   3.49032
 Alpha virt. eigenvalues --    3.52154   3.53194   3.53848   3.55022   3.57148
 Alpha virt. eigenvalues --    3.57554   3.58519   3.59321   3.60441   3.61781
 Alpha virt. eigenvalues --    3.62417   3.63295   3.63673   3.65638   3.67061
 Alpha virt. eigenvalues --    3.68144   3.70273   3.70694   3.71812   3.72955
 Alpha virt. eigenvalues --    3.74337   3.75524   3.76794   3.77882   3.78405
 Alpha virt. eigenvalues --    3.79528   3.81259   3.82095   3.84795   3.86590
 Alpha virt. eigenvalues --    3.87662   3.89587   3.90241   3.94137   3.95811
 Alpha virt. eigenvalues --    3.97878   3.98868   4.02852   4.05434   4.07016
 Alpha virt. eigenvalues --    4.11030   4.11179   4.12625   4.13611   4.14984
 Alpha virt. eigenvalues --    4.16078   4.18720   4.21305   4.22892   4.24559
 Alpha virt. eigenvalues --    4.28611   4.31130   4.33921   4.36632   4.36861
 Alpha virt. eigenvalues --    4.38866   4.39684   4.40484   4.40561   4.42493
 Alpha virt. eigenvalues --    4.43880   4.44812   4.45336   4.46094   4.46729
 Alpha virt. eigenvalues --    4.47113   4.48233   4.49884   4.50454   4.51070
 Alpha virt. eigenvalues --    4.51150   4.53349   4.54351   4.54863   4.55501
 Alpha virt. eigenvalues --    4.56110   4.57418   4.58329   4.59030   4.59200
 Alpha virt. eigenvalues --    4.60222   4.61472   4.62171   4.62888   4.63659
 Alpha virt. eigenvalues --    4.63773   4.64159   4.65035   4.66055   4.66429
 Alpha virt. eigenvalues --    4.67278   4.68384   4.68783   4.71396   4.71565
 Alpha virt. eigenvalues --    4.72552   4.73228   4.73754   4.74606   4.75875
 Alpha virt. eigenvalues --    4.76374   4.76980   4.77385   4.78148   4.78466
 Alpha virt. eigenvalues --    4.79764   4.81630   4.82201   4.82703   4.83907
 Alpha virt. eigenvalues --    4.84715   4.85084   4.86520   4.87783   4.88395
 Alpha virt. eigenvalues --    4.88726   4.89244   4.91845   4.92078   4.92888
 Alpha virt. eigenvalues --    4.95463   4.95988   4.96063   4.97708   4.98734
 Alpha virt. eigenvalues --    5.00270   5.00455   5.03713   5.06221   5.08764
 Alpha virt. eigenvalues --    5.09032   5.09734   5.10866   5.14652   5.18155
 Alpha virt. eigenvalues --    5.20998   5.23704   5.26401   5.27068   5.28096
 Alpha virt. eigenvalues --    5.30555   5.32463   5.35882   5.37339   5.40273
 Alpha virt. eigenvalues --    5.42399   5.43269   5.44886   5.46577   5.49051
 Alpha virt. eigenvalues --    5.49361   5.50269   5.52273   5.52981   5.55833
 Alpha virt. eigenvalues --    5.59047   5.61983   5.63383   5.68282   5.79152
 Alpha virt. eigenvalues --    5.85118   5.96800   5.98876   6.00953   6.02389
 Alpha virt. eigenvalues --    6.07950   6.18132   6.27659   6.42783   6.45053
 Alpha virt. eigenvalues --    6.84486   7.02727  10.92086  11.02293  11.24036
 Alpha virt. eigenvalues --   11.38461  11.57500  11.67577  11.79370  11.87680
 Alpha virt. eigenvalues --   12.01449  12.14698  12.36287  12.42065  12.68582
 Alpha virt. eigenvalues --   12.75405  13.00743  13.20425  15.49366
          Condensed to atoms (all electrons):
               1          2          3          4          5          6
     1  C    4.959049   0.404345  -0.039023   0.002135  -0.000198   0.000001
     2  C    0.404345   4.764317   0.435900  -0.034434   0.001842  -0.000081
     3  C   -0.039023   0.435900   4.804993   0.398577  -0.041702   0.003121
     4  C    0.002135  -0.034434   0.398577   4.825348   0.431561  -0.040831
     5  C   -0.000198   0.001842  -0.041702   0.431561   4.822971   0.382979
     6  N    0.000001  -0.000081   0.003121  -0.040831   0.382979   6.419300
     7  C   -0.000000   0.000000  -0.000266   0.002129  -0.061448   0.379286
     8  C    0.000000  -0.000000   0.000002  -0.000264   0.002675  -0.031190
     9  C    0.000000   0.000000   0.000000   0.000001  -0.000182   0.001978
    10  C   -0.000000   0.000000  -0.000000   0.000000   0.000022   0.000020
    11  C    0.000000  -0.000000   0.000000  -0.000001  -0.000030   0.000246
    12  O   -0.000000   0.000000   0.000000   0.000000   0.000001  -0.000002
    13  C    0.000000  -0.000000   0.000000  -0.000000   0.000000  -0.000037
    14  C    0.000000   0.000000   0.000000   0.000000   0.000000   0.000005
    15  C    0.000000   0.000000   0.000000   0.000000  -0.000000   0.000000
    16  O    0.000000   0.000000   0.000000  -0.000000   0.000000  -0.000000
    17  H    0.370079  -0.022105   0.003687  -0.000188   0.000001  -0.000000
    18  H    0.379015  -0.029103  -0.004817   0.000231   0.000008   0.000000
    19  H    0.379077  -0.029021  -0.004744   0.000209   0.000008   0.000000
    20  H   -0.036131   0.371568  -0.033457  -0.003260   0.000257   0.000007
    21  H   -0.036300   0.371146  -0.033340  -0.001670   0.000260   0.000002
    22  H   -0.002337  -0.034932   0.366381  -0.031983  -0.002555   0.000131
    23  H   -0.002850  -0.035124   0.365592  -0.032498  -0.002753   0.000091
    24  H    0.000170  -0.004193  -0.032452   0.366525  -0.036455  -0.003077
    25  H    0.000114  -0.003337  -0.030251   0.360693  -0.026866   0.004054
    26  H    0.000007  -0.000006  -0.005680  -0.019186   0.355324  -0.020253
    27  H    0.000017   0.000111   0.002270  -0.042884   0.356457  -0.044745
    28  H    0.000000   0.000008  -0.000344   0.001401  -0.047652   0.337633
    29  H   -0.000000   0.000000  -0.000010   0.001019  -0.008989  -0.022042
    30  H    0.000000   0.000000   0.000078   0.000171  -0.002207  -0.049931
    31  H   -0.000000   0.000000  -0.000000   0.000018   0.000123  -0.003177
    32  H    0.000000   0.000000   0.000000   0.000010   0.000174   0.003089
    33  H    0.000000   0.000000   0.000000   0.000000   0.000006   0.000013
    34  H   -0.000000   0.000000  -0.000000   0.000000  -0.000000   0.000002
    35  H    0.000000  -0.000000  -0.000000   0.000000  -0.000001  -0.000013
    36  H   -0.000000   0.000000  -0.000001   0.000006   0.000120   0.000431
    37  H    0.000000  -0.000000   0.000000   0.000000  -0.000014  -0.000046
    38  H   -0.000000   0.000000  -0.000000   0.000000   0.000000  -0.000002
    39  H   -0.000000   0.000000  -0.000000   0.000000   0.000000   0.000000
    40  H   -0.000000   0.000000  -0.000000   0.000000  -0.000000   0.000000
    41  H    0.000000   0.000000   0.000000   0.000000   0.000000   0.000007
    42  H    0.000000  -0.000000   0.000000  -0.000000  -0.000000  -0.000000
    43  H    0.000000   0.000000   0.000000   0.000000   0.000000   0.000000
               7          8          9         10         11         12
     1  C   -0.000000   0.000000   0.000000  -0.000000   0.000000  -0.000000
     2  C    0.000000  -0.000000   0.000000   0.000000  -0.000000   0.000000
     3  C   -0.000266   0.000002   0.000000  -0.000000   0.000000   0.000000
     4  C    0.002129  -0.000264   0.000001   0.000000  -0.000001   0.000000
     5  C   -0.061448   0.002675  -0.000182   0.000022  -0.000030   0.000001
     6  N    0.379286  -0.031190   0.001978   0.000020   0.000246  -0.000002
     7  C    4.842372   0.416370  -0.033230   0.003921  -0.014843   0.000173
     8  C    0.416370   4.947686   0.364824  -0.024006  -0.001059   0.000001
     9  C   -0.033230   0.364824   4.924480   0.296573  -0.016660   0.003843
    10  C    0.003921  -0.024006   0.296573   5.042454   0.390195  -0.054227
    11  C   -0.014843  -0.001059  -0.016660   0.390195   4.790256   0.340853
    12  O    0.000173   0.000001   0.003843  -0.054227   0.340853   7.856801
    13  C    0.001401  -0.025711   0.309067  -0.011629   0.001362  -0.000050
    14  C    0.000660  -0.006332  -0.024260   0.001285  -0.000089   0.000000
    15  C   -0.000030   0.000844   0.000367  -0.004185   0.000052  -0.000004
    16  O    0.000000  -0.000055   0.001835   0.000000  -0.000002  -0.000000
    17  H    0.000000  -0.000000   0.000000   0.000000  -0.000000  -0.000000
    18  H    0.000000  -0.000000  -0.000000   0.000000  -0.000000   0.000000
    19  H    0.000000  -0.000000   0.000000  -0.000000   0.000000   0.000000
    20  H    0.000000   0.000000   0.000000  -0.000000   0.000000  -0.000000
    21  H    0.000000   0.000000  -0.000000   0.000000  -0.000000   0.000000
    22  H    0.000021   0.000000   0.000000   0.000000   0.000000  -0.000000
    23  H    0.000016   0.000000   0.000000  -0.000000   0.000000   0.000000
    24  H    0.000196   0.000014   0.000000   0.000000  -0.000000   0.000000
    25  H    0.000481   0.000010   0.000000  -0.000000   0.000000   0.000000
    26  H   -0.006571   0.000525  -0.000013  -0.000008  -0.000239   0.000000
    27  H   -0.000897   0.000018   0.000066  -0.000002   0.000055   0.000000
    28  H   -0.055176   0.000421  -0.000327   0.000007  -0.000029   0.000000
    29  H    0.338884  -0.016906  -0.006258  -0.000052  -0.008033  -0.000516
    30  H    0.359685  -0.051952   0.004539  -0.001387   0.001491   0.000030
    31  H   -0.037156   0.359418  -0.024655   0.003657  -0.000022   0.000001
    32  H   -0.024158   0.347937  -0.025492  -0.007968  -0.000052   0.000002
    33  H   -0.004596  -0.044600   0.349146  -0.048058  -0.005141   0.000047
    34  H   -0.000022   0.003926  -0.021922   0.350594  -0.033337   0.005007
    35  H   -0.000284  -0.007002  -0.023441   0.348335  -0.035011   0.001134
    36  H   -0.012276  -0.000121   0.001897  -0.040480   0.382928  -0.026093
    37  H   -0.000021   0.000017   0.000240  -0.039079   0.359597  -0.011082
    38  H    0.000041   0.000008  -0.000092  -0.000486  -0.071419   0.312928
    39  H    0.000029  -0.006196  -0.041697  -0.004706   0.000092  -0.000001
    40  H   -0.000071  -0.000785  -0.005598   0.000156   0.000004  -0.000000
    41  H    0.000050  -0.001346  -0.004262   0.000020  -0.000000   0.000000
    42  H   -0.000010   0.000152   0.003989  -0.000098   0.000001  -0.000000
    43  H    0.000016  -0.000092   0.010457  -0.004255   0.000115  -0.000008
              13         14         15         16         17         18
     1  C    0.000000   0.000000   0.000000   0.000000   0.370079   0.379015
     2  C   -0.000000   0.000000   0.000000   0.000000  -0.022105  -0.029103
     3  C    0.000000   0.000000   0.000000   0.000000   0.003687  -0.004817
     4  C   -0.000000   0.000000   0.000000  -0.000000  -0.000188   0.000231
     5  C    0.000000   0.000000  -0.000000   0.000000   0.000001   0.000008
     6  N   -0.000037   0.000005   0.000000  -0.000000  -0.000000   0.000000
     7  C    0.001401   0.000660  -0.000030   0.000000   0.000000   0.000000
     8  C   -0.025711  -0.006332   0.000844  -0.000055  -0.000000  -0.000000
     9  C    0.309067  -0.024260   0.000367   0.001835   0.000000  -0.000000
    10  C   -0.011629   0.001285  -0.004185   0.000000   0.000000   0.000000
    11  C    0.001362  -0.000089   0.000052  -0.000002  -0.000000  -0.000000
    12  O   -0.000050   0.000000  -0.000004  -0.000000  -0.000000   0.000000
    13  C    5.109668   0.372516   0.279922  -0.055585  -0.000000   0.000000
    14  C    0.372516   5.009689  -0.017477  -0.008381  -0.000000  -0.000000
    15  C    0.279922  -0.017477   4.500924   0.742593   0.000000  -0.000000
    16  O   -0.055585  -0.008381   0.742593   7.644525   0.000000   0.000000
    17  H   -0.000000  -0.000000   0.000000   0.000000   0.611636  -0.031755
    18  H    0.000000  -0.000000  -0.000000   0.000000  -0.031755   0.603438
    19  H    0.000000  -0.000000  -0.000000   0.000000  -0.031626  -0.033575
    20  H    0.000000  -0.000000   0.000000   0.000000  -0.002448  -0.004618
    21  H    0.000000   0.000000  -0.000000   0.000000  -0.002394   0.005776
    22  H    0.000000   0.000000   0.000000   0.000000  -0.000061  -0.000426
    23  H    0.000000  -0.000000   0.000000   0.000000  -0.000045   0.005204
    24  H    0.000000   0.000000   0.000000   0.000000   0.000003   0.000007
    25  H    0.000000  -0.000000   0.000000   0.000000   0.000004   0.000008
    26  H    0.000000  -0.000000   0.000000  -0.000000  -0.000000   0.000001
    27  H    0.000000   0.000000   0.000000   0.000000   0.000000  -0.000004
    28  H    0.000003  -0.000008   0.000000  -0.000000   0.000000   0.000000
    29  H   -0.000160  -0.000004  -0.000001  -0.000000   0.000000  -0.000000
    30  H    0.000199  -0.000017   0.000010   0.000000   0.000000  -0.000000
    31  H   -0.008202  -0.000375   0.000100  -0.000002   0.000000  -0.000000
    32  H   -0.002876  -0.000644   0.000129   0.000000   0.000000  -0.000000
    33  H   -0.034790  -0.003800  -0.004177   0.000036   0.000000   0.000000
    34  H   -0.008345   0.000287   0.002002  -0.000162   0.000000   0.000000
    35  H   -0.003612   0.000112  -0.000327   0.000008  -0.000000   0.000000
    36  H   -0.000153   0.000004   0.000000  -0.000000   0.000000   0.000000
    37  H    0.000018   0.000008   0.000004  -0.000000  -0.000000  -0.000000
    38  H    0.000001  -0.000000   0.000001   0.000000  -0.000000   0.000000
    39  H    0.339816  -0.033094  -0.016088  -0.002758   0.000000   0.000000
    40  H   -0.031388   0.372980  -0.001367   0.000198   0.000000   0.000000
    41  H   -0.022602   0.375356   0.002570   0.000221   0.000000  -0.000000
    42  H   -0.027145   0.365447   0.002008   0.008471   0.000000  -0.000000
    43  H   -0.127891   0.004356   0.357416  -0.052709   0.000000   0.000000
              19         20         21         22         23         24
     1  C    0.379077  -0.036131  -0.036300  -0.002337  -0.002850   0.000170
     2  C   -0.029021   0.371568   0.371146  -0.034932  -0.035124  -0.004193
     3  C   -0.004744  -0.033457  -0.033340   0.366381   0.365592  -0.032452
     4  C    0.000209  -0.003260  -0.001670  -0.031983  -0.032498   0.366525
     5  C    0.000008   0.000257   0.000260  -0.002555  -0.002753  -0.036455
     6  N    0.000000   0.000007   0.000002   0.000131   0.000091  -0.003077
     7  C    0.000000   0.000000   0.000000   0.000021   0.000016   0.000196
     8  C   -0.000000   0.000000   0.000000   0.000000   0.000000   0.000014
     9  C    0.000000   0.000000  -0.000000   0.000000   0.000000   0.000000
    10  C   -0.000000  -0.000000   0.000000   0.000000  -0.000000   0.000000
    11  C    0.000000   0.000000  -0.000000   0.000000   0.000000  -0.000000
    12  O    0.000000  -0.000000   0.000000  -0.000000   0.000000   0.000000
    13  C    0.000000   0.000000   0.000000   0.000000   0.000000   0.000000
    14  C   -0.000000  -0.000000   0.000000   0.000000  -0.000000   0.000000
    15  C   -0.000000   0.000000  -0.000000   0.000000   0.000000   0.000000
    16  O    0.000000   0.000000   0.000000   0.000000   0.000000   0.000000
    17  H   -0.031626  -0.002448  -0.002394  -0.000061  -0.000045   0.000003
    18  H   -0.033575  -0.004618   0.005776  -0.000426   0.005204   0.000007
    19  H    0.603008   0.005784  -0.004604   0.005035  -0.000426   0.000011
    20  H    0.005784   0.646807  -0.041776   0.006260  -0.005672   0.005465
    21  H   -0.004604  -0.041776   0.645058  -0.005817   0.006279  -0.000470
    22  H    0.005035   0.006260  -0.005817   0.649088  -0.043732   0.006264
    23  H   -0.000426  -0.005672   0.006279  -0.043732   0.649633  -0.005381
    24  H    0.000011   0.005465  -0.000470   0.006264  -0.005381   0.654226
    25  H    0.000006  -0.000447   0.004864  -0.005785   0.006182  -0.041768
    26  H   -0.000002   0.000007   0.000010   0.004634  -0.000580   0.006404
    27  H    0.000001   0.000011   0.000002  -0.000469   0.005973  -0.006234
    28  H   -0.000000  -0.000004   0.000001   0.000010   0.000005   0.005684
    29  H   -0.000000  -0.000000   0.000000  -0.000016   0.000002   0.000009
    30  H    0.000000   0.000000  -0.000000   0.000001  -0.000002  -0.000030
    31  H    0.000000  -0.000000  -0.000000  -0.000000   0.000000  -0.000005
    32  H   -0.000000   0.000000  -0.000000   0.000000  -0.000000   0.000000
    33  H   -0.000000  -0.000000  -0.000000  -0.000000  -0.000000   0.000000
    34  H    0.000000   0.000000   0.000000  -0.000000  -0.000000  -0.000000
    35  H   -0.000000  -0.000000   0.000000  -0.000000   0.000000   0.000000
    36  H   -0.000000   0.000000  -0.000000   0.000000  -0.000000   0.000000
    37  H   -0.000000  -0.000000  -0.000000  -0.000000   0.000000  -0.000000
    38  H    0.000000  -0.000000   0.000000  -0.000000   0.000000   0.000000
    39  H    0.000000  -0.000000   0.000000  -0.000000   0.000000   0.000000
    40  H    0.000000   0.000000   0.000000  -0.000000   0.000000  -0.000000
    41  H   -0.000000   0.000000   0.000000   0.000000  -0.000000   0.000000
    42  H    0.000000  -0.000000  -0.000000  -0.000000   0.000000  -0.000000
    43  H    0.000000   0.000000   0.000000  -0.000000   0.000000   0.000000
              25         26         27         28         29         30
     1  C    0.000114   0.000007   0.000017   0.000000  -0.000000   0.000000
     2  C   -0.003337  -0.000006   0.000111   0.000008   0.000000   0.000000
     3  C   -0.030251  -0.005680   0.002270  -0.000344  -0.000010   0.000078
     4  C    0.360693  -0.019186  -0.042884   0.001401   0.001019   0.000171
     5  C   -0.026866   0.355324   0.356457  -0.047652  -0.008989  -0.002207
     6  N    0.004054  -0.020253  -0.044745   0.337633  -0.022042  -0.049931
     7  C    0.000481  -0.006571  -0.000897  -0.055176   0.338884   0.359685
     8  C    0.000010   0.000525   0.000018   0.000421  -0.016906  -0.051952
     9  C    0.000000  -0.000013   0.000066  -0.000327  -0.006258   0.004539
    10  C   -0.000000  -0.000008  -0.000002   0.000007  -0.000052  -0.001387
    11  C    0.000000  -0.000239   0.000055  -0.000029  -0.008033   0.001491
    12  O    0.000000   0.000000   0.000000   0.000000  -0.000516   0.000030
    13  C    0.000000   0.000000   0.000000   0.000003  -0.000160   0.000199
    14  C   -0.000000  -0.000000   0.000000  -0.000008  -0.000004  -0.000017
    15  C    0.000000   0.000000   0.000000   0.000000  -0.000001   0.000010
    16  O    0.000000  -0.000000   0.000000  -0.000000  -0.000000   0.000000
    17  H    0.000004  -0.000000   0.000000   0.000000   0.000000   0.000000
    18  H    0.000008   0.000001  -0.000004   0.000000  -0.000000  -0.000000
    19  H    0.000006  -0.000002   0.000001  -0.000000  -0.000000   0.000000
    20  H   -0.000447   0.000007   0.000011  -0.000004  -0.000000   0.000000
    21  H    0.004864   0.000010   0.000002   0.000001   0.000000  -0.000000
    22  H   -0.005785   0.004634  -0.000469   0.000010  -0.000016   0.000001
    23  H    0.006182  -0.000580   0.005973   0.000005   0.000002  -0.000002
    24  H   -0.041768   0.006404  -0.006234   0.005684   0.000009  -0.000030
    25  H    0.631033  -0.007522   0.006905  -0.000458  -0.000053   0.000039
    26  H   -0.007522   0.637124  -0.055631   0.006189   0.006380  -0.002132
    27  H    0.006905  -0.055631   0.696916  -0.006796  -0.002383   0.014945
    28  H   -0.000458   0.006189  -0.006796   0.546937   0.008781  -0.007005
    29  H   -0.000053   0.006380  -0.002383   0.008781   0.654128  -0.054909
    30  H    0.000039  -0.002132   0.014945  -0.007005  -0.054909   0.715392
    31  H    0.000000   0.000009  -0.000024   0.005751   0.006999  -0.005308
    32  H    0.000002  -0.000023   0.000035  -0.000618  -0.009742   0.007359
    33  H   -0.000000   0.000000   0.000001   0.000001  -0.000095   0.006374
    34  H    0.000000   0.000000  -0.000000  -0.000000  -0.000070  -0.000027
    35  H   -0.000000   0.000001  -0.000000   0.000001   0.000640   0.000061
    36  H   -0.000001   0.001024  -0.000055   0.000004   0.011148   0.000094
    37  H    0.000000   0.000000   0.000005   0.000002  -0.000637   0.000871
    38  H    0.000000   0.000001  -0.000000   0.000000  -0.000291   0.000001
    39  H   -0.000000   0.000000  -0.000000   0.000000  -0.000003   0.000010
    40  H    0.000000   0.000000  -0.000000   0.000000   0.000000   0.000008
    41  H    0.000000  -0.000000   0.000000  -0.000006  -0.000002   0.000038
    42  H    0.000000  -0.000000   0.000000   0.000000   0.000000  -0.000000
    43  H   -0.000000   0.000000  -0.000000   0.000000  -0.000000  -0.000001
              31         32         33         34         35         36
     1  C   -0.000000   0.000000   0.000000  -0.000000   0.000000  -0.000000
     2  C    0.000000   0.000000   0.000000   0.000000  -0.000000   0.000000
     3  C   -0.000000   0.000000   0.000000  -0.000000  -0.000000  -0.000001
     4  C    0.000018   0.000010   0.000000   0.000000   0.000000   0.000006
     5  C    0.000123   0.000174   0.000006  -0.000000  -0.000001   0.000120
     6  N   -0.003177   0.003089   0.000013   0.000002  -0.000013   0.000431
     7  C   -0.037156  -0.024158  -0.004596  -0.000022  -0.000284  -0.012276
     8  C    0.359418   0.347937  -0.044600   0.003926  -0.007002  -0.000121
     9  C   -0.024655  -0.025492   0.349146  -0.021922  -0.023441   0.001897
    10  C    0.003657  -0.007968  -0.048058   0.350594   0.348335  -0.040480
    11  C   -0.000022  -0.000052  -0.005141  -0.033337  -0.035011   0.382928
    12  O    0.000001   0.000002   0.000047   0.005007   0.001134  -0.026093
    13  C   -0.008202  -0.002876  -0.034790  -0.008345  -0.003612  -0.000153
    14  C   -0.000375  -0.000644  -0.003800   0.000287   0.000112   0.000004
[...]
 0000005,0.00000105,0.00000083,0.00000103,0.00000038,-0.00000100,0.0000
 0014,0.00000089,0.00000014,0.00000167,-0.00000020,-0.00000094,-0.00000
 005,0.00000200,0.00000207,0.00000347,0.00000169,0.00000381,-0.00000044
 ,0.00000378,-0.00000284,0.00000344,-0.00000410,0.00001764,0.00000827,0
 .00000523,-0.00007753,0.00001086,-0.00008555,-0.00008995,0.00006212,0.
 00001993,0.00029496,-0.00026347,0.00019985,-0.00071218,0.00011080,0.00
 064532,0.00008337,0.00055629,-0.00023891,0.00016524,0.00025907,-0.0000
 3292,-0.00011539,-0.00008130,0.00010041,-0.00004071,-0.00004148,0.0000
 5882,0.00003088,0.00000313,-0.00000356,-0.09240371,0.09168483,0.239541
 95,-0.00000158,-0.00000246,0.00000246,0.00000349,0.00000516,-0.0000028
 5,-0.00000563,-0.00000571,0.00000454,0.00000821,0.00000565,-0.00000416
 ,-0.00004116,-0.00000773,-0.00000303,0.00004847,-0.00001109,0.00003790
 ,-0.00005324,0.00010841,0.00002194,0.00018355,-0.00010809,-0.00017656,
 0.00118443,0.00004165,-0.00118276,0.00003735,-0.00010843,0.00009836,-0
 .00004547,0.00001102,0.00005055,0.00003435,0.00006698,-0.00002198,0.00
 433981,-0.00405834,-0.00935650,-0.09905082,0.05029553,0.09039579,-0.00
 032197,0.00037826,0.00104076,0.00027240,-0.00025206,-0.00023662,0.0000
 0257,-0.00000136,0.00000176,0.00000056,0.00000043,-0.00000106,0.000000
 09,0.00000042,-0.00000037,-0.00000021,-0.00000118,0.00000012,0.0000001
 5,-0.00000040,0.00000029,0.00000064,0.00000019,0.00000016,0.00000085,0
 .00000014,-0.00000063,-0.00000015,-0.00000122,0.00000033,-0.00000062,-
 0.00000019,0.00000055,0.00000308,0.00000105,0.00000020,0.00000900,-0.0
 0000083,-0.00000409,-0.00000600,0.00000871,-0.00001358,0.00003784,0.00
 000794,0.00001514,-0.00002757,-0.00000654,0.00001736,-0.00004125,0.000
 08962,-0.00012510,-0.00000071,-0.00003690,0.00011923,0.00021781,0.0001
 2043,0.00037902,-0.00005251,0.00005748,0.00000647,0.00003635,0.0000321
 4,0.00004121,-0.00002645,-0.00000276,0.00000581,0.00000025,-0.00000447
 ,0.00000044,-0.00000856,-0.00001163,-0.00000413,0.00004901,-0.00239877
 ,-0.00030720,0.10391064,0.00000028,-0.00000002,-0.00000054,-0.00000051
 ,0.00000017,0.00000048,0.00000081,0.00000056,-0.00000205,-0.00000419,0
 .00000105,0.00000186,0.00000300,0.00000632,-0.00001430,-0.00003504,-0.
 00000358,0.00000914,-0.00000201,0.00008229,-0.00009269,-0.00035654,0.0
 0007332,0.00014188,0.00156229,0.00158201,-0.00040047,0.00004302,-0.000
 07043,0.00058170,-0.00005213,0.00004993,-0.00008554,-0.00001450,-0.000
 01815,0.00001639,0.01426926,-0.01497414,-0.02559208,0.04999149,-0.0952
 9783,-0.08718293,0.00076946,0.00075253,-0.00350411,-0.00030373,0.00016
 281,0.00127057,-0.00000025,0.00000016,-0.00000009,-0.00000011,0.000000
 13,0.00000029,-0.00000004,-0.00000009,-0.00000003,0.,-0.00000016,0.000
 00001,-0.00000011,-0.00000014,0.00000009,-0.00000016,-0.00000024,-0.00
 000009,-0.00000012,0.00000042,0.00000040,-0.00000009,-0.00000057,0.000
 00016,-0.00000023,-0.00000094,-0.00000005,0.00000052,-0.00000019,0.000
 00064,-0.00000046,0.00000137,0.00000216,-0.00000145,0.00000453,0.00000
 109,0.00001386,0.00000431,0.00001343,-0.00002072,0.00000049,0.00001071
 ,-0.00013834,0.00004498,-0.00017913,0.00012303,-0.00003675,0.00010189,
 -0.00084467,0.00003758,0.00058066,-0.00003071,0.00015128,-0.00005561,0
 .00008342,0.00015801,0.00003850,-0.00004312,-0.00001418,0.00002914,-0.
 00000587,-0.00001719,0.00003351,0.00001404,0.00000416,-0.00000093,-0.0
 0228081,-0.00572814,0.00051176,-0.05406668,0.10553103,-0.00000117,-0.0
 0000205,0.00000103,0.00000182,0.00000046,-0.00000561,-0.00000389,-0.00
 000271,0.00000138,0.00000191,-0.00000759,-0.00001061,-0.00002260,0.000
 00781,-0.00001772,-0.00002049,-0.00001408,0.00004399,-0.00002832,0.000
 14135,0.00001901,-0.00019619,-0.00050815,-0.00011366,0.00064420,0.0000
 3400,0.00047297,-0.00013257,0.00001930,0.00019676,0.00000595,-0.000028
 19,-0.00004008,-0.00002850,-0.00000418,0.00001423,0.00060964,-0.002672
 00,-0.00293422,0.09047383,-0.08681059,-0.20462253,-0.00088212,0.000901
 12,-0.00008338,0.00019687,-0.00018126,0.00005895,0.00000205,-0.0000014
 6,0.00000111,-0.00000092,0.00000024,0.00000037,0.00000104,0.00000174,0
 .00000015,0.00000056,0.00000198,0.00000003,-0.00000049,0.00000002,0.00
 000289,0.00000291,0.00000250,0.00000119,-0.00000269,-0.00000043,0.0000
 0177,0.00000107,0.00000692,-0.00000039,-0.00000019,0.00000115,0.000006
 48,0.00000892,0.00000628,0.00000409,-0.00000264,-0.00000282,0.00000535
 ,-0.00001115,0.00001362,-0.00004435,0.00007270,0.00001799,0.00002543,-
 0.00006598,-0.00001914,0.00003175,-0.00003888,0.00031569,-0.00037691,0
 .00007382,0.00022929,0.00022305,-0.00058207,-0.00024167,0.00015709,0.0
 0000719,0.00010674,-0.00000458,0.00001143,0.00006780,-0.00001248,-0.00
 003224,-0.00000013,0.00000962,0.00000237,-0.00000576,0.00000342,0.0000
 1428,-0.00000318,-0.00000158,-0.00044327,-0.00052766,0.00096345,-0.100
 04134,0.09825329,0.22123314,-0.00000365,-0.00000678,0.00000598,0.00001
 036,0.00001177,-0.00001024,-0.00001477,-0.00001515,0.00001217,0.000025
 13,0.00001098,-0.00001715,-0.00011618,-0.00002002,-0.00000783,0.000141
 88,-0.00001396,0.00004243,-0.00025825,0.00017552,0.00003284,-0.0010238
 6,-0.00081361,-0.00014612,0.00024744,0.00034907,0.00078194,0.00012545,
 0.00001774,-0.00036250,-0.00003965,0.00002435,0.00008156,0.00005025,0.
 00010452,-0.00002461,0.00201346,-0.00511340,0.00962101,-0.05632404,0.0
 3056961,-0.04729933,-0.00144477,-0.00167566,-0.00081330,0.00110324,-0.
 00043577,0.00036895,0.00000682,-0.00000366,0.00000408,0.00000040,0.000
 00109,-0.00000137,0.00000063,0.00000168,-0.00000088,-0.00000019,-0.000
 00196,0.00000011,-0.00000048,-0.00000042,0.00000279,0.00000271,0.00000
 142,0.00000048,0.00000115,0.00000014,-0.00000009,-0.00000078,-0.000000
 70,0.00000176,-0.00000265,0.00000007,0.00000306,0.00001260,0.00000508,
 -0.00000063,0.00002993,-0.00000367,-0.00001216,-0.00005086,0.00003314,
 -0.00000941,0.00011359,0.00003809,0.00002351,0.00008129,-0.00002176,-0
 .00002986,-0.00266112,-0.00036869,-0.00032808,0.00000839,0.00007427,-0
 .00009132,-0.00002675,-0.00007377,-0.00012807,0.00002303,0.00010151,-0
 .00000918,-0.00002908,-0.00005648,-0.00002415,-0.00002148,-0.00000426,
 0.00000664,0.00000242,0.00000994,-0.00001794,-0.00000539,-0.00002329,-
 0.00000648,0.00029076,0.00055279,-0.00023577,0.00256387,-0.00857024,0.
 01290283,0.06159817,-0.00000262,-0.00000440,0.00000336,0.00000505,0.00
 000796,-0.00000383,-0.00000969,-0.00000950,0.00000520,0.00000769,0.000
 01043,-0.00000161,-0.00007851,-0.00000330,-0.00000977,0.00000035,0.000
 01389,-0.00002850,-0.00012392,0.00051716,-0.00025357,0.00007786,-0.000
 29585,0.00024577,0.00106202,0.00105737,-0.00003197,0.00011117,0.000053
 47,-0.00023938,0.00004227,0.00002933,0.00002885,-0.00003121,0.00002204
 ,-0.00000735,0.00541025,-0.01956428,0.02751265,0.03006283,-0.11830103,
 0.11745343,-0.00387077,-0.00445534,-0.00549013,0.00217426,-0.00100456,
 0.00178992,0.00000394,-0.00000195,0.00000251,0.00000106,0.00000049,-0.
 00000160,0.00000031,0.00000108,-0.00000020,-0.00000009,-0.00000138,0.0
 0000035,0.00000016,-0.00000068,-0.00000034,0.00000094,0.00000077,0.000
 00064,0.00000291,-0.00000007,-0.00000163,0.00000024,-0.00000363,0.0000
 0152,-0.00000169,-0.00000112,-0.00000265,0.00000486,-0.00000153,-0.000
 00078,0.00002200,-0.00000114,-0.00001249,-0.00003042,0.00002189,0.0000
 0907,0.00019359,0.00002912,0.00004482,0.00013518,-0.00001649,-0.000033
 46,-0.00033773,0.00089381,0.00007893,-0.00010281,-0.00016141,-0.000329
 37,0.00000385,0.00002038,-0.00004264,0.00006189,0.00018464,0.00005582,
 -0.00010322,-0.00005499,-0.00006290,-0.00005661,-0.00000586,0.00000831
 ,0.00001659,0.00000526,-0.00002792,0.00001737,-0.00000517,0.00000010,0
 .00050583,0.00118496,-0.00037550,-0.00383398,0.00780134,-0.01228976,-0
 .03192567,0.13095465,0.00000259,0.00000328,-0.00000305,-0.00000388,-0.
 00000322,0.00000591,0.00000913,0.00000541,-0.00000596,-0.00000812,0.00
 000571,0.00001162,0.00006209,-0.00001347,-0.00000071,0.00000856,-0.000
 00015,0.00002262,0.00006605,-0.00062015,-0.00008437,-0.00116364,0.0008
 5983,0.00049749,-0.00043131,0.00069139,-0.00051024,0.00026701,-0.00000
 269,0.00001301,-0.00004105,0.00004110,0.00002639,0.00003958,0.00002125
 ,-0.00000488,0.00115432,-0.00463308,0.00481661,-0.04548406,0.11805206,
 -0.22991440,-0.00141073,-0.00019122,-0.00036097,0.00082436,-0.00036494
 ,0.00025380,-0.00000326,0.00000188,-0.00000181,-0.00000042,-0.00000019
 ,0.00000102,-0.00000115,-0.00000187,-0.00000008,-0.00000006,-0.0000013
 9,-0.00000083,0.00000010,0.00000055,-0.00000090,-0.00000334,-0.0000026
 4,-0.00000103,-0.00000071,0.00000067,0.00000069,0.00000008,-0.00000517
 ,-0.00000287,0.00000093,0.,-0.00000177,-0.00001232,-0.00000268,0.00000
 042,-0.00001381,0.00000372,0.00000770,0.00004440,-0.00001834,0.0000202
 9,-0.00023943,-0.00001256,-0.00002275,0.00000213,0.00001904,0.00002060
 ,-0.00053204,-0.00104032,-0.00015308,0.00003008,-0.00001486,-0.0001825
 1,-0.00002425,0.00000719,0.00008576,0.00000438,-0.00004940,0.00002097,
 -0.00000356,0.00005622,0.00002667,0.00002960,-0.00000436,-0.00001238,0
 .00000195,-0.00001140,0.00001236,-0.00001406,0.00000487,-0.00000122,0.
 00027138,0.00048731,0.00071756,-0.00630987,0.01308404,-0.01987004,0.05
 305298,-0.12764964,0.24748377,0.00000359,0.00000639,-0.00000553,-0.000
 00895,-0.00001175,0.00000932,0.00001342,0.00001411,-0.00001089,-0.0000
 2090,-0.00001229,0.00001254,0.00009665,0.00001643,0.00000900,-0.000117
 28,0.00003156,-0.00005920,0.00013594,-0.00020464,0.00000156,0.00024360
 ,0.00030755,0.00026335,0.00086215,-0.00159974,-0.00052112,-0.00053938,
 0.00026021,0.00001011,0.00013196,0.00001357,-0.00020361,-0.00012562,-0
 .00020673,0.00006309,-0.00716155,-0.00078644,0.00022658,-0.30402739,-0
 .00612648,-0.03703162,-0.00093684,0.00100411,-0.00114540,0.00080318,-0
 .00088807,0.00035054,-0.00000665,0.00000388,-0.00000438,-0.00000052,-0
 .00000123,0.00000163,-0.00000046,-0.00000163,0.00000099,0.00000014,0.0
 0000237,-0.00000020,0.00000024,0.00000056,-0.00000240,-0.00000177,-0.0
 0000071,-0.00000015,-0.00000106,-0.00000040,0.00000020,0.00000011,0.00
 000306,-0.00000121,0.00000214,-0.00000012,-0.00000304,-0.00000745,-0.0
 0000205,0.00000164,-0.00002369,0.00000196,0.00000872,0.00002270,-0.000
 01746,0.00001634,-0.00006810,-0.00000386,-0.00001468,-0.00001278,0.000
 01849,-0.00000741,-0.00004543,-0.00039532,0.00002150,-0.00004322,-0.00
 007484,-0.00006775,0.00021075,0.00010633,-0.00001868,0.00001028,-0.000
 02485,0.00001954,-0.00006495,-0.00012570,-0.00001976,-0.00000466,0.000
 00473,0.00001026,-0.00000611,-0.00000072,0.00002059,0.00003556,0.00004
 531,0.00001044,0.00035049,-0.00029750,-0.00025875,-0.01326149,-0.00009
 248,-0.00268729,-0.00631504,0.00016043,-0.00040557,0.32996716,-0.00000
 050,-0.00000031,-0.00000005,-0.00000029,-0.00000018,-0.00000044,-0.000
 00190,0.00000110,-0.00000165,-0.00000581,-0.00000616,-0.00000035,-0.00
 000978,0.00001528,-0.00000869,-0.00005196,0.00001727,-0.00004067,-0.00
 001372,0.00031560,0.00000123,0.00067709,-0.00089677,0.00027975,0.00064
 059,-0.00637016,-0.00048887,-0.00197454,0.00012193,0.00021768,0.000213
 50,-0.00023251,-0.00052360,-0.00025119,-0.00034966,0.00016923,-0.03239
 382,-0.00162694,-0.00307202,-0.00527651,-0.04617795,-0.00139813,-0.002
 13627,0.00114155,-0.00021892,0.00045542,-0.00012876,-0.00026797,0.0000
 0034,-0.00000010,0.00000017,0.00000006,-0.00000011,-0.00000013,0.00000
 041,0.00000044,0.00000031,0.,0.00000105,0.,-0.00000004,-0.00000013,-0.
 00000006,0.00000170,0.00000122,0.00000104,0.00000026,-0.00000048,-0.00
 000015,-0.00000013,0.00000463,0.00000058,-0.00000030,-0.00000036,-0.00
 000046,0.00000732,0.00000202,0.00000309,0.00000163,-0.00000186,-0.0000
 0100,-0.00003762,0.00002093,-0.00000472,0.00015394,0.00001363,0.000032
 08,0.00002040,-0.00001196,-0.00001622,-0.00000227,0.00065697,0.0000732
 7,-0.00002599,0.00008233,-0.00004116,-0.00003389,0.00003820,0.00017754
 ,-0.00002376,0.00004783,-0.00002515,-0.00013302,-0.00025048,-0.0000835
 0,-0.00003505,0.00003398,0.00002231,-0.00000346,0.00000171,0.00003951,
 0.00006074,0.00005443,0.00002598,0.00065352,0.00113065,-0.00026130,0.0
 1369286,-0.00019629,0.00322908,0.01680468,0.00016010,0.00128240,0.0090
 4410,0.05250666,0.00000152,0.00000302,-0.00000270,-0.00000491,-0.00000
 539,0.00000447,0.00000677,0.00000708,-0.00000566,-0.00001105,-0.000005
 78,0.00000731,0.00005453,0.00000305,0.00000047,-0.00004266,0.00000745,
 0.00000308,0.00011789,-0.00032963,-0.00000455,-0.00039039,0.00031995,0
 .00028542,-0.00002397,0.00006999,0.00027859,0.00000067,-0.00002340,0.0
 0038362,0.00000833,-0.00002646,-0.00003071,-0.00002228,-0.00004323,0.0
 0000100,-0.00213784,0.00054484,-0.00139808,-0.03703354,-0.00123955,-0.
 05282193,0.00045347,0.00062740,0.00050483,0.00022169,-0.00027060,-0.00
 013361,-0.00000299,0.00000157,-0.00000172,-0.00000025,-0.00000051,0.00
 000052,-0.00000020,-0.00000062,0.00000050,0.00000015,0.00000120,-0.000
 00018,0.00000030,0.00000021,-0.00000110,-0.00000091,-0.00000031,0.0000
 0017,-0.00000112,-0.00000027,0.00000013,0.00000051,0.00000205,-0.00000
 187,0.00000152,0.00000034,-0.00000042,-0.00000544,0.00000117,0.0000029
 4,-0.00001707,0.00000076,0.00000794,0.00003103,-0.00001362,-0.00000983
 ,-0.00012455,-0.00000180,-0.00000316,-0.00005947,0.00000297,0.00002309
 ,0.00005055,-0.00046576,-0.00029061,0.00010303,0.00010124,0.00005952,-
 0.00044462,-0.00014415,0.00017703,-0.00000347,-0.00002372,0.00003147,0
 .00001702,0.00011261,0.00000876,0.00000566,0.00000706,-0.00000902,0.00
 001058,-0.00000731,-0.00000161,-0.00000264,0.00000853,0.00000365,-0.00
 024873,0.00018173,-0.00006800,0.02590249,0.00110066,0.00417002,-0.0273
 2885,-0.00097770,-0.00345420,0.04107894,0.00066745,0.05236126,-0.00000
 173,-0.00000341,0.00000341,0.00000632,0.00000657,-0.00000391,-0.000007
 30,-0.00001104,0.00001081,0.00002534,0.00001329,-0.00000832,-0.0000527
 8,-0.00004919,0.00001869,0.00022035,0.00000062,0.00004297,-0.00016895,
 -0.00020734,0.00025173,0.00104375,0.00046085,-0.00034324,0.00201276,-0
 .00197976,0.00235060,-0.00028978,0.00012323,-0.00014930,-0.00004470,-0
 .00011264,0.00026962,0.00003963,0.00002181,-0.00007280,0.01390808,0.00
 375697,-0.00833824,-0.00035733,0.00112459,-0.00114841,-0.06759688,0.00
 836209,0.03724982,-0.00063256,0.02990514,0.02311564,0.00000318,-0.0000
 0146,0.00000184,0.00000059,0.00000048,-0.00000110,0.00000001,0.0000004
 0,-0.00000042,-0.00000026,-0.00000169,0.00000008,0.00000012,-0.0000002
 3,0.00000044,0.00000014,0.,-0.00000021,0.00000101,0.00000007,-0.000001
 12,-0.00000061,-0.00000368,-0.00000004,-0.00000105,0.00000040,0.000000
 58,0.00000041,0.00000193,-0.00000128,0.00001674,-0.00000134,-0.0000091
 2,-0.00000151,0.00000362,-0.00000424,-0.00001437,0.00000776,0.00000300
 ,0.00001364,-0.00000898,-0.00001432,-0.00000770,-0.00006378,-0.0000201
 9,-0.00015739,0.00009324,0.00005175,-0.00001330,0.00000994,0.00011814,
 -0.00021558,-0.00015603,-0.00005555,0.00004467,-0.00006923,0.00001348,
 0.00003169,0.00000919,-0.00004969,-0.00002875,0.00000647,-0.00010634,-
 0.00003502,-0.00002493,-0.00000673,0.00027521,0.00169607,-0.00170711,0
 .00000066,-0.00000914,0.00018961,-0.00011398,0.00042402,0.00023497,-0.
 00008878,-0.00001675,-0.00015970,0.05218603,0.00000005,-0.00000086,0.0
 0000028,0.00000160,0.00000121,-0.00000150,-0.00000041,-0.00000348,0.00
 000070,0.00000595,0.00000407,-0.00000251,-0.00000265,-0.00001448,0.000
 00115,0.00003375,0.00000427,0.00002409,-0.00001351,-0.00010848,-0.0000
 3757,0.00034590,-0.00000951,-0.00004414,-0.00021846,-0.00052036,0.0010
 5592,-0.00006807,-0.00014339,-0.00001189,0.00001221,-0.00006562,-0.000
 18212,-0.00004010,0.00003785,0.00005476,0.00422072,0.00943196,0.012997
 31,-0.00064302,0.00254438,-0.00154641,0.00833254,-0.07256498,-0.053568
 75,0.02965426,-0.02204590,-0.03266611,0.00000064,-0.00000039,0.0000003
 3,-0.00000044,0.00000025,0.00000047,0.00000003,0.00000019,-0.00000025,
 0.00000018,-0.00000028,-0.00000017,-0.00000041,0.00000005,0.00000129,0
 .,0.00000015,-0.00000008,-0.00000104,0.00000052,0.00000126,0.00000026,
 -0.00000086,-0.00000048,-0.00000046,-0.00000004,0.00000260,-0.00000003
 ,0.00000093,0.00000025,-0.00000136,0.00000138,0.00000277,0.00000499,0.
 00000094,-0.00000716,-0.00000729,0.00000480,0.00000511,0.00001463,0.00
 000554,0.00000532,0.00003053,-0.00004635,-0.00000448,0.00001581,0.0000
 1236,-0.00008385,-0.00003457,-0.00003529,-0.00029236,0.00002723,0.0000
 9118,0.00001979,-0.00006291,0.00003047,-0.00000909,-0.00001978,0.00000
 366,0.00002883,-0.00000242,-0.00001259,0.00002910,0.00001901,0.0000013
 5,0.00000254,0.00161667,-0.00071731,0.00247942,-0.00000325,-0.00009176
 ,-0.00003555,0.00026145,0.00092356,0.00001582,-0.00017012,-0.00011834,
 -0.00019254,-0.04330811,0.08339918,0.00000320,0.00000430,-0.00000513,-
 0.00000717,-0.00000874,0.00000344,0.00001168,0.00001198,-0.00001383,-0
 .00002816,-0.00001395,0.00000413,0.00008382,0.00004041,-0.00004223,-0.
 00022631,-0.00001339,0.00000855,0.00011142,0.00022078,-0.00016591,-0.0
 0094670,0.00001160,0.00044747,0.00212446,-0.00014493,-0.00090610,-0.00
 006963,0.00004657,0.00023865,0.00000832,-0.00001001,-0.00060766,-0.000
 08863,-0.00005807,0.00020926,0.00826885,-0.01171301,-0.02125988,-0.000
 02441,-0.00175653,0.00024488,0.03321192,-0.04588798,-0.22571023,0.0125
 7613,-0.01789307,0.00937755,-0.00000425,0.00000181,-0.00000253,-0.0000
 0205,-0.00000018,0.00000273,-0.00000005,-0.00000060,0.00000026,0.00000
 065,0.00000203,-0.00000068,-0.00000078,0.00000057,0.00000210,-0.000000
 45,-0.00000007,-0.00000035,-0.00000476,0.00000079,0.00000403,0.0000013
 7,0.00000410,-0.00000148,0.00000097,-0.00000027,0.00000531,-0.00000257
 ,-0.00000111,0.00000192,-0.00002597,0.00000394,0.00002153,0.00002014,-
 0.00001126,-0.00001140,-0.00000112,-0.00001374,-0.00000918,-0.00009240
 ,0.00002354,0.00004204,0.00002452,0.00005459,-0.00001277,0.00015284,-0
 .00014842,0.00032262,-0.00140424,0.00034561,0.00080064,0.00009970,0.00
 011686,-0.00010847,-0.00000353,0.00007707,0.00008919,-0.00003026,0.000
 00207,0.00009729,-0.00007805,-0.00009624,0.00023422,0.00006392,0.00005
 059,0.00000715,-0.00193750,0.00260234,-0.00385209,-0.00035105,0.001326
 20,0.00048940,-0.00003980,0.00063342,0.00054478,0.00033175,0.00023252,
 -0.00007681,-0.05172580,0.07195790,0.23958758\\-0.00000034,0.00000083,
 -0.00000046,-0.00000045,-0.00000035,0.,0.00000011,0.00000121,-0.000000
 39,-0.00000087,-0.00000088,0.00000095,0.00000350,0.00000173,-0.0000016
 1,-0.00000113,-0.00000107,0.00000351,0.00000180,-0.00000079,-0.0000018
 7,0.00000384,0.00000060,0.00000272,-0.00000659,-0.00000509,-0.00000282
 ,-0.00000289,0.00000703,0.00000484,0.00000321,0.00000188,-0.00000286,-
 0.00000872,-0.00000248,0.00000255,0.00001092,0.00000265,0.00000179,-0.
 00000376,-0.00000297,-0.00000013,-0.00001157,0.00000697,-0.00000296,0.
 00000342,-0.00000406,-0.00000081,-0.00000025,0.00000025,-0.00000016,0.
 00000006,0.00000009,-0.00000015,0.00000008,0.00000023,-0.00000019,0.00
 000034,0.00000026,-0.00000001,0.,0.00000002,-0.00000003,0.00000020,-0.
 00000004,0.00000011,0.,0.00000045,-0.00000035,0.00000068,0.00000011,0.
 00000031,-0.00000068,0.00000054,-0.00000042,0.00000048,0.00000015,-0.0
 0000100,-0.00000105,-0.00000094,0.00000051,0.00000014,0.00000046,-0.00
 000155,-0.00000158,-0.00000128,0.00000078,-0.00000069,-0.00000090,0.00
 000179,0.00000101,0.00000045,-0.00000048,0.00000078,-0.00000155,0.0000
 0094,0.00000129,-0.00000027,0.00000125,0.00000204,-0.00000059,-0.00000
 008,-0.00000097,0.00000036,-0.00000158,-0.00000147,0.00000087,0.000000
 94,0.00000112,-0.00000132,-0.00000204,0.00000688,-0.00000084,-0.000001
 69,0.00000047,0.00000006,-0.00000089,0.00000014,-0.00000174,-0.0000000
 6,-0.00000129,0.00000076,-0.00000050,0.00000052,0.00000105,0.00000030,
 0.00000128,-0.00000187,0.00000179\\\@


 SIGN SEEN IN A RESTAURANT-
 WE RESERVE THE RIGHT TO SERVE REFUSE TO ANYONE.
 Job cpu time:       0 days 13 hours 54 minutes 14.6 seconds.
 Elapsed time:       0 days  3 hours 28 minutes 36.4 seconds.
 File lengths (MBytes):  RWF=   1017 Int=      0 D2E=      0 Chk=     29 Scr=      1
 Normal termination of Gaussian 16 at Tue May 23 15:45:42 2023.
### All Done ###
