### Starting Gaussian ###
 Entering Gaussian System, Link 0=g16
 Initial command:
 /cluster/software/gaussian/gaussian-16-A.03/avx2/g16/l1.exe "/local/scratch/ks29c/Gau-8593.inp" -scrdir="/local/scratch/ks29c/"
 Entering Link 1 = /cluster/software/gaussian/gaussian-16-A.03/avx2/g16/l1.exe PID=      8594.
  
 Copyright (c) 1988,1990,1992,1993,1995,1998,2003,2009,2016,
            Gaussian, Inc.  All Rights Reserved.
  
 This is part of the Gaussian(R) 16 program.  It is based on
 the Gaussian(R) 09 system (copyright 2009, Gaussian, Inc.),
 the Gaussian(R) 03 system (copyright 2003, Gaussian, Inc.),
 the Gaussian(R) 98 system (copyright 1998, Gaussian, Inc.),
 the Gaussian(R) 94 system (copyright 1995, Gaussian, Inc.),
 the Gaussian 92(TM) system (copyright 1992, Gaussian, Inc.),
 the Gaussian 90(TM) system (copyright 1990, Gaussian, Inc.),
 the Gaussian 88(TM) system (copyright 1988, Gaussian, Inc.),
 the Gaussian 86(TM) system (copyright 1986, Carnegie Mellon
 University), and the Gaussian 82(TM) system (copyright 1983,
 Carnegie Mellon University). Gaussian is a federally registered
 trademark of Gaussian, Inc.
  
 This software contains proprietary and confidential information,
 including trade secrets, belonging to Gaussian, Inc.
  
 This software is provided under written license and may be
 used, copied, transmitted, or stored only in accord with that
 written license.
  
 The following legend is applicable only to US Government
 contracts under FAR:
  
                    RESTRICTED RIGHTS LEGEND
  
 Use, reproduction and disclosure by the US Government is
 subject to restrictions as set forth in subparagraphs (a)
 and (c) of the Commercial Computer Software - Restricted
 Rights clause in FAR 52.227-19.
  
 Gaussian, Inc.
 340 Quinnipiac St., Bldg. 40, Wallingford CT 06492
  
  
 ---------------------------------------------------------------
 Warning -- This program may not be used in any manner that
 competes with the business of Gaussian, Inc. or will provide
 assistance to any competitor of Gaussian, Inc.  The licensee
 of this program is prohibited from giving any competitor of
 Gaussian, Inc. access to this program.  By using this program,
 the user acknowledges that Gaussian, Inc. is engaged in the
 business of creating and licensing software in the field of
 computational chemistry and represents and warrants to the
 licensee that it is not a competitor of Gaussian, Inc. and that
 it will not use this program in any manner prohibited above.
 ---------------------------------------------------------------
  

 Cite this work as:
 Gaussian 16, Revision A.03,
 M. J. Frisch, G. W. Trucks, H. B. Schlegel, G. E. Scuseria, 
 M. A. Robb, J. R. Cheeseman, G. Scalmani, V. Barone, 
 G. A. Petersson, H. Nakatsuji, X. Li, M. Caricato, A. V. Marenich, 
 J. Bloino, B. G. Janesko, R. Gomperts, B. Mennucci, H. P. Hratchian, 
 J. V. Ortiz, A. F. Izmaylov, J. L. Sonnenberg, D. Williams-Young, 
 F. Ding, F. Lipparini, F. Egidi, J. Goings, B. Peng, A. Petrone, 
 T. Henderson, D. Ranasinghe, V. G. Zakrzewski, J. Gao, N. Rega, 
 G. Zheng, W. Liang, M. Hada, M. Ehara, K. Toyota, R. Fukuda, 
 J. Hasegawa, M. Ishida, T. Nakajima, Y. Honda, O. Kitao, H. Nakai, 
 T. Vreven, K. Throssell, J. A. Montgomery, Jr., J. E. Peralta, 
 F. Ogliaro, M. J. Bearpark, J. J. Heyd, E. N. Brothers, K. N. Kudin, 
 V. N. Staroverov, T. A. Keith, R. Kobayashi, J. Normand, 
 K. Raghavachari, A. P. Rendell, J. C. Burant, S. S. Iyengar, 
 J. Tomasi, M. Cossi, J. M. Millam, M. Klene, C. Adamo, R. Cammi, 
 J. W. Ochterski, R. L. Martin, K. Morokuma, O. Farkas, 
 J. B. Foresman, and D. J. Fox, Gaussian, Inc., Wallingford CT, 2016.
 
 ******************************************
 Gaussian 16:  ES64L-G16RevA.03 25-Dec-2016
                22-May-2023 
 ******************************************
 %chk=CCCCCqCCrCqCrqCrF.chk
 %NProcShared=20
 Will use up to   20 processors via shared memory.
 -----------------------------
 # opt freq b3lyp/6-31g(2df,p)
 -----------------------------
 1/18=20,19=15,26=3,38=1/1,3;
 2/9=110,12=2,17=6,18=5,40=1/2;
 3/5=1,6=6,7=104,11=2,25=1,30=1,71=1,74=-5/1,2,3;
 4//1;
 5/5=2,38=5/2;
 6/7=2,8=2,9=2,10=2,28=1/1;
 7//1,2,3,16;
 1/18=20,19=15,26=3/3(2);
 2/9=110/2;
 99//99;
 2/9=110/2;
 3/5=1,6=6,7=104,11=2,25=1,30=1,71=1,74=-5/1,2,3;
 4/5=5,16=3,69=1/1;
 5/5=2,38=5/2;
 7//1,2,3,16;
 1/18=20,19=15,26=3/3(-5);
 2/9=110/2;
 6/7=2,8=2,9=2,10=2,19=2,28=1/1;
 99/9=1/99;
 -------------------
 Title Card Required
 -------------------
 Symbolic Z-matrix:
 Charge =  0 Multiplicity = 1
 C                     1.0224    0.06491  -0.21057 
 C                     2.54178   0.11488  -0.26765 
 C                     3.04391   0.55947   1.09482 
 C                     4.54853   0.49213   1.24198 
 C                     5.08432   0.89693   2.63817 
 C                     4.59053  -0.00713   3.81161 
 C                     3.10127  -0.01624   4.14033 
 C                     6.6522    0.92498   2.6184 
 C                     7.27804  -0.45239   2.38195 
 C                     7.21868   1.92628   1.60615 
 F                     7.07372   1.35177   3.8513 
 H                     0.60564  -0.27962  -1.15752 
 H                     0.61287   1.05225   0.02374 
 H                     0.69198  -0.62494   0.57802 
 H                     2.8849    0.79664  -1.05527 
 H                     2.92849  -0.88384  -0.49552 
 H                     2.59522  -0.15858   1.77091 
 H                     2.67199   1.55326   1.35549 
 H                     4.96694   1.15894   0.47758 
 H                     4.88277  -0.51938   0.99904 
 H                     4.74536   1.91841   2.86117 
 H                     5.10133   0.32041   4.7264 
 H                     4.89088  -1.04395   3.63553 
 H                     2.66129   0.98312   4.08691 
 H                     2.93544  -0.41995   5.14322 
 H                     2.54569  -0.70247   3.49882 
 H                     6.99888  -0.86832   1.40969 
 H                     6.98745  -1.16271   3.16112 
 H                     8.37016  -0.39472   2.42072 
 H                     6.99149   1.65476   0.57154 
 H                     8.30947   1.98404   1.69173 
 H                     6.83305   2.93256   1.79921 
 

 GradGradGradGradGradGradGradGradGradGradGradGradGradGradGradGradGradGrad
 Berny optimization.
 Initialization pass.
                           ----------------------------
                           !    Initial Parameters    !
                           ! (Angstroms and Degrees)  !
 --------------------------                            --------------------------
 ! Name  Definition              Value          Derivative Info.                !
 --------------------------------------------------------------------------------
 ! R1    R(1,2)                  1.5213         estimate D2E/DX2                !
 ! R2    R(1,12)                 1.0905         estimate D2E/DX2                !
 ! R3    R(1,13)                 1.0943         estimate D2E/DX2                !
 ! R4    R(1,14)                 1.0986         estimate D2E/DX2                !
 ! R5    R(2,3)                  1.5186         estimate D2E/DX2                !
 ! R6    R(2,15)                 1.0968         estimate D2E/DX2                !
 ! R7    R(2,16)                 1.0949         estimate D2E/DX2                !
 ! R8    R(3,4)                  1.5133         estimate D2E/DX2                !
 ! R9    R(3,17)                 1.0835         estimate D2E/DX2                !
 ! R10   R(3,18)                 1.0927         estimate D2E/DX2                !
 ! R11   R(4,5)                  1.5493         estimate D2E/DX2                !
 ! R12   R(4,19)                 1.0973         estimate D2E/DX2                !
 ! R13   R(4,20)                 1.0927         estimate D2E/DX2                !
 ! R14   R(5,6)                  1.5614         estimate D2E/DX2                !
 ! R15   R(5,8)                  1.5683         estimate D2E/DX2                !
 ! R16   R(5,21)                 1.0991         estimate D2E/DX2                !
 ! R17   R(6,7)                  1.5251         estimate D2E/DX2                !
 ! R18   R(6,22)                 1.0977         estimate D2E/DX2                !
 ! R19   R(6,23)                 1.0937         estimate D2E/DX2                !
 ! R20   R(7,24)                 1.0932         estimate D2E/DX2                !
 ! R21   R(7,25)                 1.0937         estimate D2E/DX2                !
 ! R22   R(7,26)                 1.0914         estimate D2E/DX2                !
 ! R23   R(8,9)                  1.5313         estimate D2E/DX2                !
 ! R24   R(8,10)                 1.5324         estimate D2E/DX2                !
 ! R25   R(8,11)                 1.3711         estimate D2E/DX2                !
 ! R26   R(9,27)                 1.0937         estimate D2E/DX2                !
 ! R27   R(9,28)                 1.0937         estimate D2E/DX2                !
 ! R28   R(9,29)                 1.0943         estimate D2E/DX2                !
 ! R29   R(10,30)                1.0935         estimate D2E/DX2                !
 ! R30   R(10,31)                1.0957         estimate D2E/DX2                !
 ! R31   R(10,32)                1.0948         estimate D2E/DX2                !
 ! A1    A(2,1,12)             111.0699         estimate D2E/DX2                !
 ! A2    A(2,1,13)             110.6205         estimate D2E/DX2                !
 ! A3    A(2,1,14)             110.3618         estimate D2E/DX2                !
 ! A4    A(12,1,13)            109.1464         estimate D2E/DX2                !
 ! A5    A(12,1,14)            108.0591         estimate D2E/DX2                !
 ! A6    A(13,1,14)            107.476          estimate D2E/DX2                !
 ! A7    A(1,2,3)              107.8302         estimate D2E/DX2                !
 ! A8    A(1,2,15)             111.0894         estimate D2E/DX2                !
 ! A9    A(1,2,16)             109.3043         estimate D2E/DX2                !
 ! A10   A(3,2,15)             111.0311         estimate D2E/DX2                !
 ! A11   A(3,2,16)             109.6924         estimate D2E/DX2                !
 ! A12   A(15,2,16)            107.8811         estimate D2E/DX2                !
 ! A13   A(2,3,4)              113.7645         estimate D2E/DX2                !
 ! A14   A(2,3,17)             103.2315         estimate D2E/DX2                !
 ! A15   A(2,3,18)             111.5779         estimate D2E/DX2                !
 ! A16   A(4,3,17)             108.7574         estimate D2E/DX2                !
 ! A17   A(4,3,18)             110.8366         estimate D2E/DX2                !
 ! A18   A(17,3,18)            108.2357         estimate D2E/DX2                !
 ! A19   A(3,4,5)              114.8255         estimate D2E/DX2                !
 ! A20   A(3,4,19)             106.5197         estimate D2E/DX2                !
 ! A21   A(3,4,20)             108.8878         estimate D2E/DX2                !
 ! A22   A(5,4,19)             109.703          estimate D2E/DX2                !
 ! A23   A(5,4,20)             109.6613         estimate D2E/DX2                !
 ! A24   A(19,4,20)            106.9199         estimate D2E/DX2                !
 ! A25   A(4,5,6)              114.6203         estimate D2E/DX2                !
 ! A26   A(4,5,8)              109.8197         estimate D2E/DX2                !
 ! A27   A(4,5,21)             108.6035         estimate D2E/DX2                !
 ! A28   A(6,5,8)              109.6329         estimate D2E/DX2                !
 ! A29   A(6,5,21)             106.7439         estimate D2E/DX2                !
 ! A30   A(8,5,21)             107.1129         estimate D2E/DX2                !
 ! A31   A(5,6,7)              118.3096         estimate D2E/DX2                !
 ! A32   A(5,6,22)             107.8395         estimate D2E/DX2                !
 ! A33   A(5,6,23)             109.9402         estimate D2E/DX2                !
 ! A34   A(7,6,22)             106.0539         estimate D2E/DX2                !
 ! A35   A(7,6,23)             107.289          estimate D2E/DX2                !
 ! A36   A(22,6,23)            106.812          estimate D2E/DX2                !
 ! A37   A(6,7,24)             112.1479         estimate D2E/DX2                !
 ! A38   A(6,7,25)             110.3582         estimate D2E/DX2                !
 ! A39   A(6,7,26)             111.9719         estimate D2E/DX2                !
 ! A40   A(24,7,25)            108.7356         estimate D2E/DX2                !
 ! A41   A(24,7,26)            109.949          estimate D2E/DX2                !
 ! A42   A(25,7,26)            103.2796         estimate D2E/DX2                !
 ! A43   A(5,8,9)              113.233          estimate D2E/DX2                !
 ! A44   A(5,8,10)             112.9298         estimate D2E/DX2                !
 ! A45   A(5,8,11)             107.5534         estimate D2E/DX2                !
 ! A46   A(9,8,10)             109.5526         estimate D2E/DX2                !
 ! A47   A(9,8,11)             107.0495         estimate D2E/DX2                !
 ! A48   A(10,8,11)            106.0783         estimate D2E/DX2                !
 ! A49   A(8,9,27)             112.0257         estimate D2E/DX2                !
 ! A50   A(8,9,28)             111.445          estimate D2E/DX2                !
 ! A51   A(8,9,29)             110.7942         estimate D2E/DX2                !
 ! A52   A(27,9,28)            108.573          estimate D2E/DX2                !
 ! A53   A(27,9,29)            107.8339         estimate D2E/DX2                !
 ! A54   A(28,9,29)            105.9116         estimate D2E/DX2                !
 ! A55   A(8,10,30)            112.7025         estimate D2E/DX2                !
 ! A56   A(8,10,31)            110.5413         estimate D2E/DX2                !
 ! A57   A(8,10,32)            110.7259         estimate D2E/DX2                !
 ! A58   A(30,10,31)           107.0873         estimate D2E/DX2                !
 ! A59   A(30,10,32)           108.7772         estimate D2E/DX2                !
 ! A60   A(31,10,32)           106.7648         estimate D2E/DX2                !
 ! D1    D(12,1,2,3)          -178.2527         estimate D2E/DX2                !
 ! D2    D(12,1,2,15)           59.8708         estimate D2E/DX2                !
 ! D3    D(12,1,2,16)          -59.0615         estimate D2E/DX2                !
 ! D4    D(13,1,2,3)            60.3808         estimate D2E/DX2                !
 ! D5    D(13,1,2,15)          -61.4956         estimate D2E/DX2                !
 ! D6    D(13,1,2,16)          179.5721         estimate D2E/DX2                !
 ! D7    D(14,1,2,3)           -58.4288         estimate D2E/DX2                !
 ! D8    D(14,1,2,15)          179.6948         estimate D2E/DX2                !
 ! D9    D(14,1,2,16)           60.7625         estimate D2E/DX2                !
 ! D10   D(1,2,3,4)            172.8775         estimate D2E/DX2                !
 ! D11   D(1,2,3,17)            55.2019         estimate D2E/DX2                !
 ! D12   D(1,2,3,18)           -60.8175         estimate D2E/DX2                !
 ! D13   D(15,2,3,4)           -65.21           estimate D2E/DX2                !
 ! D14   D(15,2,3,17)          177.1144         estimate D2E/DX2                !
 ! D15   D(15,2,3,18)           61.095          estimate D2E/DX2                !
 ! D16   D(16,2,3,4)            53.9335         estimate D2E/DX2                !
 ! D17   D(16,2,3,17)          -63.7421         estimate D2E/DX2                !
 ! D18   D(16,2,3,18)         -179.7615         estimate D2E/DX2                !
 ! D19   D(2,3,4,5)           -178.1197         estimate D2E/DX2                !
 ! D20   D(2,3,4,19)            60.2343         estimate D2E/DX2                !
 ! D21   D(2,3,4,20)           -54.7466         estimate D2E/DX2                !
 ! D22   D(17,3,4,5)           -63.6855         estimate D2E/DX2                !
 ! D23   D(17,3,4,19)          174.6685         estimate D2E/DX2                !
 ! D24   D(17,3,4,20)           59.6876         estimate D2E/DX2                !
 ! D25   D(18,3,4,5)            55.1865         estimate D2E/DX2                !
 ! D26   D(18,3,4,19)          -66.4595         estimate D2E/DX2                !
 ! D27   D(18,3,4,20)          178.5596         estimate D2E/DX2                !
 ! D28   D(3,4,5,6)             61.7526         estimate D2E/DX2                !
 ! D29   D(3,4,5,8)           -174.3279         estimate D2E/DX2                !
 ! D30   D(3,4,5,21)           -57.498          estimate D2E/DX2                !
 ! D31   D(19,4,5,6)          -178.3503         estimate D2E/DX2                !
 ! D32   D(19,4,5,8)           -54.4308         estimate D2E/DX2                !
 ! D33   D(19,4,5,21)           62.3991         estimate D2E/DX2                !
 ! D34   D(20,4,5,6)           -61.2067         estimate D2E/DX2                !
 ! D35   D(20,4,5,8)            62.7128         estimate D2E/DX2                !
 ! D36   D(20,4,5,21)          179.5427         estimate D2E/DX2                !
 ! D37   D(4,5,6,7)            -64.6566         estimate D2E/DX2                !
 ! D38   D(4,5,6,22)           175.1228         estimate D2E/DX2                !
 ! D39   D(4,5,6,23)            59.0206         estimate D2E/DX2                !
 ! D40   D(8,5,6,7)            171.3245         estimate D2E/DX2                !
 ! D41   D(8,5,6,22)            51.1039         estimate D2E/DX2                !
 ! D42   D(8,5,6,23)           -64.9983         estimate D2E/DX2                !
 ! D43   D(21,5,6,7)            55.63           estimate D2E/DX2                !
 ! D44   D(21,5,6,22)          -64.5906         estimate D2E/DX2                !
 ! D45   D(21,5,6,23)          179.3072         estimate D2E/DX2                !
 ! D46   D(4,5,8,9)            -64.909          estimate D2E/DX2                !
 ! D47   D(4,5,8,10)            60.3345         estimate D2E/DX2                !
 ! D48   D(4,5,8,11)           177.0276         estimate D2E/DX2                !
 ! D49   D(6,5,8,9)             61.8705         estimate D2E/DX2                !
 ! D50   D(6,5,8,10)          -172.886          estimate D2E/DX2                !
 ! D51   D(6,5,8,11)           -56.1929         estimate D2E/DX2                !
 ! D52   D(21,5,8,9)           177.3303         estimate D2E/DX2                !
 ! D53   D(21,5,8,10)          -57.4262         estimate D2E/DX2                !
 ! D54   D(21,5,8,11)           59.267          estimate D2E/DX2                !
 ! D55   D(5,6,7,24)           -40.7756         estimate D2E/DX2                !
 ! D56   D(5,6,7,25)          -162.1703         estimate D2E/DX2                !
 ! D57   D(5,6,7,26)            83.3794         estimate D2E/DX2                !
 ! D58   D(22,6,7,24)           80.3621         estimate D2E/DX2                !
 ! D59   D(22,6,7,25)          -41.0325         estimate D2E/DX2                !
 ! D60   D(22,6,7,26)         -155.4829         estimate D2E/DX2                !
 ! D61   D(23,6,7,24)         -165.7605         estimate D2E/DX2                !
 ! D62   D(23,6,7,25)           72.8448         estimate D2E/DX2                !
 ! D63   D(23,6,7,26)          -41.6055         estimate D2E/DX2                !
 ! D64   D(5,8,9,27)            62.0919         estimate D2E/DX2                !
 ! D65   D(5,8,9,28)           -59.7821         estimate D2E/DX2                !
 ! D66   D(5,8,9,29)          -177.4428         estimate D2E/DX2                !
 ! D67   D(10,8,9,27)          -64.9494         estimate D2E/DX2                !
 ! D68   D(10,8,9,28)          173.1766         estimate D2E/DX2                !
 ! D69   D(10,8,9,29)           55.5159         estimate D2E/DX2                !
 ! D70   D(11,8,9,27)         -179.5523         estimate D2E/DX2                !
 ! D71   D(11,8,9,28)           58.5738         estimate D2E/DX2                !
 ! D72   D(11,8,9,29)          -59.0869         estimate D2E/DX2                !
 ! D73   D(5,8,10,30)          -65.629          estimate D2E/DX2                !
 ! D74   D(5,8,10,31)          174.5763         estimate D2E/DX2                !
 ! D75   D(5,8,10,32)           56.4689         estimate D2E/DX2                !
 ! D76   D(9,8,10,30)           61.583          estimate D2E/DX2                !
 ! D77   D(9,8,10,31)          -58.2118         estimate D2E/DX2                !
 ! D78   D(9,8,10,32)         -176.3191         estimate D2E/DX2                !
 ! D79   D(11,8,10,30)         176.8077         estimate D2E/DX2                !
 ! D80   D(11,8,10,31)          57.013          estimate D2E/DX2                !
 ! D81   D(11,8,10,32)         -61.0943         estimate D2E/DX2                !
 --------------------------------------------------------------------------------
 Trust Radius=3.00D-01 FncErr=1.00D-07 GrdErr=1.00D-06 EigMax=2.50D+02 EigMin=1.00D-04
 Number of steps in this run=    182 maximum allowed number of steps=    192.
 GradGradGradGradGradGradGradGradGradGradGradGradGradGradGradGradGradGrad

                          Input orientation:                          
 ---------------------------------------------------------------------
 Center     Atomic      Atomic             Coordinates (Angstroms)
 Number     Number       Type             X           Y           Z
 ---------------------------------------------------------------------
      1          6           0        1.022400    0.064910   -0.210570
      2          6           0        2.541780    0.114880   -0.267650
      3          6           0        3.043910    0.559470    1.094820
      4          6           0        4.548530    0.492130    1.241980
      5          6           0        5.084320    0.896930    2.638170
      6          6           0        4.590530   -0.007130    3.811610
      7          6           0        3.101270   -0.016240    4.140330
      8          6           0        6.652200    0.924980    2.618400
      9          6           0        7.278040   -0.452390    2.381950
     10          6           0        7.218680    1.926280    1.606150
     11          9           0        7.073720    1.351770    3.851300
     12          1           0        0.605640   -0.279620   -1.157520
     13          1           0        0.612870    1.052250    0.023740
     14          1           0        0.691980   -0.624940    0.578020
     15          1           0        2.884900    0.796640   -1.055270
     16          1           0        2.928490   -0.883840   -0.495520
     17          1           0        2.595220   -0.158580    1.770910
     18          1           0        2.671990    1.553260    1.355490
     19          1           0        4.966940    1.158940    0.477580
     20          1           0        4.882770   -0.519380    0.999040
     21          1           0        4.745360    1.918410    2.861170
     22          1           0        5.101330    0.320410    4.726400
     23          1           0        4.890880   -1.043950    3.635530
     24          1           0        2.661290    0.983120    4.086910
     25          1           0        2.935440   -0.419950    5.143220
     26          1           0        2.545690   -0.702470    3.498820
     27          1           0        6.998880   -0.868320    1.409690
     28          1           0        6.987450   -1.162710    3.161120
     29          1           0        8.370160   -0.394720    2.420720
     30          1           0        6.991490    1.654760    0.571540
     31          1           0        8.309470    1.984040    1.691730
     32          1           0        6.833050    2.932560    1.799210
 ---------------------------------------------------------------------
                    Distance matrix (angstroms):
                    1          2          3          4          5
     1  C    0.000000
     2  C    1.521273   0.000000
     3  C    2.456651   1.518591   0.000000
     4  C    3.837449   2.539359   1.513298   0.000000
     5  C    5.030584   3.939531   2.580520   1.549284   0.000000
     6  C    5.377237   4.566467   3.177108   2.618019   1.561446
     7  C    4.822719   4.445279   3.099978   3.279243   2.650066
     8  C    6.359044   5.087347   3.933783   2.550945   1.568256
     9  C    6.791303   5.456586   4.539650   3.105137   2.588189
    10  C    6.720049   5.354035   4.422480   3.052721   2.584593
    11  F    7.400897   6.247730   4.946240   3.731503   2.374084
    12  H    1.090461   2.167057   3.423780   4.679699   5.987496
    13  H    1.094283   2.164316   2.701851   4.157795   5.182011
    14  H    1.098610   2.164313   2.683558   4.069603   5.084580
    15  H    2.172062   1.096756   2.168968   2.852674   4.299884
    16  H    2.148139   1.094948   2.150732   2.745310   4.199852
    17  H    2.539680   2.057514   1.083520   2.125702   2.839341
    18  H    2.718249   2.172665   1.092654   2.158769   2.809871
    19  H    4.150885   2.743507   2.106750   1.097274   2.179582
    20  H    4.087421   2.736243   2.134127   1.092652   2.175616
    21  H    5.170250   4.230603   2.803862   2.166747   1.099111
    22  H    6.409105   5.615521   4.180730   3.532175   2.166419
    23  H    5.566614   4.700635   3.526678   2.864581   2.190699
    24  H    4.690139   4.441882   3.046060   3.449112   2.824420
    25  H    5.705951   5.451470   4.166602   4.318984   3.553468
    26  H    4.082751   3.854137   2.760422   3.245268   3.121449
    27  H    6.262146   4.862704   4.216576   2.807698   2.879377
    28  H    6.961118   5.757837   4.773574   3.517090   2.852630
    29  H    7.818217   6.438714   5.571125   4.096436   3.537286
    30  H    6.226504   4.782822   4.129996   2.787338   2.912484
    31  H    7.771949   6.371748   5.487424   4.070963   3.532584
    32  H    6.784268   5.534097   4.526069   3.388987   2.811708
                    6          7          8          9         10
     6  C    0.000000
     7  C    1.525134   0.000000
     8  C    2.557941   3.976339   0.000000
     9  C    3.076507   4.552750   1.531252   0.000000
    10  C    3.938185   5.210424   1.532368   2.502691   0.000000
    11  F    2.830975   4.211336   1.371084   2.335750   2.322019
    12  H    6.375410   5.862146   7.229766   7.555039   7.499078
    13  H    5.593927   4.927486   6.574341   7.228388   6.848699
    14  H    5.102596   4.343414   6.487652   6.830822   7.082626
    15  H    5.219362   5.263255   5.263542   5.716138   5.209692
    16  H    4.699188   4.719501   5.180188   5.233027   5.542519
    17  H    2.858086   2.427035   4.283857   4.731648   5.074462
    18  H    3.485418   3.225360   4.222766   5.127568   4.568847
    19  H    3.552064   4.275220   2.734584   3.400617   2.633024
    20  H    2.873735   3.646175   2.799890   2.766631   3.436031
    21  H    2.152908   2.842913   2.163765   3.502115   2.773526
    22  H    1.097743   2.111173   2.685957   3.291160   4.098530
    23  H    1.093714   2.124551   2.830810   2.760424   4.284776
    24  H    2.185944   1.093232   4.252912   5.126593   5.273853
    25  H    2.164007   1.093741   4.690187   5.146245   6.030075
    26  H    2.182362   1.091383   4.504127   4.868786   5.685891
    27  H    3.508706   4.834646   2.190226   1.093717   2.810106
    28  H    2.739293   4.168410   2.182977   1.093665   3.466015
    29  H    4.046036   5.555313   2.175333   1.094329   2.715966
    30  H    4.361713   5.537356   2.199394   2.792808   1.093506
    31  H    4.721140   6.092792   2.174136   2.734308   1.095666
    32  H    4.209564   5.301174   2.175812   3.463450   1.094798
                   11         12         13         14         15
    11  F    0.000000
    12  H    8.341809   0.000000
    13  H    7.515485   1.780254   0.000000
    14  H    7.439647   1.771666   1.768177   0.000000
    15  H    6.475246   2.522661   2.528185   3.081789   0.000000
    16  H    6.409035   2.489771   3.062707   2.494292   1.771788
    17  H    5.163927   3.542426   2.906617   2.294079   2.997274
    18  H    5.064079   3.734230   2.502907   3.044578   2.535659
    19  H    3.982172   4.874828   4.378959   4.633314   2.610705
    20  H    4.054239   4.796048   4.653308   4.213208   3.153345
    21  H    2.592817   6.174017   5.087113   5.302008   4.478636
    22  H    2.391616   7.429117   6.541932   6.127407   6.210239
    23  H    3.248203   6.474628   5.978332   5.211017   5.423590
    24  H    4.434067   5.772716   4.550841   4.333168   5.150417
    25  H    4.683312   6.719151   5.811263   5.090794   6.316955
    26  H    4.984697   5.062025   4.346380   3.460249   4.806468
    27  H    3.300888   6.914525   6.811062   6.366152   5.076707
    28  H    2.608908   7.756159   7.442074   6.826020   6.200638
    29  H    2.603371   8.550136   8.247108   7.899556   6.602266
    30  H    3.294752   6.892790   6.430388   6.699321   4.499662
    31  H    2.567214   8.520057   7.930200   8.128547   6.195312
    32  H    2.601517   7.605326   6.736356   7.201378   5.319596
                   16         17         18         19         20
    16  H    0.000000
    17  H    2.402868   0.000000
    18  H    3.071073   1.763197   0.000000
    19  H    3.045513   3.005598   2.488576   0.000000
    20  H    2.487117   2.441075   3.051302   1.759478   0.000000
    21  H    4.735081   3.182084   2.588295   2.511453   3.070705
    22  H    5.782724   3.904477   4.334126   4.332859   3.827039
    23  H    4.576263   3.087190   4.107013   3.851124   2.688181
    24  H    4.955361   2.582963   2.790310   4.286513   4.089917
    25  H    5.657794   3.399491   4.279002   5.328047   4.579979
    26  H    4.016738   1.812165   3.114183   4.295950   3.427005
    27  H    4.494234   4.475090   4.958726   3.017846   2.183647
    28  H    5.470278   4.715151   5.409250   4.083369   3.085149
    29  H    6.193179   5.816180   6.115430   4.215633   3.768103
    30  H    4.908266   4.904476   4.391237   2.086497   3.058814
    31  H    6.477943   6.103257   5.663904   3.650679   4.299907
    32  H    5.922523   5.245489   4.406107   2.893925   4.044719
                   21         22         23         24         25
    21  H    0.000000
    22  H    2.481814   0.000000
    23  H    3.065353   1.759479   0.000000
    24  H    2.592403   2.608050   3.046938   0.000000
    25  H    3.735169   2.326575   2.546812   1.777514   0.000000
    26  H    3.480540   3.014056   2.373861   1.788974   1.713410
    27  H    3.866654   4.001792   3.070647   5.423101   5.536409
    28  H    3.822334   2.864820   2.152853   4.917045   4.571564
    29  H    4.322469   4.063597   3.742012   6.104574   6.078554
    30  H    3.218232   4.755634   4.591692   5.617789   6.454163
    31  H    3.751637   4.719009   4.963249   6.216162   6.824379
    32  H    2.552393   4.288429   4.791318   5.141738   6.132951
                   26         27         28         29         30
    26  H    0.000000
    27  H    4.921674   0.000000
    28  H    4.478291   1.776036   0.000000
    29  H    5.931396   1.768301   1.746393   0.000000
    30  H    5.821567   2.658662   3.826758   3.085541   0.000000
    31  H    6.610905   3.151690   3.716030   2.488696   1.760773
    32  H    5.872272   3.824384   4.318550   3.717496   1.779059
                   31         32
    31  H    0.000000
    32  H    1.758141   0.000000
 Stoichiometry    C10H21F
 Framework group  C1[X(C10H21F)]
 Deg. of freedom    90
 Full point group                 C1      NOp   1
 Largest Abelian subgroup         C1      NOp   1
 Largest concise Abelian subgroup C1      NOp   1
                         Standard orientation:                         
 ---------------------------------------------------------------------
 Center     Atomic      Atomic             Coordinates (Angstroms)
 Number     Number       Type             X           Y           Z
 ---------------------------------------------------------------------
      1          6           0       -4.346448   -0.397734   -0.039214
      2          6           0       -3.020165   -1.084151    0.250746
      3          6           0       -1.909332   -0.186028   -0.264564
      4          6           0       -0.520712   -0.659663    0.106213
      5          6           0        0.629651    0.263313   -0.368194
      6          6           0        0.595123    1.705448    0.229441
      7          6           0       -0.578009    2.610391   -0.132327
      8          6           0        2.012579   -0.405177   -0.051877
      9          6           0        2.277969   -0.563554    1.447862
     10          6           0        2.196227   -1.756502   -0.750695
     11          9           0        2.991942    0.415574   -0.548955
     12          1           0       -5.183224   -0.986142    0.338524
     13          1           0       -4.473198   -0.243003   -1.115062
     14          1           0       -4.379343    0.589240    0.442183
     15          1           0       -2.976672   -2.073683   -0.220220
     16          1           0       -2.912262   -1.221263    1.331703
     17          1           0       -2.100814    0.756471    0.234482
     18          1           0       -1.990182   -0.024911   -1.342245
     19          1           0       -0.402208   -1.656294   -0.337288
     20          1           0       -0.467676   -0.785656    1.190280
     21          1           0        0.564878    0.371397   -1.460058
     22          1           0        1.498558    2.230563   -0.106860
     23          1           0        0.644583    1.658134    1.321011
     24          1           0       -0.858336    2.520691   -1.185194
     25          1           0       -0.331623    3.655087    0.077848
     26          1           0       -1.447037    2.425377    0.501452
     27          1           0        1.542227   -1.214949    1.928055
     28          1           0        2.273413    0.403294    1.959025
     29          1           0        3.269747   -0.991291    1.623853
     30          1           0        1.497924   -2.516652   -0.389722
     31          1           0        3.207699   -2.142346   -0.581783
     32          1           0        2.074774   -1.652286   -1.833732
 ---------------------------------------------------------------------
 Rotational constants (GHZ):           1.6057166           0.5396399           0.4534160
 Standard basis: 6-31G(2df,p) (6D, 7F)
 There are   446 symmetry adapted cartesian basis functions of A   symmetry.
 There are   413 symmetry adapted basis functions of A   symmetry.
   413 basis functions,   631 primitive gaussians,   446 cartesian basis functions
    45 alpha electrons       45 beta electrons
       nuclear repulsion energy       686.7246689863 Hartrees.
 NAtoms=   32 NActive=   32 NUniq=   32 SFac= 1.00D+00 NAtFMM=   60 NAOKFM=F Big=F
 Integral buffers will be    131072 words long.
 Raffenetti 2 integral format.
 Two-electron integral symmetry is turned on.
 One-electron integrals computed using PRISM.
 PrsmSu:  requested number of processors reduced to:  13 ShMem   1 Linda.
 NBasis=   413 RedAO= T EigKep=  5.17D-04  NBF=   413
 NBsUse=   413 1.00D-06 EigRej= -1.00D+00 NBFU=   413
 ExpMin= 1.61D-01 ExpMax= 7.00D+03 ExpMxC= 1.05D+03 IAcc=3 IRadAn=         5 AccDes= 0.00D+00
 Harris functional with IExCor=  402 and IRadAn=       5 diagonalized for initial guess.
 HarFok:  IExCor=  402 AccDes= 0.00D+00 IRadAn=         5 IDoV= 1 UseB2=F ITyADJ=14
 ICtDFT=  3500011 ScaDFX=  1.000000  1.000000  1.000000  1.000000
 FoFCou: FMM=F IPFlag=           0 FMFlag=      100000 FMFlg1=           0
         NFxFlg=           0 DoJE=T BraDBF=F KetDBF=T FulRan=T
         wScrn=  0.000000 ICntrl=       500 IOpCl=  0 I1Cent=   200000004 NGrid=           0
         NMat0=    1 NMatS0=      1 NMatT0=    0 NMatD0=    1 NMtDS0=    0 NMtDT0=    0
 Petite list used in FoFCou.
 Requested convergence on RMS density matrix=1.00D-08 within 128 cycles.
 Requested convergence on MAX density matrix=1.00D-06.
 Requested convergence on             energy=1.00D-06.
 No special actions if energy rises.
 Integral accuracy reduced to 1.0D-05 until final iterations.
 Initial convergence to 1.0D-05 achieved.  Increase integral accuracy.
 SCF Done:  E(RB3LYP) =  -493.597215014     A.U. after   12 cycles
            NFock= 12  Conv=0.37D-08     -V/T= 2.0081

 **********************************************************************

            Population analysis using the SCF density.

 **********************************************************************

 Orbital symmetries:
       Occupied  (A) (A) (A) (A) (A) (A) (A) (A) (A) (A) (A) (A)
                 (A) (A) (A) (A) (A) (A) (A) (A) (A) (A) (A) (A)
                 (A) (A) (A) (A) (A) (A) (A) (A) (A) (A) (A) (A)
                 (A) (A) (A) (A) (A) (A) (A) (A) (A)
       Virtual   (A) (A) (A) (A) (A) (A) (A) (A) (A) (A) (A) (A)
                 (A) (A) (A) (A) (A) (A) (A) (A) (A) (A) (A) (A)
                 (A) (A) (A) (A) (A) (A) (A) (A) (A) (A) (A) (A)
                 (A) (A) (A) (A) (A) (A) (A) (A) (A) (A) (A) (A)
                 (A) (A) (A) (A) (A) (A) (A) (A) (A) (A) (A) (A)
                 (A) (A) (A) (A) (A) (A) (A) (A) (A) (A) (A) (A)
                 (A) (A) (A) (A) (A) (A) (A) (A) (A) (A) (A) (A)
                 (A) (A) (A) (A) (A) (A) (A) (A) (A) (A) (A) (A)
                 (A) (A) (A) (A) (A) (A) (A) (A) (A) (A) (A) (A)
                 (A) (A) (A) (A) (A) (A) (A) (A) (A) (A) (A) (A)
                 (A) (A) (A) (A) (A) (A) (A) (A) (A) (A) (A) (A)
                 (A) (A) (A) (A) (A) (A) (A) (A) (A) (A) (A) (A)
                 (A) (A) (A) (A) (A) (A) (A) (A) (A) (A) (A) (A)
                 (A) (A) (A) (A) (A) (A) (A) (A) (A) (A) (A) (A)
                 (A) (A) (A) (A) (A) (A) (A) (A) (A) (A) (A) (A)
                 (A) (A) (A) (A) (A) (A) (A) (A) (A) (A) (A) (A)
                 (A) (A) (A) (A) (A) (A) (A) (A) (A) (A) (A) (A)
                 (A) (A) (A) (A) (A) (A) (A) (A) (A) (A) (A) (A)
                 (A) (A) (A) (A) (A) (A) (A) (A) (A) (A) (A) (A)
                 (A) (A) (A) (A) (A) (A) (A) (A) (A) (A) (A) (A)
                 (A) (A) (A) (A) (A) (A) (A) (A) (A) (A) (A) (A)
                 (A) (A) (A) (A) (A) (A) (A) (A) (A) (A) (A) (A)
                 (A) (A) (A) (A) (A) (A) (A) (A) (A) (A) (A) (A)
                 (A) (A) (A) (A) (A) (A) (A) (A) (A) (A) (A) (A)
                 (A) (A) (A) (A) (A) (A) (A) (A) (A) (A) (A) (A)
                 (A) (A) (A) (A) (A) (A) (A) (A) (A) (A) (A) (A)
                 (A) (A) (A) (A) (A) (A) (A) (A) (A) (A) (A) (A)
                 (A) (A) (A) (A) (A) (A) (A) (A) (A) (A) (A) (A)
                 (A) (A) (A) (A) (A) (A) (A) (A) (A) (A) (A) (A)
                 (A) (A) (A) (A) (A) (A) (A) (A) (A) (A) (A) (A)
                 (A) (A) (A) (A) (A) (A) (A) (A)
 The electronic state is 1-A.
 Alpha  occ. eigenvalues --  -24.65821 -10.25457 -10.18567 -10.17475 -10.17403
 Alpha  occ. eigenvalues --  -10.17390 -10.17210 -10.17187 -10.16888 -10.16826
 Alpha  occ. eigenvalues --  -10.16697  -1.18075  -0.82226  -0.78899  -0.75980
 Alpha  occ. eigenvalues --   -0.72638  -0.69114  -0.67790  -0.61773  -0.59081
 Alpha  occ. eigenvalues --   -0.57642  -0.54461  -0.48644  -0.47980  -0.46615
 Alpha  occ. eigenvalues --   -0.45724  -0.44712  -0.42610  -0.41931  -0.40297
 Alpha  occ. eigenvalues --   -0.39751  -0.39144  -0.38572  -0.37594  -0.36706
 Alpha  occ. eigenvalues --   -0.36256  -0.35729  -0.34502  -0.33900  -0.33316
 Alpha  occ. eigenvalues --   -0.32750  -0.32342  -0.30497  -0.29075  -0.28718
 Alpha virt. eigenvalues --    0.08015   0.09142   0.10210   0.10820   0.12065
 Alpha virt. eigenvalues --    0.13345   0.13575   0.14365   0.14546   0.15319
 Alpha virt. eigenvalues --    0.15953   0.16239   0.17661   0.18378   0.18856
 Alpha virt. eigenvalues --    0.19220   0.19599   0.20038   0.20778   0.22065
 Alpha virt. eigenvalues --    0.22475   0.23369   0.23669   0.24215   0.25032
 Alpha virt. eigenvalues --    0.26359   0.27454   0.28348   0.29366   0.31443
 Alpha virt. eigenvalues --    0.32554   0.44082   0.44319   0.45790   0.46777
 Alpha virt. eigenvalues --    0.47941   0.49520   0.49730   0.50863   0.52086
 Alpha virt. eigenvalues --    0.52758   0.53729   0.54881   0.56512   0.57434
 Alpha virt. eigenvalues --    0.57881   0.58390   0.59044   0.60974   0.62280
 Alpha virt. eigenvalues --    0.64202   0.64486   0.66094   0.67250   0.68790
 Alpha virt. eigenvalues --    0.70059   0.71069   0.71943   0.72337   0.72884
 Alpha virt. eigenvalues --    0.73268   0.73650   0.73855   0.74912   0.75507
 Alpha virt. eigenvalues --    0.76063   0.76526   0.77536   0.77865   0.78941
 Alpha virt. eigenvalues --    0.80485   0.81086   0.81444   0.82252   0.84260
 Alpha virt. eigenvalues --    0.84530   0.85105   0.85621   0.86324   0.88291
 Alpha virt. eigenvalues --    0.89228   0.90227   0.92336   0.93367   0.93620
 Alpha virt. eigenvalues --    0.97906   0.98945   1.00160   1.02295   1.05369
 Alpha virt. eigenvalues --    1.06635   1.08128   1.09243   1.11144   1.13832
 Alpha virt. eigenvalues --    1.17702   1.18611   1.20250   1.21518   1.21814
 Alpha virt. eigenvalues --    1.22984   1.24115   1.26927   1.29285   1.30346
 Alpha virt. eigenvalues --    1.32689   1.34092   1.35133   1.36574   1.39613
 Alpha virt. eigenvalues --    1.42178   1.43556   1.45795   1.48281   1.48703
 Alpha virt. eigenvalues --    1.50974   1.52530   1.53103   1.54015   1.54929
 Alpha virt. eigenvalues --    1.56425   1.56814   1.57793   1.58109   1.59318
 Alpha virt. eigenvalues --    1.60402   1.61808   1.63825   1.67457   1.69035
 Alpha virt. eigenvalues --    1.70581   1.73264   1.75213   1.77435   1.80221
 Alpha virt. eigenvalues --    1.81225   1.83566   1.84632   1.85982   1.88016
 Alpha virt. eigenvalues --    1.88981   1.89272   1.89687   1.90616   1.94869
 Alpha virt. eigenvalues --    1.95559   1.95959   1.97016   1.99074   1.99709
 Alpha virt. eigenvalues --    2.00787   2.02948   2.05350   2.08107   2.15049
 Alpha virt. eigenvalues --    2.16108   2.18617   2.19097   2.21804   2.24726
 Alpha virt. eigenvalues --    2.27238   2.28979   2.29130   2.31319   2.31970
 Alpha virt. eigenvalues --    2.32999   2.34586   2.37227   2.38871   2.40527
 Alpha virt. eigenvalues --    2.42581   2.46587   2.48259   2.50773   2.52620
 Alpha virt. eigenvalues --    2.53078   2.54607   2.61696   2.64247   2.67619
 Alpha virt. eigenvalues --    2.69854   2.70662   2.72479   2.73452   2.74195
 Alpha virt. eigenvalues --    2.76170   2.77483   2.77971   2.79937   2.80677
 Alpha virt. eigenvalues --    2.82031   2.82625   2.83003   2.83975   2.84733
 Alpha virt. eigenvalues --    2.86014   2.87309   2.88416   2.89834   2.91154
 Alpha virt. eigenvalues --    2.91869   2.92524   2.93569   2.93979   2.94719
 Alpha virt. eigenvalues --    2.95925   2.96146   2.97684   2.98827   3.01229
 Alpha virt. eigenvalues --    3.02082   3.04217   3.04618   3.05131   3.06724
 Alpha virt. eigenvalues --    3.11137   3.11416   3.12911   3.17033   3.18009
 Alpha virt. eigenvalues --    3.19730   3.21871   3.23003   3.24499   3.26242
 Alpha virt. eigenvalues --    3.32258   3.32904   3.35086   3.37109   3.37919
 Alpha virt. eigenvalues --    3.38195   3.41200   3.42351   3.44622   3.44834
 Alpha virt. eigenvalues --    3.47359   3.49185   3.51948   3.52223   3.54163
 Alpha virt. eigenvalues --    3.56200   3.57521   3.59483   3.61210   3.61295
 Alpha virt. eigenvalues --    3.62790   3.64457   3.64922   3.66507   3.68378
 Alpha virt. eigenvalues --    3.70921   3.71527   3.72327   3.74617   3.77516
 Alpha virt. eigenvalues --    3.79707   3.80219   3.82897   3.83468   3.85479
 Alpha virt. eigenvalues --    3.90131   3.92614   3.94632   3.95694   3.97305
 Alpha virt. eigenvalues --    4.02608   4.03739   4.04947   4.08257   4.10882
 Alpha virt. eigenvalues --    4.17016   4.18762   4.20780   4.24177   4.26636
 Alpha virt. eigenvalues --    4.29331   4.31945   4.35946   4.37424   4.38270
 Alpha virt. eigenvalues --    4.41903   4.43355   4.44030   4.45729   4.47131
 Alpha virt. eigenvalues --    4.47703   4.50751   4.51572   4.52845   4.52957
 Alpha virt. eigenvalues --    4.54284   4.56003   4.57193   4.58280   4.60282
 Alpha virt. eigenvalues --    4.61622   4.62039   4.63743   4.64542   4.64869
 Alpha virt. eigenvalues --    4.67057   4.67689   4.68745   4.69301   4.71019
 Alpha virt. eigenvalues --    4.71880   4.72993   4.74196   4.74770   4.76354
 Alpha virt. eigenvalues --    4.77093   4.78761   4.80367   4.81448   4.82493
 Alpha virt. eigenvalues --    4.83441   4.84165   4.85470   4.86264   4.87117
 Alpha virt. eigenvalues --    4.88014   4.89548   4.90535   4.91608   4.92271
 Alpha virt. eigenvalues --    4.93787   4.95538   4.98581   5.00915   5.01120
 Alpha virt. eigenvalues --    5.04193   5.05696   5.07927   5.20126   5.27548
 Alpha virt. eigenvalues --    5.30702   5.32754   5.37893   5.42116   5.43924
 Alpha virt. eigenvalues --    5.46505   5.50654   5.53157   5.57131   5.60738
 Alpha virt. eigenvalues --    5.62799   5.73244   6.06770   6.15015   6.41587
 Alpha virt. eigenvalues --    6.68027   6.69763   6.85931   6.86268   7.31784
 Alpha virt. eigenvalues --    7.34826   7.36056   9.75721  11.25735  11.46602
 Alpha virt. eigenvalues --   11.59283  11.83858  11.92043  12.03318  12.26190
 Alpha virt. eigenvalues --   12.67688  12.72510  12.85153
          Condensed to atoms (all electrons):
               1          2          3          4          5          6
     1  C    4.942341   0.406699  -0.036187   0.002391  -0.000129   0.000005
     2  C    0.406699   4.818005   0.423487  -0.034334   0.001676   0.000237
     3  C   -0.036187   0.423487   4.762351   0.428555  -0.020284  -0.003256
     4  C    0.002391  -0.034334   0.428555   4.922900   0.337129  -0.024648
     5  C   -0.000129   0.001676  -0.020284   0.337129   4.968033   0.401559
     6  C    0.000005   0.000237  -0.003256  -0.024648   0.401559   4.822902
     7  C    0.000004   0.000162  -0.007608  -0.001339  -0.025800   0.394168
     8  C    0.000001  -0.000050   0.000578  -0.017916   0.345459  -0.013210
     9  C    0.000000   0.000009   0.000208  -0.002004  -0.052641  -0.011273
    10  C    0.000000   0.000004   0.000328  -0.003759  -0.044819   0.003862
    11  F   -0.000000   0.000000  -0.000019   0.001759  -0.043107  -0.003049
    12  H    0.371605  -0.023190   0.003314  -0.000190   0.000001   0.000000
    13  H    0.379770  -0.030470  -0.003590   0.000249   0.000005  -0.000000
    14  H    0.379099  -0.029954  -0.006435   0.000289   0.000009  -0.000005
    15  H   -0.033503   0.365666  -0.032274  -0.000976   0.000006  -0.000002
    16  H   -0.034612   0.367536  -0.029158  -0.003430   0.000216  -0.000023
    17  H   -0.005606  -0.039812   0.369069  -0.031664  -0.003543  -0.000197
    18  H   -0.001925  -0.039129   0.369955  -0.032430  -0.001808  -0.000989
    19  H    0.000096  -0.004485  -0.035124   0.358502  -0.030039   0.004537
    20  H    0.000147  -0.004577  -0.030833   0.355790  -0.028097  -0.007128
    21  H    0.000004   0.000005  -0.004496  -0.044670   0.332768  -0.045009
    22  H   -0.000000   0.000003  -0.000046   0.004709  -0.030134   0.365436
    23  H    0.000000  -0.000017  -0.000080  -0.007346  -0.034322   0.365629
    24  H   -0.000000   0.000028  -0.000064  -0.000797  -0.006362  -0.026351
    25  H    0.000000  -0.000014   0.000406   0.000045   0.002866  -0.023089
    26  H   -0.000026   0.000318  -0.007617   0.000266  -0.000616  -0.025240
    27  H    0.000000  -0.000011   0.000101  -0.001680  -0.000906   0.000325
    28  H   -0.000000   0.000001  -0.000020   0.000429  -0.006343   0.000086
    29  H   -0.000000  -0.000000  -0.000005  -0.000002   0.004715   0.000064
    30  H    0.000000  -0.000009   0.000065  -0.002154  -0.001280  -0.000088
    31  H   -0.000000  -0.000000  -0.000005   0.000081   0.004199  -0.000121
    32  H   -0.000000   0.000001  -0.000057   0.000242  -0.006037   0.000086
               7          8          9         10         11         12
     1  C    0.000004   0.000001   0.000000   0.000000  -0.000000   0.371605
     2  C    0.000162  -0.000050   0.000009   0.000004   0.000000  -0.023190
     3  C   -0.007608   0.000578   0.000208   0.000328  -0.000019   0.003314
     4  C   -0.001339  -0.017916  -0.002004  -0.003759   0.001759  -0.000190
     5  C   -0.025800   0.345459  -0.052641  -0.044819  -0.043107   0.000001
     6  C    0.394168  -0.013210  -0.011273   0.003862  -0.003049   0.000000
     7  C    5.001458   0.001223   0.000349  -0.000114   0.000200  -0.000000
     8  C    0.001223   4.305587   0.352368   0.356212   0.420939  -0.000000
     9  C    0.000349   0.352368   5.171786  -0.073712  -0.033670  -0.000000
    10  C   -0.000114   0.356212  -0.073712   5.169980  -0.029744   0.000000
    11  F    0.000200   0.420939  -0.033670  -0.029744   8.839341   0.000000
    12  H   -0.000000  -0.000000  -0.000000   0.000000   0.000000   0.611027
    13  H    0.000003   0.000000  -0.000000   0.000000   0.000000  -0.031326
    14  H   -0.000074   0.000000   0.000000  -0.000000   0.000000  -0.032182
    15  H   -0.000008   0.000003   0.000000  -0.000007   0.000000  -0.001728
    16  H    0.000027   0.000008  -0.000006   0.000000   0.000000  -0.002206
    17  H   -0.002256  -0.000000  -0.000009  -0.000003   0.000000   0.000102
    18  H    0.000429   0.000136   0.000003  -0.000016  -0.000000  -0.000052
    19  H   -0.000089  -0.005090  -0.000123   0.000943   0.000047   0.000007
    20  H   -0.000091  -0.004501   0.001248  -0.000373   0.000009   0.000003
    21  H   -0.005272  -0.014178   0.006275  -0.009003  -0.000400   0.000000
    22  H   -0.040697  -0.003456  -0.000174   0.000712   0.013675   0.000000
    23  H   -0.040316  -0.002889   0.000115   0.000097  -0.000143  -0.000000
    24  H    0.376769   0.000170   0.000002  -0.000001   0.000001  -0.000000
    25  H    0.367094  -0.000043   0.000001   0.000001  -0.000000  -0.000000
    26  H    0.378427  -0.000063   0.000002   0.000001  -0.000002   0.000000
    27  H   -0.000021  -0.009656   0.352665   0.000906   0.001673   0.000000
    28  H   -0.000153  -0.014779   0.362076   0.005769   0.000017   0.000000
    29  H   -0.000004  -0.015871   0.362769  -0.007151  -0.000185  -0.000000
    30  H   -0.000002  -0.010595   0.000427   0.354577   0.001692   0.000000
    31  H    0.000001  -0.011987  -0.006310   0.358587   0.000285  -0.000000
    32  H    0.000001  -0.012539   0.006031   0.357137   0.000554   0.000000
              13         14         15         16         17         18
     1  C    0.379770   0.379099  -0.033503  -0.034612  -0.005606  -0.001925
     2  C   -0.030470  -0.029954   0.365666   0.367536  -0.039812  -0.039129
     3  C   -0.003590  -0.006435  -0.032274  -0.029158   0.369069   0.369955
     4  C    0.000249   0.000289  -0.000976  -0.003430  -0.031664  -0.032430
     5  C    0.000005   0.000009   0.000006   0.000216  -0.003543  -0.001808
     6  C   -0.000000  -0.000005  -0.000002  -0.000023  -0.000197  -0.000989
     7  C    0.000003  -0.000074  -0.000008   0.000027  -0.002256   0.000429
     8  C    0.000000   0.000000   0.000003   0.000008  -0.000000   0.000136
     9  C   -0.000000   0.000000   0.000000  -0.000006  -0.000009   0.000003
    10  C    0.000000  -0.000000  -0.000007   0.000000  -0.000003  -0.000016
    11  F    0.000000   0.000000   0.000000   0.000000   0.000000  -0.000000
    12  H   -0.031326  -0.032182  -0.001728  -0.002206   0.000102  -0.000052
    13  H    0.600190  -0.033611  -0.004152   0.005646  -0.000572   0.004869
    14  H   -0.033611   0.603888   0.005546  -0.004511   0.006735  -0.000330
    15  H   -0.004152   0.005546   0.649389  -0.042035   0.006758  -0.005572
    16  H    0.005646  -0.004511  -0.042035   0.645710  -0.006678   0.006226
    17  H   -0.000572   0.006735   0.006758  -0.006678   0.643302  -0.043648
    18  H    0.004869  -0.000330  -0.005572   0.006226  -0.043648   0.650213
    19  H    0.000004   0.000014   0.005145  -0.000507   0.006767  -0.005291
    20  H    0.000013   0.000003  -0.000530   0.005997  -0.006778   0.006552
    21  H   -0.000002   0.000001   0.000003   0.000010  -0.000242   0.005373
    22  H   -0.000000   0.000000  -0.000000  -0.000000  -0.000017  -0.000016
    23  H   -0.000000  -0.000000   0.000000  -0.000003   0.000208   0.000066
    24  H    0.000000  -0.000001  -0.000000   0.000001   0.000354   0.000965
    25  H    0.000000   0.000002   0.000000   0.000000   0.000137  -0.000005
    26  H   -0.000000   0.000235  -0.000003   0.000017   0.006442   0.000133
    27  H   -0.000000   0.000000   0.000001  -0.000003   0.000016   0.000003
    28  H    0.000000   0.000000  -0.000000   0.000000  -0.000000   0.000000
    29  H    0.000000   0.000000   0.000000   0.000000  -0.000000   0.000000
    30  H    0.000000  -0.000000  -0.000001   0.000002   0.000002   0.000019
    31  H    0.000000  -0.000000   0.000000   0.000000   0.000000  -0.000000
    32  H   -0.000000   0.000000   0.000000  -0.000000   0.000000   0.000009
              19         20         21         22         23         24
     1  C    0.000096   0.000147   0.000004  -0.000000   0.000000  -0.000000
     2  C   -0.004485  -0.004577   0.000005   0.000003  -0.000017   0.000028
     3  C   -0.035124  -0.030833  -0.004496  -0.000046  -0.000080  -0.000064
     4  C    0.358502   0.355790  -0.044670   0.004709  -0.007346  -0.000797
     5  C   -0.030039  -0.028097   0.332768  -0.030134  -0.034322  -0.006362
     6  C    0.004537  -0.007128  -0.045009   0.365436   0.365629  -0.026351
     7  C   -0.000089  -0.000091  -0.005272  -0.040697  -0.040316   0.376769
     8  C   -0.005090  -0.004501  -0.014178  -0.003456  -0.002889   0.000170
     9  C   -0.000123   0.001248   0.006275  -0.000174   0.000115   0.000002
    10  C    0.000943  -0.000373  -0.009003   0.000712   0.000097  -0.000001
    11  F    0.000047   0.000009  -0.000400   0.013675  -0.000143   0.000001
    12  H    0.000007   0.000003   0.000000   0.000000  -0.000000  -0.000000
    13  H    0.000004   0.000013  -0.000002  -0.000000  -0.000000   0.000000
    14  H    0.000014   0.000003   0.000001   0.000000  -0.000000  -0.000001
    15  H    0.005145  -0.000530   0.000003  -0.000000   0.000000  -0.000000
    16  H   -0.000507   0.005997   0.000010  -0.000000  -0.000003   0.000001
    17  H    0.006767  -0.006778  -0.000242  -0.000017   0.000208   0.000354
    18  H   -0.005291   0.006552   0.005373  -0.000016   0.000066   0.000965
    19  H    0.653308  -0.042614  -0.003738  -0.000189  -0.000027  -0.000036
    20  H   -0.042614   0.647012   0.006542  -0.000020   0.004204   0.000088
    21  H   -0.003738   0.006542   0.690083  -0.002662   0.006524   0.005681
    22  H   -0.000189  -0.000020  -0.002662   0.619462  -0.037333  -0.000493
    23  H   -0.000027   0.004204   0.006524  -0.037333   0.650060   0.005760
    24  H   -0.000036   0.000088   0.005681  -0.000493   0.005760   0.598694
    25  H    0.000007  -0.000006  -0.000061  -0.008672   0.000765  -0.031296
    26  H   -0.000046   0.000128  -0.000112   0.005402  -0.008533  -0.035053
    27  H    0.000371   0.004019  -0.000041  -0.000024   0.000320   0.000000
    28  H    0.000011   0.000417  -0.000008   0.001775   0.004562   0.000004
    29  H   -0.000049  -0.000117  -0.000146  -0.000081  -0.000103   0.000000
    30  H    0.003555   0.000555   0.000410  -0.000024  -0.000002  -0.000000
    31  H   -0.000165  -0.000043  -0.000104  -0.000012   0.000002   0.000000
    32  H    0.001030   0.000069   0.005189  -0.000003   0.000005   0.000001
              25         26         27         28         29         30
     1  C    0.000000  -0.000026   0.000000  -0.000000  -0.000000   0.000000
     2  C   -0.000014   0.000318  -0.000011   0.000001  -0.000000  -0.000009
     3  C    0.000406  -0.007617   0.000101  -0.000020  -0.000005   0.000065
     4  C    0.000045   0.000266  -0.001680   0.000429  -0.000002  -0.002154
     5  C    0.002866  -0.000616  -0.000906  -0.006343   0.004715  -0.001280
     6  C   -0.023089  -0.025240   0.000325   0.000086   0.000064  -0.000088
     7  C    0.367094   0.378427  -0.000021  -0.000153  -0.000004  -0.000002
     8  C   -0.000043  -0.000063  -0.009656  -0.014779  -0.015871  -0.010595
     9  C    0.000001   0.000002   0.352665   0.362076   0.362769   0.000427
    10  C    0.000001   0.000001   0.000906   0.005769  -0.007151   0.354577
    11  F   -0.000000  -0.000002   0.001673   0.000017  -0.000185   0.001692
    12  H   -0.000000   0.000000   0.000000   0.000000  -0.000000   0.000000
    13  H    0.000000  -0.000000  -0.000000   0.000000   0.000000   0.000000
    14  H    0.000002   0.000235   0.000000   0.000000   0.000000  -0.000000
    15  H    0.000000  -0.000003   0.000001  -0.000000   0.000000  -0.000001
    16  H    0.000000   0.000017  -0.000003   0.000000   0.000000   0.000002
    17  H    0.000137   0.006442   0.000016  -0.000000  -0.000000   0.000002
    18  H   -0.000005   0.000133   0.000003   0.000000   0.000000   0.000019
    19  H    0.000007  -0.000046   0.000371   0.000011  -0.000049   0.003555
    20  H   -0.000006   0.000128   0.004019   0.000417  -0.000117   0.000555
    21  H   -0.000061  -0.000112  -0.000041  -0.000008  -0.000146   0.000410
    22  H   -0.008672   0.005402  -0.000024   0.001775  -0.000081  -0.000024
    23  H    0.000765  -0.008533   0.000320   0.004562  -0.000103  -0.000002
    24  H   -0.031296  -0.035053   0.000000   0.000004   0.000000  -0.000000
    25  H    0.621344  -0.034395   0.000000   0.000006  -0.000000   0.000000
    26  H   -0.034395   0.596588   0.000001   0.000009  -0.000000   0.000000
    27  H    0.000000   0.000001   0.589797  -0.029647  -0.028820  -0.000183
    28  H    0.000006   0.000009  -0.029647   0.584165  -0.031749  -0.000071
    29  H   -0.000000  -0.000000  -0.028820  -0.031749   0.593596   0.000427
    30  H    0.000000   0.000000  -0.000183  -0.000071   0.000427   0.589733
    31  H   -0.000000  -0.000000   0.000400  -0.000075   0.004520  -0.028757
    32  H    0.000000   0.000000  -0.000088  -0.000218  -0.000041  -0.029978
              31         32
     1  C   -0.000000  -0.000000
     2  C   -0.000000   0.000001
     3  C   -0.000005  -0.000057
     4  C    0.000081   0.000242
     5  C    0.004199  -0.006037
     6  C   -0.000121   0.000086
     7  C    0.000001   0.000001
     8  C   -0.011987  -0.012539
     9  C   -0.006310   0.006031
    10  C    0.358587   0.357137
    11  F    0.000285   0.000554
    12  H   -0.000000   0.000000
    13  H    0.000000  -0.000000
    14  H   -0.000000   0.000000
    15  H    0.000000   0.000000
    16  H    0.000000  -0.000000
    17  H    0.000000   0.000000
    18  H   -0.000000   0.000009
    19  H   -0.000165   0.001030
    20  H   -0.000043   0.000069
    21  H   -0.000104   0.005189
    22  H   -0.000012  -0.000003
    23  H    0.000002   0.000005
    24  H    0.000000   0.000001
    25  H   -0.000000   0.000000
    26  H   -0.000000   0.000000
    27  H    0.000400  -0.000088
    28  H   -0.000075  -0.000218
    29  H    0.004520  -0.000041
    30  H   -0.028757  -0.029978
    31  H    0.592823  -0.032326
    32  H   -0.032326   0.594472
 Mulliken charges:
               1
     1  C   -0.370171
     2  C   -0.177789
     3  C   -0.141260
     4  C   -0.203998
     5  C   -0.062374
     6  C   -0.175217
     7  C   -0.396471
     8  C    0.354140
     9  C   -0.436412
    10  C   -0.440416
    11  F   -0.169871
    12  H    0.104816
    13  H    0.112974
    14  H    0.111281
    15  H    0.088276
    16  H    0.091775
    17  H    0.101132
    18  H    0.086262
    19  H    0.093271
    20  H    0.092912
    21  H    0.071275
    22  H    0.112877
    23  H    0.092798
    24  H    0.111937
    25  H    0.104909
    26  H    0.123739
    27  H    0.120483
    28  H    0.123737
    29  H    0.118235
    30  H    0.121683
    31  H    0.119007
    32  H    0.116460
 Sum of Mulliken charges =  -0.00000
 Mulliken charges with hydrogens summed into heavy atoms:
               1
     1  C   -0.041101
     2  C    0.002262
     3  C    0.046134
     4  C   -0.017815
     5  C    0.008902
     6  C    0.030458
     7  C   -0.055887
     8  C    0.354140
     9  C   -0.073957
    10  C   -0.083265
    11  F   -0.169871
 Electronic spatial extent (au):  <R**2>=           2650.7999
 Charge=             -0.0000 electrons
 Dipole moment (field-independent basis, Debye):
    X=             -1.0201    Y=             -0.7358    Z=              0.5663  Tot=              1.3794
 Quadrupole moment (field-independent basis, Debye-Ang):
   XX=            -77.4584   YY=            -71.0945   ZZ=            -70.4835
   XY=             -2.1360   XZ=              1.5325   YZ=              0.6670
 Traceless Quadrupole moment (field-independent basis, Debye-Ang):
   XX=             -4.4463   YY=              1.9176   ZZ=              2.5286
   XY=             -2.1360   XZ=              1.5325   YZ=              0.6670
 Octapole moment (field-independent basis, Debye-Ang**2):
  XXX=             16.2389  YYY=              3.5317  ZZZ=             -6.0309  XYY=             10.2618
  XXY=             -7.1883  XXZ=              5.8039  XZZ=              6.5111  YZZ=              1.3699
  YYZ=             -0.3420  XYZ=              0.1522
 Hexadecapole moment (field-independent basis, Debye-Ang**3):
 XXXX=          -2477.4511 YYYY=           -822.7412 ZZZZ=           -289.8542 XXXY=            -11.0124
 XXXZ=              0.5659 YYYX=             16.0844 YYYZ=              1.4912 ZZZX=            -13.4875
 ZZZY=             -1.4142 XXYY=           -531.7525 XXZZ=           -443.7487 YYZZ=           -186.7427
 XXYZ=              2.6093 YYXZ=             -5.0771 ZZXY=              3.3308
 N-N= 6.867246689863D+02 E-N=-2.521552054325D+03  KE= 4.896409224816D+02
 PrsmSu:  requested number of processors reduced to:  13 ShMem   1 Linda.
 Calling FoFJK, ICntrl=      2127 FMM=F ISym2X=0 I1Cent= 0 IOpClX= 0 NMat=1 NMatS=1 NMatT=0.
 ***** Axes restored to original set *****
 -------------------------------------------------------------------
 Center     Atomic                   Forces (Hartrees/Bohr)
 Number     Number              X              Y              Z
 -------------------------------------------------------------------
      1        6          -0.003974749   -0.002743039   -0.005131794
      2        6          -0.003627327    0.006926614    0.000308748
      3        6           0.002577073   -0.012051314   -0.001601174
      4        6           0.002756579    0.008347874    0.004591734
      5        6           0.004009419   -0.009236148    0.000496626
      6        6           0.005218177    0.003141269    0.001426951
      7        6          -0.005613424   -0.005705916    0.002429059
      8        6          -0.005946519   -0.004582504   -0.019164708
      9        6           0.002306210   -0.005875865    0.003206488
     10        6           0.001237688    0.005190109   -0.001463906
     11        9           0.004469931    0.005877040    0.018488512
     12        1          -0.004142237    0.000449330   -0.001678011
     13        1          -0.001870471    0.000136651   -0.001255100
     14        1          -0.000287689    0.001024323   -0.001996947
     15        1          -0.000196083   -0.001097226   -0.001976255
     16        1           0.002503429   -0.000198400   -0.001370617
     17        1          -0.002839621    0.003055306    0.006197871
     18        1          -0.002051567    0.002026474   -0.000286799
     19        1           0.003232794   -0.001589821    0.001347334
     20        1           0.000781635   -0.002257948   -0.000646607
     21        1           0.001769556    0.000877080   -0.001309245
     22        1           0.004289113   -0.000357665   -0.004848043
     23        1           0.002748790   -0.000738828   -0.000375342
     24        1          -0.002568258   -0.000745048    0.000200610
     25        1           0.002370358    0.003862270    0.003919198
     26        1          -0.002333040    0.004085839   -0.001515628
     27        1           0.000160292    0.000851994    0.000975612
     28        1          -0.001705666    0.000439316   -0.001066388
     29        1          -0.000056169    0.003340177   -0.001166562
     30        1          -0.000408727   -0.000000674    0.001769745
     31        1          -0.000814700   -0.002104639    0.002102859
     32        1          -0.001994795   -0.000346633   -0.000608217
 -------------------------------------------------------------------
 Cartesian Forces:  Max     0.019164708 RMS     0.004285591

 GradGradGradGradGradGradGradGradGradGradGradGradGradGradGradGradGradGrad
 Berny optimization.
 FormGI is forming the generalized inverse of G from B-inverse, IUseBI=4.
 Internal  Forces:  Max     0.019828331 RMS     0.004297047
 Search for a local minimum.
 Step number   1 out of a maximum of  182
 All quantities printed in internal units (Hartrees-Bohrs-Radians)
 Mixed Optimization -- RFO/linear search
 Second derivative matrix not updated -- first step.
 ITU=  0
     Eigenvalues ---    0.00230   0.00230   0.00230   0.00338   0.00353
     Eigenvalues ---    0.00433   0.00485   0.00520   0.00590   0.03024
     Eigenvalues ---    0.03285   0.03386   0.03535   0.03926   0.04110
     Eigenvalues ---    0.04481   0.04708   0.04816   0.05052   0.05088
     Eigenvalues ---    0.05089   0.05229   0.05285   0.05313   0.05556
     Eigenvalues ---    0.05588   0.05597   0.05703   0.05730   0.06572
     Eigenvalues ---    0.07372   0.07600   0.08545   0.08710   0.09239
     Eigenvalues ---    0.11621   0.12396   0.12460   0.12836   0.16000
     Eigenvalues ---    0.16000   0.16000   0.16000   0.16000   0.16000
     Eigenvalues ---    0.16000   0.16000   0.16000   0.16000   0.16000
     Eigenvalues ---    0.16000   0.16463   0.17412   0.18207   0.18807
     Eigenvalues ---    0.21841   0.21970   0.22000   0.22044   0.26156
     Eigenvalues ---    0.26701   0.27712   0.29206   0.29308   0.29877
     Eigenvalues ---    0.30244   0.30503   0.31021   0.33781   0.33836
     Eigenvalues ---    0.33933   0.33985   0.34043   0.34166   0.34247
     Eigenvalues ---    0.34264   0.34317   0.34322   0.34384   0.34387
     Eigenvalues ---    0.34387   0.34393   0.34411   0.34442   0.34508
     Eigenvalues ---    0.34508   0.34653   0.34759   0.35572   0.50769
 RFO step:  Lambda=-2.01844771D-02 EMin= 2.30000000D-03
 Linear search not attempted -- first point.
 Iteration  1 RMS(Cart)=  0.22585387 RMS(Int)=  0.00938260
 Iteration  2 RMS(Cart)=  0.02312423 RMS(Int)=  0.00055767
 Iteration  3 RMS(Cart)=  0.00029730 RMS(Int)=  0.00054861
 Iteration  4 RMS(Cart)=  0.00000026 RMS(Int)=  0.00054861
 Variable       Old X    -DE/DX   Delta X   Delta X   Delta X     New X
                                 (Linear)    (Quad)   (Total)
    R1        2.87479   0.00992   0.00000   0.03076   0.03076   2.90555
    R2        2.06067   0.00290   0.00000   0.00788   0.00788   2.06855
    R3        2.06790   0.00055   0.00000   0.00153   0.00153   2.06942
    R4        2.07607  -0.00199   0.00000  -0.00555  -0.00555   2.07052
    R5        2.86972   0.01427   0.00000   0.04387   0.04387   2.91359
    R6        2.07257   0.00068   0.00000   0.00187   0.00187   2.07444
    R7        2.06915   0.00135   0.00000   0.00372   0.00372   2.07287
    R8        2.85972   0.01458   0.00000   0.04412   0.04412   2.90384
    R9        2.04756   0.00302   0.00000   0.00803   0.00803   2.05559
   R10        2.06482   0.00247   0.00000   0.00677   0.00677   2.07159
   R11        2.92772   0.00509   0.00000   0.01711   0.01711   2.94483
   R12        2.07355  -0.00067   0.00000  -0.00187  -0.00187   2.07168
   R13        2.06481   0.00247   0.00000   0.00677   0.00677   2.07158
   R14        2.95071  -0.00242   0.00000  -0.00843  -0.00843   2.94227
   R15        2.96357  -0.00274   0.00000  -0.00973  -0.00973   2.95385
   R16        2.07702   0.00000   0.00000   0.00001   0.00001   2.07703
   R17        2.88209   0.00903   0.00000   0.02830   0.02830   2.91039
   R18        2.07443  -0.00215   0.00000  -0.00598  -0.00598   2.06845
   R19        2.06682   0.00152   0.00000   0.00416   0.00416   2.07098
   R20        2.06591   0.00034   0.00000   0.00094   0.00094   2.06685
   R21        2.06687   0.00181   0.00000   0.00497   0.00497   2.07184
   R22        2.06241  -0.00049   0.00000  -0.00134  -0.00134   2.06108
   R23        2.89365   0.00111   0.00000   0.00353   0.00353   2.89718
   R24        2.89576  -0.00013   0.00000  -0.00042  -0.00042   2.89534
   R25        2.59097   0.01983   0.00000   0.03756   0.03756   2.62854
   R26        2.06683  -0.00123   0.00000  -0.00338  -0.00338   2.06344
   R27        2.06673  -0.00059   0.00000  -0.00163  -0.00163   2.06510
   R28        2.06798   0.00008   0.00000   0.00022   0.00022   2.06820
   R29        2.06643  -0.00159   0.00000  -0.00436  -0.00436   2.06207
   R30        2.07051  -0.00076   0.00000  -0.00209  -0.00209   2.06841
   R31        2.06887   0.00028   0.00000   0.00076   0.00076   2.06963
    A1        1.93854   0.00388   0.00000   0.02095   0.02088   1.95942
    A2        1.93069   0.00141   0.00000   0.00694   0.00691   1.93760
    A3        1.92618   0.00049   0.00000   0.00422   0.00416   1.93034
    A4        1.90496  -0.00330   0.00000  -0.02109  -0.02112   1.88384
    A5        1.88599  -0.00198   0.00000  -0.00927  -0.00936   1.87663
    A6        1.87581  -0.00078   0.00000  -0.00318  -0.00320   1.87261
    A7        1.88199   0.01773   0.00000   0.08324   0.08294   1.96494
    A8        1.93888  -0.00688   0.00000  -0.03217  -0.03239   1.90648
    A9        1.90772  -0.00317   0.00000  -0.00038  -0.00086   1.90686
   A10        1.93786  -0.00416   0.00000  -0.01222  -0.01197   1.92589
   A11        1.91449  -0.00563   0.00000  -0.01867  -0.01967   1.89482
   A12        1.88288   0.00186   0.00000  -0.02039  -0.02099   1.86189
   A13        1.98557  -0.00280   0.00000  -0.00948  -0.01070   1.97486
   A14        1.80173   0.00544   0.00000   0.06143   0.06108   1.86281
   A15        1.94740  -0.00245   0.00000  -0.03896  -0.03949   1.90791
   A16        1.89817   0.00138   0.00000   0.03152   0.03075   1.92892
   A17        1.93446   0.00112   0.00000  -0.01621  -0.01728   1.91719
   A18        1.88907  -0.00236   0.00000  -0.02157  -0.02056   1.86851
   A19        2.00408   0.01912   0.00000   0.08731   0.08674   2.09082
   A20        1.85912  -0.00483   0.00000  -0.02285  -0.02128   1.83784
   A21        1.90045  -0.00485   0.00000   0.00209   0.00040   1.90085
   A22        1.91468  -0.00808   0.00000  -0.05367  -0.05315   1.86153
   A23        1.91395  -0.00458   0.00000  -0.00407  -0.00638   1.90757
   A24        1.86610   0.00227   0.00000  -0.01582  -0.01652   1.84958
   A25        2.00050   0.01172   0.00000   0.08663   0.08666   2.08716
   A26        1.91671   0.00114   0.00000   0.01365   0.01390   1.93061
   A27        1.89549  -0.00348   0.00000  -0.01239  -0.01301   1.88248
   A28        1.91346  -0.00933   0.00000  -0.04133  -0.04325   1.87020
   A29        1.86303   0.00001   0.00000  -0.00094  -0.00326   1.85977
   A30        1.86947  -0.00076   0.00000  -0.05532  -0.05595   1.81352
   A31        2.06489   0.00876   0.00000   0.04204   0.04147   2.10637
   A32        1.88215  -0.00662   0.00000  -0.05746  -0.05740   1.82475
   A33        1.91882  -0.00317   0.00000  -0.00440  -0.00639   1.91243
   A34        1.85099  -0.00023   0.00000  -0.00142  -0.00047   1.85053
   A35        1.87255   0.00023   0.00000   0.03143   0.03058   1.90312
   A36        1.86422   0.00052   0.00000  -0.01580  -0.01644   1.84778
   A37        1.95735   0.00243   0.00000   0.00562   0.00551   1.96286
   A38        1.92611  -0.00395   0.00000  -0.02065  -0.02074   1.90537
   A39        1.95428   0.00373   0.00000   0.02712   0.02710   1.98137
   A40        1.89779  -0.00123   0.00000  -0.01910  -0.01928   1.87852
   A41        1.91897  -0.00402   0.00000  -0.02458  -0.02462   1.89435
   A42        1.80257   0.00284   0.00000   0.03183   0.03183   1.83440
   A43        1.97629   0.00315   0.00000   0.02341   0.02337   1.99965
   A44        1.97100  -0.00205   0.00000  -0.00602  -0.00653   1.96446
   A45        1.87716  -0.00181   0.00000  -0.02290  -0.02292   1.85424
   A46        1.91205   0.00080   0.00000   0.01495   0.01480   1.92685
   A47        1.86837  -0.00086   0.00000  -0.00630  -0.00608   1.86229
   A48        1.85142   0.00057   0.00000  -0.00628  -0.00642   1.84500
   A49        1.95522  -0.00009   0.00000  -0.00317  -0.00325   1.95197
   A50        1.94508  -0.00002   0.00000   0.00265   0.00267   1.94776
   A51        1.93372  -0.00407   0.00000  -0.02271  -0.02276   1.91096
   A52        1.89496   0.00007   0.00000   0.00057   0.00057   1.89553
   A53        1.88206   0.00139   0.00000   0.00251   0.00236   1.88441
   A54        1.84851   0.00298   0.00000   0.02180   0.02185   1.87036
   A55        1.96703  -0.00043   0.00000  -0.00376  -0.00379   1.96324
   A56        1.92931  -0.00378   0.00000  -0.02005  -0.02008   1.90923
   A57        1.93253  -0.00018   0.00000  -0.00057  -0.00057   1.93196
   A58        1.86903   0.00213   0.00000   0.01095   0.01089   1.87991
   A59        1.89852   0.00006   0.00000  -0.00134  -0.00134   1.89718
   A60        1.86340   0.00246   0.00000   0.01638   0.01638   1.87978
    D1       -3.11110  -0.00025   0.00000  -0.00932  -0.00976  -3.12086
    D2        1.04494  -0.00244   0.00000  -0.02875  -0.02851   1.01643
    D3       -1.03082   0.00150   0.00000   0.01641   0.01656  -1.01425
    D4        1.05384   0.00035   0.00000  -0.00148  -0.00191   1.05193
    D5       -1.07330  -0.00184   0.00000  -0.02091  -0.02066  -1.09396
    D6        3.13412   0.00210   0.00000   0.02425   0.02441  -3.12465
    D7       -1.01977   0.00011   0.00000  -0.00458  -0.00499  -1.02476
    D8        3.13627  -0.00208   0.00000  -0.02401  -0.02374   3.11253
    D9        1.06051   0.00186   0.00000   0.02115   0.02134   1.08184
   D10        3.01728   0.00339   0.00000   0.06555   0.06531   3.08259
   D11        0.96346  -0.00026   0.00000  -0.00569  -0.00626   0.95719
   D12       -1.06147   0.00059   0.00000   0.00313   0.00345  -1.05802
   D13       -1.13813   0.00388   0.00000   0.07257   0.07252  -1.06560
   D14        3.09123   0.00024   0.00000   0.00133   0.00095   3.09218
   D15        1.06631   0.00109   0.00000   0.01015   0.01066   1.07697
   D16        0.94132  -0.00002   0.00000   0.02772   0.02778   0.96910
   D17       -1.11251  -0.00366   0.00000  -0.04352  -0.04380  -1.15631
   D18       -3.13743  -0.00281   0.00000  -0.03470  -0.03408   3.11167
   D19       -3.10878  -0.00625   0.00000  -0.11744  -0.11776   3.05665
   D20        1.05129  -0.00459   0.00000  -0.08795  -0.08801   0.96327
   D21       -0.95551  -0.00238   0.00000  -0.05878  -0.05841  -1.01392
   D22       -1.11152  -0.00026   0.00000  -0.02698  -0.02715  -1.13867
   D23        3.04854   0.00140   0.00000   0.00252   0.00260   3.05114
   D24        1.04175   0.00361   0.00000   0.03169   0.03220   1.07395
   D25        0.96319  -0.00162   0.00000  -0.04350  -0.04396   0.91923
   D26       -1.15994   0.00004   0.00000  -0.01401  -0.01421  -1.17414
   D27        3.11645   0.00225   0.00000   0.01516   0.01540   3.13185
   D28        1.07779   0.00529   0.00000   0.10562   0.10543   1.18322
   D29       -3.04260   0.00251   0.00000   0.12594   0.12720  -2.91539
   D30       -1.00353   0.00024   0.00000   0.06001   0.06064  -0.94288
   D31       -3.11280   0.00606   0.00000   0.09565   0.09426  -3.01854
   D32       -0.95000   0.00328   0.00000   0.11597   0.11603  -0.83396
   D33        1.08907   0.00100   0.00000   0.05004   0.04947   1.13855
   D34       -1.06826   0.00140   0.00000   0.04268   0.04198  -1.02628
   D35        1.09454  -0.00138   0.00000   0.06299   0.06375   1.15829
   D36        3.13361  -0.00365   0.00000  -0.00294  -0.00281   3.13080
   D37       -1.12847  -0.00329   0.00000  -0.11072  -0.11143  -1.23991
   D38        3.05647  -0.00362   0.00000  -0.09110  -0.09117   2.96530
   D39        1.03010   0.00118   0.00000  -0.03765  -0.03856   0.99155
   D40        2.99018  -0.00606   0.00000  -0.16010  -0.15994   2.83024
   D41        0.89193  -0.00639   0.00000  -0.14047  -0.13968   0.75226
   D42       -1.13443  -0.00159   0.00000  -0.08702  -0.08706  -1.22150
   D43        0.97093  -0.00045   0.00000  -0.07364  -0.07353   0.89739
   D44       -1.12732  -0.00078   0.00000  -0.05402  -0.05327  -1.18059
   D45        3.12950   0.00402   0.00000  -0.00057  -0.00065   3.12885
   D46       -1.13288  -0.00474   0.00000  -0.03932  -0.03905  -1.17193
   D47        1.05304  -0.00275   0.00000  -0.00469  -0.00446   1.04857
   D48        3.08971  -0.00435   0.00000  -0.03028  -0.02986   3.05985
   D49        1.07984   0.00439   0.00000   0.05178   0.05079   1.13064
   D50       -3.01743   0.00639   0.00000   0.08642   0.08538  -2.93205
   D51       -0.98075   0.00478   0.00000   0.06083   0.05998  -0.92077
   D52        3.09500  -0.00078   0.00000  -0.00040   0.00021   3.09521
   D53       -1.00228   0.00121   0.00000   0.03423   0.03480  -0.96748
   D54        1.03440  -0.00039   0.00000   0.00864   0.00940   1.04380
   D55       -0.71167   0.00147   0.00000   0.03709   0.03753  -0.67414
   D56       -2.83041   0.00416   0.00000   0.07218   0.07253  -2.75787
   D57        1.45524   0.00087   0.00000   0.02964   0.03005   1.48529
   D58        1.40258  -0.00162   0.00000  -0.01176  -0.01162   1.39097
   D59       -0.71615   0.00107   0.00000   0.02332   0.02338  -0.69277
   D60       -2.71369  -0.00222   0.00000  -0.01921  -0.01910  -2.73279
   D61       -2.89307  -0.00104   0.00000  -0.01623  -0.01670  -2.90977
   D62        1.27138   0.00165   0.00000   0.01885   0.01830   1.28968
   D63       -0.72615  -0.00164   0.00000  -0.02368  -0.02418  -0.75034
   D64        1.08371   0.00084   0.00000   0.02000   0.02009   1.10379
   D65       -1.04339   0.00082   0.00000   0.01962   0.01974  -1.02365
   D66       -3.09696  -0.00026   0.00000   0.00532   0.00551  -3.09145
   D67       -1.13358   0.00050   0.00000  -0.00202  -0.00222  -1.13580
   D68        3.02250   0.00048   0.00000  -0.00240  -0.00257   3.01993
   D69        0.96894  -0.00061   0.00000  -0.01669  -0.01680   0.95214
   D70       -3.13378  -0.00012   0.00000   0.00122   0.00120  -3.13258
   D71        1.02231  -0.00014   0.00000   0.00084   0.00086   1.02316
   D72       -1.03126  -0.00122   0.00000  -0.01345  -0.01337  -1.04463
   D73       -1.14544  -0.00234   0.00000  -0.03741  -0.03735  -1.18279
   D74        3.04693  -0.00214   0.00000  -0.03489  -0.03486   3.01207
   D75        0.98557  -0.00270   0.00000  -0.04222  -0.04217   0.94339
   D76        1.07483   0.00092   0.00000   0.00106   0.00103   1.07585
   D77       -1.01599   0.00112   0.00000   0.00358   0.00352  -1.01247
   D78       -3.07735   0.00056   0.00000  -0.00376  -0.00380  -3.08115
   D79        3.08588   0.00061   0.00000  -0.00235  -0.00234   3.08354
   D80        0.99506   0.00081   0.00000   0.00017   0.00015   0.99522
   D81       -1.06630   0.00025   0.00000  -0.00716  -0.00716  -1.07346
         Item               Value     Threshold  Converged?
 Maximum Force            0.019828     0.000450     NO 
 RMS     Force            0.004297     0.000300     NO 
 Maximum Displacement     1.137448     0.001800     NO 
 RMS     Displacement     0.238863     0.001200     NO 
 Predicted change in Energy=-1.295679D-02
 GradGradGradGradGradGradGradGradGradGradGradGradGradGradGradGradGradGrad

                          Input orientation:                          
 ---------------------------------------------------------------------
 Center     Atomic      Atomic             Coordinates (Angstroms)
[...]
 0.00009122,-0.00007175,0.00014422,0.00027006,-0.00009708,-0.00002720,-
 0.00010800,0.00225125,0.00056117,0.01495916,-0.05007052,-0.00764442,-0
 .03159000,0.00024144,-0.00050968,-0.00012943,-0.00026468,0.00438220,0.
 00312293,0.00001780,0.00000371,0.00001410,0.00000897,-0.00000483,-0.00
 000370,0.00000498,0.00000180,-0.00000419,-0.00000396,-0.00000305,-0.00
 000154,-0.00000920,-0.00001549,-0.00001059,0.00007487,0.00002873,0.000
 00370,0.00013513,-0.00001966,0.00001310,0.00002781,0.00000527,-0.00007
 112,-0.00131550,-0.00018963,-0.00018740,0.00013655,-0.00002986,-0.0001
 8765,-0.00000769,0.00009964,-0.00026664,-0.00005386,-0.00008296,0.0000
 1866,0.00002424,-0.00000527,-0.00001022,0.00000367,0.00000728,-0.00000
 914,-0.00006224,0.00001839,0.00004056,0.05148224,0.00000620,-0.0000087
 5,-0.00000042,0.00003051,0.00003690,0.00001607,0.00002303,0.00006214,0
 .00023413,0.00015135,0.00026091,-0.00013158,-0.00010222,0.00048360,0.0
 0027775,-0.00000442,0.00007468,0.00038122,-0.00008487,-0.00001362,-0.0
 0008631,-0.00783611,-0.00282064,-0.02413425,-0.00686581,-0.06813559,-0
 .06822132,-0.00053782,0.00078349,0.00015620,0.00330394,-0.00666127,-0.
 00530951,-0.00000474,-0.00000009,-0.00000643,0.00000149,-0.00000110,0.
 00000103,-0.00000668,-0.00000017,0.00000397,0.00000477,-0.00001396,0.0
 0000987,0.00000280,-0.00000808,-0.00000857,-0.00008022,-0.00000609,0.0
 0000176,-0.00006795,-0.00000554,-0.00002598,0.00007725,-0.00022475,0.0
 0014724,0.00005793,0.00028396,0.00003024,-0.00010089,-0.00002674,0.000
 02124,-0.00017010,-0.00014627,-0.00010286,0.00006396,0.00000685,0.0000
 0845,-0.00002540,0.00001398,0.00001910,0.00000557,0.00000093,0.0000052
 3,-0.00001692,0.00002068,0.00001236,0.00837991,0.07105192,0.00001357,0
 .00000498,-0.00001354,0.00002168,-0.00001644,0.00005038,0.00007761,0.0
 0051104,0.00021412,-0.00102204,-0.00089360,-0.00038799,0.00002216,-0.0
 0044610,-0.00033596,-0.00008018,-0.00018308,-0.00038724,0.00007987,0.0
 0002959,0.00015992,-0.00188225,0.00077418,-0.00682545,-0.02987943,-0.0
 7071318,-0.28796891,-0.00011857,0.00056343,-0.00030889,0.00102952,-0.0
 0174259,0.00096104,-0.00001148,-0.00000491,-0.00000839,-0.00000563,0.0
 0000422,0.00000225,-0.00000282,-0.00000372,0.00000266,0.00000102,0.000
 00378,0.00000110,0.00001042,0.00001430,0.00001195,-0.00004328,-0.00004
 360,0.00000068,-0.00023152,0.00004669,-0.00002618,0.00007594,-0.000004
 02,0.00007182,-0.00030913,0.00091005,0.00037616,0.00013797,0.00001938,
 0.00006978,0.00006739,-0.00009846,0.00032373,0.00004654,0.00010150,-0.
 00000866,-0.00002386,0.00001500,0.00001405,0.00000068,0.00000435,-0.00
 000656,0.00009529,-0.00003665,-0.00003984,0.03478558,0.07741389,0.3138
 0908,-0.00000639,0.00000373,0.00000959,-0.00000269,-0.00000821,-0.0000
 1886,-0.00002075,-0.00007141,0.00000925,-0.00000922,0.00008550,-0.0000
 7555,0.00074013,-0.00022042,-0.00051430,-0.00086652,0.00045856,0.00014
 895,-0.00018154,-0.00003120,0.00012922,0.00584131,0.01301525,-0.012377
 37,-0.07402718,-0.06305104,0.05085106,-0.00173265,0.00258331,0.0012332
 4,0.00012900,-0.00155179,-0.00046180,0.00000935,0.00000160,0.00000869,
 0.00000145,-0.00000152,-0.00000302,-0.00000210,-0.00000186,-0.00000300
 ,0.00000274,-0.00000369,0.00001514,0.00000019,0.00000165,0.00000010,-0
 .00005366,-0.00001282,-0.00000279,0.00002691,0.00000129,0.00000862,0.0
 0004472,-0.00004671,0.00014972,-0.00001838,-0.00003254,-0.00011672,0.0
 0024851,-0.00016907,0.00008927,-0.00037303,0.00030857,0.00057521,-0.00
 043034,-0.00007818,0.00014579,0.00007184,-0.00005855,-0.00005411,0.000
 02150,0.00001511,-0.00002333,0.00007064,-0.00003394,-0.00003658,0.0004
 8986,0.00392390,-0.00300927,0.07808842,0.00000079,-0.00000090,0.000005
 10,0.00002783,0.00000084,0.00000476,-0.00002683,0.00000399,0.00005410,
 0.00026187,0.00000291,-0.00001775,-0.00114566,0.00039624,0.00028341,0.
 00019726,0.00035458,0.00090380,-0.00018745,0.00022558,-0.00052866,-0.0
 0986308,-0.02128125,0.01879497,-0.06148157,-0.19257095,0.11609245,0.00
 410187,-0.00396005,-0.00261468,-0.00022318,0.00270341,-0.00047812,-0.0
 0000006,-0.00000068,-0.00000388,-0.00000249,0.00000031,0.00000278,0.00
 000572,0.00000570,-0.00000050,-0.00000150,0.00000373,-0.00002290,-0.00
 000013,0.00000259,0.00000084,0.00006221,0.00003547,-0.00000353,-0.0000
 1813,-0.00000395,-0.00000145,-0.00010287,0.00006424,-0.00019615,0.0000
 7804,0.00001773,0.00014235,-0.00015204,0.00011302,-0.00008259,-0.00003
 643,-0.00004201,-0.00096767,0.00014240,0.00020999,0.00003867,-0.000052
 24,0.00005264,0.00007057,0.00004472,-0.00002820,-0.00001777,-0.0002238
 5,0.00009531,0.00013202,0.00357261,0.00783720,-0.00592253,0.06651851,0
 .21020708,0.00000032,-0.00000659,-0.00000437,-0.00001480,0.00002455,-0
 .00000313,-0.00001487,-0.00011072,0.00000336,-0.00017606,0.00042240,0.
 00004761,0.00025505,0.00080619,-0.00016929,0.00111537,-0.00016717,0.00
 027175,-0.00007372,-0.00021571,0.00000701,-0.00338134,-0.00541714,0.00
 217973,0.04937941,0.11802590,-0.14080950,0.00037476,-0.00103261,0.0002
 1286,-0.00028162,0.00057111,0.00158678,-0.00000070,0.00000169,-0.00000
 008,0.00000286,-0.00000284,-0.00000019,-0.00000633,-0.00000034,0.00000
 302,0.00000337,-0.00001474,0.00001093,0.00000131,-0.00000806,-0.000014
 26,-0.00005012,0.00000249,0.00001202,0.00004190,-0.00001248,0.00000472
 ,0.00006998,-0.00020328,0.00009904,0.00002388,-0.00011715,-0.00021345,
 -0.00015070,-0.00004519,-0.00005359,0.00056482,-0.00021628,-0.00031095
 ,-0.00025105,-0.00021682,-0.00018196,0.00006148,-0.00004638,-0.0000394
 0,-0.00000504,0.00000780,0.00000783,0.00001500,-0.00000172,-0.00000831
 ,0.01024476,0.02297442,-0.01669636,-0.05619252,-0.12931338,0.15008248,
 0.00001591,-0.00000922,-0.00003817,-0.00004742,-0.00000534,0.00006933,
 0.00004363,0.00002901,-0.00010524,0.00036402,-0.00001108,0.00048573,0.
 00063339,0.00340190,0.00067816,0.00008322,0.00029059,-0.00037758,0.000
 02557,-0.00007122,0.00002582,-0.01979398,-0.00312372,-0.00369351,-0.29
 788396,-0.04097418,-0.04299093,0.00036877,-0.00118290,0.00016918,0.002
 67327,-0.00097626,0.00020153,-0.00002799,-0.00000380,-0.00001955,-0.00
 000283,0.00000394,0.00000707,-0.00000087,0.00000081,0.00000650,0.00000
 180,0.00000720,-0.00001358,0.00000020,-0.00000693,-0.00000960,0.000004
 62,-0.00000871,0.00000551,-0.00001214,-0.00002816,-0.00001043,-0.00002
 138,0.00006495,-0.00010990,0.00004135,0.00003061,0.00003807,-0.0011526
 8,0.00005791,0.00000879,0.00003586,-0.00013161,-0.00003365,0.00006197,
 -0.00000840,0.00006183,-0.00003851,0.00002744,-0.00000325,-0.00004515,
 -0.00002097,0.00005866,0.00000247,0.00002492,0.00001163,-0.00218160,-0
 .00038191,-0.00001918,-0.00885657,-0.00110828,-0.00195391,0.32451893,-
 0.00000147,0.00000739,0.00001913,0.00005007,0.00000853,-0.00001926,0.0
 0001125,0.00012121,0.00015415,-0.00032336,-0.00045610,-0.00057276,0.00
 116598,-0.00537598,-0.00135580,-0.00024697,-0.00028283,0.00023640,0.00
 001171,0.00022559,-0.00016735,0.03044146,0.00323847,0.00509980,-0.0434
 1300,-0.05319888,-0.00668796,0.00065956,0.00151839,-0.00021533,-0.0017
 4873,0.00200293,0.00182162,0.00000842,-0.00000041,0.00000157,-0.000003
 11,0.00000082,-0.00000210,0.00000077,-0.00000052,-0.00000109,-0.000002
 07,-0.00000211,0.00000189,0.00000691,0.00001371,0.00001832,0.00000757,
 0.00000183,-0.00000885,-0.00008940,0.00004885,-0.00000205,-0.00001203,
 0.00005437,0.00005661,-0.00003030,0.00033989,0.00020766,0.00184113,0.0
 0016483,-0.00005438,-0.00002522,0.00002447,-0.00024386,0.00016820,0.00
 021329,0.00004955,-0.00003065,0.00004054,0.00005973,0.00004881,0.00000
 332,-0.00005872,-0.00007992,0.00001142,0.00003173,-0.00842376,-0.00229
 325,-0.00050663,-0.02282786,-0.00358392,-0.00531681,0.04345788,0.05761
 914,0.00000810,0.00000351,-0.00000872,0.00000681,-0.00000545,0.0000304
 3,0.00006270,0.00026344,0.00011191,-0.00036829,-0.00048120,-0.00007742
 ,0.00065196,-0.00137892,-0.00046761,0.00001565,-0.00013980,0.00008522,
 -0.00000494,-0.00010014,0.00013160,0.00684427,-0.00010625,-0.00075684,
 -0.04405021,-0.00550837,-0.05272081,-0.00038215,0.00017613,-0.00022331
 ,0.00016362,0.00081687,0.00083039,-0.00000830,-0.00000304,-0.00000682,
 -0.00000431,0.00000153,0.00000216,-0.00000342,-0.00000130,0.00000226,0
 .00000278,-0.00000179,0.00000187,0.00001077,0.00001048,0.00000555,-0.0
 0004011,-0.00001798,0.00000317,-0.00013990,0.00001772,-0.00001772,0.00
 008751,-0.00005776,0.00005074,0.00005822,0.00049946,0.00008258,0.00048
 220,-0.00003708,0.00017509,-0.00003752,0.00011169,0.00021495,-0.000114
 84,-0.00005444,-0.00009112,0.00003967,-0.00002766,-0.00001911,-0.00001
 329,0.00001550,0.00000232,0.00004817,-0.00002389,-0.00004805,-0.030487
 44,-0.00438828,-0.00408935,0.01970637,0.00261280,0.00327315,0.04751738
 ,0.00743842,0.05332177,-0.00001451,0.00001833,0.00000026,-0.00002936,-
 0.00005964,-0.00001971,-0.00007669,0.00008158,-0.00022625,-0.00116061,
 -0.00099176,0.00052495,0.00003430,0.00053922,-0.00054299,0.00004312,-0
 .00015062,-0.00001962,0.00000478,0.00006268,-0.00002975,-0.00004364,0.
 00471235,0.00842143,0.00004324,0.00036426,-0.00021917,-0.04858039,-0.0
 0684340,-0.02931110,0.00093351,-0.00159623,0.00285848,0.00001655,0.000
 00228,0.00001465,0.00000044,-0.00000375,-0.00000192,0.00001179,0.00000
 211,-0.00000521,-0.00000933,0.00000925,-0.00003342,0.00000101,0.000014
 62,-0.00000113,0.00012555,0.00001757,0.00001077,0.00001370,-0.00001538
 ,0.00002424,-0.00174956,-0.00084263,-0.00037408,0.00003681,0.00007320,
 -0.00012611,-0.00002191,-0.00015374,0.00002876,0.00002332,0.00007019,-
 0.00007038,0.00000951,-0.00002468,-0.00000599,0.00000495,-0.00001623,-
 0.00001571,0.00001947,-0.00001161,-0.00002356,-0.00001936,0.00000517,0
 .00001101,0.00031155,0.00014786,-0.00005599,-0.00015747,0.00002900,0.0
 0005733,0.00004065,-0.00002634,-0.00017589,0.05065051,-0.00000126,-0.0
 0000322,0.00000576,-0.00000016,0.00002173,-0.00002851,-0.00004127,-0.0
 0007148,-0.00009091,-0.00078186,-0.00016582,-0.00022019,0.00020024,0.0
 0037263,-0.00070683,0.00015216,-0.00014478,0.00001989,-0.00000152,0.00
 004523,-0.00004027,0.00562467,0.00838333,0.01951040,0.00031032,0.00053
 253,-0.00060173,-0.00678814,-0.05999789,-0.05409284,-0.00147111,-0.002
 87170,0.00801737,0.00000358,0.00000263,0.00000340,0.00000739,-0.000002
 06,-0.00000387,-0.00000288,-0.00000380,0.00000116,-0.00000720,0.000002
 23,0.00001639,-0.00000699,-0.00001841,0.00000047,0.00001208,-0.0000050
 7,0.00001416,0.00005386,-0.00001250,-0.00001084,-0.00103124,-0.0001646
 4,0.00011962,-0.00003910,-0.00013807,0.00005941,-0.00011868,0.00007512
 ,-0.00004703,0.00004956,0.00013113,0.00000281,-0.00002509,0.00000875,-
 0.00004080,0.00001362,-0.00001190,0.00000292,0.00001904,-0.00000445,-0
 .00000949,-0.00000257,-0.00000087,0.00000155,0.00012490,-0.00083751,0.
 00022841,-0.00014113,0.00028062,-0.00020745,0.00005208,-0.00007119,0.0
 0004308,0.00841462,0.06115631,0.00001464,-0.00001206,-0.00000281,0.000
 05237,0.00002721,0.00004436,0.00006007,-0.00035911,0.00053189,-0.00070
 877,0.00028649,-0.00120445,0.00006944,0.00018194,-0.00028877,0.0000848
 5,0.00003943,0.00008821,-0.00001901,0.00001844,-0.00000094,-0.00432247
 ,-0.00885047,-0.01501740,-0.00010541,-0.00084937,0.00019874,-0.0280595
 6,-0.05109603,-0.29871831,0.00141904,0.00399883,-0.00395150,-0.0000125
 1,-0.00000065,-0.00001308,-0.00000355,0.00000566,0.00000161,-0.0000080
 2,-0.00000194,0.00000379,0.00000741,-0.00000944,0.00002359,0.00000131,
 -0.00000055,0.00000006,-0.00028959,-0.00003045,-0.00001224,-0.00002902
 ,0.00004651,-0.00002052,-0.00047990,-0.00073671,0.00135031,-0.00002770
 ,-0.00012772,0.00014784,-0.00003831,0.00015537,-0.00000352,-0.00008076
 ,-0.00019556,0.00009211,0.00005949,0.00009372,0.00000080,-0.00002727,0
 .00002569,0.00003020,0.00001271,0.00000275,-0.00000716,0.00005011,-0.0
 0001075,-0.00000825,-0.00006763,0.00054733,0.00074046,0.00013576,0.000
 08235,0.00033690,0.00008565,0.00006165,-0.00000725,0.03341452,0.058440
 56,0.32568748,0.00001346,-0.00001198,-0.00003146,-0.00003654,0.0000234
 5,0.00005500,0.00004291,-0.00003191,-0.00005573,0.00030074,0.00026637,
 0.00026063,0.00069179,-0.00189275,0.00165104,-0.00052555,0.00001915,-0
 .00065803,0.00002989,-0.00021345,0.00010946,-0.01309706,-0.00175293,-0
 .00274009,0.00032160,0.00086484,-0.00022424,-0.29712176,-0.03965781,-0
 .04679370,0.00205424,0.00126406,-0.00001080,-0.00002508,-0.00000383,-0
 .00001834,-0.00000009,0.00000326,0.00000553,-0.00000324,-0.00000020,0.
 00000649,0.00000169,0.00000341,-0.00000241,-0.00000182,-0.00001262,-0.
 00000785,-0.00001538,-0.00001116,0.00000173,0.00002132,-0.00000322,-0.
 00000632,-0.00000749,0.00001904,0.00011556,-0.00004939,-0.00012001,-0.
 00001856,0.00043421,-0.00008341,-0.00014152,0.00007723,-0.00003675,0.0
 0009723,-0.00010302,-0.00015071,0.00021172,-0.00001190,0.00003257,-0.0
 0001245,-0.00007815,0.00002243,0.00006855,0.00000980,0.00001300,-0.000
 01287,0.00004120,0.00004420,0.00009220,0.00028499,0.00007711,0.0001589
 8,0.00079350,-0.00029724,-0.00005072,-0.00208550,0.00008898,-0.0000977
 7,0.32264916,0.00000481,-0.00001193,-0.00002756,-0.00005247,0.00002228
 ,0.00004077,0.00004216,-0.00008877,-0.00007891,0.00003371,0.00016206,0
 .00038529,0.00045672,-0.00342367,0.00297690,-0.00133460,0.00052471,-0.
 00018744,-0.00003567,-0.00043739,0.00019983,-0.02701336,-0.00560665,-0
 .00533367,-0.00098397,0.00121349,-0.00055586,-0.03787135,-0.05327929,-
 0.00679815,0.00172453,0.00125095,-0.00211607,-0.00001557,-0.00000059,-
 0.00000850,-0.00000401,0.00000246,0.00000319,0.00000219,0.00000370,0.0
 0000242,0.00000401,0.00000133,-0.00001777,0.00000268,-0.00000025,0.000
 00017,-0.00000680,0.00001798,0.00000141,-0.00002940,0.00001774,0.00001
 132,0.00009589,-0.00005262,-0.00002269,-0.00004615,-0.00003667,-0.0000
 2685,-0.00023075,0.00027939,0.00019228,0.00002868,0.00002984,0.0000123
 1,-0.00009007,-0.00010515,0.00006503,0.00000933,0.00002913,0.00000863,
 -0.00012591,0.00006865,0.00011261,-0.00001249,0.00000523,-0.00001449,-
 0.00001614,-0.00010220,0.00001671,0.00035805,0.00031638,0.00005840,0.0
 0059112,-0.00062015,0.00029457,-0.00635093,-0.00194661,-0.00102707,0.0
 4461395,0.05683752,0.00000823,-0.00000861,0.00000608,0.00003639,0.0000
 2829,0.00000800,0.00002675,-0.00020224,0.00028642,-0.00023298,0.000204
 86,-0.00080378,0.00043979,0.00283996,-0.00299975,0.00110058,0.00010382
 ,0.00040160,0.00000473,0.00027529,-0.00011454,0.02014993,0.00407922,0.
 00141142,0.00013491,-0.00092467,0.00011813,-0.04886831,-0.00841334,-0.
 05339700,-0.00027558,-0.00080472,0.00214069,-0.00000515,-0.00000047,-0
 .00000690,-0.00000195,0.00000269,0.00000042,-0.00000764,-0.00000138,0.
 00000223,0.00000827,-0.00001068,0.00002384,0.00000044,-0.00000182,0.00
 000152,-0.00016762,-0.00001063,-0.00001135,-0.00001722,0.00002496,-0.0
 0001215,-0.00002991,-0.00030675,0.00064065,-0.00003622,-0.00009872,0.0
 0011525,-0.00027362,0.00012233,-0.00001202,0.00000245,-0.00000352,0.00
 004695,0.00010419,0.00019677,-0.00016707,0.00000959,-0.00003183,0.0000
 0614,0.00008028,-0.00004563,-0.00007159,0.00002032,-0.00001463,-0.0000
 0469,-0.00016049,-0.00003723,0.00003762,0.00004582,-0.00018063,-0.0001
 2456,-0.00023152,0.00012327,0.00031255,-0.03100670,-0.00437093,-0.0045
 9401,0.05135625,0.00606397,0.05605433,-0.00000632,0.00000344,0.0000093
 2,0.00000490,0.00000247,-0.00001832,-0.00003446,-0.00001007,-0.0000050
 6,-0.00001584,0.00003606,0.00001245,0.00080406,-0.00113976,-0.00033583
 ,0.00013449,0.00001878,-0.00005648,-0.00001500,0.00006413,-0.00001253,
 0.00457505,-0.00963147,-0.00275700,-0.00031943,-0.00139511,0.00106682,
 -0.11563307,0.11274793,0.02996330,-0.00008608,0.00028319,-0.00120077,0
 .00000847,0.00000210,0.00000654,0.00000027,-0.00000200,-0.00000288,0.0
 0000151,0.00000042,-0.00000215,-0.00000020,-0.00000104,-0.00000048,0.0
 0000201,0.00000315,0.00000600,0.00001050,0.00000994,-0.00000001,-0.000
 01948,0.00000120,0.00000157,0.00004744,0.00004176,-0.00004763,0.000046
 23,0.00007291,0.00002216,-0.00011666,-0.00017409,0.00030867,-0.0000055
 0,0.00001413,-0.00003804,0.00001410,0.00001400,-0.00001082,0.00000316,
 -0.00001026,0.00000526,0.00001911,0.00000050,-0.00002501,-0.00001182,-
 0.00000737,0.00000505,-0.00014050,0.00006135,0.00013717,0.00066691,-0.
 00049419,0.00018219,0.00035596,-0.00029830,0.00017517,0.00162357,-0.00
 466691,-0.00109014,-0.01460576,0.02625178,0.00778597,0.12269238,-0.000
 00253,-0.00000179,-0.00000427,-0.00002116,-0.00000866,0.00000074,-0.00
 000393,-0.00005343,-0.00002584,-0.00035347,0.00002945,-0.00007058,0.00
 210928,0.00034438,-0.00078215,-0.00006319,0.00048931,0.00034556,-0.000
 05217,-0.00005410,-0.00002790,0.01352568,-0.02365424,-0.00796455,-0.00
 302343,-0.00285290,0.00425884,0.11095625,-0.22930358,-0.04757529,-0.00
 051236,0.00281056,-0.00035271,0.00000369,0.00000146,0.00000521,-0.0000
 0756,0.00000390,-0.00000046,0.00000400,0.00000239,-0.00000309,0.000005
 10,-0.00000344,-0.00001390,0.00000658,0.00002122,0.00001137,-0.0000005
 6,0.00002096,0.00000140,-0.00008039,0.00003377,0.00000859,0.00005051,-
 0.00017114,-0.00011840,0.00012508,0.00023131,0.00009744,-0.00129494,0.
 00072479,0.00037118,-0.00000389,0.00000167,-0.00015248,0.00007793,0.00
 018241,-0.00011686,-0.00000591,0.00001652,0.00004687,0.00000620,0.0000
 2499,0.00000341,-0.00003492,0.00000524,0.00001262,-0.00013727,0.000388
 40,-0.00004600,0.00106692,-0.00145767,-0.00022209,0.00001235,0.0002263
 6,0.00002814,0.00252262,-0.00454028,-0.00070604,-0.00307587,0.00492911
 ,0.00140299,-0.12179864,0.25161303,0.00000022,-0.00000162,-0.00000593,
 -0.00001195,-0.00001170,0.00001168,0.00001091,-0.00006444,0.00003359,-
 0.00016022,-0.00002296,0.00002301,-0.00080760,-0.00014596,0.00055156,-
 0.00016061,-0.00007935,-0.00007785,0.00001227,0.00000426,0.00002938,-0
 .01013991,0.01661021,0.00302511,0.00142775,0.00240575,-0.00231031,0.02
 993590,-0.04989715,-0.05963667,0.00008502,-0.00115750,0.00194279,0.000
 00004,0.,0.00000016,-0.00000769,0.00000196,0.00000311,0.00000305,0.000
 00489,-0.00000140,0.00000752,-0.00000605,-0.00001872,0.00000471,0.0000
 1753,-0.00000066,-0.00000931,0.00002024,-0.00000090,-0.00003206,0.0000
 1384,0.00002687,0.00014918,-0.00006454,-0.00007612,0.00003576,0.000071
 50,-0.00010135,0.00031896,-0.00018342,0.00013903,0.00000317,0.00005602
 ,0.00002712,-0.00004246,-0.00004329,0.00001334,0.00001250,-0.00001306,
 -0.00001795,-0.00000949,-0.00000350,-0.00000037,-0.00000568,-0.0000073
 5,-0.00000625,0.00006720,0.00019123,0.00025654,-0.00037259,0.00113122,
 0.00049023,0.00017915,-0.00016855,-0.00010358,0.01689828,-0.02601567,-
 0.00542813,-0.00330752,0.00576922,0.00070556,-0.03408450,0.05158824,0.
 06050713\\0.00000299,0.00000037,-0.00000115,-0.00000209,0.00000150,0.0
 0000335,0.00000141,-0.00000258,-0.00000177,0.00000099,0.00000192,0.000
 00363,-0.00000302,-0.00000131,-0.00000542,0.00000105,0.00000014,-0.000
 00117,0.00000264,-0.00000476,-0.00000127,0.00000588,0.00000445,0.00000
 440,-0.00000393,-0.00000216,0.00000065,-0.00000437,-0.00000101,-0.0000
 0252,-0.00000238,-0.00000207,-0.00000369,-0.00000092,0.00000113,-0.000
 00036,-0.00000097,0.00000023,0.00000031,-0.00000055,-0.00000023,-0.000
 00015,0.00000079,-0.00000052,-0.00000082,0.00000099,-0.00000009,-0.000
 00055,-0.00000098,0.00000224,0.00000189,0.00000026,0.00000075,0.000000
 10,-0.00000066,0.00000025,-0.00000048,0.00000157,-0.00000133,-0.000001
 90,0.00000182,-0.00000065,0.00000110,-0.00000035,-0.00000245,0.0000021
 8,-0.00000031,0.00000187,-0.00000006,0.00000140,0.00000177,0.00000089,
 0.00000048,0.00000007,0.00000084,-0.00000213,-0.00000007,-0.00000164,0
 .00000058,0.00000053,-0.00000083,-0.00000107,-0.00000044,-0.00000020,-
 0.00000043,0.00000151,0.00000036,0.00000031,0.00000138,0.00000178,0.00
 000127,-0.00000002,0.00000106,-0.00000029,-0.00000039,0.00000144\\\@


 I SUPPOSE A BABY LLAMA HAS A MMAMA AND A PPOPA.
     -- RICHARD AMOUR
 Job cpu time:       0 days  5 hours 25 minutes 21.9 seconds.
 Elapsed time:       0 days  1 hours 21 minutes 54.8 seconds.
 File lengths (MBytes):  RWF=    388 Int=      0 D2E=      0 Chk=     15 Scr=      1
 Normal termination of Gaussian 16 at Mon May 22 09:41:50 2023.
### All Done ###
