### Starting Gaussian ###
 Entering Gaussian System, Link 0=g16
 Initial command:
 /cluster/software/gaussian/gaussian-16-A.03/avx2/g16/l1.exe "/local/scratch/cz9n3/Gau-12570.inp" -scrdir="/local/scratch/cz9n3/"
 Entering Link 1 = /cluster/software/gaussian/gaussian-16-A.03/avx2/g16/l1.exe PID=     12571.
  
 Copyright (c) 1988,1990,1992,1993,1995,1998,2003,2009,2016,
            Gaussian, Inc.  All Rights Reserved.
  
 This is part of the Gaussian(R) 16 program.  It is based on
 the Gaussian(R) 09 system (copyright 2009, Gaussian, Inc.),
 the Gaussian(R) 03 system (copyright 2003, Gaussian, Inc.),
 the Gaussian(R) 98 system (copyright 1998, Gaussian, Inc.),
 the Gaussian(R) 94 system (copyright 1995, Gaussian, Inc.),
 the Gaussian 92(TM) system (copyright 1992, Gaussian, Inc.),
 the Gaussian 90(TM) system (copyright 1990, Gaussian, Inc.),
 the Gaussian 88(TM) system (copyright 1988, Gaussian, Inc.),
 the Gaussian 86(TM) system (copyright 1986, Carnegie Mellon
 University), and the Gaussian 82(TM) system (copyright 1983,
 Carnegie Mellon University). Gaussian is a federally registered
 trademark of Gaussian, Inc.
  
 This software contains proprietary and confidential information,
 including trade secrets, belonging to Gaussian, Inc.
  
 This software is provided under written license and may be
 used, copied, transmitted, or stored only in accord with that
 written license.
  
 The following legend is applicable only to US Government
 contracts under FAR:
  
                    RESTRICTED RIGHTS LEGEND
  
 Use, reproduction and disclosure by the US Government is
 subject to restrictions as set forth in subparagraphs (a)
 and (c) of the Commercial Computer Software - Restricted
 Rights clause in FAR 52.227-19.
  
 Gaussian, Inc.
 340 Quinnipiac St., Bldg. 40, Wallingford CT 06492
  
  
 ---------------------------------------------------------------
 Warning -- This program may not be used in any manner that
 competes with the business of Gaussian, Inc. or will provide
 assistance to any competitor of Gaussian, Inc.  The licensee
 of this program is prohibited from giving any competitor of
 Gaussian, Inc. access to this program.  By using this program,
 the user acknowledges that Gaussian, Inc. is engaged in the
 business of creating and licensing software in the field of
 computational chemistry and represents and warrants to the
 licensee that it is not a competitor of Gaussian, Inc. and that
 it will not use this program in any manner prohibited above.
 ---------------------------------------------------------------
  

 Cite this work as:
 Gaussian 16, Revision A.03,
 M. J. Frisch, G. W. Trucks, H. B. Schlegel, G. E. Scuseria, 
 M. A. Robb, J. R. Cheeseman, G. Scalmani, V. Barone, 
 G. A. Petersson, H. Nakatsuji, X. Li, M. Caricato, A. V. Marenich, 
 J. Bloino, B. G. Janesko, R. Gomperts, B. Mennucci, H. P. Hratchian, 
 J. V. Ortiz, A. F. Izmaylov, J. L. Sonnenberg, D. Williams-Young, 
 F. Ding, F. Lipparini, F. Egidi, J. Goings, B. Peng, A. Petrone, 
 T. Henderson, D. Ranasinghe, V. G. Zakrzewski, J. Gao, N. Rega, 
 G. Zheng, W. Liang, M. Hada, M. Ehara, K. Toyota, R. Fukuda, 
 J. Hasegawa, M. Ishida, T. Nakajima, Y. Honda, O. Kitao, H. Nakai, 
 T. Vreven, K. Throssell, J. A. Montgomery, Jr., J. E. Peralta, 
 F. Ogliaro, M. J. Bearpark, J. J. Heyd, E. N. Brothers, K. N. Kudin, 
 V. N. Staroverov, T. A. Keith, R. Kobayashi, J. Normand, 
 K. Raghavachari, A. P. Rendell, J. C. Burant, S. S. Iyengar, 
 J. Tomasi, M. Cossi, J. M. Millam, M. Klene, C. Adamo, R. Cammi, 
 J. W. Ochterski, R. L. Martin, K. Morokuma, O. Farkas, 
 J. B. Foresman, and D. J. Fox, Gaussian, Inc., Wallingford CT, 2016.
 
 ******************************************
 Gaussian 16:  ES64L-G16RevA.03 25-Dec-2016
                23-May-2023 
 ******************************************
 %chk=CCCC1CCCCqOCrCqCCNNOrCC1.chk
 %NProcShared=20
 Will use up to   20 processors via shared memory.
 -----------------------------
 # opt freq b3lyp/6-31g(2df,p)
 -----------------------------
 1/18=20,19=15,26=3,38=1/1,3;
 2/9=110,12=2,17=6,18=5,40=1/2;
 3/5=1,6=6,7=104,11=2,25=1,30=1,71=1,74=-5/1,2,3;
 4//1;
 5/5=2,38=5/2;
 6/7=2,8=2,9=2,10=2,28=1/1;
 7//1,2,3,16;
 1/18=20,19=15,26=3/3(2);
 2/9=110/2;
 99//99;
 2/9=110/2;
 3/5=1,6=6,7=104,11=2,25=1,30=1,71=1,74=-5/1,2,3;
 4/5=5,16=3,69=1/1;
 5/5=2,38=5/2;
 7//1,2,3,16;
 1/18=20,19=15,26=3/3(-5);
 2/9=110/2;
 6/7=2,8=2,9=2,10=2,19=2,28=1/1;
 99/9=1/99;
 -------------------
 Title Card Required
 -------------------
 Symbolic Z-matrix:
 Charge =  0 Multiplicity = 1
 C                     0.93472   0.09753   0.04444 
 C                     2.44433   0.08813   0.09096 
 C                     3.05312   1.14193  -0.82737 
 C                     4.60762   1.12619  -0.86578 
 C                     5.18419  -0.25269  -0.48495 
 C                     6.6936   -0.41334  -0.47066 
 C                     7.42553  -0.44219  -1.81133 
 C                     6.69357  -1.10884  -3.00125 
 O                     7.72182  -1.785    -3.76503 
 C                     7.24455  -2.51268  -4.89266 
 C                     5.93252  -0.12217  -3.9335 
 C                     6.91693   0.83109  -4.64361 
 C                     6.20989   1.74439  -5.63016 
 N                     7.18983   2.61162  -6.27014 
 N                     6.49634   3.45749  -7.17387 
 O                     7.40836   4.45021  -7.68381 
 C                     4.72721   0.60162  -3.33135 
 C                     5.05112   1.62401  -2.24392 
 H                     0.54891  -0.68194   0.70742 
 H                     0.58091  -0.11213  -0.97018 
 H                     0.54184   1.06444   0.36543 
 H                     2.75858  -0.91393  -0.22182 
 H                     2.79112   0.24828   1.11677 
 H                     2.72369   2.14546  -0.529 
 H                     2.6331    0.99755  -1.83101 
 H                     4.96384   1.85246  -0.12324 
 H                     4.74108  -1.0403   -1.10229 
 H                     4.86833  -0.47148   0.54224 
 H                     6.9009   -1.36764   0.03318 
 H                     7.13518   0.35941   0.17112 
 H                     8.38154  -0.95467  -1.63603 
 H                     7.72933   0.5781   -2.05458 
 H                     6.01876  -1.88918  -2.62992 
 H                     8.09185  -3.02065  -5.35672 
 H                     6.83494  -1.84811  -5.65906 
 H                     6.49134  -3.24568  -4.59398 
 H                     5.46555  -0.73156  -4.71743 
 H                     7.67725   0.24938  -5.17877 
 H                     7.46523   1.44179  -3.92027 
 H                     5.48807   2.37677  -5.10322 
 H                     5.67163   1.13685  -6.3692 
 H                     7.88206   2.02331  -6.74327 
 H                     5.82534   4.05633  -6.66532 
 H                     8.00133   3.87577  -8.21115 
 H                     4.00496  -0.15257  -3.00023 
 H                     4.18259   1.12052  -4.13073 
 H                     4.52314   2.56078  -2.47236 
 H                     6.1051    1.90804  -2.23121 
 

 GradGradGradGradGradGradGradGradGradGradGradGradGradGradGradGradGradGrad
 Berny optimization.
 Initialization pass.
                           ----------------------------
                           !    Initial Parameters    !
                           ! (Angstroms and Degrees)  !
 --------------------------                            --------------------------
 ! Name  Definition              Value          Derivative Info.                !
 --------------------------------------------------------------------------------
 ! R1    R(1,2)                  1.5104         estimate D2E/DX2                !
 ! R2    R(1,19)                 1.0936         estimate D2E/DX2                !
 ! R3    R(1,20)                 1.0948         estimate D2E/DX2                !
 ! R4    R(1,21)                 1.0919         estimate D2E/DX2                !
 ! R5    R(2,3)                  1.5246         estimate D2E/DX2                !
 ! R6    R(2,22)                 1.0958         estimate D2E/DX2                !
 ! R7    R(2,23)                 1.0946         estimate D2E/DX2                !
 ! R8    R(3,4)                  1.5551         estimate D2E/DX2                !
 ! R9    R(3,24)                 1.0976         estimate D2E/DX2                !
 ! R10   R(3,25)                 1.0975         estimate D2E/DX2                !
 ! R11   R(4,5)                  1.5423         estimate D2E/DX2                !
 ! R12   R(4,18)                 1.5309         estimate D2E/DX2                !
 ! R13   R(4,26)                 1.0981         estimate D2E/DX2                !
 ! R14   R(5,6)                  1.518          estimate D2E/DX2                !
 ! R15   R(5,27)                 1.0944         estimate D2E/DX2                !
 ! R16   R(5,28)                 1.0967         estimate D2E/DX2                !
 ! R17   R(6,7)                  1.5277         estimate D2E/DX2                !
 ! R18   R(6,29)                 1.0989         estimate D2E/DX2                !
 ! R19   R(6,30)                 1.0973         estimate D2E/DX2                !
 ! R20   R(7,8)                  1.5479         estimate D2E/DX2                !
 ! R21   R(7,31)                 1.0988         estimate D2E/DX2                !
 ! R22   R(7,32)                 1.092          estimate D2E/DX2                !
 ! R23   R(8,9)                  1.4484         estimate D2E/DX2                !
 ! R24   R(8,11)                 1.5562         estimate D2E/DX2                !
 ! R25   R(8,33)                 1.0964         estimate D2E/DX2                !
 ! R26   R(9,10)                 1.4244         estimate D2E/DX2                !
 ! R27   R(10,34)                1.0915         estimate D2E/DX2                !
 ! R28   R(10,35)                1.094          estimate D2E/DX2                !
 ! R29   R(10,36)                1.0926         estimate D2E/DX2                !
 ! R30   R(11,12)                1.5434         estimate D2E/DX2                !
 ! R31   R(11,17)                1.5295         estimate D2E/DX2                !
 ! R32   R(11,37)                1.0973         estimate D2E/DX2                !
 ! R33   R(12,13)                1.519          estimate D2E/DX2                !
 ! R34   R(12,38)                1.0968         estimate D2E/DX2                !
 ! R35   R(12,39)                1.094          estimate D2E/DX2                !
 ! R36   R(13,14)                1.4567         estimate D2E/DX2                !
 ! R37   R(13,40)                1.0948         estimate D2E/DX2                !
 ! R38   R(13,41)                1.0977         estimate D2E/DX2                !
 ! R39   R(14,15)                1.4189         estimate D2E/DX2                !
 ! R40   R(14,42)                1.0243         estimate D2E/DX2                !
 ! R41   R(15,16)                1.4413         estimate D2E/DX2                !
 ! R42   R(15,43)                1.0332         estimate D2E/DX2                !
 ! R43   R(16,44)                0.9796         estimate D2E/DX2                !
 ! R44   R(17,18)                1.5273         estimate D2E/DX2                !
 ! R45   R(17,45)                1.0955         estimate D2E/DX2                !
 ! R46   R(17,46)                1.0977         estimate D2E/DX2                !
 ! R47   R(18,47)                1.0993         estimate D2E/DX2                !
 ! R48   R(18,48)                1.0917         estimate D2E/DX2                !
 ! A1    A(2,1,19)             109.2388         estimate D2E/DX2                !
 ! A2    A(2,1,20)             110.5097         estimate D2E/DX2                !
 ! A3    A(2,1,21)             110.8599         estimate D2E/DX2                !
 ! A4    A(19,1,20)            108.1393         estimate D2E/DX2                !
 ! A5    A(19,1,21)            109.0263         estimate D2E/DX2                !
 ! A6    A(20,1,21)            109.0102         estimate D2E/DX2                !
 ! A7    A(1,2,3)              112.102          estimate D2E/DX2                !
 ! A8    A(1,2,22)             106.4718         estimate D2E/DX2                !
 ! A9    A(1,2,23)             110.158          estimate D2E/DX2                !
 ! A10   A(3,2,22)             110.2205         estimate D2E/DX2                !
 ! A11   A(3,2,23)             109.6844         estimate D2E/DX2                !
 ! A12   A(22,2,23)            108.0855         estimate D2E/DX2                !
 ! A13   A(2,3,4)              114.0195         estimate D2E/DX2                !
 ! A14   A(2,3,24)             110.3884         estimate D2E/DX2                !
 ! A15   A(2,3,25)             107.8828         estimate D2E/DX2                !
 ! A16   A(4,3,24)             108.4219         estimate D2E/DX2                !
 ! A17   A(4,3,25)             111.0169         estimate D2E/DX2                !
 ! A18   A(24,3,25)            104.715          estimate D2E/DX2                !
 ! A19   A(3,4,5)              112.1262         estimate D2E/DX2                !
 ! A20   A(3,4,18)             107.9707         estimate D2E/DX2                !
 ! A21   A(3,4,26)             107.5115         estimate D2E/DX2                !
 ! A22   A(5,4,18)             113.8718         estimate D2E/DX2                !
 ! A23   A(5,4,26)             107.6422         estimate D2E/DX2                !
 ! A24   A(18,4,26)            107.4387         estimate D2E/DX2                !
 ! A25   A(4,5,6)              117.947          estimate D2E/DX2                !
 ! A26   A(4,5,27)             110.6556         estimate D2E/DX2                !
 ! A27   A(4,5,28)             107.5753         estimate D2E/DX2                !
 ! A28   A(6,5,27)             109.374          estimate D2E/DX2                !
 ! A29   A(6,5,28)             104.8594         estimate D2E/DX2                !
 ! A30   A(27,5,28)            105.5538         estimate D2E/DX2                !
 ! A31   A(5,6,7)              118.0423         estimate D2E/DX2                !
 ! A32   A(5,6,29)             106.4873         estimate D2E/DX2                !
 ! A33   A(5,6,30)             109.3374         estimate D2E/DX2                !
 ! A34   A(7,6,29)             107.1927         estimate D2E/DX2                !
 ! A35   A(7,6,30)             109.4974         estimate D2E/DX2                !
 ! A36   A(29,6,30)            105.5155         estimate D2E/DX2                !
 ! A37   A(6,7,8)              117.1408         estimate D2E/DX2                !
 ! A38   A(6,7,31)             106.5975         estimate D2E/DX2                !
 ! A39   A(6,7,32)             108.1271         estimate D2E/DX2                !
 ! A40   A(8,7,31)             109.4627         estimate D2E/DX2                !
 ! A41   A(8,7,32)             111.2665         estimate D2E/DX2                !
 ! A42   A(31,7,32)            103.2536         estimate D2E/DX2                !
 ! A43   A(7,8,9)              105.7072         estimate D2E/DX2                !
 ! A44   A(7,8,11)             114.7521         estimate D2E/DX2                !
 ! A45   A(7,8,33)             109.7061         estimate D2E/DX2                !
 ! A46   A(9,8,11)             109.1029         estimate D2E/DX2                !
 ! A47   A(9,8,33)             106.4554         estimate D2E/DX2                !
 ! A48   A(11,8,33)            110.6789         estimate D2E/DX2                !
 ! A49   A(8,9,10)             114.7138         estimate D2E/DX2                !
 ! A50   A(9,10,34)            108.3149         estimate D2E/DX2                !
 ! A51   A(9,10,35)            111.6984         estimate D2E/DX2                !
 ! A52   A(9,10,36)            110.9347         estimate D2E/DX2                !
 ! A53   A(34,10,35)           105.9932         estimate D2E/DX2                !
 ! A54   A(34,10,36)           109.8251         estimate D2E/DX2                !
 ! A55   A(35,10,36)           109.9334         estimate D2E/DX2                !
 ! A56   A(8,11,12)            110.8118         estimate D2E/DX2                !
 ! A57   A(8,11,17)            116.7172         estimate D2E/DX2                !
 ! A58   A(8,11,37)            106.4988         estimate D2E/DX2                !
 ! A59   A(12,11,17)           113.048          estimate D2E/DX2                !
 ! A60   A(12,11,37)           106.604          estimate D2E/DX2                !
 ! A61   A(17,11,37)           102.0472         estimate D2E/DX2                !
 ! A62   A(11,12,13)           111.9193         estimate D2E/DX2                !
 ! A63   A(11,12,38)           109.821          estimate D2E/DX2                !
 ! A64   A(11,12,39)           111.1154         estimate D2E/DX2                !
 ! A65   A(13,12,38)           108.9458         estimate D2E/DX2                !
 ! A66   A(13,12,39)           109.0918         estimate D2E/DX2                !
 ! A67   A(38,12,39)           105.7394         estimate D2E/DX2                !
 ! A68   A(12,13,14)           109.279          estimate D2E/DX2                !
 ! A69   A(12,13,40)           109.9736         estimate D2E/DX2                !
 ! A70   A(12,13,41)           109.4346         estimate D2E/DX2                !
 ! A71   A(14,13,40)           108.1261         estimate D2E/DX2                !
 ! A72   A(14,13,41)           111.3197         estimate D2E/DX2                !
 ! A73   A(40,13,41)           108.6893         estimate D2E/DX2                !
 ! A74   A(13,14,15)           107.8155         estimate D2E/DX2                !
 ! A75   A(13,14,42)           108.3989         estimate D2E/DX2                !
 ! A76   A(15,14,42)           112.2422         estimate D2E/DX2                !
 ! A77   A(14,15,16)           109.0683         estimate D2E/DX2                !
 ! A78   A(14,15,43)           110.454          estimate D2E/DX2                !
 ! A79   A(16,15,43)           100.7131         estimate D2E/DX2                !
 ! A80   A(15,16,44)            99.7642         estimate D2E/DX2                !
 ! A81   A(11,17,18)           115.4653         estimate D2E/DX2                !
 ! A82   A(11,17,45)           108.2262         estimate D2E/DX2                !
 ! A83   A(11,17,46)           109.1477         estimate D2E/DX2                !
 ! A84   A(18,17,45)           112.6729         estimate D2E/DX2                !
 ! A85   A(18,17,46)           107.8957         estimate D2E/DX2                !
 ! A86   A(45,17,46)           102.6183         estimate D2E/DX2                !
 ! A87   A(4,18,17)            111.2117         estimate D2E/DX2                !
 ! A88   A(4,18,47)            108.9669         estimate D2E/DX2                !
 ! A89   A(4,18,48)            110.7209         estimate D2E/DX2                !
 ! A90   A(17,18,47)           108.7002         estimate D2E/DX2                !
 ! A91   A(17,18,48)           112.7813         estimate D2E/DX2                !
 ! A92   A(47,18,48)           104.1472         estimate D2E/DX2                !
 ! D1    D(19,1,2,3)           179.2559         estimate D2E/DX2                !
 ! D2    D(19,1,2,22)           58.653          estimate D2E/DX2                !
 ! D3    D(19,1,2,23)          -58.3082         estimate D2E/DX2                !
 ! D4    D(20,1,2,3)            60.3999         estimate D2E/DX2                !
 ! D5    D(20,1,2,22)          -60.203          estimate D2E/DX2                !
 ! D6    D(20,1,2,23)         -177.1642         estimate D2E/DX2                !
 ! D7    D(21,1,2,3)           -60.579          estimate D2E/DX2                !
 ! D8    D(21,1,2,22)          178.8181         estimate D2E/DX2                !
 ! D9    D(21,1,2,23)           61.8568         estimate D2E/DX2                !
 ! D10   D(1,2,3,4)           -177.2314         estimate D2E/DX2                !
 ! D11   D(1,2,3,24)            60.4436         estimate D2E/DX2                !
 ! D12   D(1,2,3,25)           -53.4266         estimate D2E/DX2                !
 ! D13   D(22,2,3,4)           -58.8258         estimate D2E/DX2                !
 ! D14   D(22,2,3,24)          178.8492         estimate D2E/DX2                !
 ! D15   D(22,2,3,25)           64.979          estimate D2E/DX2                !
 ! D16   D(23,2,3,4)            60.0641         estimate D2E/DX2                !
 ! D17   D(23,2,3,24)          -62.2609         estimate D2E/DX2                !
 ! D18   D(23,2,3,25)         -176.1311         estimate D2E/DX2                !
 ! D19   D(2,3,4,5)             24.3764         estimate D2E/DX2                !
 ! D20   D(2,3,4,18)           150.615          estimate D2E/DX2                !
 ! D21   D(2,3,4,26)           -93.7457         estimate D2E/DX2                !
 ! D22   D(24,3,4,5)           147.7739         estimate D2E/DX2                !
 ! D23   D(24,3,4,18)          -85.9876         estimate D2E/DX2                !
 ! D24   D(24,3,4,26)           29.6518         estimate D2E/DX2                !
 ! D25   D(25,3,4,5)           -97.7206         estimate D2E/DX2                !
 ! D26   D(25,3,4,18)           28.518          estimate D2E/DX2                !
 ! D27   D(25,3,4,26)          144.1573         estimate D2E/DX2                !
 ! D28   D(3,4,5,6)           -179.5994         estimate D2E/DX2                !
 ! D29   D(3,4,5,27)            53.4358         estimate D2E/DX2                !
 ! D30   D(3,4,5,28)           -61.399          estimate D2E/DX2                !
 ! D31   D(18,4,5,6)            57.4338         estimate D2E/DX2                !
 ! D32   D(18,4,5,27)          -69.531          estimate D2E/DX2                !
 ! D33   D(18,4,5,28)          175.6342         estimate D2E/DX2                !
 ! D34   D(26,4,5,6)           -61.555          estimate D2E/DX2                !
 ! D35   D(26,4,5,27)          171.4802         estimate D2E/DX2                !
 ! D36   D(26,4,5,28)           56.6454         estimate D2E/DX2                !
 ! D37   D(3,4,18,17)          -70.2763         estimate D2E/DX2                !
 ! D38   D(3,4,18,47)           49.5285         estimate D2E/DX2                !
 ! D39   D(3,4,18,48)          163.503          estimate D2E/DX2                !
 ! D40   D(5,4,18,17)           54.932          estimate D2E/DX2                !
 ! D41   D(5,4,18,47)          174.7368         estimate D2E/DX2                !
 ! D42   D(5,4,18,48)          -71.2887         estimate D2E/DX2                !
 ! D43   D(26,4,18,17)         174.0367         estimate D2E/DX2                !
 ! D44   D(26,4,18,47)         -66.1585         estimate D2E/DX2                !
 ! D45   D(26,4,18,48)          47.8159         estimate D2E/DX2                !
 ! D46   D(4,5,6,7)            -71.9927         estimate D2E/DX2                !
 ! D47   D(4,5,6,29)           167.5486         estimate D2E/DX2                !
 ! D48   D(4,5,6,30)            54.0008         estimate D2E/DX2                !
 ! D49   D(27,5,6,7)            55.5855         estimate D2E/DX2                !
 ! D50   D(27,5,6,29)          -64.8731         estimate D2E/DX2                !
 ! D51   D(27,5,6,30)         -178.4209         estimate D2E/DX2                !
 ! D52   D(28,5,6,7)           168.3766         estimate D2E/DX2                !
 ! D53   D(28,5,6,29)           47.918          estimate D2E/DX2                !
 ! D54   D(28,5,6,30)          -65.6298         estimate D2E/DX2                !
 ! D55   D(5,6,7,8)            -34.6257         estimate D2E/DX2                !
 ! D56   D(5,6,7,31)          -157.5476         estimate D2E/DX2                !
 ! D57   D(5,6,7,32)            92.0077         estimate D2E/DX2                !
 ! D58   D(29,6,7,8)            85.4672         estimate D2E/DX2                !
 ! D59   D(29,6,7,31)          -37.4547         estimate D2E/DX2                !
 ! D60   D(29,6,7,32)         -147.8994         estimate D2E/DX2                !
 ! D61   D(30,6,7,8)          -160.5415         estimate D2E/DX2                !
 ! D62   D(30,6,7,31)           76.5366         estimate D2E/DX2                !
 ! D63   D(30,6,7,32)          -33.9081         estimate D2E/DX2                !
 ! D64   D(6,7,8,9)           -143.4519         estimate D2E/DX2                !
 ! D65   D(6,7,8,11)            96.2823         estimate D2E/DX2                !
 ! D66   D(6,7,8,33)           -29.0404         estimate D2E/DX2                !
 ! D67   D(31,7,8,9)           -22.0123         estimate D2E/DX2                !
 ! D68   D(31,7,8,11)         -142.278          estimate D2E/DX2                !
 ! D69   D(31,7,8,33)           92.3992         estimate D2E/DX2                !
 ! D70   D(32,7,8,9)            91.4701         estimate D2E/DX2                !
 ! D71   D(32,7,8,11)          -28.7957         estimate D2E/DX2                !
 ! D72   D(32,7,8,33)         -154.1184         estimate D2E/DX2                !
 ! D73   D(7,8,9,10)           177.8025         estimate D2E/DX2                !
 ! D74   D(11,8,9,10)          -58.3021         estimate D2E/DX2                !
 ! D75   D(33,8,9,10)           61.1679         estimate D2E/DX2                !
 ! D76   D(7,8,11,12)           64.7069         estimate D2E/DX2                !
 ! D77   D(7,8,11,17)          -66.6084         estimate D2E/DX2                !
 ! D78   D(7,8,11,37)         -179.736          estimate D2E/DX2                !
 ! D79   D(9,8,11,12)          -53.663          estimate D2E/DX2                !
 ! D80   D(9,8,11,17)          175.0217         estimate D2E/DX2                !
 ! D81   D(9,8,11,37)           61.8942         estimate D2E/DX2                !
 ! D82   D(33,8,11,12)        -170.4801         estimate D2E/DX2                !
 ! D83   D(33,8,11,17)          58.2046         estimate D2E/DX2                !
 ! D84   D(33,8,11,37)         -54.9229         estimate D2E/DX2                !
 ! D85   D(8,9,10,34)         -176.9874         estimate D2E/DX2                !
 ! D86   D(8,9,10,35)           66.6487         estimate D2E/DX2                !
 ! D87   D(8,9,10,36)          -56.3818         estimate D2E/DX2                !
 ! D88   D(8,11,12,13)         176.2073         estimate D2E/DX2                !
 ! D89   D(8,11,12,38)          55.0728         estimate D2E/DX2                !
 ! D90   D(8,11,12,39)         -61.5613         estimate D2E/DX2                !
 ! D91   D(17,11,12,13)        -50.6035         estimate D2E/DX2                !
 ! D92   D(17,11,12,38)       -171.738          estimate D2E/DX2                !
 ! D93   D(17,11,12,39)         71.6279         estimate D2E/DX2                !
 ! D94   D(37,11,12,13)         60.7156         estimate D2E/DX2                !
 ! D95   D(37,11,12,38)        -60.4189         estimate D2E/DX2                !
 ! D96   D(37,11,12,39)       -177.0529         estimate D2E/DX2                !
 ! D97   D(8,11,17,18)          68.2283         estimate D2E/DX2                !
 ! D98   D(8,11,17,45)         -59.0956         estimate D2E/DX2                !
 ! D99   D(8,11,17,46)        -170.0606         estimate D2E/DX2                !
 ! D100  D(12,11,17,18)        -62.0437         estimate D2E/DX2                !
 ! D101  D(12,11,17,45)        170.6324         estimate D2E/DX2                !
 ! D102  D(12,11,17,46)         59.6674         estimate D2E/DX2                !
 ! D103  D(37,11,17,18)       -176.1442         estimate D2E/DX2                !
 ! D104  D(37,11,17,45)         56.5319         estimate D2E/DX2                !
 ! D105  D(37,11,17,46)        -54.4331         estimate D2E/DX2                !
 ! D106  D(11,12,13,14)       -179.7103         estimate D2E/DX2                !
 ! D107  D(11,12,13,40)         61.747          estimate D2E/DX2                !
 ! D108  D(11,12,13,41)        -57.5792         estimate D2E/DX2                !
 ! D109  D(38,12,13,14)        -58.0711         estimate D2E/DX2                !
 ! D110  D(38,12,13,40)       -176.6138         estimate D2E/DX2                !
 ! D111  D(38,12,13,41)         64.06           estimate D2E/DX2                !
 ! D112  D(39,12,13,14)         56.9091         estimate D2E/DX2                !
 ! D113  D(39,12,13,40)        -61.6336         estimate D2E/DX2                !
 ! D114  D(39,12,13,41)        179.0402         estimate D2E/DX2                !
 ! D115  D(12,13,14,15)       -179.4815         estimate D2E/DX2                !
 ! D116  D(12,13,14,42)         58.7895         estimate D2E/DX2                !
 ! D117  D(40,13,14,15)        -59.7933         estimate D2E/DX2                !
 ! D118  D(40,13,14,42)        178.4777         estimate D2E/DX2                !
 ! D119  D(41,13,14,15)         59.5274         estimate D2E/DX2                !
 ! D120  D(41,13,14,42)        -62.2017         estimate D2E/DX2                !
 ! D121  D(13,14,15,16)        172.081          estimate D2E/DX2                !
 ! D122  D(13,14,15,43)         62.2748         estimate D2E/DX2                !
 ! D123  D(42,14,15,16)        -68.6046         estimate D2E/DX2                !
 ! D124  D(42,14,15,43)       -178.4107         estimate D2E/DX2                !
 ! D125  D(14,15,16,44)         67.3988         estimate D2E/DX2                !
 ! D126  D(43,15,16,44)       -176.389          estimate D2E/DX2                !
 ! D127  D(11,17,18,4)        -108.9445         estimate D2E/DX2                !
 ! D128  D(11,17,18,47)        131.0924         estimate D2E/DX2                !
 ! D129  D(11,17,18,48)         16.1299         estimate D2E/DX2                !
 ! D130  D(45,17,18,4)          16.1123         estimate D2E/DX2                !
 ! D131  D(45,17,18,47)       -103.8509         estimate D2E/DX2                !
 ! D132  D(45,17,18,48)        141.1867         estimate D2E/DX2                !
 ! D133  D(46,17,18,4)         128.6743         estimate D2E/DX2                !
 ! D134  D(46,17,18,47)          8.7112         estimate D2E/DX2                !
 ! D135  D(46,17,18,48)       -106.2513         estimate D2E/DX2                !
 --------------------------------------------------------------------------------
 Trust Radius=3.00D-01 FncErr=1.00D-07 GrdErr=1.00D-06 EigMax=2.50D+02 EigMin=1.00D-04
 Number of steps in this run=    285 maximum allowed number of steps=    288.
 GradGradGradGradGradGradGradGradGradGradGradGradGradGradGradGradGradGrad

                          Input orientation:                          
 ---------------------------------------------------------------------
 Center     Atomic      Atomic             Coordinates (Angstroms)
 Number     Number       Type             X           Y           Z
 ---------------------------------------------------------------------
      1          6           0        0.934720    0.097530    0.044440
      2          6           0        2.444330    0.088130    0.090960
      3          6           0        3.053120    1.141930   -0.827370
      4          6           0        4.607620    1.126190   -0.865780
      5          6           0        5.184190   -0.252690   -0.484950
      6          6           0        6.693600   -0.413340   -0.470660
      7          6           0        7.425530   -0.442190   -1.811330
      8          6           0        6.693570   -1.108840   -3.001250
      9          8           0        7.721820   -1.785000   -3.765030
     10          6           0        7.244550   -2.512680   -4.892660
     11          6           0        5.932520   -0.122170   -3.933500
     12          6           0        6.916930    0.831090   -4.643610
     13          6           0        6.209890    1.744390   -5.630160
     14          7           0        7.189830    2.611620   -6.270140
     15          7           0        6.496340    3.457490   -7.173870
     16          8           0        7.408360    4.450210   -7.683810
     17          6           0        4.727210    0.601620   -3.331350
     18          6           0        5.051120    1.624010   -2.243920
     19          1           0        0.548910   -0.681940    0.707420
     20          1           0        0.580910   -0.112130   -0.970180
     21          1           0        0.541840    1.064440    0.365430
     22          1           0        2.758580   -0.913930   -0.221820
     23          1           0        2.791120    0.248280    1.116770
     24          1           0        2.723690    2.145460   -0.529000
     25          1           0        2.633100    0.997550   -1.831010
     26          1           0        4.963840    1.852460   -0.123240
     27          1           0        4.741080   -1.040300   -1.102290
     28          1           0        4.868330   -0.471480    0.542240
     29          1           0        6.900900   -1.367640    0.033180
     30          1           0        7.135180    0.359410    0.171120
     31          1           0        8.381540   -0.954670   -1.636030
     32          1           0        7.729330    0.578100   -2.054580
     33          1           0        6.018760   -1.889180   -2.629920
     34          1           0        8.091850   -3.020650   -5.356720
     35          1           0        6.834940   -1.848110   -5.659060
     36          1           0        6.491340   -3.245680   -4.593980
     37          1           0        5.465550   -0.731560   -4.717430
     38          1           0        7.677250    0.249380   -5.178770
     39          1           0        7.465230    1.441790   -3.920270
     40          1           0        5.488070    2.376770   -5.103220
     41          1           0        5.671630    1.136850   -6.369200
     42          1           0        7.882060    2.023310   -6.743270
     43          1           0        5.825340    4.056330   -6.665320
     44          1           0        8.001330    3.875770   -8.211150
     45          1           0        4.004960   -0.152570   -3.000230
     46          1           0        4.182590    1.120520   -4.130730
     47          1           0        4.523140    2.560780   -2.472360
     48          1           0        6.105100    1.908040   -2.231210
 ---------------------------------------------------------------------
                    Distance matrix (angstroms):
                    1          2          3          4          5
     1  C    0.000000
     2  C    1.510356   0.000000
     3  C    2.517626   1.524615   0.000000
     4  C    3.921331   2.583165   1.555054   0.000000
     5  C    4.296615   2.820401   2.569762   1.542328   0.000000
     6  C    5.804396   4.315459   3.974821   2.622515   1.518002
     7  C    6.772429   5.358386   4.753481   3.360729   2.611283
     8  C    6.625399   5.389855   4.800479   3.729179   3.056630
     9  O    8.007541   6.799204   6.244480   5.155475   4.421138
    10  C    8.426275   7.392076   6.888457   6.034114   5.364750
    11  C    6.391422   5.329913   4.420061   3.567165   3.531222
    12  C    7.635624   6.555326   5.439608   4.437566   4.633726
    13  C    7.920900   7.046549   5.778836   5.064460   5.613695
    14  N    9.236935   8.327747   6.992575   6.171014   6.759829
    15  N    9.712103   8.974917   7.582588   6.985286   7.760723
    16  O   10.980878  10.203744   8.770610   8.085715   8.881880
    17  C    5.102259   4.145771   3.060135   2.523591   3.006771
    18  C    4.950907   3.821773   2.496201   1.530943   2.575594
    19  H    1.093602   2.136738   3.457333   4.713536   4.805395
    20  H    1.094803   2.153708   2.775767   4.214111   4.630917
    21  H    1.091927   2.155918   2.781241   4.248560   4.899938
    22  H    2.102477   1.095769   2.163332   2.827671   2.527857
    23  H    2.149148   1.094622   2.155675   2.828587   2.922886
    24  H    2.779076   2.166795   1.097552   2.168300   3.436150
    25  H    2.685488   2.134631   1.097522   2.201578   3.143730
    26  H    4.397920   3.083289   2.156734   1.098056   2.147334
    27  H    4.134976   2.823519   2.772529   2.183444   1.094433
    28  H    4.005604   2.528358   2.788173   2.145470   1.096702
    29  H    6.143464   4.688669   4.673746   3.505203   2.111555
    30  H    6.207281   4.699371   4.274638   2.837547   2.147430
    31  H    7.706246   6.270597   5.782882   4.377869   3.469987
    32  H    7.127661   5.724914   4.867329   3.385073   3.103496
    33  H    6.078378   4.908105   4.607802   3.767753   2.824093
    34  H    9.493160   8.440155   7.951785   7.035956   6.312704
    35  H    8.433743   7.489273   6.825520   6.064895   5.660544
    36  H    7.972955   7.031447   6.727543   6.046579   5.248882
    37  H    6.625045   5.737619   4.945943   4.361478   4.268766
    38  H    8.530339   7.428291   6.412013   5.365940   5.338480
    39  H    7.757159   6.567480   5.396542   4.194693   4.458232
    40  H    7.240603   6.440631   5.073136   4.505002   5.323046
    41  H    8.040726   7.297188   6.129315   5.605342   6.065708
    42  H    9.901877   8.945419   7.687221   6.787612   7.185071
    43  H    9.198431   8.533766   7.089470   6.610842   7.561462
    44  H   11.505079  10.684170   9.299402   8.545871   9.201882
    45  H    4.331159   3.471161   2.702416   2.560137   2.779792
    46  H    5.387691   4.680817   3.491181   3.292504   4.022514
    47  H    5.027787   4.123840   2.622992   2.155524   3.507478
    48  H    5.932062   4.701679   3.445617   2.172127   2.926816
                    6          7          8          9         10
     6  C    0.000000
     7  C    1.527727   0.000000
     8  C    2.624425   1.547933   0.000000
     9  O    3.713699   2.389115   1.448396   0.000000
    10  C    4.925937   3.716756   2.419045   1.424379   0.000000
    11  C    3.557427   2.614402   1.556215   2.448465   2.890666
    12  C    4.360275   3.146701   2.551581   2.874661   3.369000
    13  C    5.613396   4.565345   3.909736   4.268634   4.442643
    14  N    6.559771   5.409464   4.977322   5.088109   5.306496
    15  N    7.743078   6.695352   6.188782   6.372260   6.434801
    16  O    8.728948   7.643422   7.303446   7.371088   7.503279
    17  C    3.616681   3.268169   2.627016   3.853793   4.298087
    18  C    3.161169   3.177128   3.277142   4.589963   5.379513
    19  H    6.262366   7.327311   7.189807   8.524681   8.918750
    20  H    6.140458   6.904006   6.517921   7.848712   8.096455
    21  H    6.381773   7.375189   7.341762   8.759687   9.239568
    22  H    3.974531   4.952727   4.821552   6.160102   6.670583
    23  H    4.264625   5.525240   5.833436   7.230353   7.973029
    24  H    4.723457   5.517935   5.697582   7.134543   7.821635
    25  H    4.508750   5.004061   4.721627   6.113762   6.554455
    26  H    2.871693   3.764968   4.477076   5.839538   6.855906
    27  H    2.145779   2.840202   2.724512   4.065658   4.775162
    28  H    2.088291   3.475546   4.036589   5.331071   6.273042
    29  H    1.098871   2.129298   3.052495   3.908260   5.068837
    30  H    1.097277   2.158002   3.523451   4.520610   5.822605
    31  H    2.121383   1.098782   2.176428   2.378512   3.784941
    32  H    2.136467   1.091997   2.194254   2.917180   4.224054
    33  H    2.701095   2.177813   1.096442   2.049327   2.647887
    34  H    5.711983   4.434211   3.340426   2.048714   1.091468
    35  H    5.384982   4.138893   2.762329   2.092340   1.093985
    36  H    5.006478   4.058991   2.672783   2.082024   1.092623
    37  H    4.432203   3.517197   2.143746   2.666000   2.523477
    38  H    4.855210   3.446924   2.748451   2.477771   2.810349
    39  H    3.992083   2.828177   2.818824   3.240696   4.078244
    40  H    5.540634   4.747297   4.245113   4.909249   5.199642
    41  H    6.183873   5.132613   4.174994   4.418392   4.239495
    42  H    6.833399   5.532734   5.022508   4.837232   4.940282
    43  H    7.688019   6.808708   6.392043   6.791867   6.950422
    44  H    8.945491   7.741707   7.328003   7.203501   7.238604
    45  H    3.700745   3.632859   2.853608   4.130956   4.432421
    46  H    4.696170   4.282329   3.542710   4.593684   4.812097
    47  H    4.190834   4.228316   4.296115   5.548725   6.245312
    48  H    2.972318   2.728262   3.168726   4.313343   5.284357
                   11         12         13         14         15
    11  C    0.000000
    12  C    1.543381   0.000000
    13  C    2.537644   1.518981   0.000000
    14  N    3.809767   2.427007   1.456690   0.000000
    15  N    4.861261   3.671115   2.323748   1.418856   0.000000
    16  O    6.095046   4.752089   3.602120   2.329513   1.441288
    17  C    1.529454   2.563115   2.964589   4.329097   5.103996
    18  C    2.584703   3.141414   3.581042   4.664751   5.454788
    19  H    7.129848   8.454257   8.837346  10.180162  10.706145
    20  H    6.117278   7.384369   7.539728   8.898664   9.285487
    21  H    6.996304   8.110900   8.278661   9.519471   9.900697
    22  H    4.947459   6.315789   6.944663   8.285388   9.022813
    23  H    5.959098   7.109427   7.710214   8.916303   9.631324
    24  H    5.198976   6.020037   6.191630   7.288649   7.752974
    25  H    4.069448   5.127341   5.271123   6.563146   7.037193
    26  H    4.399498   5.029066   5.647166   6.581469   7.391621
    27  H    3.205970   4.558220   5.514844   6.785246   7.757263
    28  H    4.613758   5.725949   6.693907   7.829648   8.810538
    29  H    4.268900   5.167885   6.498896   7.459882   8.682576
    30  H    4.304209   4.842700   6.035659   6.823875   7.997193
    31  H    3.459642   3.792039   5.287160   5.967711   7.327265
    32  H    2.692442   2.725266   4.056316   4.711392   6.001523
    33  H    2.197517   3.501646   4.716015   5.905913   7.032954
    34  H    3.884514   4.089604   5.130512   5.776715   6.914766
    35  H    2.602074   2.866352   3.646585   4.515369   5.527992
    36  H    3.241115   4.099225   5.104281   6.132321   7.182503
    37  H    1.097253   2.133970   2.741796   4.069509   4.964349
    38  H    2.175507   1.096754   2.142884   2.647422   3.958149
    39  H    2.189828   1.093987   2.142701   2.639363   3.948127
    40  H    2.794724   2.154532   1.094803   2.076739   2.544043
    41  H    2.754238   2.149866   1.097729   2.118889   2.590948
    42  H    4.037152   2.600276   2.028044   1.024277   2.040223
    43  H    4.993415   3.959931   2.562128   2.026126   1.033186
    44  H    6.209814   4.813870   3.796518   2.454410   1.875074
    45  H    2.141823   3.485377   3.921314   5.336333   6.054649
    46  H    2.155327   2.797040   2.597585   3.980446   4.480577
    47  H    3.364447   3.665567   3.671964   4.640792   5.177046
    48  H    2.655057   2.763795   3.404500   4.240828   5.194589
                   16         17         18         19         20
    16  O    0.000000
    17  C    6.398759   0.000000
    18  C    6.567830   1.527319   0.000000
    19  H   11.991820   5.951250   5.856425   0.000000
    20  H   10.606689   4.824559   4.961791   1.772018   0.000000
    21  H   11.108681   5.603366   5.239793   1.779565   1.780364
    22  H   10.299308   3.980147   3.973131   2.408308   2.438272
    23  H   10.790057   4.864059   4.277204   2.461784   3.061092
    24  H    8.857162   3.775010   2.937651   3.775261   3.143701
    25  H    8.305374   2.606353   2.531752   3.688924   2.486745
    26  H    8.359797   3.451458   2.134734   5.157983   4.877191
    27  H    8.976441   2.768538   2.915131   4.580149   4.264501
    28  H    9.916788   4.021959   3.491014   4.327698   4.560539
    29  H    9.677646   4.463516   4.190088   6.424372   6.521143
    30  H    8.860542   4.257262   3.431463   6.689617   6.669586
    31  H    8.169177   4.318597   4.255681   8.180234   7.874202
    32  H    6.839919   3.262425   2.881421   7.795818   7.263074
    33  H    8.225610   2.892091   3.664400   6.520316   5.956749
    34  H    7.854696   5.342637   6.364623   9.956872   9.171447
    35  H    6.640577   3.982705   5.186599   9.022538   8.007004
    36  H    8.343542   4.416798   5.595614   8.366007   7.608170
    37  H    6.278906   2.060032   3.440743   7.321530   6.187510
    38  H    4.898418   3.498538   4.171272   9.291277   8.258387
    39  H    4.818512   2.923947   2.944704   8.588436   7.649285
    40  H    3.827024   2.620990   2.988841   8.216724   6.881632
    41  H    3.965197   3.225978   4.200035   8.923498   7.524945
    42  H    2.645534   4.859576   5.330836  10.798437   9.549632
    43  H    1.923127   4.925065   5.105328  10.229820   8.792879
    44  H    0.979634   6.726988   7.027232  12.484077  11.108448
    45  H    7.396258   1.095485   2.196063   5.096193   3.980811
    46  H    5.840959   1.097669   2.137264   6.313493   4.947788
    47  H    6.249292   2.148910   1.099311   6.034960   4.994214
    48  H    6.155645   2.194453   1.091654   6.798146   6.015643
                   21         22         23         24         25
    21  H    0.000000
    22  H    3.028654   0.000000
    23  H    2.507965   1.773024   0.000000
    24  H    2.594047   3.074971   2.512449   0.000000
    25  H    3.033511   2.501798   3.045617   1.738141   0.000000
    26  H    4.518170   3.539181   2.971823   2.295378   3.013254
    27  H    4.921153   2.172902   3.222888   3.814130   3.021166
    28  H    4.594434   2.287049   2.272211   3.549001   3.575838
    29  H    6.816381   4.174888   4.547049   5.486985   5.223356
    30  H    6.633774   4.574978   4.447186   4.810550   4.968347
    31  H    8.339277   5.798218   6.346479   6.545807   6.074022
    32  H    7.599539   5.503955   5.878109   5.462641   5.118348
    33  H    6.905986   4.168793   5.387400   5.616909   4.520416
    34  H   10.316667   7.697353   8.982745   8.877653   7.640322
    35  H    9.185888   6.859518   8.164509   7.692106   6.356666
    36  H    8.863940   6.203736   7.649317   7.731988   6.365926
    37  H    7.300959   5.250853   6.492346   5.773906   4.398183
    38  H    9.072847   7.079404   7.969196   7.053597   6.100058
    39  H    8.151254   6.432768   6.974492   5.871803   5.283165
    40  H    7.489562   6.488982   7.105792   5.349653   4.556365
    41  H    8.466122   7.105057   8.070108   6.619334   5.463263
    42  H   10.263132   8.798110   9.531455   8.077181   7.261822
    43  H    9.289684   8.696390   9.179796   7.136251   6.551113
    44  H   11.709197  10.689109  11.283398   9.479604   8.820897
    45  H    4.980159   3.138900   4.310891   3.609650   2.138189
    46  H    5.785643   4.631022   5.498477   4.018874   2.775744
    47  H    5.113006   4.500246   4.607538   2.680888   2.535206
    48  H    6.197101   4.816675   4.994621   3.793128   3.611639
                   26         27         28         29         30
    26  H    0.000000
    27  H    3.062062   0.000000
    28  H    2.419232   1.744772   0.000000
    29  H    3.761079   2.461964   2.278944   0.000000
    30  H    2.651521   3.051635   2.442686   1.748318   0.000000
    31  H    4.674311   3.680375   4.161848   2.269163   2.558517
    32  H    3.605829   3.529265   4.003800   2.971690   2.313997
    33  H    4.625599   2.164883   3.660049   2.853467   3.761433
    34  H    7.805188   5.766248   7.189373   5.762103   6.549583
    35  H    6.916685   5.079464   6.649721   5.712863   6.241337
    36  H    6.950669   4.485422   6.058969   5.010527   6.009774
    37  H    5.294852   3.699921   5.299853   5.003311   5.279754
    38  H    5.957419   5.186719   6.414018   5.511977   5.378408
    39  H    4.565418   4.639265   5.506223   4.882738   4.244991
    40  H    5.034870   5.314302   6.353568   6.511474   5.882293
    41  H    6.326538   5.774621   7.141430   6.983842   6.747012
    42  H    7.236712   7.146476   8.269535   7.640778   7.150887
    43  H    6.956870   7.622241   8.565387   8.685976   7.881612
    44  H    8.873242   9.237579  10.263338   9.832257   9.131126
    45  H    3.635474   2.220836   3.660083   4.366284   4.485294
    46  H    4.148019   3.761981   4.984110   5.560422   5.272854
    47  H    2.492849   3.859063   4.289705   5.231057   4.319348
    48  H    2.397728   3.439145   3.857945   4.060891   3.038175
                   31         32         33         34         35
    31  H    0.000000
    32  H    1.717541   0.000000
    33  H    2.728343   3.056883   0.000000
    34  H    4.265645   4.897607   3.607404   0.000000
    35  H    4.401702   4.436069   3.137439   1.745303   0.000000
    36  H    4.191784   4.754205   2.433301   1.787189   1.790435
    37  H    4.248270   3.732383   2.450270   3.542044   2.002144
    38  H    3.807462   3.141868   3.717615   3.301008   2.310764
    39  H    3.435171   2.072802   3.853912   4.729631   3.774135
    40  H    5.611779   4.189590   4.959554   5.998006   4.469075
    41  H    5.841315   4.812720   4.822818   4.916034   3.281398
    42  H    5.933106   4.908744   5.974873   5.235271   4.154499
    43  H    7.545730   6.081298   7.188251   7.545406   6.074065
    44  H    8.167614   6.989418   8.265311   7.464354   6.374671
    45  H    4.653908   3.911402   2.684834   5.521014   4.237100
    46  H    5.306705   4.145357   3.831742   5.825346   4.264214
    47  H    5.286311   3.792785   4.697217   7.225482   5.910820
    48  H    3.705607   2.106671   3.819071   6.165061   5.137264
                   36         37         38         39         40
    36  H    0.000000
    37  H    2.718140   0.000000
    38  H    3.736818   2.463066   0.000000
    39  H    4.834741   3.059025   1.746601   0.000000
    40  H    5.733918   3.132261   3.053523   2.486508   0.000000
    41  H    4.798948   2.502353   2.495443   3.050778   1.781517
    42  H    5.857969   4.187225   2.374118   2.912257   2.923335
    43  H    7.619275   5.181468   4.486900   4.130419   2.318368
    44  H    8.128901   6.313775   4.738255   4.962188   4.268806
    45  H    4.276617   2.327516   4.288743   3.919429   3.608288
    46  H    4.960709   2.328176   3.750989   3.305031   2.056254
    47  H    6.487685   4.094872   4.755590   3.464748   2.808269
    48  H    5.682666   3.682092   3.729734   2.218167   2.974706
                   41         42         43         44         45
    41  H    0.000000
    42  H    2.410755   0.000000
    43  H    2.938482   2.892982   0.000000
    44  H    4.040045   2.366539   2.675280   0.000000
    45  H    3.973708   5.811773   5.870392   7.704037   0.000000
    46  H    2.688541   4.618059   4.212096   6.230891   1.711824
    47  H    4.304877   5.460027   4.638244   6.838181   2.812370
    48  H    4.231500   4.850728   4.935053   6.574750   3.041068
                   46         47         48
    46  H    0.000000
    47  H    2.222727   0.000000
    48  H    2.815033   1.728242   0.000000
 Stoichiometry    C14H30N2O2
 Framework group  C1[X(C14H30N2O2)]
 Deg. of freedom   138
 Full point group                 C1      NOp   1
 Largest Abelian subgroup         C1      NOp   1
 Largest concise Abelian subgroup C1      NOp   1
                         Standard orientation:                         
 ---------------------------------------------------------------------
 Center     Atomic      Atomic             Coordinates (Angstroms)
 Number     Number       Type             X           Y           Z
 ---------------------------------------------------------------------
      1          6           0        5.127188   -2.203091   -1.342678
      2          6           0        4.421622   -1.274530   -0.382924
      3          6           0        3.053273   -1.806374    0.028430
      4          6           0        2.258235   -0.851886    0.963876
      5          6           0        2.701069    0.617148    0.806998
      6          6           0        2.015146    1.662730    1.667578
      7          6           0        0.569673    2.029879    1.336281
      8          6           0        0.163893    2.022661   -0.157502
      9          8           0       -0.761999    3.124899   -0.317639
     10          6           0       -1.224456    3.325415   -1.649848
     11          6           0       -0.518251    0.710160   -0.641056
     12          6           0       -1.872195    0.501738    0.069872
     13          6           0       -2.603065   -0.724008   -0.450398
     14          7           0       -3.871605   -0.861881    0.252270
     15          7           0       -4.521271   -2.019874   -0.247866
     16          8           0       -5.688282   -2.288476    0.554164
     17          6           0        0.349058   -0.549483   -0.658500
     18          6           0        0.765327   -1.079202    0.712201
     19          1           0        6.094167   -1.771715   -1.616233
     20          1           0        4.538897   -2.328539   -2.257429
     21          1           0        5.290138   -3.182160   -0.887514
     22          1           0        4.314880   -0.314855   -0.900938
     23          1           0        5.037495   -1.113373    0.507541
     24          1           0        3.155334   -2.777520    0.529510
     25          1           0        2.486892   -2.022849   -0.886396
     26          1           0        2.467196   -1.153758    1.998736
     27          1           0        2.655652    0.924083   -0.242532
     28          1           0        3.760423    0.675155    1.084774
     29          1           0        2.612186    2.580900    1.577998
     30          1           0        2.085734    1.368446    2.722297
     31          1           0        0.395076    3.029264    1.758259
     32          1           0       -0.087702    1.389773    1.928379
     33          1           0        1.036378    2.257173   -0.778759
     34          1           0       -1.867618    4.207192   -1.660576
     35          1           0       -1.847666    2.493600   -1.991161
     36          1           0       -0.386743    3.469399   -2.336383
     37          1           0       -0.741580    0.849213   -1.706303
     38          1           0       -2.507956    1.383599   -0.075033
     39          1           0       -1.738838    0.406542    1.151520
     40          1           0       -2.008380   -1.623138   -0.259320
     41          1           0       -2.755134   -0.626385   -1.533150
     42          1           0       -4.421163   -0.011538    0.097203
     43          1           0       -3.956537   -2.862979   -0.053639
     44          1           0       -6.237139   -1.513501    0.313640
     45          1           0        1.204313   -0.367496   -1.318429
     46          1           0       -0.190164   -1.350690   -1.180213
     47          1           0        0.556526   -2.157785    0.751514
     48          1           0        0.168604   -0.662093    1.525620
 ---------------------------------------------------------------------
 Rotational constants (GHZ):           0.4726688           0.1984049           0.1586705
 Standard basis: 6-31G(2df,p) (6D, 7F)
 There are   708 symmetry adapted cartesian basis functions of A   symmetry.
 There are   654 symmetry adapted basis functions of A   symmetry.
   654 basis functions,  1002 primitive gaussians,   708 cartesian basis functions
    72 alpha electrons       72 beta electrons
       nuclear repulsion energy      1469.5133719517 Hartrees.
 NAtoms=   48 NActive=   48 NUniq=   48 SFac= 1.00D+00 NAtFMM=   60 NAOKFM=F Big=F
 Integral buffers will be    131072 words long.
 Raffenetti 2 integral format.
 Two-electron integral symmetry is turned on.
 One-electron integrals computed using PRISM.
 PrsmSu:  requested number of processors reduced to:  12 ShMem   1 Linda.
 NBasis=   654 RedAO= T EigKep=  2.97D-04  NBF=   654
 NBsUse=   654 1.00D-06 EigRej= -1.00D+00 NBFU=   654
 ExpMin= 1.61D-01 ExpMax= 5.48D+03 ExpMxC= 8.25D+02 IAcc=3 IRadAn=         5 AccDes= 0.00D+00
 Harris functional with IExCor=  402 and IRadAn=       5 diagonalized for initial guess.
 HarFok:  IExCor=  402 AccDes= 0.00D+00 IRadAn=         5 IDoV= 1 UseB2=F ITyADJ=14
 ICtDFT=  3500011 ScaDFX=  1.000000  1.000000  1.000000  1.000000
 FoFCou: FMM=F IPFlag=           0 FMFlag=      100000 FMFlg1=           0
         NFxFlg=           0 DoJE=T BraDBF=F KetDBF=T FulRan=T
         wScrn=  0.000000 ICntrl=       500 IOpCl=  0 I1Cent=   200000004 NGrid=           0
         NMat0=    1 NMatS0=      1 NMatT0=    0 NMatD0=    1 NMtDS0=    0 NMtDT0=    0
 Petite list used in FoFCou.
 Requested convergence on RMS density matrix=1.00D-08 within 128 cycles.
 Requested convergence on MAX density matrix=1.00D-06.
 Requested convergence on             energy=1.00D-06.
 No special actions if energy rises.
 Integral accuracy reduced to 1.0D-05 until final iterations.
 Initial convergence to 1.0D-05 achieved.  Increase integral accuracy.
 SCF Done:  E(RB3LYP) =  -811.427810560     A.U. after   12 cycles
            NFock= 12  Conv=0.77D-08     -V/T= 2.0077

 **********************************************************************

            Population analysis using the SCF density.

 **********************************************************************

 Orbital symmetries:
       Occupied  (A) (A) (A) (A) (A) (A) (A) (A) (A) (A) (A) (A)
                 (A) (A) (A) (A) (A) (A) (A) (A) (A) (A) (A) (A)
                 (A) (A) (A) (A) (A) (A) (A) (A) (A) (A) (A) (A)
                 (A) (A) (A) (A) (A) (A) (A) (A) (A) (A) (A) (A)
                 (A) (A) (A) (A) (A) (A) (A) (A) (A) (A) (A) (A)
                 (A) (A) (A) (A) (A) (A) (A) (A) (A) (A) (A) (A)
       Virtual   (A) (A) (A) (A) (A) (A) (A) (A) (A) (A) (A) (A)
                 (A) (A) (A) (A) (A) (A) (A) (A) (A) (A) (A) (A)
                 (A) (A) (A) (A) (A) (A) (A) (A) (A) (A) (A) (A)
                 (A) (A) (A) (A) (A) (A) (A) (A) (A) (A) (A) (A)
                 (A) (A) (A) (A) (A) (A) (A) (A) (A) (A) (A) (A)
                 (A) (A) (A) (A) (A) (A) (A) (A) (A) (A) (A) (A)
                 (A) (A) (A) (A) (A) (A) (A) (A) (A) (A) (A) (A)
                 (A) (A) (A) (A) (A) (A) (A) (A) (A) (A) (A) (A)
                 (A) (A) (A) (A) (A) (A) (A) (A) (A) (A) (A) (A)
                 (A) (A) (A) (A) (A) (A) (A) (A) (A) (A) (A) (A)
                 (A) (A) (A) (A) (A) (A) (A) (A) (A) (A) (A) (A)
                 (A) (A) (A) (A) (A) (A) (A) (A) (A) (A) (A) (A)
                 (A) (A) (A) (A) (A) (A) (A) (A) (A) (A) (A) (A)
                 (A) (A) (A) (A) (A) (A) (A) (A) (A) (A) (A) (A)
                 (A) (A) (A) (A) (A) (A) (A) (A) (A) (A) (A) (A)
                 (A) (A) (A) (A) (A) (A) (A) (A) (A) (A) (A) (A)
                 (A) (A) (A) (A) (A) (A) (A) (A) (A) (A) (A) (A)
                 (A) (A) (A) (A) (A) (A) (A) (A) (A) (A) (A) (A)
                 (A) (A) (A) (A) (A) (A) (A) (A) (A) (A) (A) (A)
                 (A) (A) (A) (A) (A) (A) (A) (A) (A) (A) (A) (A)
                 (A) (A) (A) (A) (A) (A) (A) (A) (A) (A) (A) (A)
                 (A) (A) (A) (A) (A) (A) (A) (A) (A) (A) (A) (A)
                 (A) (A) (A) (A) (A) (A) (A) (A) (A) (A) (A) (A)
                 (A) (A) (A) (A) (A) (A) (A) (A) (A) (A) (A) (A)
                 (A) (A) (A) (A) (A) (A) (A) (A) (A) (A) (A) (A)
                 (A) (A) (A) (A) (A) (A) (A) (A) (A) (A) (A) (A)
                 (A) (A) (A) (A) (A) (A) (A) (A) (A) (A) (A) (A)
                 (A) (A) (A) (A) (A) (A) (A) (A) (A) (A) (A) (A)
                 (A) (A) (A) (A) (A) (A) (A) (A) (A) (A) (A) (A)
                 (A) (A) (A) (A) (A) (A) (A) (A) (A) (A) (A) (A)
                 (A) (A) (A) (A) (A) (A) (A) (A) (A) (A) (A) (A)
                 (A) (A) (A) (A) (A) (A) (A) (A) (A) (A) (A) (A)
                 (A) (A) (A) (A) (A) (A) (A) (A) (A) (A) (A) (A)
                 (A) (A) (A) (A) (A) (A) (A) (A) (A) (A) (A) (A)
                 (A) (A) (A) (A) (A) (A) (A) (A) (A) (A) (A) (A)
                 (A) (A) (A) (A) (A) (A) (A) (A) (A) (A) (A) (A)
                 (A) (A) (A) (A) (A) (A) (A) (A) (A) (A) (A) (A)
                 (A) (A) (A) (A) (A) (A) (A) (A) (A) (A) (A) (A)
                 (A) (A) (A) (A) (A) (A) (A) (A) (A) (A) (A) (A)
                 (A) (A) (A) (A) (A) (A) (A) (A) (A) (A) (A) (A)
                 (A) (A) (A) (A) (A) (A) (A) (A) (A) (A) (A) (A)
                 (A) (A) (A) (A) (A) (A) (A) (A) (A) (A) (A) (A)
                 (A) (A) (A) (A) (A) (A) (A) (A) (A) (A) (A) (A)
                 (A) (A) (A) (A) (A) (A) (A) (A) (A) (A) (A) (A)
                 (A) (A) (A) (A) (A) (A) (A) (A) (A) (A) (A) (A)
                 (A) (A) (A) (A) (A) (A) (A) (A) (A) (A) (A) (A)
                 (A) (A) (A) (A) (A) (A) (A) (A) (A) (A) (A) (A)
                 (A) (A) (A) (A) (A) (A) (A) (A) (A) (A) (A) (A)
                 (A) (A) (A) (A) (A) (A)
 The electronic state is 1-A.
 Alpha  occ. eigenvalues --  -19.15472 -19.13393 -14.38170 -14.33488 -10.23023
 Alpha  occ. eigenvalues --  -10.22080 -10.20445 -10.18442 -10.17967 -10.17671
 Alpha  occ. eigenvalues --  -10.17581 -10.17509 -10.17224 -10.17188 -10.17183
 Alpha  occ. eigenvalues --  -10.17156 -10.17137 -10.16763  -1.05763  -1.01687
 Alpha  occ. eigenvalues --   -0.92340  -0.83528  -0.80450  -0.78396  -0.76492
 Alpha  occ. eigenvalues --   -0.75396  -0.71116  -0.69889  -0.67254  -0.66739
 Alpha  occ. eigenvalues --   -0.63970  -0.61529  -0.58920  -0.57436  -0.55853
 Alpha  occ. eigenvalues --   -0.52611  -0.50738  -0.49995  -0.48723  -0.48649
 Alpha  occ. eigenvalues --   -0.46542  -0.46208  -0.45318  -0.44793  -0.43913
 Alpha  occ. eigenvalues --   -0.43355  -0.42319  -0.42100  -0.41731  -0.40821
 Alpha  occ. eigenvalues --   -0.40199  -0.39492  -0.38611  -0.37597  -0.37180
 Alpha  occ. eigenvalues --   -0.36563  -0.35360  -0.34324  -0.34197  -0.33949
 Alpha  occ. eigenvalues --   -0.33326  -0.32824  -0.32460  -0.32006  -0.31515
 Alpha  occ. eigenvalues --   -0.30580  -0.29481  -0.28817  -0.28547  -0.26697
 Alpha  occ. eigenvalues --   -0.24894  -0.17910
 Alpha virt. eigenvalues --    0.06806   0.06994   0.07441   0.08679   0.09039
 Alpha virt. eigenvalues --    0.09745   0.10122   0.10741   0.11378   0.12152
 Alpha virt. eigenvalues --    0.12843   0.13298   0.14400   0.14487   0.14936
 Alpha virt. eigenvalues --    0.15590   0.15829   0.16066   0.16663   0.17247
 Alpha virt. eigenvalues --    0.17922   0.18055   0.18219   0.18659   0.19193
 Alpha virt. eigenvalues --    0.19954   0.20106   0.20153   0.20840   0.21597
 Alpha virt. eigenvalues --    0.21692   0.22539   0.23307   0.23770   0.23902
 Alpha virt. eigenvalues --    0.24469   0.25298   0.25998   0.26362   0.27142
 Alpha virt. eigenvalues --    0.27505   0.28373   0.30390   0.31008   0.33390
 Alpha virt. eigenvalues --    0.33573   0.35202   0.35533   0.43521   0.44147
 Alpha virt. eigenvalues --    0.44612   0.45499   0.46893   0.47740   0.48512
 Alpha virt. eigenvalues --    0.49386   0.49862   0.50294   0.51165   0.51889
 Alpha virt. eigenvalues --    0.52846   0.53627   0.54126   0.54389   0.54948
 Alpha virt. eigenvalues --    0.56739   0.56927   0.57407   0.58173   0.58742
 Alpha virt. eigenvalues --    0.58992   0.60121   0.60871   0.61626   0.62386
 Alpha virt. eigenvalues --    0.63114   0.63613   0.63830   0.63966   0.65178
 Alpha virt. eigenvalues --    0.65990   0.66268   0.67147   0.68382   0.69107
 Alpha virt. eigenvalues --    0.70087   0.70146   0.71119   0.71260   0.71450
 Alpha virt. eigenvalues --    0.71813   0.72853   0.72904   0.74167   0.74237
 Alpha virt. eigenvalues --    0.74422   0.74681   0.75422   0.75937   0.76313
 Alpha virt. eigenvalues --    0.76768   0.77235   0.77769   0.78493   0.78808
 Alpha virt. eigenvalues --    0.79278   0.80221   0.80537   0.80993   0.81456
 Alpha virt. eigenvalues --    0.82001   0.82822   0.83515   0.83804   0.84721
 Alpha virt. eigenvalues --    0.85112   0.85419   0.85920   0.86976   0.87086
 Alpha virt. eigenvalues --    0.88704   0.89163   0.89664   0.89920   0.90100
 Alpha virt. eigenvalues --    0.91121   0.91607   0.91949   0.92431   0.93473
 Alpha virt. eigenvalues --    0.94060   0.95483   0.97374   0.98212   0.99962
 Alpha virt. eigenvalues --    1.00149   1.02100   1.02631   1.03538   1.04658
 Alpha virt. eigenvalues --    1.05471   1.06427   1.08541   1.10717   1.11479
 Alpha virt. eigenvalues --    1.12958   1.14669   1.15402   1.17235   1.18231
 Alpha virt. eigenvalues --    1.19186   1.21122   1.21675   1.23224   1.23241
 Alpha virt. eigenvalues --    1.24503   1.26117   1.26587   1.27786   1.28684
 Alpha virt. eigenvalues --    1.29773   1.31354   1.33148   1.34056   1.34406
 Alpha virt. eigenvalues --    1.35547   1.36691   1.37494   1.38037   1.39943
 Alpha virt. eigenvalues --    1.40633   1.40768   1.42081   1.42616   1.43289
 Alpha virt. eigenvalues --    1.43953   1.44547   1.46095   1.46487   1.46984
 Alpha virt. eigenvalues --    1.48433   1.49832   1.51378   1.52235   1.53327
 Alpha virt. eigenvalues --    1.53451   1.54447   1.54857   1.56004   1.57250
 Alpha virt. eigenvalues --    1.57964   1.58514   1.60292   1.61353   1.62797
 Alpha virt. eigenvalues --    1.63334   1.64008   1.65761   1.66585   1.66743
 Alpha virt. eigenvalues --    1.68299   1.69722   1.70628   1.71211   1.72923
 Alpha virt. eigenvalues --    1.73855   1.74873   1.75507   1.76878   1.77393
 Alpha virt. eigenvalues --    1.78709   1.79089   1.79489   1.80241   1.81766
 Alpha virt. eigenvalues --    1.82175   1.84716   1.84914   1.86532   1.88007
 Alpha virt. eigenvalues --    1.88902   1.89065   1.90347   1.92302   1.92693
 Alpha virt. eigenvalues --    1.93338   1.93600   1.95222   1.95854   1.96974
 Alpha virt. eigenvalues --    1.98843   1.99496   2.00639   2.03099   2.03646
 Alpha virt. eigenvalues --    2.06509   2.08806   2.11142   2.13034   2.13656
 Alpha virt. eigenvalues --    2.15286   2.16201   2.18856   2.20328   2.20944
 Alpha virt. eigenvalues --    2.22533   2.23901   2.25029   2.25956   2.26659
 Alpha virt. eigenvalues --    2.28679   2.30880   2.31106   2.32786   2.34395
 Alpha virt. eigenvalues --    2.35004   2.36308   2.36824   2.37384   2.39220
 Alpha virt. eigenvalues --    2.40575   2.42543   2.43639   2.44099   2.45468
 Alpha virt. eigenvalues --    2.47529   2.47961   2.50083   2.50208   2.50942
 Alpha virt. eigenvalues --    2.52128   2.53014   2.54922   2.55042   2.55379
 Alpha virt. eigenvalues --    2.56493   2.60239   2.62018   2.62461   2.63578
 Alpha virt. eigenvalues --    2.64789   2.66786   2.67037   2.69890   2.70998
 Alpha virt. eigenvalues --    2.71455   2.73300   2.74674   2.75484   2.76031
 Alpha virt. eigenvalues --    2.76527   2.77393   2.78361   2.79338   2.79911
 Alpha virt. eigenvalues --    2.80312   2.80872   2.81968   2.82929   2.83390
 Alpha virt. eigenvalues --    2.84299   2.85484   2.85627   2.86504   2.87320
 Alpha virt. eigenvalues --    2.87720   2.88447   2.88802   2.89216   2.90560
 Alpha virt. eigenvalues --    2.91522   2.91753   2.92587   2.93618   2.93865
 Alpha virt. eigenvalues --    2.94812   2.95951   2.96804   2.97196   2.97539
 Alpha virt. eigenvalues --    2.98611   2.98922   3.00785   3.01042   3.01221
 Alpha virt. eigenvalues --    3.02123   3.03200   3.03453   3.04725   3.06335
 Alpha virt. eigenvalues --    3.09249   3.10249   3.11618   3.13717   3.14211
 Alpha virt. eigenvalues --    3.16455   3.17147   3.17938   3.19263   3.21329
 Alpha virt. eigenvalues --    3.22628   3.24649   3.26751   3.27022   3.28738
 Alpha virt. eigenvalues --    3.29349   3.30907   3.31929   3.32336   3.32933
 Alpha virt. eigenvalues --    3.36343   3.36518   3.37971   3.38219   3.39698
 Alpha virt. eigenvalues --    3.40123   3.42042   3.42869   3.45278   3.46400
 Alpha virt. eigenvalues --    3.47271   3.47894   3.48056   3.49842   3.50854
 Alpha virt. eigenvalues --    3.51183   3.51767   3.52527   3.53604   3.54143
 Alpha virt. eigenvalues --    3.54702   3.55769   3.57386   3.58725   3.59825
 Alpha virt. eigenvalues --    3.60479   3.62668   3.64514   3.64761   3.65892
 Alpha virt. eigenvalues --    3.66544   3.67227   3.68042   3.68606   3.69164
 Alpha virt. eigenvalues --    3.70362   3.71252   3.72962   3.73727   3.75558
 Alpha virt. eigenvalues --    3.76475   3.77707   3.77921   3.79307   3.81253
 Alpha virt. eigenvalues --    3.82070   3.83251   3.84381   3.86161   3.89069
 Alpha virt. eigenvalues --    3.89547   3.90946   3.91649   3.91837   3.93115
 Alpha virt. eigenvalues --    3.93664   3.94567   3.96398   3.98119   3.99599
 Alpha virt. eigenvalues --    4.01672   4.02096   4.05436   4.06381   4.07751
 Alpha virt. eigenvalues --    4.09781   4.13349   4.15866   4.16441   4.19547
 Alpha virt. eigenvalues --    4.21739   4.23572   4.27178   4.29785   4.30605
 Alpha virt. eigenvalues --    4.31289   4.32362   4.32629   4.34948   4.35514
 Alpha virt. eigenvalues --    4.37151   4.38403   4.38560   4.40100   4.42671
 Alpha virt. eigenvalues --    4.43083   4.44002   4.44374   4.44710   4.45738
 Alpha virt. eigenvalues --    4.46924   4.47424   4.47742   4.49078   4.49949
 Alpha virt. eigenvalues --    4.50610   4.51507   4.52022   4.52410   4.53031
 Alpha virt. eigenvalues --    4.54750   4.55501   4.55838   4.56799   4.57984
 Alpha virt. eigenvalues --    4.58776   4.59580   4.60707   4.60996   4.61845
 Alpha virt. eigenvalues --    4.63415   4.64245   4.64836   4.65727   4.66308
 Alpha virt. eigenvalues --    4.67265   4.67450   4.68434   4.68954   4.69681
 Alpha virt. eigenvalues --    4.70420   4.71501   4.72384   4.72757   4.73434
 Alpha virt. eigenvalues --    4.74270   4.74658   4.75189   4.76265   4.76911
 Alpha virt. eigenvalues --    4.77232   4.78638   4.79317   4.80130   4.80880
 Alpha virt. eigenvalues --    4.81671   4.82768   4.83273   4.83899   4.84799
 Alpha virt. eigenvalues --    4.85613   4.86438   4.86727   4.88475   4.89171
 Alpha virt. eigenvalues --    4.89395   4.91027   4.92131   4.92972   4.94478
 Alpha virt. eigenvalues --    4.94891   4.95277   4.96035   4.96823   4.97282
 Alpha virt. eigenvalues --    4.98219   4.99379   5.00069   5.02222   5.03858
 Alpha virt. eigenvalues --    5.05890   5.07331   5.08515   5.10229   5.12177
 Alpha virt. eigenvalues --    5.12611   5.14829   5.16572   5.18917   5.19895
 Alpha virt. eigenvalues --    5.21629   5.26036   5.28668   5.29258   5.33763
 Alpha virt. eigenvalues --    5.34511   5.36673   5.38610   5.39798   5.41224
 Alpha virt. eigenvalues --    5.42656   5.44172   5.44747   5.46161   5.49410
 Alpha virt. eigenvalues --    5.50564   5.51022   5.53572   5.54756   5.55597
 Alpha virt. eigenvalues --    5.57421   5.58169   5.59692   5.62239   5.69443
 Alpha virt. eigenvalues --    5.72472   5.77844   5.82643   5.86854   5.93673
 Alpha virt. eigenvalues --    5.96999   5.98290   6.03578   6.05625   6.07984
 Alpha virt. eigenvalues --    6.20253   6.37077   6.83986   6.93317   6.99991
 Alpha virt. eigenvalues --    7.22942   7.35217   8.23199  11.19424  11.24007
 Alpha virt. eigenvalues --   11.28683  11.44513  11.51946  11.63824  11.81391
 Alpha virt. eigenvalues --   11.90531  12.09337  12.34038  12.35015  12.48340
 Alpha virt. eigenvalues --   12.64885  12.93521  12.98386  13.07972  13.10629
 Alpha virt. eigenvalues --   13.64102  15.01924
          Condensed to atoms (all electrons):
               1          2          3          4          5          6
     1  C    4.979675   0.403054  -0.036944   0.003381   0.000298  -0.000028
     2  C    0.403054   4.754368   0.430785  -0.033464  -0.008717   0.000382
     3  C   -0.036944   0.430785   4.852925   0.410018  -0.036458   0.003603
     4  C    0.003381  -0.033464   0.410018   4.647465   0.434822  -0.026834
     5  C    0.000298  -0.008717  -0.036458   0.434822   4.835908   0.412555
     6  C   -0.000028   0.000382   0.003603  -0.026834   0.412555   4.896155
     7  C    0.000000  -0.000005   0.000022  -0.003481  -0.027759   0.382686
     8  C   -0.000000   0.000003  -0.000015   0.000676  -0.007220  -0.020278
     9  O    0.000000  -0.000000   0.000000  -0.000003   0.000124   0.001057
    10  C   -0.000000  -0.000000   0.000000   0.000001   0.000010  -0.000210
    11  C   -0.000000   0.000001   0.000519  -0.001252   0.000356  -0.001519
    12  C   -0.000000   0.000000  -0.000018   0.000155   0.000028   0.000465
    13  C   -0.000000   0.000000  -0.000000   0.000066  -0.000003  -0.000012
    14  N   -0.000000  -0.000000   0.000000   0.000000  -0.000000   0.000000
    15  N   -0.000000  -0.000000  -0.000000  -0.000000   0.000000  -0.000000
    16  O   -0.000000   0.000000  -0.000000   0.000000  -0.000000  -0.000000
    17  C   -0.000012   0.000265  -0.009784  -0.018523  -0.006727  -0.000532
    18  C   -0.000108   0.002674  -0.028073   0.407985  -0.037721  -0.002593
    19  H    0.370649  -0.022156   0.003571  -0.000173   0.000024   0.000000
    20  H    0.376974  -0.027468  -0.005403   0.000138  -0.000000   0.000000
    21  H    0.375366  -0.027454  -0.003718  -0.000001   0.000021   0.000000
    22  H   -0.039881   0.375006  -0.030755  -0.007884   0.002874   0.000165
    23  H   -0.037302   0.371949  -0.032691  -0.000617  -0.003113   0.000016
    24  H   -0.002206  -0.034086   0.353907  -0.021551   0.004188  -0.000098
    25  H   -0.003689  -0.038747   0.363035  -0.030284  -0.001703  -0.000041
    26  H   -0.000090   0.001295  -0.035235   0.351119  -0.047450  -0.003802
    27  H    0.000024  -0.001697  -0.005283  -0.028274   0.358838  -0.037552
    28  H    0.000107   0.003297  -0.006797  -0.025768   0.359844  -0.033332
    29  H   -0.000000   0.000028  -0.000220   0.003728  -0.027276   0.361143
    30  H    0.000000  -0.000000   0.000114  -0.005714  -0.032310   0.360724
    31  H   -0.000000  -0.000000   0.000003   0.000104   0.003891  -0.027466
    32  H   -0.000000  -0.000001  -0.000034   0.000441  -0.001437  -0.036193
    33  H   -0.000000   0.000004  -0.000045   0.000386  -0.004396   0.000751
    34  H   -0.000000  -0.000000  -0.000000  -0.000000  -0.000000   0.000002
    35  H    0.000000  -0.000000   0.000000  -0.000000   0.000003  -0.000006
    36  H   -0.000000   0.000000  -0.000000   0.000000  -0.000011   0.000042
    37  H    0.000000  -0.000001  -0.000010   0.000013  -0.000121  -0.000012
    38  H    0.000000  -0.000000   0.000000  -0.000012  -0.000002   0.000022
    39  H    0.000000   0.000000  -0.000001   0.000021   0.000005   0.000070
    40  H    0.000000  -0.000000   0.000001  -0.000045   0.000004  -0.000000
    41  H    0.000000   0.000000   0.000000  -0.000004   0.000000   0.000000
    42  H   -0.000000  -0.000000  -0.000000   0.000000   0.000000  -0.000000
    43  H   -0.000000  -0.000000  -0.000000  -0.000000   0.000000   0.000000
    44  H   -0.000000  -0.000000  -0.000000  -0.000000   0.000000  -0.000000
    45  H   -0.000021   0.000072  -0.003261  -0.007694  -0.001438   0.000128
    46  H    0.000002  -0.000027   0.000446   0.003077   0.000197   0.000005
    47  H   -0.000008   0.000269  -0.009734  -0.030471   0.005341   0.000029
    48  H    0.000002  -0.000182   0.003746  -0.023660  -0.002300   0.000739
               7          8          9         10         11         12
     1  C    0.000000  -0.000000   0.000000  -0.000000  -0.000000  -0.000000
     2  C   -0.000005   0.000003  -0.000000  -0.000000   0.000001   0.000000
     3  C    0.000022  -0.000015   0.000000   0.000000   0.000519  -0.000018
     4  C   -0.003481   0.000676  -0.000003   0.000001  -0.001252   0.000155
     5  C   -0.027759  -0.007220   0.000124   0.000010   0.000356   0.000028
     6  C    0.382686  -0.020278   0.001057  -0.000210  -0.001519   0.000465
     7  C    4.907831   0.396862  -0.022875   0.005379  -0.002843  -0.012629
     8  C    0.396862   4.704007   0.343418  -0.086470   0.357826  -0.028408
     9  O   -0.022875   0.343418   7.730132   0.365128  -0.051643   0.002213
    10  C    0.005379  -0.086470   0.365128   4.840811  -0.002256  -0.001960
    11  C   -0.002843   0.357826  -0.051643  -0.002256   4.849303   0.378418
    12  C   -0.012629  -0.028408   0.002213  -0.001960   0.378418   4.913894
    13  C    0.000478   0.000949   0.000487   0.000020  -0.039468   0.404255
    14  N   -0.000001  -0.000031   0.000003   0.000002   0.001422  -0.033942
    15  N    0.000000   0.000000   0.000000  -0.000000  -0.000067   0.001733
    16  O   -0.000000  -0.000000  -0.000000   0.000000   0.000000  -0.000123
    17  C   -0.005232  -0.020273   0.001829   0.000053   0.386749  -0.034503
    18  C    0.004713  -0.008126   0.000024  -0.000009  -0.017051  -0.008142
    19  H   -0.000000   0.000000   0.000000   0.000000   0.000000  -0.000000
    20  H   -0.000000   0.000000   0.000000   0.000000  -0.000000   0.000000
    21  H   -0.000000  -0.000000  -0.000000  -0.000000   0.000000   0.000000
    22  H    0.000000  -0.000018  -0.000000   0.000000  -0.000012   0.000000
    23  H   -0.000005   0.000001   0.000000   0.000000   0.000001  -0.000000
    24  H    0.000000  -0.000001  -0.000000  -0.000000  -0.000023   0.000001
    25  H   -0.000010   0.000006   0.000000   0.000000   0.000259   0.000001
    26  H   -0.000578   0.000085   0.000000   0.000000  -0.000102   0.000004
    27  H   -0.010225   0.004533   0.000018   0.000012  -0.003111   0.000038
    28  H    0.005037  -0.000200  -0.000002  -0.000000   0.000122  -0.000000
    29  H   -0.034357  -0.002465   0.000032  -0.000005  -0.000016  -0.000004
    30  H   -0.027983   0.003395  -0.000025   0.000002  -0.000250  -0.000001
    31  H    0.349485  -0.025542   0.004534   0.000285   0.003363   0.000313
    32  H    0.362520  -0.030237   0.000862  -0.000152  -0.009892   0.001322
    33  H   -0.058266   0.356655  -0.028690  -0.004173  -0.061085   0.005799
    34  H   -0.000214   0.004570  -0.018956   0.382585   0.000086   0.000015
    35  H   -0.000084  -0.004046  -0.037339   0.365034   0.005518   0.000184
    36  H    0.000039  -0.005277  -0.029420   0.371977  -0.003894   0.000534
    37  H    0.004829  -0.036003  -0.004661   0.001779   0.347828  -0.050348
    38  H    0.000259  -0.003229   0.011167  -0.000945  -0.029465   0.362612
    39  H   -0.000268  -0.002923   0.000131   0.000075  -0.023800   0.352594
    40  H    0.000025  -0.000177  -0.000009  -0.000000  -0.009558  -0.015161
    41  H   -0.000005   0.000382  -0.000009  -0.000074   0.006165  -0.040988
    42  H    0.000001  -0.000007  -0.000011  -0.000003  -0.000581  -0.000057
    43  H   -0.000000  -0.000000   0.000000   0.000000  -0.000013  -0.000397
    44  H    0.000000   0.000000   0.000000   0.000000   0.000000  -0.000006
    45  H   -0.000486  -0.003393   0.000028   0.000044  -0.029402   0.005308
    46  H   -0.000004   0.003248  -0.000057   0.000001  -0.022825  -0.009448
    47  H   -0.000089   0.000218   0.000000  -0.000000   0.002547   0.000531
    48  H    0.000623  -0.001419  -0.000017   0.000000  -0.007469   0.000012
              13         14         15         16         17         18
     1  C   -0.000000  -0.000000  -0.000000  -0.000000  -0.000012  -0.000108
     2  C    0.000000  -0.000000  -0.000000   0.000000   0.000265   0.002674
     3  C   -0.000000   0.000000  -0.000000  -0.000000  -0.009784  -0.028073
     4  C    0.000066   0.000000  -0.000000   0.000000  -0.018523   0.407985
     5  C   -0.000003  -0.000000   0.000000  -0.000000  -0.006727  -0.037721
     6  C   -0.000012   0.000000  -0.000000  -0.000000  -0.000532  -0.002593
     7  C    0.000478  -0.000001   0.000000  -0.000000  -0.005232   0.004713
     8  C    0.000949  -0.000031   0.000000  -0.000000  -0.020273  -0.008126
     9  O    0.000487   0.000003   0.000000  -0.000000   0.001829   0.000024
    10  C    0.000020   0.000002  -0.000000   0.000000   0.000053  -0.000009
    11  C   -0.039468   0.001422  -0.000067   0.000000   0.386749  -0.017051
    12  C    0.404255  -0.033942   0.001733  -0.000123  -0.034503  -0.008142
    13  C    4.876385   0.358816  -0.048921   0.004294  -0.003642  -0.001249
    14  N    0.358816   6.565364   0.230867  -0.053925   0.000315  -0.000029
    15  N   -0.048921   0.230867   6.543743   0.213837   0.000007  -0.000001
    16  O    0.004294  -0.053925   0.213837   7.967849   0.000000  -0.000000
    17  C   -0.003642   0.000315   0.000007   0.000000   4.920421   0.403789
[...]
 7,0.00003585,0.00016646,-0.00000251,-0.00007056,0.00012128,0.00034637,
 0.00049110,-0.00004975,-0.00030101,0.00039915,0.00009081,-0.00008923,-
 0.00012378,-0.00011439,0.00870891,0.00942486,-0.00309603,0.00233037,-0
 .00071515,-0.00058392,0.00030861,-0.00023916,0.00001571,-0.00016365,0.
 00009495,-0.00000961,-0.00004836,0.00002085,-0.00004394,0.00001212,-0.
 00002410,0.00004694,-0.12129722,-0.19248690,0.03476971,-0.01022882,-0.
 01255206,0.00042314,0.00000546,-0.00000025,0.00001992,0.00002796,0.000
 02057,-0.00001203,-0.00000412,0.00000316,-0.00000568,-0.00001006,-0.00
 002341,-0.00000045,-0.00008335,-0.00003507,0.00021474,-0.00003765,0.00
 010101,0.00007418,0.00069050,0.00057417,0.00016997,0.00017088,0.000067
 60,0.00001028,0.00030462,0.00046680,0.00106548,-0.00001876,0.00033520,
 0.00006658,0.00001804,0.00001820,-0.00001440,0.00011963,-0.00002088,0.
 00000319,0.00001314,0.00006558,-0.00002285,0.00012062,-0.00002551,-0.0
 0002152,-0.00016195,0.00012643,-0.00017848,-0.00000059,0.00001575,0.00
 000770,0.00003163,-0.00002409,0.00001239,0.00001297,0.00002250,-0.0000
 0405,-0.00042342,0.00093418,0.00055437,0.00058318,0.00038113,-0.000230
 12,0.00019972,0.00005004,0.00003350,-0.00018423,0.00023401,-0.00017659
 ,-0.00008056,0.00007258,0.00006591,-0.00003462,-0.00005799,0.00008141,
 0.00002225,0.00000995,-0.00002105,0.00000104,0.00001544,-0.00002207,0.
 13144180,0.21083408,0.00003038,-0.00000369,0.00002492,0.00007516,0.000
 21631,0.00001046,0.00014839,-0.00023051,-0.00040607,-0.00030778,-0.000
 05837,0.00084363,-0.00038570,0.00004528,-0.00103556,-0.00013670,0.0000
 3586,0.00013802,-0.00017635,-0.00016637,0.00002541,-0.00051929,0.00015
 413,0.00010308,-0.00006346,-0.00018041,-0.00011919,0.00006226,0.000136
 09,0.00008370,0.00748361,0.00856549,-0.00346580,0.00194826,-0.00172124
 ,-0.00047765,-0.00008721,0.00001539,0.00041144,0.00014928,-0.00002318,
 -0.00006690,0.00012008,-0.00004726,0.00002891,-0.00007736,0.00010281,-
 0.00001896,0.02919936,0.03492294,-0.05371351,-0.01805989,-0.02062072,0
 .00341461,-0.00002112,-0.00000340,0.00000184,-0.00000440,-0.00000522,-
 0.00000774,-0.00000973,0.00001016,-0.00000007,0.00001366,0.00001039,-0
 .00004410,-0.00003548,-0.00001151,0.00006281,-0.00009779,0.00010675,0.
 00012252,0.00075726,-0.00006818,-0.00032349,0.00000374,0.00013674,0.00
 058862,-0.00042497,0.00106558,-0.00126381,0.00020420,0.00008819,0.0002
 2143,0.00002629,0.00000090,0.00000103,0.00008296,0.00000402,0.00004418
 ,0.00002872,0.00007618,-0.00002178,0.00013406,0.00002500,-0.00006387,-
 0.00006937,-0.00020819,0.00028914,-0.00001471,-0.00000865,-0.00001208,
 0.00001988,0.00001437,-0.00003664,-0.00001750,-0.00004260,0.00002817,-
 0.00006262,0.00040093,-0.00002831,0.00058652,0.00059983,-0.00023386,0.
 00005338,0.00006340,0.00000507,0.00007001,-0.00026780,0.00015369,0.000
 07561,-0.00007955,-0.00010907,-0.00002039,0.00004667,-0.00003766,-0.00
 003503,-0.00001098,0.00002696,0.00000509,-0.00002823,-0.00000144,-0.03
 481101,-0.03684221,0.06436575,-0.00000483,0.00000937,-0.00000776,0.000
 00002,-0.00001857,0.00001487,0.00006812,0.00003005,-0.00005097,-0.0000
 1715,-0.00073699,0.00051473,-0.00022146,-0.00035066,0.00016766,-0.0001
 7574,-0.00003837,0.00011396,0.00034749,0.00008399,0.00019705,-0.002323
 27,-0.00100802,0.00478950,-0.00205316,0.00241360,-0.00008186,-0.000392
 84,-0.00054629,-0.00070740,-0.01670886,0.01993405,-0.02029040,0.000944
 75,0.00019384,-0.00113997,-0.00129262,0.00060169,0.00044685,0.00059486
 ,-0.00027673,0.00007178,0.00013748,-0.00009164,0.00007838,-0.00007292,
 0.00017001,-0.00006063,-0.09332465,0.05968928,-0.08118152,-0.00124202,
 0.00247716,-0.00204717,0.00000405,0.00000147,-0.00000501,-0.00000094,-
 0.00000495,0.00000167,-0.00000208,0.00000218,0.00000444,0.00000256,0.0
 0000808,-0.00001421,-0.00000961,-0.00000232,-0.00000629,0.00000083,0.0
 0009065,0.00003786,0.00009950,-0.00010354,-0.00005113,0.00010095,0.000
 17058,-0.00005619,0.00004818,0.00028975,0.00011239,0.00008804,0.000080
 77,0.00007139,0.00001497,0.00000877,-0.00000870,0.00010419,0.00000529,
 -0.00009980,-0.00001936,0.00000534,-0.00002327,0.00003400,-0.00009547,
 -0.00008053,0.00025187,0.00020883,-0.00005393,0.00000976,0.00011319,0.
 00011826,0.00013415,0.00002232,0.00015028,0.00006559,0.00009588,0.0000
 4964,0.00125298,-0.00043261,0.00002228,0.00033457,0.00012611,-0.000025
 83,-0.00013231,-0.00020999,-0.00002109,0.00018333,-0.00117012,0.000805
 15,0.00014434,-0.00013891,-0.00008404,0.00009204,0.00014293,-0.0002001
 1,-0.00007676,-0.00002483,0.00005938,0.00001529,-0.00004510,-0.0000029
 2,0.00906442,-0.01193243,0.01467743,0.10262441,0.00001363,0.00003627,-
 0.00002031,0.00004309,-0.00005941,0.00005031,0.00001579,0.00010919,-0.
 00001154,-0.00127935,-0.00184943,-0.00172151,-0.00022810,-0.00078009,-
 0.00006095,-0.00001295,0.00014007,0.00002580,-0.00011165,-0.00019549,-
 0.00008365,0.00102546,0.00070319,-0.00200774,0.00115541,-0.00087503,0.
 00007273,0.00016699,0.00034626,0.00043005,0.00627051,-0.00810801,0.007
 75879,-0.00045159,0.00015941,-0.00001515,-0.00018860,-0.00000506,0.000
 48666,-0.00028163,0.00007395,-0.00017786,0.00001638,0.00005050,-0.0000
 3693,0.00001137,-0.00000920,-0.00001985,0.06025802,-0.12280010,0.10367
 936,-0.00673562,0.00780736,-0.01731704,0.00000980,-0.00000141,-0.00000
 702,0.00000163,-0.00000959,0.00000078,-0.00000885,0.00000591,0.0000040
 9,0.00000731,0.00003600,-0.00002484,-0.00002799,-0.00000467,0.00002157
 ,-0.00001095,0.00006003,0.00003356,0.00018588,-0.00005481,-0.00005349,
 0.00028394,0.00031140,-0.00082961,0.00018647,0.00048444,0.00024369,0.0
 0008560,0.00022306,0.00018877,-0.00004232,0.00001471,0.,0.00007293,-0.
 00000056,0.00005923,0.00004592,0.00003614,0.00003843,0.00007377,0.0000
 9295,0.00004645,-0.00018037,0.00037355,-0.00024635,-0.00000047,-0.0000
 5190,-0.00006186,-0.00006591,-0.00001771,-0.00009263,-0.00004593,-0.00
 003801,-0.00002394,-0.00014128,-0.00016098,-0.00004143,0.00001318,-0.0
 0008282,-0.00000910,-0.00000671,0.00006597,-0.00003770,-0.00066991,0.0
 0008852,0.00058295,0.00008002,-0.00009356,-0.00009829,-0.00003798,-0.0
 0007353,0.00007571,0.00001737,0.00000641,-0.00001998,-0.00000049,0.000
 00010,0.00000112,0.01058629,-0.01516869,0.01804553,-0.06916308,0.13795
 665,-0.00002977,0.00005127,-0.00006774,0.00018485,-0.00006798,0.000083
 63,-0.00048288,0.00007198,-0.00013740,-0.00194743,-0.00319258,-0.00214
 254,0.00017970,-0.00058722,0.00031336,0.00021814,-0.00000732,0.0000109
 0,0.00002459,-0.00022795,0.00004192,0.00195702,0.00004947,-0.00055130,
 0.00086372,-0.00084434,0.00005861,0.00006984,0.00013985,0.00016458,0.0
 0640646,-0.00828854,0.00831223,-0.00056931,0.00038838,0.00022133,0.000
 29477,0.00061481,-0.00048422,0.00019681,-0.00014294,0.00004518,0.00000
 096,0.00000462,0.00004517,0.00002148,-0.00001799,-0.00003782,-0.080877
 63,0.10311356,-0.17789407,-0.00862360,0.01181833,-0.02057162,0.0000491
 5,-0.00000322,-0.00001251,0.00002518,0.00001482,0.00000834,0.00000979,
 -0.00002271,-0.00000274,-0.00001407,-0.00000632,0.00002323,-0.00000192
 ,0.00001698,0.00006536,0.00007267,-0.00013917,-0.00006362,0.00007867,0
 .00018326,0.00007469,0.00055373,0.00041576,-0.00133100,0.00000332,-0.0
 0008566,0.00008742,-0.00004089,0.00004627,-0.00005145,-0.00007075,0.00
 004156,0.00000151,-0.00003867,-0.00001915,0.00005690,-0.00000329,0.000
 03110,0.00005337,0.00008851,0.00004006,0.00000350,-0.00002400,-0.00008
 253,-0.00008659,-0.00000426,-0.00001807,-0.00002895,-0.00002337,-0.000
 00233,-0.00005219,-0.00001437,-0.00002619,-0.00001301,-0.00032878,0.00
 017513,0.00119870,-0.00017312,-0.00017809,0.00007746,-0.00002078,0.000
 09134,-0.00004987,0.00096866,0.00022083,-0.00046596,0.00003982,-0.0001
 2327,-0.00008869,0.00005497,0.00004300,-0.00007736,-0.00000798,0.00000
 021,0.00001917,-0.00000932,-0.00000776,0.00001709,-0.00249083,0.004410
 16,-0.00508691,0.08312107,-0.10722488,0.19874965,-0.00003170,0.0000283
 8,-0.00008947,0.00029471,-0.00021662,-0.00011579,0.00033276,-0.0020275
 9,0.00155012,0.00410174,-0.00774784,0.00229110,-0.00043235,-0.00120952
 ,0.00175533,-0.00011813,-0.00016423,0.00026878,-0.00092982,-0.00051670
 ,0.00009648,0.00005149,-0.00038530,-0.00044508,0.00007407,0.00005996,0
 .00020907,-0.00003448,-0.00006629,-0.00004845,-0.00009830,-0.00037864,
 0.00017404,0.00022513,0.00025610,0.00011848,-0.00013550,0.00022181,0.0
 0005908,0.00003558,-0.00009333,0.00001039,-0.00005163,0.00004741,0.000
 03621,0.00005602,-0.00005945,-0.00008133,0.00268426,-0.00421858,-0.000
 90127,-0.12984606,0.11926058,-0.01883877,0.00004230,0.00000928,-0.0000
 2090,-0.00000860,-0.00000339,0.00000706,-0.00000793,-0.00000186,0.0000
 1118,0.00000639,-0.00007703,0.00004226,-0.00000017,0.00000957,-0.00005
 157,0.00004975,-0.00018927,0.00052952,-0.00003352,-0.00000547,-0.00014
 409,-0.00000308,0.00024101,-0.00046408,-0.00002872,0.00011238,-0.00004
 565,0.00022103,-0.00052419,0.00023221,0.00006153,0.00005265,-0.0000935
 3,0.00003965,-0.00004159,0.00000288,0.00007661,0.00044862,-0.00004505,
 0.00029584,0.00081645,-0.00007132,0.00004630,0.00006056,0.00005562,-0.
 00000995,0.00001825,0.00001359,0.00000811,0.00002308,0.00002106,0.0000
 0970,0.00001009,0.00000299,-0.00000452,0.00002713,0.00003663,-0.000000
 42,-0.00002291,-0.00002877,0.00011335,0.00013567,-0.00036393,0.0000882
 9,-0.00000458,0.00007878,0.00004735,-0.00009497,0.00000732,0.00000859,
 0.00000502,-0.00002487,-0.00000084,0.00000019,-0.00000237,-0.00001681,
 0.00000401,0.00004408,-0.00043013,-0.00033505,-0.00002572,0.00146157,-
 0.00035991,0.00048288,0.14072950,-0.00002842,-0.00000136,-0.00000185,-
 0.00026954,0.00059970,0.00006931,0.00184493,-0.00004484,-0.00135307,0.
 00846218,-0.01487091,0.00418105,-0.00147044,0.00081947,0.00358265,-0.0
 0034688,0.00002879,-0.00001741,-0.00040617,-0.00001629,-0.00005252,-0.
 00037125,0.00026710,-0.00005680,0.00019827,-0.00014096,-0.00009682,0.0
 0002969,0.00010114,0.00004482,-0.00226103,-0.00123901,-0.00156301,-0.0
 0005880,-0.00014179,0.00010861,0.00011306,-0.00004280,0.00007912,-0.00
 002134,0.00008874,-0.00006165,0.00007692,-0.00006000,-0.00001558,-0.00
 006553,0.00007005,0.00003040,0.01103062,-0.01408421,0.00055353,0.11731
 318,-0.21493280,0.02538365,0.00001589,0.00000802,-0.00001895,-0.000007
 27,-0.00000596,0.00001093,-0.00004805,0.00002679,0.00002866,0.00013875
 ,0.00020289,-0.00031482,0.00001086,-0.00004853,-0.00006357,-0.00124489
 ,0.00094594,0.00019832,-0.00003084,-0.00003430,0.00002482,-0.00005803,
 0.00029234,0.00038864,-0.00007471,0.00024137,-0.00025918,0.00047894,-0
 .00113455,0.00024820,0.00010604,-0.00000441,-0.00005382,0.00004959,-0.
 00001110,0.00005439,0.00001420,0.00015462,-0.00002412,0.00013370,0.000
 21542,-0.00006605,0.00003388,0.00005442,0.00001733,0.00002481,-0.00002
 224,0.00000376,-0.00000979,-0.00000409,0.00003269,-0.00001446,-0.00000
 823,0.00000341,0.00081588,-0.00027929,-0.00043374,0.00004461,0.0000431
 1,-0.00002893,0.00007993,0.00009549,-0.00006572,-0.00000349,-0.0000064
 7,-0.00004517,-0.00001786,0.00001732,0.00003617,-0.00000735,-0.0000036
 5,0.00001650,-0.00001086,-0.00000584,0.00000518,0.00000970,-0.00001454
 ,-0.00001101,-0.00012800,-0.00087911,-0.00087164,-0.00011724,0.0019261
 6,0.00003732,-0.12859583,0.23312168,0.00001046,-0.00003224,0.00005914,
 -0.00013294,-0.00023146,0.00000536,-0.00170435,0.00119685,0.00082427,-
 0.01410958,0.02511973,-0.00608516,0.00255979,0.00024337,-0.00496286,0.
 00050928,-0.00015752,0.00004799,-0.00015579,-0.00022446,-0.00003828,-0
 .00038396,0.00039724,-0.00063770,0.00028235,-0.00020616,0.00017832,0.0
 0002258,0.00008470,-0.00003693,-0.00191763,-0.00301293,-0.00237448,-0.
 00020572,-0.00016993,0.00013078,0.00018560,-0.00012659,0.00004738,-0.0
 0003854,0.00010411,-0.00005193,0.00005409,-0.00004197,-0.00001983,-0.0
 0004648,0.00004319,0.00003399,0.01563880,-0.02198577,-0.00235551,-0.01
 942283,0.02624868,-0.04759112,-0.00002714,-0.00000334,0.00000061,0.000
 00063,-0.00000851,-0.00000573,0.00004708,-0.00001487,-0.00001133,-0.00
 011811,-0.00010776,0.00016919,-0.00002181,0.00003740,-0.00000792,0.000
 99293,-0.00049336,-0.00005895,0.00025371,-0.00011176,0.00010067,-0.000
 32683,-0.00068867,0.00040444,0.00014305,0.00010577,0.00009980,-0.00048
 016,0.00182970,-0.00032376,-0.00012472,0.00001344,0.00004457,-0.000070
 43,-0.00002236,0.00004339,0.00000557,0.00003144,0.00007617,-0.00003353
 ,0.00013799,0.00004363,-0.00000136,-0.00004565,-0.00000330,0.00002449,
 -0.00001528,0.00002464,-0.00000667,0.00000706,0.00007848,-0.00001264,-
 0.00001294,0.00000770,0.00095567,-0.00049558,-0.00071390,0.00005782,0.
 00007425,-0.00003657,0.00011181,0.00011543,0.00006297,-0.00005517,0.00
 001437,-0.00005753,-0.00002719,0.00005196,0.00004878,-0.00001568,-0.00
 000731,0.00002112,-0.00000556,-0.00000463,0.00000113,0.00000430,-0.000
 00540,-0.00000900,-0.00015162,-0.00102314,-0.00075412,0.00099963,-0.00
 085681,0.00092657,0.01850559,-0.02822725,0.06304832,0.00002902,-0.0000
 9857,0.00025055,-0.00039634,-0.00017147,-0.00058105,0.00036585,-0.0006
 1974,0.00268890,-0.00766321,-0.00130035,-0.00080671,0.00000530,0.00005
 016,0.00014514,-0.00007015,-0.00069687,0.00020270,-0.00247073,0.001405
 50,-0.00022931,-0.00009932,-0.00012112,-0.00020515,0.00026311,-0.00010
 225,-0.00000130,0.00001038,-0.00000682,0.00002824,-0.00081820,0.000235
 12,0.00103213,-0.00040957,0.00016995,0.00075203,0.00000263,0.00018622,
 -0.00001714,0.00004016,0.00006695,0.00004595,-0.00003391,0.00003022,-0
 .00003294,0.00001822,-0.00001432,0.00005582,-0.00031393,-0.00144959,-0
 .00118274,-0.27828695,-0.08183587,-0.02212783,-0.00011527,0.00001351,0
 .00002385,0.00000182,0.00000144,-0.00002218,0.00000201,0.00001510,-0.0
 0002634,-0.00004982,-0.00009131,0.00015234,0.,0.00003690,0.00008332,0.
 00041191,-0.00030237,0.00000499,0.00019242,0.00001543,-0.00015572,0.00
 092222,0.00054201,0.00052054,0.00002682,0.00008908,0.00000644,0.000075
 90,-0.00008124,0.00006150,0.00004318,0.00001261,0.00002830,0.00005461,
 -0.00000794,0.00008014,0.00000004,0.00074762,0.00000250,-0.00125109,0.
 00268934,-0.00040564,-0.00002033,0.00004861,-0.00004454,0.00000919,-0.
 00000662,0.00000220,-0.00001639,0.00001079,0.00001768,0.00000364,0.000
 01354,-0.00001059,0.00016101,-0.00011217,-0.00011347,0.00015012,0.0001
 9990,-0.00002693,-0.00007350,0.00039618,0.00111716,0.00000134,-0.00005
 797,-0.00005436,0.00003476,-0.00003459,0.00014247,0.00000401,-0.000016
 98,-0.00002094,0.00001470,0.00000567,-0.00000317,0.00000299,0.00001448
 ,-0.00003997,0.00018583,0.00069773,-0.00049205,-0.00015377,-0.00057513
 ,-0.00016975,-0.01893895,-0.00535756,-0.00176880,0.30814823,-0.0000015
 0,-0.00012478,0.00031927,-0.00079156,0.00052470,-0.00040392,0.00093304
 ,-0.00105549,0.00228375,-0.01489924,-0.00477324,-0.00137038,-0.0005539
 8,0.00022879,-0.00042086,-0.00011495,-0.00015851,0.00044700,0.00005714
 ,-0.00171146,0.00030306,-0.00016616,-0.00035614,-0.00066004,0.00016269
 ,0.00020878,0.00030054,-0.00009380,-0.00013253,-0.00010333,-0.00108791
 ,0.00090720,0.00091544,0.00031776,0.00011371,0.00011660,-0.00012088,0.
 00025015,0.00003717,0.00006460,-0.00005639,0.00003732,-0.00006133,0.00
 002448,0.00002436,0.00003655,-0.00004368,-0.00002631,-0.01814549,-0.00
 854752,-0.00310264,-0.07904959,-0.07356453,-0.00672340,-0.00012704,0.0
 0001461,0.00002087,0.00000735,-0.00000662,-0.00001622,0.00000411,0.000
 01602,-0.00000014,0.00003000,-0.00003602,-0.00007452,-0.00000032,0.000
 01633,0.00003006,-0.00022906,0.00049134,-0.00006015,0.00021256,0.00000
 682,-0.00004559,0.00082972,0.00107028,-0.00050687,0.00000663,0.0000949
 3,-0.00002043,0.00019954,0.00001501,0.00007861,0.00016345,0.00012146,-
 0.00015394,0.00007306,-0.00002709,0.00002773,0.00013143,0.00046778,-0.
 00008757,0.00215686,-0.00001131,0.00014599,0.00007625,0.00022187,0.000
 08056,-0.00000304,0.00002583,0.00002775,0.00001866,0.00001027,0.000049
 60,0.00001666,0.00002897,-0.00000273,-0.00001791,0.00014267,0.00029899
 ,0.00010631,0.00011001,0.00001035,0.00019275,0.00058077,-0.00008896,0.
 00005817,-0.00006538,0.00002663,0.00003272,-0.00006887,0.00008778,0.00
 001133,0.00001004,-0.00002544,0.00000448,0.00000336,-0.00000754,-0.000
 00430,0.00000860,0.00001582,-0.00082719,-0.00188399,-0.00338903,-0.000
 46734,-0.00066814,-0.00070387,0.02549197,0.00871674,0.00247695,0.08536
 677,0.07886018,0.00000357,0.00017496,-0.00059469,0.00160079,-0.0001031
 0,0.00064545,0.00055716,0.00294680,-0.00511444,0.02849075,0.00801337,-
 0.00036667,-0.00004821,-0.00062539,0.00047596,-0.00016548,0.00032437,0
 .00013130,-0.00034937,0.00041821,-0.00003193,0.00010277,-0.00021719,-0
 .00007418,0.00026358,-0.00012017,-0.00008226,0.00001799,0.00000855,0.0
 0006944,-0.00010331,-0.00005011,0.00170097,-0.00013416,-0.00096079,-0.
 00113345,-0.00009409,0.00026579,-0.00009204,0.00009312,-0.00002096,0.0
 0008686,-0.00007870,0.00005112,-0.00000847,0.00004333,-0.00004953,0.00
 002381,-0.02387161,-0.00952171,-0.00309387,-0.02318959,-0.00777942,-0.
 04684038,0.00024728,-0.00003650,-0.00005075,-0.00001230,0.00001652,0.0
 0002285,-0.00000395,-0.00002724,0.00001603,-0.00001245,0.00008280,-0.0
 0002768,-0.00004871,-0.00007161,-0.00003431,-0.00023819,-0.00013951,-0
 .00010713,0.00011730,0.00018871,0.00012893,0.00030470,-0.00022447,0.00
 124194,0.00001958,0.00006981,-0.00002252,-0.00003152,-0.00013520,-0.00
 001087,-0.00006450,-0.00007442,-0.00005840,-0.00005430,0.00000606,-0.0
 0013251,-0.00002224,0.00007848,0.00003806,-0.00009728,0.00021139,0.000
 67951,-0.00002719,0.00011012,-0.00008350,0.00000328,-0.00000630,-0.000
 01418,-0.00002719,0.00000426,-0.00001821,0.00000189,0.00001506,-0.0000
 1460,-0.00016550,0.00044200,0.00026431,0.00009014,0.00026820,0.0004629
 4,0.00150213,0.00056051,-0.00086843,-0.00000538,-0.00009986,-0.0000493
 5,0.00001244,-0.00002191,0.00018431,0.00002119,0.00001155,-0.00002311,
 0.00001763,0.00000396,-0.00000289,0.00000045,0.00001854,-0.00001458,-0
 .00069387,-0.00165555,-0.00366679,-0.00032494,-0.00074513,-0.00136231,
 -0.00474073,-0.00143676,-0.00039348,0.02109372,0.00983168,0.05821532\\
 0.00000112,0.00000160,-0.00000026,-0.00000352,0.00000245,0.00000672,-0
 .00000686,0.00000004,-0.00000752,0.00000442,0.00000598,-0.00000528,0.0
 0000450,-0.00000217,0.00000018,-0.00000740,0.,0.00000106,0.00000501,-0
 .00000076,0.00000334,-0.00000350,0.00001254,-0.00000708,0.00000641,-0.
 00000618,0.00000510,-0.00000361,0.00000026,-0.00000240,-0.00001035,-0.
 00000310,0.00000538,0.00001619,0.00000690,0.00000379,-0.00001134,-0.00
 000807,-0.00001093,0.00001072,0.00000231,0.00002866,0.00000954,0.00000
 938,-0.00001348,-0.00001500,0.00000514,-0.00000282,-0.00000101,-0.0000
 0111,-0.00000786,0.00000559,0.00000241,0.00000947,-0.00000123,0.000000
 25,-0.00000066,-0.00000129,0.00000135,-0.00000099,-0.00000041,0.000000
 69,-0.00000058,0.00000075,0.00000043,-0.00000176,-0.00000125,-0.000000
 73,-0.00000091,-0.00000063,-0.00000208,-0.00000082,-0.00000061,0.00000
 099,0.00000205,-0.00000148,-0.00000208,0.00000005,0.00000040,-0.000000
 74,0.00000064,-0.00000128,0.00000071,-0.00000098,0.00000071,-0.0000006
 3,-0.00000124,0.00000063,-0.00000053,-0.00000001,-0.00000141,-0.000002
 04,0.00000041,0.00000010,-0.00000131,-0.00000141,0.00000006,-0.0000028
 7,0.00000349,0.00000056,0.00000088,0.00000305,0.00000004,0.00000028,0.
 00000167,-0.00000051,-0.00000137,0.00000039,0.00000177,0.00000096,0.00
 000061,-0.00000231,0.00000050,-0.00000050,0.00000015,-0.00000324,-0.00
 000343,0.00000030,-0.00000287,-0.00000030,0.00000087,0.00000163,0.0000
 0247,0.00000535,-0.00001254,0.00000016,-0.00000406,0.00000543,-0.00000
 401,0.00000438,-0.00000503,-0.00000421,0.00000179,0.00000014,0.0000008
 2,-0.00000232,-0.00000242,-0.00000086,0.00000327,0.00000170,-0.0000014
 6,-0.00000324,-0.00000307,0.00000223\\\@


 EVERYTHING'S GOT A MORAL, IF ONLY YOU CAN FIND IT.

                                    -- LEWIS CARROL, ALICE IN WONDERLAND
 Job cpu time:       1 days  2 hours 23 minutes 53.0 seconds.
 Elapsed time:       0 days  6 hours 36 minutes  1.3 seconds.
 File lengths (MBytes):  RWF=   1449 Int=      0 D2E=      0 Chk=     36 Scr=      1
 Normal termination of Gaussian 16 at Wed May 24 10:19:45 2023.
### All Done ###
