### Starting Gaussian ###
 Entering Gaussian System, Link 0=g16
 Initial command:
 /cluster/software/gaussian/gaussian-16-A.03/avx2/g16/l1.exe "/local/scratch/cz9n3/Gau-24225.inp" -scrdir="/local/scratch/cz9n3/"
 Entering Link 1 = /cluster/software/gaussian/gaussian-16-A.03/avx2/g16/l1.exe PID=     24226.
  
 Copyright (c) 1988,1990,1992,1993,1995,1998,2003,2009,2016,
            Gaussian, Inc.  All Rights Reserved.
  
 This is part of the Gaussian(R) 16 program.  It is based on
 the Gaussian(R) 09 system (copyright 2009, Gaussian, Inc.),
 the Gaussian(R) 03 system (copyright 2003, Gaussian, Inc.),
 the Gaussian(R) 98 system (copyright 1998, Gaussian, Inc.),
 the Gaussian(R) 94 system (copyright 1995, Gaussian, Inc.),
 the Gaussian 92(TM) system (copyright 1992, Gaussian, Inc.),
 the Gaussian 90(TM) system (copyright 1990, Gaussian, Inc.),
 the Gaussian 88(TM) system (copyright 1988, Gaussian, Inc.),
 the Gaussian 86(TM) system (copyright 1986, Carnegie Mellon
 University), and the Gaussian 82(TM) system (copyright 1983,
 Carnegie Mellon University). Gaussian is a federally registered
 trademark of Gaussian, Inc.
  
 This software contains proprietary and confidential information,
 including trade secrets, belonging to Gaussian, Inc.
  
 This software is provided under written license and may be
 used, copied, transmitted, or stored only in accord with that
 written license.
  
 The following legend is applicable only to US Government
 contracts under FAR:
  
                    RESTRICTED RIGHTS LEGEND
  
 Use, reproduction and disclosure by the US Government is
 subject to restrictions as set forth in subparagraphs (a)
 and (c) of the Commercial Computer Software - Restricted
 Rights clause in FAR 52.227-19.
  
 Gaussian, Inc.
 340 Quinnipiac St., Bldg. 40, Wallingford CT 06492
  
  
 ---------------------------------------------------------------
 Warning -- This program may not be used in any manner that
 competes with the business of Gaussian, Inc. or will provide
 assistance to any competitor of Gaussian, Inc.  The licensee
 of this program is prohibited from giving any competitor of
 Gaussian, Inc. access to this program.  By using this program,
 the user acknowledges that Gaussian, Inc. is engaged in the
 business of creating and licensing software in the field of
 computational chemistry and represents and warrants to the
 licensee that it is not a competitor of Gaussian, Inc. and that
 it will not use this program in any manner prohibited above.
 ---------------------------------------------------------------
  

 Cite this work as:
 Gaussian 16, Revision A.03,
 M. J. Frisch, G. W. Trucks, H. B. Schlegel, G. E. Scuseria, 
 M. A. Robb, J. R. Cheeseman, G. Scalmani, V. Barone, 
 G. A. Petersson, H. Nakatsuji, X. Li, M. Caricato, A. V. Marenich, 
 J. Bloino, B. G. Janesko, R. Gomperts, B. Mennucci, H. P. Hratchian, 
 J. V. Ortiz, A. F. Izmaylov, J. L. Sonnenberg, D. Williams-Young, 
 F. Ding, F. Lipparini, F. Egidi, J. Goings, B. Peng, A. Petrone, 
 T. Henderson, D. Ranasinghe, V. G. Zakrzewski, J. Gao, N. Rega, 
 G. Zheng, W. Liang, M. Hada, M. Ehara, K. Toyota, R. Fukuda, 
 J. Hasegawa, M. Ishida, T. Nakajima, Y. Honda, O. Kitao, H. Nakai, 
 T. Vreven, K. Throssell, J. A. Montgomery, Jr., J. E. Peralta, 
 F. Ogliaro, M. J. Bearpark, J. J. Heyd, E. N. Brothers, K. N. Kudin, 
 V. N. Staroverov, T. A. Keith, R. Kobayashi, J. Normand, 
 K. Raghavachari, A. P. Rendell, J. C. Burant, S. S. Iyengar, 
 J. Tomasi, M. Cossi, J. M. Millam, M. Klene, C. Adamo, R. Cammi, 
 J. W. Ochterski, R. L. Martin, K. Morokuma, O. Farkas, 
 J. B. Foresman, and D. J. Fox, Gaussian, Inc., Wallingford CT, 2016.
 
 ******************************************
 Gaussian 16:  ES64L-G16RevA.03 25-Dec-2016
                28-May-2023 
 ******************************************
 %chk=CCCCOCOCCqCrCdCCCOO.chk
 %NProcShared=20
 Will use up to   20 processors via shared memory.
 -----------------------------
 # opt freq b3lyp/6-31g(2df,p)
 -----------------------------
 1/18=20,19=15,26=3,38=1/1,3;
 2/9=110,12=2,17=6,18=5,40=1/2;
 3/5=1,6=6,7=104,11=2,25=1,30=1,71=1,74=-5/1,2,3;
 4//1;
 5/5=2,38=5/2;
 6/7=2,8=2,9=2,10=2,28=1/1;
 7//1,2,3,16;
 1/18=20,19=15,26=3/3(2);
 2/9=110/2;
 99//99;
 2/9=110/2;
 3/5=1,6=6,7=104,11=2,25=1,30=1,71=1,74=-5/1,2,3;
 4/5=5,16=3,69=1/1;
 5/5=2,38=5/2;
 7//1,2,3,16;
 1/18=20,19=15,26=3/3(-5);
 2/9=110/2;
 6/7=2,8=2,9=2,10=2,19=2,28=1/1;
 99/9=1/99;
 -------------------
 Title Card Required
 -------------------
 Symbolic Z-matrix:
 Charge =  0 Multiplicity = 1
 C                     0.91914   0.01666  -0.07661 
 C                     2.43508   0.02737  -0.07544 
 C                     2.97108   1.44594   0.07248 
 C                     4.48798   1.43556   0.07084 
 O                     4.96126   2.76906   0.20673 
 C                     6.38      2.77555   0.20268 
 O                     6.85956   4.10307   0.32058 
 C                     8.28366   4.11013   0.34345 
 C                     8.79039   5.54428   0.52137 
 C                     8.25266   6.13837   1.82853 
 C                     10.29957   5.56768   0.48958 
 C                     11.01135   6.70069   0.59456 
 C                     12.50745   6.72575   0.61222 
 C                     13.03527   8.14657   0.76843 
 O                     14.46032   8.11049   0.76782 
 O                     14.87619   9.49652   0.91261 
 H                     0.54804  -1.00656  -0.18334 
 H                     0.52819   0.61307  -0.90682 
 H                     0.52814   0.42894   0.85877 
 H                     2.80419  -0.41497  -1.00852 
 H                     2.80423  -0.598     0.74625 
 H                     2.60661   1.90206   1.00131 
 H                     2.60629   2.08382  -0.74218 
 H                     4.85884   1.01208  -0.86997 
 H                     4.86022   0.8295    0.90526 
 H                     6.74171   2.3478   -0.73944 
 H                     6.74411   2.18123   1.04932 
 H                     8.65734   3.69068  -0.59933 
 H                     8.63964   3.479     1.1684 
 H                     8.40624   6.14531  -0.31392 
 H                     8.59862   5.55899   2.692 
 H                     7.1584    6.14563   1.84014 
 H                     8.5813    7.17372   1.96543 
 H                     10.82678   4.62063   0.39095 
 H                     10.48623   7.64886   0.68991 
 H                     12.90092   6.29005  -0.31387 
 H                     12.88348   6.10832   1.43781 
 H                     12.68678   8.58396   1.71195 
 H                     12.69041   8.77545  -0.06105 
 H                     15.83338   9.3192    0.89336 
 

 GradGradGradGradGradGradGradGradGradGradGradGradGradGradGradGradGradGrad
 Berny optimization.
 Initialization pass.
                           ----------------------------
                           !    Initial Parameters    !
                           ! (Angstroms and Degrees)  !
 --------------------------                            --------------------------
 ! Name  Definition              Value          Derivative Info.                !
 --------------------------------------------------------------------------------
 ! R1    R(1,2)                  1.516          estimate D2E/DX2                !
 ! R2    R(1,17)                 1.0937         estimate D2E/DX2                !
 ! R3    R(1,18)                 1.0944         estimate D2E/DX2                !
 ! R4    R(1,19)                 1.0944         estimate D2E/DX2                !
 ! R5    R(2,3)                  1.5237         estimate D2E/DX2                !
 ! R6    R(2,20)                 1.0966         estimate D2E/DX2                !
 ! R7    R(2,21)                 1.0966         estimate D2E/DX2                !
 ! R8    R(3,4)                  1.5169         estimate D2E/DX2                !
 ! R9    R(3,22)                 1.0971         estimate D2E/DX2                !
 ! R10   R(3,23)                 1.0971         estimate D2E/DX2                !
 ! R11   R(4,5)                  1.4215         estimate D2E/DX2                !
 ! R12   R(4,24)                 1.0964         estimate D2E/DX2                !
 ! R13   R(4,25)                 1.0964         estimate D2E/DX2                !
 ! R14   R(5,6)                  1.4188         estimate D2E/DX2                !
 ! R15   R(6,7)                  1.4164         estimate D2E/DX2                !
 ! R16   R(6,26)                 1.0961         estimate D2E/DX2                !
 ! R17   R(6,27)                 1.0966         estimate D2E/DX2                !
 ! R18   R(7,8)                  1.4243         estimate D2E/DX2                !
 ! R19   R(8,9)                  1.5314         estimate D2E/DX2                !
 ! R20   R(8,28)                 1.0975         estimate D2E/DX2                !
 ! R21   R(8,29)                 1.098          estimate D2E/DX2                !
 ! R22   R(9,10)                 1.5332         estimate D2E/DX2                !
 ! R23   R(9,11)                 1.5097         estimate D2E/DX2                !
 ! R24   R(9,30)                 1.0984         estimate D2E/DX2                !
 ! R25   R(10,31)                1.0959         estimate D2E/DX2                !
 ! R26   R(10,32)                1.0943         estimate D2E/DX2                !
 ! R27   R(10,33)                1.0948         estimate D2E/DX2                !
 ! R28   R(11,12)                1.3421         estimate D2E/DX2                !
 ! R29   R(11,34)                1.0884         estimate D2E/DX2                !
 ! R30   R(12,13)                1.4964         estimate D2E/DX2                !
 ! R31   R(12,35)                1.0881         estimate D2E/DX2                !
 ! R32   R(13,14)                1.5237         estimate D2E/DX2                !
 ! R33   R(13,36)                1.0965         estimate D2E/DX2                !
 ! R34   R(13,37)                1.0974         estimate D2E/DX2                !
 ! R35   R(14,15)                1.4255         estimate D2E/DX2                !
 ! R36   R(14,38)                1.0968         estimate D2E/DX2                !
 ! R37   R(14,39)                1.0966         estimate D2E/DX2                !
 ! R38   R(15,16)                1.4543         estimate D2E/DX2                !
 ! R39   R(16,40)                0.9737         estimate D2E/DX2                !
 ! A1    A(2,1,17)             110.2427         estimate D2E/DX2                !
 ! A2    A(2,1,18)             110.7286         estimate D2E/DX2                !
 ! A3    A(2,1,19)             110.728          estimate D2E/DX2                !
 ! A4    A(17,1,18)            108.3372         estimate D2E/DX2                !
 ! A5    A(17,1,19)            108.3381         estimate D2E/DX2                !
 ! A6    A(18,1,19)            108.3864         estimate D2E/DX2                !
 ! A7    A(1,2,3)              111.0038         estimate D2E/DX2                !
 ! A8    A(1,2,20)             109.4557         estimate D2E/DX2                !
 ! A9    A(1,2,21)             109.4614         estimate D2E/DX2                !
 ! A10   A(3,2,20)             109.8616         estimate D2E/DX2                !
 ! A11   A(3,2,21)             109.8636         estimate D2E/DX2                !
 ! A12   A(20,2,21)            107.1112         estimate D2E/DX2                !
 ! A13   A(2,3,4)              110.2002         estimate D2E/DX2                !
 ! A14   A(2,3,22)             110.6345         estimate D2E/DX2                !
 ! A15   A(2,3,23)             110.6259         estimate D2E/DX2                !
 ! A16   A(4,3,22)             109.6314         estimate D2E/DX2                !
 ! A17   A(4,3,23)             109.6133         estimate D2E/DX2                !
 ! A18   A(22,3,23)            106.0502         estimate D2E/DX2                !
 ! A19   A(3,4,5)              109.0511         estimate D2E/DX2                !
 ! A20   A(3,4,24)             109.9883         estimate D2E/DX2                !
 ! A21   A(3,4,25)             110.0267         estimate D2E/DX2                !
 ! A22   A(5,4,24)             109.3755         estimate D2E/DX2                !
 ! A23   A(5,4,25)             109.436          estimate D2E/DX2                !
 ! A24   A(24,4,25)            108.9483         estimate D2E/DX2                !
 ! A25   A(4,5,6)              109.6915         estimate D2E/DX2                !
 ! A26   A(5,6,7)              110.0367         estimate D2E/DX2                !
 ! A27   A(5,6,26)             109.3092         estimate D2E/DX2                !
 ! A28   A(5,6,27)             109.1074         estimate D2E/DX2                !
 ! A29   A(7,6,26)             109.0008         estimate D2E/DX2                !
 ! A30   A(7,6,27)             109.3455         estimate D2E/DX2                !
 ! A31   A(26,6,27)            110.0309         estimate D2E/DX2                !
 ! A32   A(6,7,8)              110.152          estimate D2E/DX2                !
 ! A33   A(7,8,9)              109.7156         estimate D2E/DX2                !
 ! A34   A(7,8,28)             108.951          estimate D2E/DX2                !
 ! A35   A(7,8,29)             109.474          estimate D2E/DX2                !
 ! A36   A(9,8,28)             110.1859         estimate D2E/DX2                !
 ! A37   A(9,8,29)             110.1043         estimate D2E/DX2                !
 ! A38   A(28,8,29)            108.3819         estimate D2E/DX2                !
 ! A39   A(8,9,10)             110.2349         estimate D2E/DX2                !
 ! A40   A(8,9,11)             110.0504         estimate D2E/DX2                !
 ! A41   A(8,9,30)             107.9601         estimate D2E/DX2                !
 ! A42   A(10,9,11)            111.2566         estimate D2E/DX2                !
 ! A43   A(10,9,30)            108.2794         estimate D2E/DX2                !
 ! A44   A(11,9,30)            108.9727         estimate D2E/DX2                !
 ! A45   A(9,10,31)            110.8656         estimate D2E/DX2                !
 ! A46   A(9,10,32)            111.242          estimate D2E/DX2                !
 ! A47   A(9,10,33)            111.5769         estimate D2E/DX2                !
 ! A48   A(31,10,32)           108.1084         estimate D2E/DX2                !
 ! A49   A(31,10,33)           107.859          estimate D2E/DX2                !
 ! A50   A(32,10,33)           107.0104         estimate D2E/DX2                !
 ! A51   A(9,11,12)            122.7916         estimate D2E/DX2                !
 ! A52   A(9,11,34)            118.2066         estimate D2E/DX2                !
 ! A53   A(12,11,34)           118.9962         estimate D2E/DX2                !
 ! A54   A(11,12,13)           123.0436         estimate D2E/DX2                !
 ! A55   A(11,12,35)           119.1141         estimate D2E/DX2                !
 ! A56   A(13,12,35)           117.8328         estimate D2E/DX2                !
 ! A57   A(12,13,14)           111.2941         estimate D2E/DX2                !
 ! A58   A(12,13,36)           110.0077         estimate D2E/DX2                !
 ! A59   A(12,13,37)           110.0018         estimate D2E/DX2                !
 ! A60   A(14,13,36)           109.4392         estimate D2E/DX2                !
 ! A61   A(14,13,37)           109.1972         estimate D2E/DX2                !
 ! A62   A(36,13,37)           106.7911         estimate D2E/DX2                !
 ! A63   A(13,14,15)           108.823          estimate D2E/DX2                !
 ! A64   A(13,14,38)           110.4862         estimate D2E/DX2                !
 ! A65   A(13,14,39)           110.3822         estimate D2E/DX2                !
 ! A66   A(15,14,38)           109.153          estimate D2E/DX2                !
 ! A67   A(15,14,39)           109.1827         estimate D2E/DX2                !
 ! A68   A(38,14,39)           108.7894         estimate D2E/DX2                !
 ! A69   A(14,15,16)           105.1711         estimate D2E/DX2                !
 ! A70   A(15,16,40)            96.0609         estimate D2E/DX2                !
 ! D1    D(17,1,2,3)           179.998          estimate D2E/DX2                !
 ! D2    D(17,1,2,20)           58.5587         estimate D2E/DX2                !
 ! D3    D(17,1,2,21)          -58.5563         estimate D2E/DX2                !
 ! D4    D(18,1,2,3)            60.1245         estimate D2E/DX2                !
 ! D5    D(18,1,2,20)          -61.3148         estimate D2E/DX2                !
 ! D6    D(18,1,2,21)         -178.4298         estimate D2E/DX2                !
 ! D7    D(19,1,2,3)           -60.1277         estimate D2E/DX2                !
 ! D8    D(19,1,2,20)          178.433          estimate D2E/DX2                !
 ! D9    D(19,1,2,21)           61.318          estimate D2E/DX2                !
 ! D10   D(1,2,3,4)           -179.9755         estimate D2E/DX2                !
 ! D11   D(1,2,3,22)            58.62           estimate D2E/DX2                !
 ! D12   D(1,2,3,23)           -58.5994         estimate D2E/DX2                !
 ! D13   D(20,2,3,4)           -58.7745         estimate D2E/DX2                !
 ! D14   D(20,2,3,22)          179.8211         estimate D2E/DX2                !
 ! D15   D(20,2,3,23)           62.6016         estimate D2E/DX2                !
 ! D16   D(21,2,3,4)            58.8149         estimate D2E/DX2                !
 ! D17   D(21,2,3,22)          -62.5895         estimate D2E/DX2                !
 ! D18   D(21,2,3,23)         -179.809          estimate D2E/DX2                !
 ! D19   D(2,3,4,5)            179.8655         estimate D2E/DX2                !
 ! D20   D(2,3,4,24)            59.9258         estimate D2E/DX2                !
 ! D21   D(2,3,4,25)           -60.0972         estimate D2E/DX2                !
 ! D22   D(22,3,4,5)           -58.1346         estimate D2E/DX2                !
 ! D23   D(22,3,4,24)         -178.0743         estimate D2E/DX2                !
 ! D24   D(22,3,4,25)           61.9026         estimate D2E/DX2                !
 ! D25   D(23,3,4,5)            57.8883         estimate D2E/DX2                !
 ! D26   D(23,3,4,24)          -62.0514         estimate D2E/DX2                !
 ! D27   D(23,3,4,25)          177.9255         estimate D2E/DX2                !
 ! D28   D(3,4,5,6)           -179.8221         estimate D2E/DX2                !
 ! D29   D(24,4,5,6)           -59.5047         estimate D2E/DX2                !
 ! D30   D(25,4,5,6)            59.7769         estimate D2E/DX2                !
 ! D31   D(4,5,6,7)            179.2568         estimate D2E/DX2                !
 ! D32   D(4,5,6,26)            59.5874         estimate D2E/DX2                !
 ! D33   D(4,5,6,27)           -60.776          estimate D2E/DX2                !
 ! D34   D(5,6,7,8)            178.8525         estimate D2E/DX2                !
 ! D35   D(26,6,7,8)           -61.2908         estimate D2E/DX2                !
 ! D36   D(27,6,7,8)            59.0297         estimate D2E/DX2                !
 ! D37   D(6,7,8,9)           -177.9907         estimate D2E/DX2                !
 ! D38   D(6,7,8,28)            61.3047         estimate D2E/DX2                !
 ! D39   D(6,7,8,29)           -57.0594         estimate D2E/DX2                !
 ! D40   D(7,8,9,10)            59.2405         estimate D2E/DX2                !
 ! D41   D(7,8,9,11)          -177.6762         estimate D2E/DX2                !
 ! D42   D(7,8,9,30)           -58.8518         estimate D2E/DX2                !
 ! D43   D(28,8,9,10)          179.1949         estimate D2E/DX2                !
 ! D44   D(28,8,9,11)          -57.7218         estimate D2E/DX2                !
 ! D45   D(28,8,9,30)           61.1026         estimate D2E/DX2                !
 ! D46   D(29,8,9,10)          -61.3093         estimate D2E/DX2                !
 ! D47   D(29,8,9,11)           61.774          estimate D2E/DX2                !
 ! D48   D(29,8,9,30)         -179.4017         estimate D2E/DX2                !
 ! D49   D(8,9,10,31)           61.2055         estimate D2E/DX2                !
 ! D50   D(8,9,10,32)          -59.1289         estimate D2E/DX2                !
 ! D51   D(8,9,10,33)         -178.5513         estimate D2E/DX2                !
 ! D52   D(11,9,10,31)         -61.1703         estimate D2E/DX2                !
 ! D53   D(11,9,10,32)         178.4953         estimate D2E/DX2                !
 ! D54   D(11,9,10,33)          59.0728         estimate D2E/DX2                !
 ! D55   D(30,9,10,31)         179.1013         estimate D2E/DX2                !
 ! D56   D(30,9,10,32)          58.767          estimate D2E/DX2                !
 ! D57   D(30,9,10,33)         -60.6555         estimate D2E/DX2                !
 ! D58   D(8,9,11,12)          178.5714         estimate D2E/DX2                !
 ! D59   D(8,9,11,34)           -2.2967         estimate D2E/DX2                !
 ! D60   D(10,9,11,12)         -58.9462         estimate D2E/DX2                !
 ! D61   D(10,9,11,34)         120.1857         estimate D2E/DX2                !
 ! D62   D(30,9,11,12)          60.3695         estimate D2E/DX2                !
 ! D63   D(30,9,11,34)        -120.4986         estimate D2E/DX2                !
 ! D64   D(9,11,12,13)         177.7757         estimate D2E/DX2                !
 ! D65   D(9,11,12,35)          -1.0768         estimate D2E/DX2                !
 ! D66   D(34,11,12,13)         -1.3497         estimate D2E/DX2                !
 ! D67   D(34,11,12,35)        179.7978         estimate D2E/DX2                !
 ! D68   D(11,12,13,14)       -178.8604         estimate D2E/DX2                !
 ! D69   D(11,12,13,36)         59.6693         estimate D2E/DX2                !
 ! D70   D(11,12,13,37)        -57.6994         estimate D2E/DX2                !
 ! D71   D(35,12,13,14)          0.0059         estimate D2E/DX2                !
 ! D72   D(35,12,13,36)       -121.4644         estimate D2E/DX2                !
 ! D73   D(35,12,13,37)        121.1669         estimate D2E/DX2                !
 ! D74   D(12,13,14,15)       -179.5328         estimate D2E/DX2                !
 ! D75   D(12,13,14,38)         60.6399         estimate D2E/DX2                !
 ! D76   D(12,13,14,39)        -59.7322         estimate D2E/DX2                !
 ! D77   D(36,13,14,15)        -57.7317         estimate D2E/DX2                !
 ! D78   D(36,13,14,38)       -177.5589         estimate D2E/DX2                !
 ! D79   D(36,13,14,39)         62.069          estimate D2E/DX2                !
 ! D80   D(37,13,14,15)         58.8367         estimate D2E/DX2                !
 ! D81   D(37,13,14,38)        -60.9905         estimate D2E/DX2                !
 ! D82   D(37,13,14,39)        178.6374         estimate D2E/DX2                !
 ! D83   D(13,14,15,16)        179.7012         estimate D2E/DX2                !
 ! D84   D(38,14,15,16)        -59.6473         estimate D2E/DX2                !
 ! D85   D(39,14,15,16)         59.1584         estimate D2E/DX2                !
 ! D86   D(14,15,16,40)       -179.8264         estimate D2E/DX2                !
 --------------------------------------------------------------------------------
 Trust Radius=3.00D-01 FncErr=1.00D-07 GrdErr=1.00D-06 EigMax=2.50D+02 EigMin=1.00D-04
 Number of steps in this run=    205 maximum allowed number of steps=    240.
 GradGradGradGradGradGradGradGradGradGradGradGradGradGradGradGradGradGrad

                          Input orientation:                          
 ---------------------------------------------------------------------
 Center     Atomic      Atomic             Coordinates (Angstroms)
 Number     Number       Type             X           Y           Z
 ---------------------------------------------------------------------
      1          6           0        0.919140    0.016660   -0.076610
      2          6           0        2.435080    0.027370   -0.075440
      3          6           0        2.971080    1.445940    0.072480
      4          6           0        4.487980    1.435560    0.070840
      5          8           0        4.961260    2.769060    0.206730
      6          6           0        6.380000    2.775550    0.202680
      7          8           0        6.859560    4.103070    0.320580
      8          6           0        8.283660    4.110130    0.343450
      9          6           0        8.790390    5.544280    0.521370
     10          6           0        8.252660    6.138370    1.828530
     11          6           0       10.299570    5.567680    0.489580
     12          6           0       11.011350    6.700690    0.594560
     13          6           0       12.507450    6.725750    0.612220
     14          6           0       13.035270    8.146570    0.768430
     15          8           0       14.460320    8.110490    0.767820
     16          8           0       14.876190    9.496520    0.912610
     17          1           0        0.548040   -1.006560   -0.183340
     18          1           0        0.528190    0.613070   -0.906820
     19          1           0        0.528140    0.428940    0.858770
     20          1           0        2.804190   -0.414970   -1.008520
     21          1           0        2.804230   -0.598000    0.746250
     22          1           0        2.606610    1.902060    1.001310
     23          1           0        2.606290    2.083820   -0.742180
     24          1           0        4.858840    1.012080   -0.869970
     25          1           0        4.860220    0.829500    0.905260
     26          1           0        6.741710    2.347800   -0.739440
     27          1           0        6.744110    2.181230    1.049320
     28          1           0        8.657340    3.690680   -0.599330
     29          1           0        8.639640    3.479000    1.168400
     30          1           0        8.406240    6.145310   -0.313920
     31          1           0        8.598620    5.558990    2.692000
     32          1           0        7.158400    6.145630    1.840140
     33          1           0        8.581300    7.173720    1.965430
     34          1           0       10.826780    4.620630    0.390950
     35          1           0       10.486230    7.648860    0.689910
     36          1           0       12.900920    6.290050   -0.313870
     37          1           0       12.883480    6.108320    1.437810
     38          1           0       12.686780    8.583960    1.711950
     39          1           0       12.690410    8.775450   -0.061050
     40          1           0       15.833380    9.319200    0.893360
 ---------------------------------------------------------------------
                    Distance matrix (angstroms):
                    1          2          3          4          5
     1  C    0.000000
     2  C    1.515978   0.000000
     3  C    2.505100   1.523653   0.000000
     4  C    3.843389   2.493751   1.516936   0.000000
     5  O    4.898441   3.738726   2.393634   1.421507   0.000000
     6  C    6.124579   4.815832   3.661359   2.322218   1.418761
     7  O    7.221156   6.028614   4.716161   3.578040   2.322948
     8  C    8.436178   7.144948   5.949356   4.651325   3.585457
     9  C    9.636843   8.436969   7.131778   5.966179   4.739523
    10  C    9.740914   8.649489   7.279952   6.275246   4.981546
    11  C   10.914525   9.636622   8.418401   7.143132   6.034056
    12  C   12.123507  10.887355   9.619299   8.399419   7.225767
    13  C   13.408031  12.115849  10.913756   9.622427   8.530229
    14  C   14.615407  13.378997  12.110768  10.889465   9.717137
    15  O   15.798313  14.513935  13.300465  12.020318  10.912279
    16  O   16.901052  15.665959  14.396156  13.175832  12.002617
    17  H    1.093657   2.154431   3.457069   4.642379   5.820994
    18  H    1.094438   2.161126   2.760509   4.160799   5.053751
    19  H    1.094437   2.161117   2.760525   4.161064   5.055084
    20  H    2.146666   1.096606   2.158564   2.724817   4.033340
    21  H    2.146735   1.096601   2.158586   2.725171   4.034966
    22  H    2.750309   2.168704   1.097091   2.150105   2.632000
    23  H    2.750020   2.168604   1.097102   2.149884   2.629804
    24  H    4.140232   2.734144   2.154085   1.096356   2.063190
    25  H    4.142088   2.736145   2.154616   1.096416   2.063988
    26  H    6.306812   4.936836   3.961088   2.562818   2.059782
    27  H    6.315327   4.946912   3.966185   2.569741   2.057682
    28  H    8.582039   7.239532   6.150101   4.787302   3.893600
    29  H    8.552425   7.208152   6.121025   4.755688   3.867726
    30  H    9.678499   8.552240   7.195439   6.138611   4.851601
    31  H    9.866967   8.731940   7.446360   6.385179   5.214467
    32  H    8.953579   7.963184   6.537993   5.696168   4.347031
    33  H   10.681860   9.644246   8.238039   7.298714   5.966468
    34  H   10.935103   9.577901   8.478921   7.101234   6.153582
    35  H   12.262432  11.112780   9.763960   8.658369   7.387233
    36  H   13.526817  12.198845  11.055152   9.720681   8.700954
    37  H   13.511004  12.183470  11.038912   9.705035   8.684917
    38  H   14.665433  13.472466  12.166923  11.000599   9.785827
    39  H   14.672404  13.479648  12.173944  11.007781   9.792251
    40  H   17.604336  16.333742  15.103007  13.840030  12.711365
                    6          7          8          9         10
     6  C    0.000000
     7  O    1.416400   0.000000
     8  C    2.329129   1.424301   0.000000
     9  C    3.684754   2.417748   1.531410   0.000000
    10  C    4.178373   2.890863   2.513997   1.533220   0.000000
    11  C    4.820926   3.742634   2.491927   1.509696   2.511636
    12  C    6.083560   4.905105   3.770192   2.505056   3.073964
    13  C    7.301880   6.233953   4.975350   3.901366   4.464041
    14  C    8.570913   7.395259   6.249100   4.985174   5.294340
    15  O    9.699100   8.604126   7.371167   6.228505   6.599197
    16  O   10.856366   9.680194   8.532209   7.267065   7.482462
    17  H    6.961690   8.136187   9.289663  10.552083  10.698543
    18  H    6.336481   7.332998   8.598832   9.727307   9.883244
    19  H    6.338872   7.340011   8.600279   9.723442   9.654338
    20  H    4.942959   6.214919   7.233875   8.584161   8.982257
    21  H    4.945952   6.223099   7.235530   8.579760   8.731289
    22  H    3.954651   4.836881   6.126765   7.192722   7.106933
    23  H    3.951220   4.826711   6.125117   7.198224   7.411438
    24  H    2.564046   3.869691   4.774903   6.159038   6.714072
    25  H    2.567189   3.880138   4.774736   6.150021   6.367510
    26  H    1.096081   2.053900   2.579936   4.000527   4.821396
    27  H    1.096627   2.058606   2.566928   3.971914   4.306025
    28  H    2.582046   2.061144   1.097456   2.170139   3.471233
    29  H    2.556058   2.068078   1.097993   2.169506   2.767268
    30  H    3.965830   2.639234   2.142223   1.098416   2.147959
    31  H    4.343562   3.281412   2.777424   2.179134   1.095879
    32  H    3.826829   2.563283   2.765782   2.182697   1.094346
    33  H    5.224644   3.885719   3.479223   2.187259   1.094850
    34  H    4.818051   4.001457   2.594287   2.239871   3.316062
    35  H    6.391218   5.085447   4.182578   2.708050   2.926922
    36  H    7.425694   6.456271   5.148127   4.260312   5.120469
    37  H    7.411353   6.446460   5.133102   4.232185   4.647371
    38  H    8.705802   7.481362   6.424594   5.083207   5.065167
    39  H    8.711465   7.481684   6.430263   5.098022   5.497120
    40  H   11.517933  10.395457   9.188856   7.999507   8.274028
                   11         12         13         14         15
    11  C    0.000000
    12  C    1.342149   0.000000
    13  C    2.496177   1.496414   0.000000
    14  C    3.769945   2.493402   1.523721   0.000000
    15  O    4.884172   3.730007   2.399045   1.425507   0.000000
    16  O    6.046502   4.780670   3.657640   2.287387   1.454301
    17  H   11.779889  13.018744  14.263556  15.511820  16.660637
    18  H   11.044363  12.215151  13.534216  14.696501  15.909745
    19  H   11.046438  12.218934  13.535674  14.696880  15.909749
    20  H    9.706551  10.979980  12.156066  13.458548  14.550059
    21  H    9.708842  10.984111  12.157621  13.458907  14.550007
    22  H    8.536994   9.686689  11.020254  12.157512  13.383182
    23  H    8.534698   9.682324  11.018842  12.157405  13.383530
    24  H    7.225193   8.506381   9.661477  10.974484  12.052311
    25  H    7.225626   8.509043   9.660837  10.972223  12.049632
    26  H    4.953432   6.241557   7.364590   8.689551   9.749737
    27  H    4.941928   6.232308   7.352537   8.674265   9.735259
    28  H    2.721355   4.003361   5.050035   6.394685   7.421482
    29  H    2.752953   4.041483   5.080421   6.423998   7.449260
    30  H    2.136344   2.814317   4.244357   5.157949   6.456313
    31  H    2.782797   3.394702   4.578839   5.484483   6.676238
    32  H    3.467706   4.087149   5.518756   6.299994   7.637315
    33  H    2.776680   2.829874   4.176902   4.713501   6.072453
    34  H    1.088385   2.098136   2.702803   4.177580   5.052105
    35  H    2.099115   1.088057   2.223398   2.598362   4.001570
    36  H    2.816802   2.136433   1.096493   2.153158   2.629788
    37  H    2.805000   2.137017   1.097368   2.150714   2.635146
    38  H    4.036199   2.757233   2.166682   1.096807   2.064219
    39  H    4.038452   2.748399   2.165188   1.096565   2.064408
    40  H    6.697760   5.495257   4.226918   3.036460   1.833585
                   16         17         18         19         20
    16  O    0.000000
    17  H   17.799204   0.000000
    18  H   16.973247   1.773984   0.000000
    19  H   16.973227   1.773993   1.775165   0.000000
    20  H   15.737267   2.474088   2.499477   3.062574   0.000000
    21  H   15.737193   2.474157   3.062628   2.499570   1.764290
    22  H   14.430048   3.755153   3.101981   2.551556   3.073611
    23  H   14.430416   3.754883   2.551218   3.101673   2.520725
    24  H   13.248042   4.809300   4.349149   4.699314   2.505445
    25  H   13.245261   4.811555   4.700740   4.350808   3.072217
    26  H   10.954599   7.065587   6.453304   6.696622   4.817610
    27  H   10.939053   7.076209   6.702482   6.461046   5.147614
    28  H    8.641055   9.380717   8.697661   8.879690   7.161226
    29  H    8.670094   9.349943   8.849617   8.671515   7.345370
    30  H    7.388859  10.626269   9.644733   9.803905   8.654635
    31  H    7.620909  10.778955  10.126474   9.737083   9.108099
    32  H    8.464813   9.947118   9.061716   8.809312   8.373499
    33  H    6.791868  11.664796  10.777037  10.562677   9.990375
    34  H    6.359572  11.732330  11.126801  11.128841   9.574849
    35  H    4.768143  13.207819  12.296928  12.301192  11.266044
    36  H    3.960732  14.347515  13.625863  13.740938  12.140173
    37  H    3.965681  14.332227  13.724003  13.610477  12.252752
    38  H    2.503043  15.585866  14.772419  14.665088  13.639915
    39  H    2.499118  15.592941  14.671720  14.779415  13.531403
    40  H    0.973666  18.477614  17.699892  17.699952  16.374706
                   21         22         23         24         25
    21  H    0.000000
    22  H    2.520795   0.000000
    23  H    3.073559   1.752939   0.000000
    24  H    3.070171   3.060440   2.497787   0.000000
    25  H    2.508014   2.497673   3.060650   1.784595   0.000000
    26  H    5.136999   4.508652   4.143838   2.312225   2.924086
    27  H    4.831007   4.147185   4.510046   2.933399   2.323138
    28  H    7.379855   6.509420   6.262397   4.655829   4.986809
    29  H    7.131069   6.237957   6.480598   4.953291   4.623106
    30  H    8.830555   7.305526   7.093555   6.264446   6.505267
    31  H    8.675795   7.220509   7.731650   6.880987   6.287778
    32  H    8.101354   6.279356   6.624831   6.243878   5.866589
    33  H    9.760152   8.026011   8.302950   7.737054   7.430984
    34  H    9.577142   8.679537   8.677318   7.087162   7.087808
    35  H   11.270625   9.757617   9.752641   8.840113   8.843191
    36  H   12.268343  11.267518  11.129026   9.635417   9.795751
    37  H   12.126181  11.112930  11.250315   9.782247   9.618849
    38  H   13.524266  12.114562  12.242992  11.192691  11.047056
    39  H   13.647339  12.249699  12.121523  11.057023  11.197489
    40  H   16.374714  15.164863  15.165145  13.876531  13.873910
                   26         27         28         29         30
    26  H    0.000000
    27  H    1.796500   0.000000
    28  H    2.343629   2.942267   0.000000
    29  H    2.919179   2.300309   1.780447   0.000000
    30  H    4.168070   4.509438   2.483892   3.059568   0.000000
    31  H    5.053181   4.188898   3.785087   2.578643   3.068605
    32  H    4.609922   4.063681   3.771553   3.123495   2.489393
    33  H    5.830087   5.398100   4.326123   3.780161   2.506733
    34  H    4.809505   4.801283   2.559674   2.586760   2.946270
    35  H    6.645729   6.635331   4.546885   4.585475   2.755848
    36  H    7.325183   7.526420   4.984595   5.315791   4.497010
    37  H    7.523514   7.298275   5.277801   4.999608   4.807869
    38  H    8.957838   8.760671   6.747043   6.537232   5.326743
    39  H    8.784186   8.948472   6.512318   6.780315   5.033457
    40  H   11.572593  11.558104   9.241424   9.270031   8.166610
                   31         32         33         34         35
    31  H    0.000000
    32  H    1.773146   0.000000
    33  H    1.770750   1.759918   0.000000
    34  H    3.337671   4.228805   3.746924   0.000000
    35  H    3.455285   3.828470   2.341253   3.061948   0.000000
    36  H    5.299008   6.134913   4.963386   2.754231   2.946976
    37  H    4.498309   5.739321   4.463431   2.745752   2.946086
    38  H    5.179189   6.043581   4.348332   4.573032   2.600269
    39  H    5.887924   6.413549   4.853550   4.576019   2.586804
    40  H    8.349613   9.285646   7.638395   6.884404   5.605661
                   36         37         38         39         40
    36  H    0.000000
    37  H    1.761168   0.000000
    38  H    3.067870   2.498527   0.000000
    39  H    2.507079   3.065524   1.783314   0.000000
    40  H    4.385485   4.394097   3.333431   3.329388   0.000000
 Stoichiometry    C12H24O4
 Framework group  C1[X(C12H24O4)]
 Deg. of freedom   114
 Full point group                 C1      NOp   1
 Largest Abelian subgroup         C1      NOp   1
 Largest concise Abelian subgroup C1      NOp   1
                         Standard orientation:                         
 ---------------------------------------------------------------------
 Center     Atomic      Atomic             Coordinates (Angstroms)
 Number     Number       Type             X           Y           Z
 ---------------------------------------------------------------------
      1          6           0       -8.514734    0.259530   -0.168044
      2          6           0       -7.256998   -0.523048    0.154233
      3          6           0       -6.009815    0.282874   -0.187151
      4          6           0       -4.763287   -0.516625    0.141580
      5          8           0       -3.616338    0.255457   -0.188695
      6          6           0       -2.441546   -0.481855    0.109830
      7          8           0       -1.293881    0.274346   -0.232532
      8          6           0       -0.112676   -0.452907    0.090720
      9          6           0        1.120934    0.393326   -0.236867
     10          6           0        1.091073    1.704166    0.557846
     11          6           0        2.378163   -0.391865    0.049550
     12          6           0        3.607693    0.097756   -0.173813
     13          6           0        4.858116   -0.656558    0.152846
     14          6           0        6.100320    0.159077   -0.183894
     15          8           0        7.256664   -0.610459    0.136657
     16          8           0        8.386218    0.233350   -0.219830
     17          1           0       -9.401520   -0.329897    0.081500
     18          1           0       -8.554528    0.507263   -1.233333
     19          1           0       -8.548430    1.191576    0.404620
     20          1           0       -7.258089   -1.464166   -0.408653
     21          1           0       -7.251970   -0.784113    1.219293
     22          1           0       -5.997429    1.229488    0.367267
     23          1           0       -6.003793    0.553886   -1.250236
     24          1           0       -4.752836   -1.448706   -0.435577
     25          1           0       -4.744091   -0.759571    1.210568
     26          1           0       -2.441126   -1.412831   -0.468683
     27          1           0       -2.421723   -0.706492    1.183020
     28          1           0       -0.097759   -1.384481   -0.489242
     29          1           0       -0.121550   -0.709725    1.158220
     30          1           0        1.089030    0.638476   -1.307101
     31          1           0        1.105331    1.507490    1.635837
     32          1           0        0.192371    2.285566    0.330024
     33          1           0        1.951472    2.338388    0.320843
     34          1           0        2.276294   -1.391539    0.467709
     35          1           0        3.711713    1.095626   -0.594888
     36          1           0        4.881295   -1.602391   -0.401373
     37          1           0        4.873519   -0.913717    1.219547
     38          1           0        6.116308    1.090716    0.394706
     39          1           0        6.116833    0.406387   -1.252080
     40          1           0        9.075912   -0.402014    0.042202
 ---------------------------------------------------------------------
 Rotational constants (GHZ):           3.8743163           0.0815757           0.0806093
 Standard basis: 6-31G(2df,p) (6D, 7F)
 There are   616 symmetry adapted cartesian basis functions of A   symmetry.
 There are   568 symmetry adapted basis functions of A   symmetry.
   568 basis functions,   872 primitive gaussians,   616 cartesian basis functions
    64 alpha electrons       64 beta electrons
       nuclear repulsion energy      1039.6277533299 Hartrees.
 NAtoms=   40 NActive=   40 NUniq=   40 SFac= 1.00D+00 NAtFMM=   60 NAOKFM=F Big=F
 Integral buffers will be    131072 words long.
 Raffenetti 2 integral format.
 Two-electron integral symmetry is turned on.
 One-electron integrals computed using PRISM.
 PrsmSu:  requested number of processors reduced to:  12 ShMem   1 Linda.
 NBasis=   568 RedAO= T EigKep=  4.41D-04  NBF=   568
 NBsUse=   568 1.00D-06 EigRej= -1.00D+00 NBFU=   568
 ExpMin= 1.61D-01 ExpMax= 5.48D+03 ExpMxC= 8.25D+02 IAcc=3 IRadAn=         5 AccDes= 0.00D+00
 Harris functional with IExCor=  402 and IRadAn=       5 diagonalized for initial guess.
 HarFok:  IExCor=  402 AccDes= 0.00D+00 IRadAn=         5 IDoV= 1 UseB2=F ITyADJ=14
 ICtDFT=  3500011 ScaDFX=  1.000000  1.000000  1.000000  1.000000
 FoFCou: FMM=F IPFlag=           0 FMFlag=      100000 FMFlg1=           0
         NFxFlg=           0 DoJE=T BraDBF=F KetDBF=T FulRan=T
         wScrn=  0.000000 ICntrl=       500 IOpCl=  0 I1Cent=   200000004 NGrid=           0
         NMat0=    1 NMatS0=      1 NMatT0=    0 NMatD0=    1 NMtDS0=    0 NMtDT0=    0
 Petite list used in FoFCou.
 Requested convergence on RMS density matrix=1.00D-08 within 128 cycles.
 Requested convergence on MAX density matrix=1.00D-06.
 Requested convergence on             energy=1.00D-06.
 No special actions if energy rises.
 Integral accuracy reduced to 1.0D-05 until final iterations.
 Initial convergence to 1.0D-05 achieved.  Increase integral accuracy.
 SCF Done:  E(RB3LYP) =  -772.535041086     A.U. after   13 cycles
            NFock= 13  Conv=0.29D-08     -V/T= 2.0074

 **********************************************************************

            Population analysis using the SCF density.

 **********************************************************************

 Orbital symmetries:
       Occupied  (A) (A) (A) (A) (A) (A) (A) (A) (A) (A) (A) (A)
                 (A) (A) (A) (A) (A) (A) (A) (A) (A) (A) (A) (A)
                 (A) (A) (A) (A) (A) (A) (A) (A) (A) (A) (A) (A)
                 (A) (A) (A) (A) (A) (A) (A) (A) (A) (A) (A) (A)
                 (A) (A) (A) (A) (A) (A) (A) (A) (A) (A) (A) (A)
                 (A) (A) (A) (A)
       Virtual   (A) (A) (A) (A) (A) (A) (A) (A) (A) (A) (A) (A)
                 (A) (A) (A) (A) (A) (A) (A) (A) (A) (A) (A) (A)
                 (A) (A) (A) (A) (A) (A) (A) (A) (A) (A) (A) (A)
                 (A) (A) (A) (A) (A) (A) (A) (A) (A) (A) (A) (A)
                 (A) (A) (A) (A) (A) (A) (A) (A) (A) (A) (A) (A)
                 (A) (A) (A) (A) (A) (A) (A) (A) (A) (A) (A) (A)
                 (A) (A) (A) (A) (A) (A) (A) (A) (A) (A) (A) (A)
                 (A) (A) (A) (A) (A) (A) (A) (A) (A) (A) (A) (A)
                 (A) (A) (A) (A) (A) (A) (A) (A) (A) (A) (A) (A)
                 (A) (A) (A) (A) (A) (A) (A) (A) (A) (A) (A) (A)
                 (A) (A) (A) (A) (A) (A) (A) (A) (A) (A) (A) (A)
                 (A) (A) (A) (A) (A) (A) (A) (A) (A) (A) (A) (A)
                 (A) (A) (A) (A) (A) (A) (A) (A) (A) (A) (A) (A)
                 (A) (A) (A) (A) (A) (A) (A) (A) (A) (A) (A) (A)
                 (A) (A) (A) (A) (A) (A) (A) (A) (A) (A) (A) (A)
                 (A) (A) (A) (A) (A) (A) (A) (A) (A) (A) (A) (A)
                 (A) (A) (A) (A) (A) (A) (A) (A) (A) (A) (A) (A)
                 (A) (A) (A) (A) (A) (A) (A) (A) (A) (A) (A) (A)
                 (A) (A) (A) (A) (A) (A) (A) (A) (A) (A) (A) (A)
                 (A) (A) (A) (A) (A) (A) (A) (A) (A) (A) (A) (A)
                 (A) (A) (A) (A) (A) (A) (A) (A) (A) (A) (A) (A)
                 (A) (A) (A) (A) (A) (A) (A) (A) (A) (A) (A) (A)
                 (A) (A) (A) (A) (A) (A) (A) (A) (A) (A) (A) (A)
                 (A) (A) (A) (A) (A) (A) (A) (A) (A) (A) (A) (A)
                 (A) (A) (A) (A) (A) (A) (A) (A) (A) (A) (A) (A)
                 (A) (A) (A) (A) (A) (A) (A) (A) (A) (A) (A) (A)
                 (A) (A) (A) (A) (A) (A) (A) (A) (A) (A) (A) (A)
                 (A) (A) (A) (A) (A) (A) (A) (A) (A) (A) (A) (A)
                 (A) (A) (A) (A) (A) (A) (A) (A) (A) (A) (A) (A)
                 (A) (A) (A) (A) (A) (A) (A) (A) (A) (A) (A) (A)
                 (A) (A) (A) (A) (A) (A) (A) (A) (A) (A) (A) (A)
                 (A) (A) (A) (A) (A) (A) (A) (A) (A) (A) (A) (A)
                 (A) (A) (A) (A) (A) (A) (A) (A) (A) (A) (A) (A)
                 (A) (A) (A) (A) (A) (A) (A) (A) (A) (A) (A) (A)
                 (A) (A) (A) (A) (A) (A) (A) (A) (A) (A) (A) (A)
                 (A) (A) (A) (A) (A) (A) (A) (A) (A) (A) (A) (A)
                 (A) (A) (A) (A) (A) (A) (A) (A) (A) (A) (A) (A)
                 (A) (A) (A) (A) (A) (A) (A) (A) (A) (A) (A) (A)
                 (A) (A) (A) (A) (A) (A) (A) (A) (A) (A) (A) (A)
                 (A) (A) (A) (A) (A) (A) (A) (A) (A) (A) (A) (A)
                 (A) (A) (A) (A) (A) (A) (A) (A) (A) (A) (A) (A)
                 (A) (A) (A) (A) (A) (A) (A) (A) (A) (A) (A) (A)
 The electronic state is 1-A.
 Alpha  occ. eigenvalues --  -19.18618 -19.18540 -19.14276 -19.13973 -10.27171
 Alpha  occ. eigenvalues --  -10.22911 -10.22871 -10.22609 -10.19065 -10.19001
 Alpha  occ. eigenvalues --  -10.18468 -10.18183 -10.18079 -10.17713 -10.17185
 Alpha  occ. eigenvalues --  -10.16718  -1.10718  -1.05616  -1.00862  -0.90631
 Alpha  occ. eigenvalues --   -0.81938  -0.79984  -0.77767  -0.72981  -0.70374
 Alpha  occ. eigenvalues --   -0.68308  -0.64728  -0.61658  -0.61520  -0.58407
 Alpha  occ. eigenvalues --   -0.57955  -0.54991  -0.51238  -0.50620  -0.49736
 Alpha  occ. eigenvalues --   -0.48912  -0.48024  -0.47843  -0.47171  -0.45266
 Alpha  occ. eigenvalues --   -0.43927  -0.42928  -0.42234  -0.41543  -0.40131
 Alpha  occ. eigenvalues --   -0.39856  -0.39381  -0.38320  -0.36800  -0.36139
 Alpha  occ. eigenvalues --   -0.35491  -0.35063  -0.34567  -0.33969  -0.33876
 Alpha  occ. eigenvalues --   -0.33731  -0.32836  -0.32824  -0.31889  -0.31384
 Alpha  occ. eigenvalues --   -0.26809  -0.24952  -0.24089  -0.23334
 Alpha virt. eigenvalues --    0.00802   0.03420   0.08062   0.08741   0.09144
 Alpha virt. eigenvalues --    0.10234   0.10832   0.11778   0.12313   0.12403
 Alpha virt. eigenvalues --    0.13272   0.13937   0.14208   0.14510   0.14995
 Alpha virt. eigenvalues --    0.15271   0.16071   0.16707   0.17321   0.17845
 Alpha virt. eigenvalues --    0.17989   0.18653   0.19181   0.20167   0.20444
 Alpha virt. eigenvalues --    0.20653   0.20939   0.21289   0.21724   0.22177
 Alpha virt. eigenvalues --    0.23067   0.25061   0.25527   0.26387   0.26807
 Alpha virt. eigenvalues --    0.27369   0.28818   0.30367   0.34279   0.37667
 Alpha virt. eigenvalues --    0.39596   0.43555   0.44536   0.46111   0.47944
 Alpha virt. eigenvalues --    0.47969   0.48513   0.49203   0.49459   0.50790
 Alpha virt. eigenvalues --    0.51229   0.51676   0.52306   0.52744   0.52986
 Alpha virt. eigenvalues --    0.53404   0.55302   0.56750   0.58220   0.59326
 Alpha virt. eigenvalues --    0.59459   0.60141   0.60973   0.61404   0.62346
 Alpha virt. eigenvalues --    0.63093   0.63969   0.64683   0.65132   0.65871
 Alpha virt. eigenvalues --    0.68033   0.68211   0.68339   0.68913   0.69514
 Alpha virt. eigenvalues --    0.71332   0.71598   0.72641   0.72902   0.73323
 Alpha virt. eigenvalues --    0.73946   0.74462   0.74734   0.75215   0.75480
 Alpha virt. eigenvalues --    0.75988   0.76341   0.76959   0.77116   0.77649
 Alpha virt. eigenvalues --    0.78361   0.78956   0.79505   0.79969   0.80383
 Alpha virt. eigenvalues --    0.80522   0.80988   0.81938   0.82704   0.83145
 Alpha virt. eigenvalues --    0.84421   0.84776   0.85334   0.85638   0.86420
 Alpha virt. eigenvalues --    0.87298   0.87795   0.89234   0.90070   0.90532
 Alpha virt. eigenvalues --    0.92141   0.92616   0.92954   0.93904   0.96965
 Alpha virt. eigenvalues --    0.97667   0.97849   0.99750   1.00524   1.02086
 Alpha virt. eigenvalues --    1.02968   1.03043   1.05484   1.06527   1.07992
 Alpha virt. eigenvalues --    1.09611   1.10892   1.13477   1.14840   1.15052
 Alpha virt. eigenvalues --    1.17063   1.17691   1.19366   1.19944   1.20210
 Alpha virt. eigenvalues --    1.22272   1.25430   1.25585   1.26051   1.27332
 Alpha virt. eigenvalues --    1.27672   1.29069   1.31461   1.32285   1.33744
 Alpha virt. eigenvalues --    1.34013   1.36198   1.36606   1.37068   1.37797
 Alpha virt. eigenvalues --    1.39302   1.41126   1.41855   1.42263   1.42574
 Alpha virt. eigenvalues --    1.44315   1.45273   1.46445   1.47004   1.48312
 Alpha virt. eigenvalues --    1.49039   1.51470   1.52279   1.54250   1.54756
 Alpha virt. eigenvalues --    1.55078   1.56491   1.57324   1.58192   1.58342
 Alpha virt. eigenvalues --    1.59592   1.61095   1.62533   1.65431   1.66320
 Alpha virt. eigenvalues --    1.66382   1.67228   1.68868   1.71165   1.72315
 Alpha virt. eigenvalues --    1.75213   1.76021   1.76664   1.78065   1.79581
 Alpha virt. eigenvalues --    1.80067   1.81707   1.82396   1.82906   1.85303
 Alpha virt. eigenvalues --    1.85580   1.87663   1.88379   1.89600   1.90936
 Alpha virt. eigenvalues --    1.92366   1.93316   1.93410   1.94297   1.95164
 Alpha virt. eigenvalues --    1.96361   1.97418   2.00623   2.03209   2.04950
 Alpha virt. eigenvalues --    2.08521   2.13165   2.13823   2.15413   2.16872
 Alpha virt. eigenvalues --    2.17948   2.19130   2.19511   2.19929   2.21571
 Alpha virt. eigenvalues --    2.23149   2.23956   2.24687   2.26304   2.28450
 Alpha virt. eigenvalues --    2.29468   2.33497   2.33700   2.35251   2.35532
 Alpha virt. eigenvalues --    2.37667   2.41990   2.43588   2.44582   2.45827
 Alpha virt. eigenvalues --    2.47067   2.49401   2.50498   2.52388   2.53794
 Alpha virt. eigenvalues --    2.56948   2.57753   2.60233   2.60411   2.65302
 Alpha virt. eigenvalues --    2.65745   2.66634   2.68552   2.70790   2.72167
 Alpha virt. eigenvalues --    2.73173   2.74723   2.75120   2.76054   2.76317
 Alpha virt. eigenvalues --    2.77576   2.78297   2.78356   2.79290   2.80009
 Alpha virt. eigenvalues --    2.81244   2.81279   2.82359   2.82524   2.83052
 Alpha virt. eigenvalues --    2.84931   2.85282   2.85941   2.87404   2.88168
 Alpha virt. eigenvalues --    2.89161   2.89451   2.89558   2.90807   2.91111
 Alpha virt. eigenvalues --    2.92232   2.92665   2.93792   2.93990   2.96476
 Alpha virt. eigenvalues --    2.96590   2.96777   2.99658   3.00197   3.01874
 Alpha virt. eigenvalues --    3.03423   3.03795   3.06554   3.07966   3.11065
 Alpha virt. eigenvalues --    3.12608   3.13814   3.15817   3.16407   3.17236
 Alpha virt. eigenvalues --    3.18307   3.19052   3.20170   3.23111   3.26471
 Alpha virt. eigenvalues --    3.26949   3.28913   3.31841   3.32664   3.32973
 Alpha virt. eigenvalues --    3.34487   3.35050   3.35878   3.36446   3.37658
 Alpha virt. eigenvalues --    3.37752   3.38497   3.40469   3.42050   3.43081
 Alpha virt. eigenvalues --    3.44214   3.45552   3.47172   3.48189   3.49711
 Alpha virt. eigenvalues --    3.50646   3.51013   3.51453   3.53660   3.55442
 Alpha virt. eigenvalues --    3.56561   3.57966   3.59015   3.61467   3.61989
 Alpha virt. eigenvalues --    3.62865   3.64586   3.66220   3.67851   3.68424
 Alpha virt. eigenvalues --    3.68821   3.69603   3.71069   3.72764   3.73465
 Alpha virt. eigenvalues --    3.75340   3.75469   3.79390   3.79937   3.80739
 Alpha virt. eigenvalues --    3.82544   3.83928   3.85519   3.86571   3.89336
 Alpha virt. eigenvalues --    3.91631   3.92993   3.96714   3.98234   4.02269
 Alpha virt. eigenvalues --    4.07114   4.08597   4.09804   4.09984   4.11959
 Alpha virt. eigenvalues --    4.14301   4.18083   4.23413   4.24588   4.25017
 Alpha virt. eigenvalues --    4.27284   4.27863   4.30630   4.31814   4.33758
 Alpha virt. eigenvalues --    4.35004   4.36163   4.38064   4.38501   4.39115
 Alpha virt. eigenvalues --    4.39300   4.39337   4.40755   4.41176   4.42330
 Alpha virt. eigenvalues --    4.43140   4.44627   4.45628   4.47875   4.48737
 Alpha virt. eigenvalues --    4.49227   4.49617   4.50014   4.50167   4.51686
 Alpha virt. eigenvalues --    4.51903   4.53133   4.54308   4.54842   4.55421
 Alpha virt. eigenvalues --    4.56053   4.57268   4.57698   4.58909   4.59456
 Alpha virt. eigenvalues --    4.60071   4.60743   4.61732   4.62320   4.63381
 Alpha virt. eigenvalues --    4.63878   4.65249   4.66162   4.67379   4.67840
 Alpha virt. eigenvalues --    4.68443   4.68866   4.69919   4.71034   4.72429
 Alpha virt. eigenvalues --    4.73485   4.74830   4.75366   4.76122   4.77166
 Alpha virt. eigenvalues --    4.77532   4.78920   4.79664   4.80788   4.82275
 Alpha virt. eigenvalues --    4.82358   4.83225   4.85250   4.86593   4.87338
 Alpha virt. eigenvalues --    4.87742   4.88390   4.88887   4.91533   4.92376
 Alpha virt. eigenvalues --    4.93701   4.94537   4.95292   4.95982   4.97162
 Alpha virt. eigenvalues --    4.97882   5.01537   5.02649   5.03898   5.07793
 Alpha virt. eigenvalues --    5.11107   5.16386   5.20863   5.26106   5.29259
 Alpha virt. eigenvalues --    5.31651   5.33340   5.35682   5.35780   5.36470
 Alpha virt. eigenvalues --    5.40140   5.40852   5.43801   5.43820   5.46035
 Alpha virt. eigenvalues --    5.46995   5.47812   5.48382   5.50662   5.53712
 Alpha virt. eigenvalues --    5.58448   5.60037   5.61435   5.63311   5.64606
 Alpha virt. eigenvalues --    5.67063   5.77928   5.78657   5.83488   5.85586
 Alpha virt. eigenvalues --    5.88469   5.88765   5.93257   6.00372   6.05109
 Alpha virt. eigenvalues --    6.05631   6.12489   6.20210   6.21414   6.25980
 Alpha virt. eigenvalues --    6.29165   6.33727   6.47458   6.49157   6.77111
 Alpha virt. eigenvalues --    6.98703   7.12312   7.16064  10.42900  11.14087
 Alpha virt. eigenvalues --   11.27764  11.38161  11.47572  11.65932  11.67873
 Alpha virt. eigenvalues --   11.92618  11.99618  12.22330  12.28959  12.59295
 Alpha virt. eigenvalues --   12.94226  13.39588  13.41451  13.49511
          Condensed to atoms (all electrons):
               1          2          3          4          5          6
     1  C    4.941993   0.414521  -0.035874   0.001543  -0.000032  -0.000001
     2  C    0.414521   4.778827   0.398488  -0.036700   0.001878  -0.000217
     3  C   -0.035874   0.398488   4.814494   0.445370  -0.028780   0.002846
     4  C    0.001543  -0.036700   0.445370   4.733419   0.347025  -0.073091
     5  O   -0.000032   0.001878  -0.028780   0.347025   7.710340   0.386083
     6  C   -0.000001  -0.000217   0.002846  -0.073091   0.386083   4.621859
     7  O   -0.000000   0.000000  -0.000040   0.002467  -0.022077   0.384158
     8  C   -0.000000   0.000000  -0.000001  -0.000405   0.002502  -0.074845
     9  C   -0.000000   0.000000  -0.000000  -0.000000  -0.000023   0.002866
    10  C    0.000000  -0.000000  -0.000000   0.000000  -0.000003   0.000744
    11  C    0.000000   0.000000   0.000000   0.000000  -0.000000  -0.000189
    12  C   -0.000000   0.000000  -0.000000  -0.000000  -0.000000  -0.000002
    13  C    0.000000  -0.000000   0.000000  -0.000000   0.000000  -0.000000
    14  C    0.000000   0.000000  -0.000000   0.000000  -0.000000  -0.000000
    15  O    0.000000   0.000000   0.000000   0.000000   0.000000  -0.000000
    16  O    0.000000   0.000000   0.000000   0.000000   0.000000   0.000000
    17  H    0.372590  -0.023033   0.003312  -0.000163   0.000000  -0.000000
    18  H    0.379758  -0.028983  -0.004387   0.000228   0.000001   0.000000
    19  H    0.379751  -0.028992  -0.004386   0.000227   0.000001   0.000000
    20  H   -0.035441   0.372270  -0.035189  -0.002511   0.000029   0.000013
    21  H   -0.035447   0.372259  -0.035193  -0.002482   0.000029   0.000013
    22  H   -0.002800  -0.031102   0.363264  -0.027882   0.002688   0.000239
    23  H   -0.002810  -0.031062   0.363280  -0.027881   0.002714   0.000235
    24  H   -0.000018  -0.000229  -0.032626   0.349302  -0.032183  -0.005419
    25  H   -0.000022  -0.000168  -0.032692   0.349256  -0.032232  -0.005338
    26  H    0.000000   0.000036   0.000097  -0.004533  -0.038298   0.347941
    27  H    0.000000   0.000034   0.000062  -0.004738  -0.038266   0.346737
    28  H    0.000000   0.000000   0.000000   0.000029  -0.000054  -0.004547
    29  H    0.000000   0.000000   0.000000   0.000023  -0.000069  -0.006604
    30  H    0.000000  -0.000000   0.000000   0.000000  -0.000001   0.000061
    31  H    0.000000  -0.000000   0.000000  -0.000000   0.000000  -0.000064
    32  H    0.000000   0.000000   0.000000   0.000000  -0.000000  -0.000068
    33  H   -0.000000   0.000000   0.000000  -0.000000  -0.000000  -0.000006
    34  H    0.000000  -0.000000   0.000000   0.000000   0.000000   0.000014
    35  H    0.000000   0.000000   0.000000   0.000000   0.000000   0.000000
    36  H    0.000000  -0.000000  -0.000000  -0.000000  -0.000000   0.000000
    37  H    0.000000   0.000000   0.000000   0.000000   0.000000   0.000000
    38  H    0.000000   0.000000  -0.000000   0.000000  -0.000000   0.000000
    39  H    0.000000   0.000000   0.000000   0.000000   0.000000   0.000000
    40  H    0.000000   0.000000   0.000000   0.000000   0.000000  -0.000000
               7          8          9         10         11         12
     1  C   -0.000000  -0.000000  -0.000000   0.000000   0.000000  -0.000000
     2  C    0.000000   0.000000   0.000000  -0.000000   0.000000   0.000000
     3  C   -0.000040  -0.000001  -0.000000  -0.000000   0.000000  -0.000000
     4  C    0.002467  -0.000405  -0.000000   0.000000   0.000000  -0.000000
     5  O   -0.022077   0.002502  -0.000023  -0.000003  -0.000000  -0.000000
     6  C    0.384158  -0.074845   0.002866   0.000744  -0.000189  -0.000002
     7  O    7.711171   0.344167  -0.027449  -0.001560   0.001259  -0.000012
     8  C    0.344167   4.792615   0.432804  -0.029589  -0.033144   0.000842
     9  C   -0.027449   0.432804   4.737649   0.389424   0.367053  -0.007222
    10  C   -0.001560  -0.029589   0.389424   5.004661  -0.035135  -0.010695
    11  C    0.001259  -0.033144   0.367053  -0.035135   4.791033   0.706901
    12  C   -0.000012   0.000842  -0.007222  -0.010695   0.706901   4.747508
    13  C    0.000000  -0.000162   0.003278   0.000255  -0.019537   0.384674
    14  C   -0.000000   0.000000  -0.000127   0.000004   0.000068  -0.034554
    15  O    0.000000  -0.000000   0.000000  -0.000000  -0.000022   0.000657
    16  O   -0.000000   0.000000  -0.000000  -0.000000   0.000000  -0.000049
    17  H    0.000000  -0.000000   0.000000  -0.000000   0.000000   0.000000
    18  H    0.000000   0.000000   0.000000  -0.000000   0.000000   0.000000
    19  H    0.000000   0.000000   0.000000   0.000000   0.000000   0.000000
    20  H    0.000000   0.000000   0.000000  -0.000000   0.000000   0.000000
    21  H    0.000000   0.000000  -0.000000   0.000000  -0.000000   0.000000
    22  H   -0.000001   0.000000   0.000000  -0.000000   0.000000   0.000000
    23  H   -0.000001   0.000000  -0.000000   0.000000  -0.000000   0.000000
    24  H   -0.000056   0.000029   0.000000  -0.000000   0.000000   0.000000
    25  H   -0.000066   0.000029   0.000000   0.000000   0.000000   0.000000
    26  H   -0.038280  -0.005142  -0.000304   0.000038   0.000020   0.000000
    27  H   -0.038215  -0.004244   0.000429  -0.000179   0.000048   0.000000
    28  H   -0.030214   0.349464  -0.033099   0.006814   0.000313  -0.000014
    29  H   -0.033120   0.340288  -0.024312  -0.012273   0.000894  -0.000058
    30  H    0.001695  -0.038662   0.353599  -0.045689  -0.024834  -0.008881
    31  H   -0.000291  -0.005863  -0.029707   0.369835  -0.001124   0.000926
    32  H    0.009405  -0.005530  -0.020412   0.364746   0.004774   0.000369
    33  H    0.000181   0.003709  -0.024347   0.370950  -0.005736   0.002920
    34  H    0.000057  -0.006708  -0.063196   0.003727   0.361218  -0.041276
    35  H    0.000001   0.000294  -0.013663   0.000728  -0.029268   0.362550
    36  H   -0.000000   0.000001  -0.000207  -0.000013  -0.007275  -0.020255
    37  H   -0.000000   0.000009   0.000119   0.000037  -0.007463  -0.023389
    38  H   -0.000000  -0.000000  -0.000001  -0.000005   0.000115   0.002320
    39  H    0.000000   0.000000   0.000011   0.000001   0.000163   0.001603
    40  H    0.000000  -0.000000   0.000000  -0.000000  -0.000000   0.000001
              13         14         15         16         17         18
     1  C    0.000000   0.000000   0.000000   0.000000   0.372590   0.379758
     2  C   -0.000000   0.000000   0.000000   0.000000  -0.023033  -0.028983
     3  C    0.000000  -0.000000   0.000000   0.000000   0.003312  -0.004387
     4  C   -0.000000   0.000000   0.000000   0.000000  -0.000163   0.000228
     5  O    0.000000  -0.000000   0.000000   0.000000   0.000000   0.000001
     6  C   -0.000000  -0.000000  -0.000000   0.000000  -0.000000   0.000000
     7  O    0.000000  -0.000000   0.000000  -0.000000   0.000000   0.000000
     8  C   -0.000162   0.000000  -0.000000   0.000000  -0.000000   0.000000
     9  C    0.003278  -0.000127   0.000000  -0.000000   0.000000   0.000000
    10  C    0.000255   0.000004  -0.000000  -0.000000  -0.000000  -0.000000
    11  C   -0.019537   0.000068  -0.000022   0.000000   0.000000   0.000000
    12  C    0.384674  -0.034554   0.000657  -0.000049   0.000000   0.000000
    13  C    4.934293   0.415320  -0.021752   0.002040   0.000000   0.000000
    14  C    0.415320   4.676961   0.340196  -0.044219   0.000000   0.000000
    15  O   -0.021752   0.340196   7.863624   0.112703   0.000000   0.000000
    16  O    0.002040  -0.044219   0.112703   7.959795   0.000000   0.000000
    17  H    0.000000   0.000000   0.000000   0.000000   0.607236  -0.031623
    18  H    0.000000   0.000000   0.000000   0.000000  -0.031623   0.597118
    19  H    0.000000   0.000000   0.000000   0.000000  -0.031621  -0.032902
    20  H   -0.000000   0.000000   0.000000   0.000000  -0.002430  -0.004567
    21  H   -0.000000   0.000000   0.000000   0.000000  -0.002430   0.005708
    22  H   -0.000000   0.000000   0.000000   0.000000  -0.000038  -0.000406
    23  H   -0.000000   0.000000   0.000000   0.000000  -0.000037   0.004733
    24  H   -0.000000   0.000000   0.000000   0.000000   0.000008   0.000009
    25  H   -0.000000   0.000000   0.000000   0.000000   0.000008   0.000007
    26  H    0.000000   0.000000  -0.000000  -0.000000   0.000000   0.000000
    27  H    0.000000   0.000000  -0.000000   0.000000   0.000000  -0.000000
    28  H    0.000004   0.000000   0.000000   0.000000   0.000000  -0.000000
    29  H    0.000009   0.000000   0.000000   0.000000  -0.000000   0.000000
    30  H   -0.000025   0.000004  -0.000000   0.000000  -0.000000   0.000000
    31  H   -0.000043  -0.000000   0.000000   0.000000  -0.000000   0.000000
    32  H   -0.000002  -0.000000   0.000000  -0.000000  -0.000000  -0.000000
    33  H   -0.000081  -0.000006  -0.000000   0.000000   0.000000  -0.000000
    34  H   -0.012651   0.000215   0.000001   0.000000  -0.000000  -0.000000
    35  H   -0.067857  -0.004378   0.000031   0.000002   0.000000   0.000000
    36  H    0.351879  -0.026903   0.002132  -0.000009   0.000000   0.000000
    37  H    0.356678  -0.028730   0.002157  -0.000014   0.000000   0.000000
    38  H   -0.032054   0.355500  -0.031842   0.004916   0.000000   0.000000
    39  H   -0.031449   0.355225  -0.031817   0.004897   0.000000   0.000000
    40  H   -0.000560   0.001228  -0.031826   0.291975   0.000000   0.000000
              19         20         21         22         23         24
     1  C    0.379751  -0.035441  -0.035447  -0.002800  -0.002810  -0.000018
     2  C   -0.028992   0.372270   0.372259  -0.031102  -0.031062  -0.000229
     3  C   -0.004386  -0.035189  -0.035193   0.363264   0.363280  -0.032626
     4  C    0.000227  -0.002511  -0.002482  -0.027882  -0.027881   0.349302
     5  O    0.000001   0.000029   0.000029   0.002688   0.002714  -0.032183
     6  C    0.000000   0.000013   0.000013   0.000239   0.000235  -0.005419
     7  O    0.000000   0.000000   0.000000  -0.000001  -0.000001  -0.000056
     8  C    0.000000   0.000000   0.000000   0.000000   0.000000   0.000029
     9  C    0.000000   0.000000  -0.000000   0.000000  -0.000000   0.000000
    10  C    0.000000  -0.000000   0.000000  -0.000000   0.000000  -0.000000
    11  C    0.000000   0.000000  -0.000000   0.000000  -0.000000   0.000000
    12  C    0.000000   0.000000   0.000000   0.000000   0.000000   0.000000
    13  C    0.000000  -0.000000  -0.000000  -0.000000  -0.000000  -0.000000
    14  C    0.000000   0.000000   0.000000   0.000000   0.000000   0.000000
    15  O    0.000000   0.000000   0.000000   0.000000   0.000000   0.000000
    16  O    0.000000   0.000000   0.000000   0.000000   0.000000   0.000000
    17  H   -0.031621  -0.002430  -0.002430  -0.000038  -0.000037   0.000008
    18  H   -0.032902  -0.004567   0.005708  -0.000406   0.004733   0.000009
    19  H    0.597169   0.005708  -0.004566   0.004732  -0.000406   0.000007
    20  H    0.005708   0.643484  -0.042168   0.006034  -0.005541   0.005328
    21  H   -0.004566  -0.042168   0.643567  -0.005545   0.006032  -0.000556
    22  H    0.004732   0.006034  -0.005545   0.626799  -0.041983   0.006671
    23  H   -0.000406  -0.005541   0.006032  -0.041983   0.626496  -0.007219
    24  H    0.000007   0.005328  -0.000556   0.006671  -0.007219   0.678139
    25  H    0.000009  -0.000553   0.005295  -0.007233   0.006677  -0.061071
    26  H   -0.000000  -0.000003   0.000001   0.000038  -0.000040   0.015432
    27  H    0.000000   0.000001  -0.000003  -0.000039   0.000038  -0.003267
    28  H    0.000000  -0.000000   0.000000  -0.000000   0.000000  -0.000000
    29  H   -0.000000   0.000000  -0.000000   0.000000  -0.000000  -0.000001
    30  H   -0.000000   0.000000  -0.000000   0.000000  -0.000000   0.000000
    31  H    0.000000   0.000000   0.000000   0.000000  -0.000000   0.000000
    32  H   -0.000000  -0.000000  -0.000000  -0.000000   0.000000   0.000000
    33  H   -0.000000  -0.000000   0.000000  -0.000000   0.000000   0.000000
    34  H   -0.000000  -0.000000  -0.000000  -0.000000  -0.000000  -0.000000
    35  H    0.000000   0.000000  -0.000000   0.000000   0.000000   0.000000
    36  H    0.000000  -0.000000   0.000000  -0.000000   0.000000  -0.000000
    37  H    0.000000   0.000000  -0.000000   0.000000  -0.000000   0.000000
    38  H    0.000000   0.000000   0.000000  -0.000000   0.000000   0.000000
    39  H    0.000000   0.000000   0.000000   0.000000  -0.000000   0.000000
    40  H    0.000000   0.000000   0.000000   0.000000   0.000000   0.000000
              25         26         27         28         29         30
     1  C   -0.000022   0.000000   0.000000   0.000000   0.000000   0.000000
     2  C   -0.000168   0.000036   0.000034   0.000000   0.000000  -0.000000
     3  C   -0.032692   0.000097   0.000062   0.000000   0.000000   0.000000
     4  C    0.349256  -0.004533  -0.004738   0.000029   0.000023   0.000000
     5  O   -0.032232  -0.038298  -0.038266  -0.000054  -0.000069  -0.000001
     6  C   -0.005338   0.347941   0.346737  -0.004547  -0.006604   0.000061
     7  O   -0.000066  -0.038280  -0.038215  -0.030214  -0.033120   0.001695
     8  C    0.000029  -0.005142  -0.004244   0.349464   0.340288  -0.038662
     9  C    0.000000  -0.000304   0.000429  -0.033099  -0.024312   0.353599
    10  C    0.000000   0.000038  -0.000179   0.006814  -0.012273  -0.045689
    11  C    0.000000   0.000020   0.000048   0.000313   0.000894  -0.024834
    12  C    0.000000   0.000000   0.000000  -0.000014  -0.000058  -0.008881
    13  C   -0.000000   0.000000   0.000000   0.000004   0.000009  -0.000025
    14  C    0.000000   0.000000   0.000000   0.000000   0.000000   0.000004
    15  O    0.000000  -0.000000  -0.000000   0.000000   0.000000  -0.000000
    16  O    0.000000  -0.000000   0.000000   0.000000   0.000000   0.000000
    17  H    0.000008   0.000000   0.000000   0.000000  -0.000000  -0.000000
    18  H    0.000007   0.000000  -0.000000  -0.000000   0.000000   0.000000
    19  H    0.000009  -0.000000   0.000000   0.000000  -0.000000  -0.000000
    20  H   -0.000553  -0.000003   0.000001  -0.000000   0.000000   0.000000
    21  H    0.005295   0.000001  -0.000003   0.000000  -0.000000  -0.000000
    22  H   -0.007233   0.000038  -0.000039  -0.000000   0.000000   0.000000
    23  H    0.006677  -0.000040   0.000038   0.000000  -0.000000  -0.000000
    24  H   -0.061071   0.015432  -0.003267  -0.000000  -0.000001   0.000000
    25  H    0.678783  -0.003317   0.015158  -0.000001  -0.000000  -0.000000
    26  H   -0.003317   0.720066  -0.078486   0.014090  -0.003192  -0.000049
    27  H    0.015158  -0.078486   0.718020  -0.003061   0.015519   0.000043
    28  H   -0.000001   0.014090  -0.003061   0.673530  -0.059566  -0.006300
    29  H   -0.000000  -0.003192   0.015519  -0.059566   0.675414   0.007253
    30  H   -0.000000  -0.000049   0.000043  -0.006300   0.007253   0.654590
    31  H   -0.000000  -0.000000   0.000025  -0.000053   0.006140   0.006066
    32  H   -0.000000   0.000037   0.000015   0.000206   0.000260  -0.001879
    33  H   -0.000000   0.000001  -0.000002  -0.000153  -0.000117  -0.002401
    34  H   -0.000000   0.000002   0.000005   0.003179   0.003853   0.005216
    35  H    0.000000  -0.000000   0.000000   0.000008   0.000013   0.001914
    36  H   -0.000000   0.000000  -0.000000  -0.000003   0.000001   0.000045
    37  H    0.000000  -0.000000   0.000000   0.000002  -0.000003  -0.000014
    38  H   -0.000000   0.000000  -0.000000  -0.000000   0.000000   0.000001
    39  H    0.000000  -0.000000   0.000000   0.000000  -0.000000  -0.000003
    40  H    0.000000   0.000000   0.000000   0.000000  -0.000000  -0.000000
              31         32         33         34         35         36
     1  C    0.000000   0.000000  -0.000000   0.000000   0.000000   0.000000
     2  C   -0.000000   0.000000   0.000000  -0.000000   0.000000  -0.000000
     3  C    0.000000   0.000000   0.000000   0.000000   0.000000  -0.000000
     4  C   -0.000000   0.000000  -0.000000   0.000000   0.000000  -0.000000
     5  O    0.000000  -0.000000  -0.000000   0.000000   0.000000  -0.000000
     6  C   -0.000064  -0.000068  -0.000006   0.000014   0.000000   0.000000
     7  O   -0.000291   0.009405   0.000181   0.000057   0.000001  -0.000000
     8  C   -0.005863  -0.005530   0.003709  -0.006708   0.000294   0.000001
     9  C   -0.029707  -0.020412  -0.024347  -0.063196  -0.013663  -0.000207
    10  C    0.369835   0.364746   0.370950   0.003727   0.000728  -0.000013
    11  C   -0.001124   0.004774  -0.005736   0.361218  -0.029268  -0.007275
    12  C    0.000926   0.000369   0.002920  -0.041276   0.362550  -0.020255
    13  C   -0.000043  -0.000002  -0.000081  -0.012651  -0.067857   0.351879
    14  C   -0.000000  -0.000000  -0.000006   0.000215  -0.004378  -0.026903
    15  O    0.000000   0.000000  -0.000000   0.000001   0.000031   0.002132
    16  O    0.000000  -0.000000   0.000000   0.000000   0.000002  -0.000009
    17  H   -0.000000  -0.000000   0.000000  -0.000000   0.000000   0.000000
    18  H    0.000000  -0.000000  -0.000000  -0.000000   0.000000   0.000000
    19  H    0.000000  -0.000000  -0.000000  -0.000000   0.000000   0.000000
    20  H    0.000000  -0.000000  -0.000000  -0.000000   0.000000  -0.000000
    21  H    0.000000  -0.000000   0.000000  -0.000000  -0.000000   0.000000
    22  H    0.000000  -0.000000  -0.000000  -0.000000   0.000000  -0.000000
    23  H   -0.000000   0.000000   0.000000  -0.000000   0.000000   0.000000
    24  H    0.000000   0.000000   0.000000  -0.000000   0.000000  -0.000000
    25  H   -0.000000  -0.000000  -0.000000  -0.000000   0.000000  -0.000000
    26  H   -0.000000   0.000037   0.000001   0.000002  -0.000000   0.000000
    27  H    0.000025   0.000015  -0.000002   0.000005   0.000000  -0.000000
    28  H   -0.000053   0.000206  -0.000153   0.003179   0.000008  -0.000003
    29  H    0.006140   0.000260  -0.000117   0.003853   0.000013   0.000001
    30  H    0.006066  -0.001879  -0.002401   0.005216   0.001914   0.000045
    31  H    0.605417  -0.029596  -0.031475   0.000682   0.000109   0.000002
    32  H   -0.029596   0.575338  -0.031027  -0.000143  -0.000134   0.000000
    33  H   -0.031475  -0.031027   0.604874  -0.000041   0.003739   0.000004
    34  H    0.000682  -0.000143  -0.000041   0.654182   0.007754   0.002312
    35  H    0.000109  -0.000134   0.003739   0.007754   0.633235   0.004194
    36  H    0.000002   0.000000   0.000004   0.002312   0.004194   0.612365
    37  H   -0.000009  -0.000001  -0.000004   0.002182   0.004347  -0.040096
    38  H    0.000001   0.000000   0.000019   0.000015   0.002751   0.006556
    39  H   -0.000000  -0.000000  -0.000003   0.000014   0.003002  -0.007711
    40  H   -0.000000   0.000000  -0.000000  -0.000000   0.000000   0.000019
              37         38         39         40
     1  C    0.000000   0.000000   0.000000   0.000000
     2  C    0.000000   0.000000   0.000000   0.000000
     3  C    0.000000  -0.000000   0.000000   0.000000
     4  C    0.000000   0.000000   0.000000   0.000000
     5  O    0.000000  -0.000000   0.000000   0.000000
     6  C    0.000000   0.000000   0.000000  -0.000000
     7  O   -0.000000  -0.000000   0.000000   0.000000
     8  C    0.000009  -0.000000   0.000000  -0.000000
     9  C    0.000119  -0.000001   0.000011   0.000000
    10  C    0.000037  -0.000005   0.000001  -0.000000
    11  C   -0.007463   0.000115   0.000163  -0.000000
    12  C   -0.023389   0.002320   0.001603   0.000001
    13  C    0.356678  -0.032054  -0.031449  -0.000560
    14  C   -0.028730   0.355500   0.355225   0.001228
    15  O    0.002157  -0.031842  -0.031817  -0.031826
    16  O   -0.000014   0.004916   0.004897   0.291975
    17  H    0.000000   0.000000   0.000000   0.000000
    18  H    0.000000   0.000000   0.000000   0.000000
    19  H    0.000000   0.000000   0.000000   0.000000
    20  H    0.000000   0.000000   0.000000   0.000000
    21  H   -0.000000   0.000000   0.000000   0.000000
    22  H    0.000000  -0.000000   0.000000   0.000000
    23  H   -0.000000   0.000000  -0.000000   0.000000
    24  H    0.000000   0.000000   0.000000   0.000000
    25  H    0.000000  -0.000000   0.000000   0.000000
    26  H   -0.000000   0.000000  -0.000000   0.000000
    27  H    0.000000  -0.000000   0.000000   0.000000
    28  H    0.000002  -0.000000   0.000000   0.000000
    29  H   -0.000003   0.000000  -0.000000  -0.000000
    30  H   -0.000014   0.000001  -0.000003  -0.000000
    31  H   -0.000009   0.000001  -0.000000  -0.000000
    32  H   -0.000001   0.000000  -0.000000   0.000000
    33  H   -0.000004   0.000019  -0.000003  -0.000000
    34  H    0.002182   0.000015   0.000014  -0.000000
    35  H    0.004347   0.002751   0.003002   0.000000
    36  H   -0.040096   0.006556  -0.007711   0.000019
    37  H    0.612085  -0.007949   0.006552   0.000019
    38  H   -0.007949   0.655869  -0.060499   0.000215
    39  H    0.006552  -0.060499   0.655871   0.000227
    40  H    0.000019   0.000215   0.000227   0.422954
 Mulliken charges:
               1
     1  C   -0.377710
     2  C   -0.157827
     3  C   -0.182047
     4  C   -0.048505
     5  O   -0.261275
     6  C    0.076580
     7  O   -0.263181
     8  C   -0.062460
     9  C   -0.043165
    10  C   -0.376824
    11  C   -0.070131
    12  C   -0.064864
    13  C   -0.262258
    14  C   -0.005804
    15  O   -0.204240
    16  O   -0.332037
    17  H    0.108221
    18  H    0.115306
    19  H    0.115269
    20  H    0.095533
    21  H    0.095486
    22  H    0.106563
    23  H    0.106775
    24  H    0.087723
    25  H    0.087472
    26  H    0.073848
    27  H    0.074366
    28  H    0.089428
    29  H    0.089648
    30  H    0.098251
    31  H    0.109021
    32  H    0.133642
    33  H    0.109003
    34  H    0.079386
    35  H    0.090628
    36  H    0.122961
    37  H    0.123484
    38  H    0.104069
    39  H    0.103915
    40  H    0.315747
 Sum of Mulliken charges =  -0.00000
 Mulliken charges with hydrogens summed into heavy atoms:
               1
     1  C   -0.038915
     2  C    0.033192
     3  C    0.031291
     4  C    0.126690
     5  O   -0.261275
     6  C    0.224794
     7  O   -0.263181
     8  C    0.116617
     9  C    0.055086
    10  C   -0.025157
    11  C    0.009256
    12  C    0.025764
    13  C   -0.015813
    14  C    0.202180
    15  O   -0.204240
    16  O   -0.016289
 Electronic spatial extent (au):  <R**2>=          12798.5972
 Charge=             -0.0000 electrons
 Dipole moment (field-independent basis, Debye):
    X=             -0.5555    Y=             -2.1783    Z=              0.9210  Tot=              2.4294
 Quadrupole moment (field-independent basis, Debye-Ang):
   XX=            -89.5895   YY=            -99.0859   ZZ=            -99.3989
   XY=              1.0879   XZ=             -0.6203   YZ=             -0.0842
 Traceless Quadrupole moment (field-independent basis, Debye-Ang):
   XX=              6.4352   YY=             -3.0611   ZZ=             -3.3741
   XY=              1.0879   XZ=             -0.6203   YZ=             -0.0842
 Octapole moment (field-independent basis, Debye-Ang**2):
  XXX=             88.4442  YYY=              0.5028  ZZZ=             -1.6174  XYY=             16.4188
  XXY=            -59.9249  XXZ=             22.8853  XZZ=              9.4733  YZZ=             -0.1484
  YYZ=             -1.8666  XYZ=             -3.9578
 Hexadecapole moment (field-independent basis, Debye-Ang**3):
 XXXX=         -13941.3894 YYYY=           -423.8549 ZZZZ=           -196.9704 XXXY=           -406.6340
[...]
 ,0.00010289,0.00049418,0.00061352,-0.00000050,-0.00000025,-0.00000005,
 0.00000014,-0.00000003,0.00000019,0.00000014,0.00000008,-0.00000004,-0
 .00000010,-0.00000013,-0.00000046,0.00000004,-0.00000044,0.00000037,0.
 00000030,0.00000001,-0.00000018,0.00000028,-0.00000010,0.00000039,-0.0
 0000014,-0.00000119,-0.00000204,0.,-0.00000174,0.00000080,-0.00000011,
 -0.00000551,-0.00000923,-0.00000051,-0.00000757,0.00000132,-0.00001584
 ,-0.00001189,-0.00003581,-0.00000490,-0.00001422,0.00000651,-0.0000209
 4,-0.00001189,-0.00001328,0.00000422,0.00000765,0.00000954,0.00000753,
 0.00000453,-0.00002938,0.00000360,0.00000884,0.00000798,-0.00007738,0.
 00065214,0.00026515,0.00018379,0.00022680,-0.00022688,-0.02205573,0.06
 521469,-0.00000009,0.00000108,-0.00000008,0.00000058,-0.00000298,-0.00
 000165,0.00000047,0.00000197,-0.00000004,-0.00000751,-0.00002118,-0.00
 000959,0.00001920,0.00002325,0.00001111,-0.00002569,-0.00005925,-0.000
 03692,0.00000920,0.00006568,0.00002757,-0.00002568,-0.00009515,-0.0000
 5313,0.00006413,-0.00003673,0.00006881,-0.00002036,0.00002509,-0.00001
 078,0.00008556,-0.00098188,0.00078111,0.00120901,0.00237589,0.00224086
 ,0.08270983,-0.04696935,-0.25047110,0.00270031,-0.00337332,-0.00907140
 ,0.00043879,0.00070369,0.00030441,-0.00038282,0.00012667,0.00040801,0.
 00000121,0.00000088,0.00000011,-0.00000006,-0.00000044,-0.00000027,-0.
 00000046,-0.00000016,0.00000065,-0.00000016,0.00000089,0.00000155,0.00
 000019,0.00000036,-0.00000032,-0.00000109,0.00000003,0.00000138,-0.000
 00004,-0.00000028,-0.00000061,-0.00000033,0.00000275,0.00000431,0.0000
 0027,0.00000237,-0.00000048,0.00000007,0.00000681,0.00001214,0.0000015
 8,0.00000712,0.00000065,0.00000266,0.00000217,0.00002667,0.00000935,0.
 00001993,-0.00000028,0.00001783,0.00002165,0.00000844,-0.00000727,-0.0
 0000882,-0.00000418,0.00001445,-0.00000971,-0.00000336,-0.00000573,0.0
 0000717,0.00000493,-0.00000150,-0.00045880,-0.00005011,0.00065511,0.00
 014604,0.00051293,-0.09509305,0.05529969,0.27170663,-0.00000003,-0.000
 00015,-0.00000043,-0.00000016,0.00000109,-0.00000011,-0.00000030,-0.00
 000042,-0.00000111,0.00000100,0.00000846,-0.00000190,-0.00000339,-0.00
 001389,0.00000206,-0.00000289,0.00003445,-0.00000888,0.00001263,-0.000
 03863,0.00001861,-0.00002925,0.00001851,0.00000433,-0.00003626,-0.0001
 7884,0.00019941,-0.00002730,-0.00002360,-0.00002221,0.00229426,0.00136
 364,-0.00151587,-0.01565254,0.02036000,-0.02363771,-0.09082143,0.06492
 175,-0.07003056,0.00276773,-0.00509933,0.00599164,0.00085617,-0.000355
 42,0.00016754,-0.00018143,0.00031674,-0.00019473,-0.00000039,-0.000000
 36,-0.00000008,0.00000031,-0.00000013,0.00000039,0.00000002,0.00000021
 ,0.00000003,-0.00000013,0.00000010,-0.00000011,0.00000001,-0.00000084,
 0.00000053,-0.00000017,0.00000021,0.00000001,0.00000089,-0.00000044,0.
 00000087,-0.00000031,-0.00000030,-0.00000032,0.00000021,-0.00000227,0.
 00000187,-0.00000072,-0.00000064,-0.00000020,-0.00000008,-0.00000590,0
 .00000647,0.00000399,0.00002609,0.00000354,-0.00001034,-0.00005756,0.0
 0002551,0.00026878,-0.00010685,0.00019163,-0.00002265,-0.00001781,0.00
 004476,-0.00000242,-0.00000558,0.00001844,0.00000085,0.00000136,-0.000
 02473,0.00003037,-0.00085273,0.00114138,-0.00549460,-0.00086923,0.0003
 9073,0.00520220,-0.00799959,0.00812842,0.10094646,0.00000006,-0.000000
 12,0.00000031,-0.00000002,-0.00000026,0.00000032,0.00000026,-0.0000002
 4,0.00000072,-0.00000009,-0.00000174,0.00000198,-0.00000040,0.00000223
 ,-0.00000231,0.00000292,-0.00000449,0.00000773,0.00000550,0.00000197,-
 0.00000479,0.00000330,0.00000955,0.00000531,-0.00009918,0.00011686,-0.
 00031224,0.00007435,-0.00001464,0.00002875,-0.00086133,0.00021061,-0.0
 0080789,-0.00202703,0.00269334,-0.00334161,0.06571665,-0.14322913,0.10
 603189,0.01365681,-0.02325949,0.02278113,0.00071391,0.00178702,-0.0000
 3403,-0.00058183,0.00045113,-0.00073274,0.00000010,0.00000015,0.000000
 08,-0.00000020,0.00000021,-0.00000033,0.00000007,-0.00000018,-0.000000
 07,0.00000005,-0.00000017,-0.00000010,-0.00000012,0.00000051,-0.000000
 33,0.00000020,-0.00000020,-0.00000007,-0.00000039,0.00000035,-0.000000
 55,0.00000015,-0.00000012,-0.00000053,-0.00000031,0.00000077,-0.000000
 69,-0.00000004,-0.00000019,-0.00000201,-0.00000113,0.00000062,-0.00000
 173,-0.00000205,-0.00000334,-0.00000668,-0.00000482,-0.00000304,0.0000
 0189,-0.00009510,-0.00009153,0.00007083,0.00000577,0.00001826,0.000003
 23,0.00000603,-0.00000485,-0.00002124,0.00000424,-0.00000769,0.0000078
 3,0.00032076,0.00029506,-0.00014132,-0.00138670,0.00091800,0.00042759,
 -0.00332030,0.00435319,-0.00477938,-0.07045584,0.15898302,-0.00000006,
 -0.00000083,-0.00000045,-0.00000060,0.00000316,0.00000024,-0.00000077,
 -0.00000191,-0.00000118,0.00000592,0.00002231,0.00000238,-0.00001835,-
 0.00003089,-0.00000395,0.00000822,0.00006870,0.00000605,-0.00003423,-0
 .00010738,-0.00001710,-0.00007355,0.00009635,-0.00000362,0.00010786,-0
 .00035590,0.00019448,-0.00001330,-0.00002856,-0.00001975,0.00150103,-0
 .00057066,0.00042293,-0.00083501,0.00001139,-0.00124656,-0.07183961,0.
 10752396,-0.16934305,0.00368291,-0.00587531,0.00552175,0.00010018,0.00
 036967,-0.00000188,0.00022593,0.00013808,0.00004345,-0.00000116,-0.000
 00082,-0.00000028,0.00000048,-0.00000013,0.00000056,0.00000012,0.00000
 040,-0.00000006,-0.00000011,-0.00000019,-0.00000077,0.,-0.00000135,0.0
 0000098,0.00000044,0.00000029,-0.00000051,0.00000113,-0.00000064,0.000
 00110,-0.00000039,-0.00000178,-0.00000224,0.00000005,-0.00000391,0.000
 00257,-0.00000133,-0.00000511,-0.00000650,-0.00000033,-0.00001036,0.00
 000784,-0.00000517,0.00000884,-0.00002109,-0.00001253,-0.00001443,0.00
 002377,0.00016156,0.00006788,-0.00007738,0.00000017,0.00000128,0.00000
 519,-0.00001765,0.00000472,0.00001264,0.00001005,-0.00000683,-0.000011
 21,-0.00029574,-0.00016912,0.00051351,0.00003218,0.00037213,0.00145132
 ,-0.01205794,0.01741055,-0.01873313,0.07948895,-0.11720748,0.17924539,
 0.00000042,-0.00000022,-0.00000010,0.00000007,0.00000046,0.00000012,0.
 00000043,-0.00000002,-0.00000007,0.00000247,0.00000146,-0.00000030,-0.
 00000654,0.00000059,0.00000132,0.00000980,-0.00000524,-0.00000554,-0.0
 0000645,0.00001374,0.00000568,0.00003094,-0.00001876,-0.00000443,-0.00
 003318,0.00005528,0.00001270,-0.00000010,-0.00003756,0.00000161,-0.000
 00669,0.00001738,0.00033742,0.00109859,0.00060350,-0.00065167,0.003171
 37,-0.00198599,-0.00859608,-0.06072786,0.01359451,0.05191571,-0.033045
 38,0.00736053,0.03748665,0.00316519,0.00245982,-0.00072981,-0.00000040
 ,-0.00000035,-0.00000005,-0.00000007,0.00000021,-0.00000014,-0.0000000
 5,0.00000008,0.00000019,-0.00000005,0.00000007,0.00000016,-0.00000004,
 0.00000010,-0.00000009,-0.00000030,-0.00000006,0.00000034,-0.00000008,
 0.00000009,-0.00000019,-0.00000012,0.00000009,0.00000037,-0.00000012,-
 0.00000014,0.,-0.00000076,0.00000148,0.00000243,-0.00000061,0.00000077
 ,0.00000012,-0.00000145,0.00000393,0.00000626,-0.00000220,0.00000201,-
 0.00000044,0.00000701,-0.00000334,-0.00000228,-0.00000038,0.00000823,0
 .00000182,0.00000048,0.00000658,0.00000126,0.00000423,0.00001232,0.000
 00264,0.00001773,-0.00006997,-0.00002557,0.00001743,-0.00006874,-0.000
 07340,-0.00036866,-0.00245831,-0.00023437,0.00011087,0.00043550,0.0006
 4938,0.08013895,-0.00000008,0.00000043,-0.00000005,0.00000017,-0.00000
 124,-0.00000082,0.00000035,0.00000084,-0.00000010,-0.00000362,-0.00000
 885,-0.00000522,0.00000845,0.00001003,0.00000635,-0.00001034,-0.000024
 60,-0.00001865,0.00000374,0.00002327,0.00001690,-0.00001895,-0.0000184
 2,-0.00002477,-0.00003180,-0.00014346,0.00000174,0.00000099,-0.0000069
 5,-0.00001300,-0.00045851,0.00012604,0.00057355,0.00209281,0.00117972,
 -0.00003985,0.00647080,-0.00905513,-0.02927193,0.01812735,-0.06348422,
 -0.05222765,-0.00382654,0.00101195,-0.00081708,0.00051124,0.00243962,0
 .00217874,0.00000054,0.00000040,0.00000006,0.00000002,-0.00000023,-0.0
 0000002,-0.00000020,-0.00000004,0.00000021,-0.00000003,0.00000044,0.00
 000068,0.00000010,0.00000008,-0.00000005,-0.00000066,0.00000006,0.0000
 0061,0.00000002,-0.00000019,-0.00000013,-0.00000013,0.00000132,0.00000
 210,0.00000021,0.00000077,0.00000013,-0.00000007,0.00000338,0.00000660
 ,0.00000081,0.00000172,0.00000123,0.00000063,0.00000305,0.00001421,0.0
 0000193,-0.00000006,0.00000100,0.00001936,-0.00000078,0.00001013,-0.00
 000634,-0.00001498,0.00000712,0.00000482,0.00000215,0.00000752,-0.0000
 0812,0.00002026,-0.00000178,0.00004316,-0.00004941,0.00004115,-0.00015
 299,-0.00010853,-0.00008163,-0.00175598,-0.00550301,-0.00168966,0.0005
 4360,0.00168846,0.00038556,-0.01812587,0.06721734,-0.00000008,0.000000
 15,-0.00000054,0.00000006,-0.00000113,-0.00000114,0.00000077,0.0000005
 7,-0.00000129,-0.00000246,-0.00000790,-0.00000708,0.00000293,0.0000089
 2,0.00000858,-0.00000557,-0.00002138,-0.00002019,-0.00001023,0.0000157
 7,0.00002097,-0.00000921,-0.00000010,-0.00001666,0.00000811,-0.0000529
 8,0.00001326,-0.00002838,-0.00007963,-0.00003824,-0.00048462,-0.000153
 08,0.00031164,0.00031321,0.00035775,0.00026022,0.00088034,-0.00089091,
 -0.00520629,0.05711330,-0.05310017,-0.27629765,0.00798701,-0.00125630,
 0.00402791,-0.00047424,0.00094104,0.00121798,0.00000058,0.00000069,0.0
 0000007,0.00000010,-0.00000044,-0.00000015,-0.00000048,-0.00000001,0.0
 0000081,-0.00000020,0.00000087,0.00000128,0.00000016,-0.00000012,-0.00
 000003,-0.00000110,0.00000002,0.00000155,0.00000024,-0.00000045,-0.000
 00038,-0.00000072,0.00000162,0.00000304,0.00000026,0.00000038,0.000000
 40,-0.00000075,0.00000446,0.00000811,0.00000064,0.00000096,0.00000177,
 0.00000118,0.00001384,0.00001746,0.00000169,-0.00000023,0.00000073,0.0
 0000145,-0.00000452,-0.00000623,-0.00000202,0.00000038,0.00000733,-0.0
 0000314,0.00002062,0.00002305,-0.00002957,0.00003920,0.00001688,-0.000
 03229,-0.00002675,0.00003015,0.00004343,-0.00007471,-0.00005058,-0.000
 22767,-0.00082432,0.00131466,-0.00002836,-0.00019324,0.00107630,-0.068
 43921,0.06038673,0.29306912,0.00000057,-0.00000084,-0.00000032,-0.0000
 0028,0.00000223,0.00000029,0.00000005,-0.00000131,-0.00000082,0.000006
 91,0.00001333,0.00000155,-0.00002091,-0.00001351,-0.00000174,0.0000216
 7,0.00002614,0.00000219,-0.00003010,-0.00002917,-0.00000511,0.00001479
 ,0.00001298,-0.00000116,0.00001319,-0.00001866,-0.00005698,0.00001289,
 -0.00000564,-0.00000067,0.00010284,-0.00002307,0.00013869,0.00094116,-
 0.00002054,0.00061513,0.00434212,-0.00536376,0.00601449,-0.08152461,0.
 05703837,-0.05908861,-0.03946785,0.02335605,-0.02132040,0.00432654,0.0
 0111203,0.00208337,-0.00000107,-0.00000076,-0.00000027,0.00000012,0.00
 000013,0.00000013,-0.00000017,0.00000038,0.00000029,-0.00000005,-0.000
 00002,-0.00000002,-0.00000001,-0.00000054,0.00000019,-0.00000013,0.000
 00027,0.00000016,0.00000025,-0.00000016,0.00000026,-0.00000030,-0.0000
 0117,-0.00000044,0.00000006,-0.00000202,0.00000066,-0.00000132,-0.0000
 0183,-0.00000008,-0.00000094,-0.00000317,0.00000114,-0.00000276,0.0000
 0172,0.00000216,-0.00000081,0.00000260,0.00000054,-0.00001127,-0.00000
 429,-0.00000748,0.00000346,0.00000307,-0.00000020,-0.00000271,-0.00000
 074,-0.00000335,0.00000452,-0.00000134,0.00000090,-0.00005836,0.000059
 89,-0.00001617,0.00007985,0.00006309,-0.00018069,0.00007663,0.00042370
 ,-0.00024182,-0.00029485,-0.00242790,-0.00082363,0.00609198,-0.0036317
 8,0.00390470,0.10607397,0.00000048,-0.00000122,0.00000035,-0.00000070,
 0.00000032,0.00000073,0.00000149,-0.00000236,0.00000099,0.00000334,0.0
 0000160,0.00000521,-0.00001951,0.00000050,-0.00000620,0.00002106,0.000
 00085,0.00001477,-0.00004179,-0.00000308,-0.00001365,0.00002312,-0.000
 01113,0.00002170,0.00000317,0.00002794,0.00000759,-0.00001047,-0.00002
 757,0.00000292,-0.00068907,0.00005648,-0.00008792,0.00199649,0.0009457
 7,0.00061410,0.01096002,-0.02050686,0.02042725,0.06208561,-0.14968848,
 0.10108567,-0.00034943,0.00157438,-0.00238967,0.00055684,0.00381173,-0
 .00152504,-0.00000028,0.00000017,0.00000012,-0.00000059,0.00000064,-0.
 00000073,-0.00000006,-0.00000014,0.00000008,0.00000017,-0.00000028,0.0
 0000018,-0.00000011,0.00000119,-0.00000089,-0.00000013,-0.00000013,0.0
 0000020,-0.00000138,0.00000104,-0.00000129,0.00000022,-0.00000111,-0.0
 0000044,-0.00000068,0.00000108,-0.00000233,0.00000013,-0.00000167,-0.0
 0000082,-0.00000150,0.00000303,-0.00000626,0.00000224,0.00000080,0.000
 00684,0.00000382,0.00001868,-0.00001430,-0.00005277,-0.00000042,-0.000
 01731,0.00000262,0.00001112,-0.00000822,-0.00000584,0.00000221,0.00000
 535,-0.00000007,0.00000835,0.00001287,0.00008875,0.00004443,-0.0002796
 1,-0.00110921,0.00004186,-0.00043623,0.00040508,0.00151420,-0.00021039
 ,-0.00156264,-0.00508784,-0.00208185,-0.00214071,0.00491684,-0.0050996
 8,-0.07037571,0.16185280,-0.00000040,0.00000125,-0.00000031,0.00000056
 ,-0.00000077,-0.00000060,-0.00000111,0.00000225,-0.00000094,-0.0000045
 4,-0.00000482,-0.00000457,0.00001933,0.00000378,0.00000577,-0.00002086
 ,-0.00001035,-0.00001279,0.00003434,0.00001568,0.00001236,-0.00002093,
 -0.00001163,-0.00000336,-0.00003595,-0.00001675,-0.00010915,0.00004965
 ,0.00002912,0.00001037,0.00024507,-0.00009118,0.00015744,-0.00006319,0
 .00020795,0.00012065,0.00301487,-0.00579214,0.00485314,-0.05952029,0.1
 0233216,-0.16014491,-0.00219904,-0.00403646,0.00994336,0.00078657,-0.0
 0124585,0.00014608,0.00000041,-0.00000009,-0.00000006,0.00000045,-0.00
 000055,0.00000073,0.00000004,0.00000013,-0.00000019,-0.00000010,0.0000
 0026,-0.00000008,0.00000016,-0.00000090,0.00000065,-0.00000006,0.00000
 018,-0.00000024,0.00000094,-0.00000078,0.00000122,0.,0.00000117,0.0000
 0067,0.00000075,-0.00000046,0.00000152,0.00000054,0.00000192,0.0000017
 5,0.00000167,-0.00000124,0.00000358,-0.00000033,-0.00000131,-0.0000009
 5,0.00000108,-0.00001149,0.00000436,0.00002097,0.00000021,0.00002778,-
 0.00000574,-0.00002577,0.00001191,0.00001444,-0.00000059,-0.00000857,-
 0.00001744,0.00000681,-0.00001805,-0.00007970,-0.00004154,0.00005006,0
 .00036301,0.00013996,0.00015930,0.00039171,0.00048216,0.00103543,-0.00
 037838,-0.00186231,0.00099623,-0.01100857,0.02052641,-0.01975851,0.069
 11849,-0.11089418,0.16304818,-0.00000109,0.00000254,0.00000101,0.00000
 089,-0.00000714,-0.00000123,-0.00000039,0.00000363,0.00000172,-0.00002
 021,-0.00004345,-0.00000819,0.00005919,0.00004622,0.00000906,-0.000058
 84,-0.00009231,-0.00001586,0.00007900,0.00010355,0.00001994,-0.0000403
 5,-0.00006202,-0.00001079,-0.00002063,0.00002227,0.00001438,0.00001272
 ,-0.00000530,0.00001449,-0.00004734,0.00000565,0.00001016,-0.00004424,
 -0.00017733,-0.00007919,-0.00104623,0.00008037,-0.00075830,-0.00078884
 ,-0.00482309,0.00294128,-0.00447762,-0.00374395,0.00780350,-0.03211430
 ,-0.05603854,0.09654459,0.00000334,0.00000265,0.00000069,-0.00000033,-
 0.00000073,-0.00000062,-0.00000007,-0.00000114,-0.00000026,0.00000017,
 0.00000064,0.00000094,-0.00000008,0.00000181,-0.00000096,-0.00000005,-
 0.00000070,0.00000053,-0.00000065,0.00000018,-0.00000138,0.00000053,0.
 00000439,0.00000324,0.00000014,0.00000640,-0.00000200,0.00000293,0.000
 00763,0.00000505,0.00000246,0.00001087,-0.00000365,0.00000336,-0.00000
 260,0.00000103,0.00000430,0.00000838,-0.00000545,-0.00000423,0.0000007
 2,-0.00000767,-0.00000641,0.00000504,-0.00000480,0.00001252,-0.0000005
 0,-0.00000910,-0.00000754,0.00000797,0.00001031,0.00000363,-0.00001184
 ,-0.00002111,-0.00004685,-0.00001848,-0.00003054,0.00002667,-0.0001060
 2,-0.00002016,0.00008489,0.00031817,0.00005487,0.00033352,0.00020092,-
 0.00047988,-0.00069504,0.00020799,-0.00070844,0.03879110,-0.00000097,0
 .00000209,0.00000046,0.00000056,-0.00000301,-0.00000023,-0.00000170,0.
 00000307,0.00000036,-0.00001215,-0.00001811,-0.00000387,0.00003902,0.0
 0001744,0.00000435,-0.00003976,-0.00003378,-0.00000649,0.00005440,0.00
 004258,0.00000915,-0.00002641,-0.00002264,-0.00000382,-0.00002348,0.00
 004233,0.00002879,0.00000470,0.00000337,0.00000640,0.00001295,0.000012
 97,-0.00003625,-0.00009636,-0.00017285,-0.00029340,-0.00090723,0.00031
 236,0.00030496,0.00010589,-0.00393631,0.00014895,-0.01738231,-0.034607
 72,0.02617218,-0.04603005,-0.08632043,0.12151021,0.00000161,0.00000097
 ,0.00000026,0.00000027,-0.00000076,0.00000056,0.00000026,-0.00000048,-
 0.00000084,0.00000025,0.00000008,-0.00000060,0.00000005,0.00000002,0.0
 0000032,0.00000054,-0.00000034,-0.00000078,0.00000042,-0.00000055,0.00
 000060,0.00000070,0.00000214,0.00000009,0.00000077,0.00000203,0.000000
 66,0.00000214,0.00000270,-0.00000055,0.00000213,0.00000275,0.00000086,
 0.00000143,-0.00000404,-0.00000558,0.00000195,-0.00000167,0.00000146,0
 .00000534,-0.00000173,0.00000390,-0.00000289,-0.00000375,0.00000166,0.
 00000855,0.00000186,-0.00000302,-0.00000769,0.00000028,-0.00000071,0.0
 0000654,-0.00002874,-0.00000544,-0.00003933,-0.00001280,0.00001320,0.0
 0003141,-0.00005880,-0.00014369,0.00005278,0.00017797,-0.00000983,0.00
 033658,-0.00022807,-0.00000592,-0.00018806,0.00049425,0.00029981,0.064
 08715,0.12433532,0.00000070,-0.00000227,-0.00000046,-0.00000134,0.0000
 0398,0.00000095,0.00000178,-0.00000417,0.00000002,0.00001188,0.0000259
 7,0.00000914,-0.00004213,-0.00002847,-0.00001054,0.00004139,0.00006414
 ,0.00002273,-0.00006900,-0.00007741,-0.00002236,0.00003386,0.00005823,
 0.00001910,0.00003556,0.00001619,0.00009191,-0.00005199,-0.00001904,-0
 .00003066,-0.00011282,0.00001360,-0.00007720,0.00020440,-0.00044392,-0
 .00008761,-0.00139672,0.00007410,0.00016707,0.00282002,-0.00266920,0.0
 0026748,-0.01087665,-0.01831937,0.01733484,0.11543871,0.16826877,-0.42
 527119,-0.00000195,-0.00000132,-0.00000018,-0.00000033,0.00000100,-0.0
 0000021,0.00000027,0.00000045,0.00000005,-0.00000011,-0.00000066,-0.00
 000054,0.00000010,-0.00000018,0.00000016,0.,0.00000026,-0.00000038,-0.
 00000061,0.00000082,0.00000005,-0.00000007,-0.00000344,-0.00000278,-0.
 00000089,-0.00000289,-0.00000045,-0.00000090,-0.00000668,-0.00000611,-
 0.00000197,-0.00000615,-0.00000093,0.00000118,0.00000207,-0.00000107,-
 0.00000265,-0.00000207,-0.00000094,-0.00000498,0.00000271,-0.00000421,
 0.00000517,-0.00000084,0.00000080,-0.00001747,0.00000414,0.00002396,0.
 00000787,-0.00000176,-0.00000497,0.00000687,-0.00001664,-0.00001455,-0
 .00006883,0.00002131,-0.00000335,0.00007954,0.00005910,-0.00002491,0.0
 0001858,0.00008408,-0.00003796,-0.00065387,0.00002363,-0.00002833,-0.0
 0013537,0.00087010,-0.00052926,-0.10526724,-0.14798815,0.40822287\\-0.
 00000052,0.,-0.00000002,0.00000014,0.00000058,-0.00000003,-0.00000036,
 0.00000009,0.00000012,0.00000041,0.00000396,0.00000088,-0.00000158,-0.
 00000362,-0.00000157,-0.00000285,0.00000318,0.00000164,0.00000310,-0.0
 0000420,-0.00000172,-0.00000359,0.00000017,0.00000055,0.00000166,0.000
 00167,0.00000059,-0.00000157,0.00000096,0.00000085,-0.00000089,0.00000
 385,-0.00000156,0.00000431,-0.00000357,0.00000385,-0.00000164,0.000006
 79,0.00000197,-0.00002092,0.00000449,-0.00000447,0.00001487,-0.0000026
 9,0.00000156,-0.00000026,-0.00000235,-0.00000660,0.00000014,0.00000011
 ,-0.00000004,-0.00000019,0.00000025,0.00000022,-0.00000004,0.,0.000000
 09,-0.00000008,0.00000017,-0.00000020,0.00000006,-0.00000008,-0.000000
 28,0.00000016,-0.00000026,0.00000009,0.,0.,0.00000015,-0.00000005,-0.0
 0000046,-0.00000057,0.00000037,-0.00000071,-0.00000035,0.00000056,0.00
 000060,0.00000002,0.00000145,0.00000004,-0.00000085,0.00000071,0.00000
 014,-0.00000010,0.00000078,-0.00000017,-0.00000009,-0.00000063,0.00000
 017,0.00000018,0.00000039,-0.00000103,0.00000023,0.00000139,-0.0000010
 2,-0.00000041,0.00000120,-0.00000038,-0.00000032,0.00000114,-0.0000016
 6,-0.00000001,-0.00000018,-0.00000033,-0.00000125,0.00000100,0.0000004
 7,-0.00000058,0.00000020,-0.00000217,-0.00000115,0.00000106,0.00000017
 ,0.00000089,0.00000466,-0.00000138,0.00000347,-0.00000442,-0.00000178,
 0.00000481\\\@


 ON A TOMBSTONE, "HERE LIES LESTER MOORE,
 FOUR SLUGS FROM A 44, NO LES, NO MORE".
 Job cpu time:       0 days  9 hours 15 minutes 11.6 seconds.
 Elapsed time:       0 days  2 hours 18 minutes 49.6 seconds.
 File lengths (MBytes):  RWF=    925 Int=      0 D2E=      0 Chk=     27 Scr=      1
 Normal termination of Gaussian 16 at Sun May 28 12:59:49 2023.
### All Done ###
