### Starting Gaussian ###
 Entering Gaussian System, Link 0=g16
 Initial command:
 /cluster/software/gaussian/gaussian-16-A.03/avx2/g16/l1.exe "/local/scratch/cz9n3/Gau-5844.inp" -scrdir="/local/scratch/cz9n3/"
 Entering Link 1 = /cluster/software/gaussian/gaussian-16-A.03/avx2/g16/l1.exe PID=      5850.
  
 Copyright (c) 1988,1990,1992,1993,1995,1998,2003,2009,2016,
            Gaussian, Inc.  All Rights Reserved.
  
 This is part of the Gaussian(R) 16 program.  It is based on
 the Gaussian(R) 09 system (copyright 2009, Gaussian, Inc.),
 the Gaussian(R) 03 system (copyright 2003, Gaussian, Inc.),
 the Gaussian(R) 98 system (copyright 1998, Gaussian, Inc.),
 the Gaussian(R) 94 system (copyright 1995, Gaussian, Inc.),
 the Gaussian 92(TM) system (copyright 1992, Gaussian, Inc.),
 the Gaussian 90(TM) system (copyright 1990, Gaussian, Inc.),
 the Gaussian 88(TM) system (copyright 1988, Gaussian, Inc.),
 the Gaussian 86(TM) system (copyright 1986, Carnegie Mellon
 University), and the Gaussian 82(TM) system (copyright 1983,
 Carnegie Mellon University). Gaussian is a federally registered
 trademark of Gaussian, Inc.
  
 This software contains proprietary and confidential information,
 including trade secrets, belonging to Gaussian, Inc.
  
 This software is provided under written license and may be
 used, copied, transmitted, or stored only in accord with that
 written license.
  
 The following legend is applicable only to US Government
 contracts under FAR:
  
                    RESTRICTED RIGHTS LEGEND
  
 Use, reproduction and disclosure by the US Government is
 subject to restrictions as set forth in subparagraphs (a)
 and (c) of the Commercial Computer Software - Restricted
 Rights clause in FAR 52.227-19.
  
 Gaussian, Inc.
 340 Quinnipiac St., Bldg. 40, Wallingford CT 06492
  
  
 ---------------------------------------------------------------
 Warning -- This program may not be used in any manner that
 competes with the business of Gaussian, Inc. or will provide
 assistance to any competitor of Gaussian, Inc.  The licensee
 of this program is prohibited from giving any competitor of
 Gaussian, Inc. access to this program.  By using this program,
 the user acknowledges that Gaussian, Inc. is engaged in the
 business of creating and licensing software in the field of
 computational chemistry and represents and warrants to the
 licensee that it is not a competitor of Gaussian, Inc. and that
 it will not use this program in any manner prohibited above.
 ---------------------------------------------------------------
  

 Cite this work as:
 Gaussian 16, Revision A.03,
 M. J. Frisch, G. W. Trucks, H. B. Schlegel, G. E. Scuseria, 
 M. A. Robb, J. R. Cheeseman, G. Scalmani, V. Barone, 
 G. A. Petersson, H. Nakatsuji, X. Li, M. Caricato, A. V. Marenich, 
 J. Bloino, B. G. Janesko, R. Gomperts, B. Mennucci, H. P. Hratchian, 
 J. V. Ortiz, A. F. Izmaylov, J. L. Sonnenberg, D. Williams-Young, 
 F. Ding, F. Lipparini, F. Egidi, J. Goings, B. Peng, A. Petrone, 
 T. Henderson, D. Ranasinghe, V. G. Zakrzewski, J. Gao, N. Rega, 
 G. Zheng, W. Liang, M. Hada, M. Ehara, K. Toyota, R. Fukuda, 
 J. Hasegawa, M. Ishida, T. Nakajima, Y. Honda, O. Kitao, H. Nakai, 
 T. Vreven, K. Throssell, J. A. Montgomery, Jr., J. E. Peralta, 
 F. Ogliaro, M. J. Bearpark, J. J. Heyd, E. N. Brothers, K. N. Kudin, 
 V. N. Staroverov, T. A. Keith, R. Kobayashi, J. Normand, 
 K. Raghavachari, A. P. Rendell, J. C. Burant, S. S. Iyengar, 
 J. Tomasi, M. Cossi, J. M. Millam, M. Klene, C. Adamo, R. Cammi, 
 J. W. Ochterski, R. L. Martin, K. Morokuma, O. Farkas, 
 J. B. Foresman, and D. J. Fox, Gaussian, Inc., Wallingford CT, 2016.
 
 ******************************************
 Gaussian 16:  ES64L-G16RevA.03 25-Dec-2016
                23-May-2023 
 ******************************************
 %chk=CCCCCCC1CCCqCCCCCrC1.chk
 %NProcShared=20
 Will use up to   20 processors via shared memory.
 -----------------------------
 # opt freq b3lyp/6-31g(2df,p)
 -----------------------------
 1/18=20,19=15,26=3,38=1/1,3;
 2/9=110,12=2,17=6,18=5,40=1/2;
 3/5=1,6=6,7=104,11=2,25=1,30=1,71=1,74=-5/1,2,3;
 4//1;
 5/5=2,38=5/2;
 6/7=2,8=2,9=2,10=2,28=1/1;
 7//1,2,3,16;
 1/18=20,19=15,26=3/3(2);
 2/9=110/2;
 99//99;
 2/9=110/2;
 3/5=1,6=6,7=104,11=2,25=1,30=1,71=1,74=-5/1,2,3;
 4/5=5,16=3,69=1/1;
 5/5=2,38=5/2;
 7//1,2,3,16;
 1/18=20,19=15,26=3/3(-5);
 2/9=110/2;
 6/7=2,8=2,9=2,10=2,19=2,28=1/1;
 99/9=1/99;
 -------------------
 Title Card Required
 -------------------
 Symbolic Z-matrix:
 Charge =  0 Multiplicity = 1
 C                     1.02224   0.04719   0.05008 
 C                     2.53999   0.04652   0.05354 
 C                     3.07878  -0.80201   1.19779 
 C                     4.60367  -0.80103   1.20302 
 C                     5.11678  -1.66228   2.34661 
 C                     6.6407   -1.69901   2.37495 
 C                     7.12354  -2.60729   3.49918 
 C                     6.81803  -4.08294   3.26523 
 C                     7.71143  -4.79323   4.26946 
 C                     8.94036  -3.88333   4.45182 
 C                     9.19256  -3.60061   5.93723 
 C                     10.45438  -2.76736   6.15174 
 C                     10.67282  -2.46832   7.62871 
 C                     11.90895  -1.59331   7.81308 
 C                     12.14016  -1.28585   9.28005 
 C                     8.63859  -2.61245   3.64079 
 H                     0.64657   0.66036  -0.77381 
 H                     0.63082   0.45423   0.98776 
 H                     0.63255  -0.96856  -0.07218 
 H                     2.90584   1.07524   0.15004 
 H                     2.90733  -0.34252  -0.90286 
 H                     2.7112   -1.83163   1.1006 
 H                     2.70648  -0.41762   2.15513 
 H                     4.9793    0.22355   1.31031 
 H                     4.97954  -1.1905    0.24993 
 H                     4.71765  -2.67665   2.23152 
 H                     4.74243  -1.27556   3.30163 
 H                     7.03012  -0.6837    2.52617 
 H                     7.02731  -2.04762   1.41075 
 H                     6.67906  -2.28322   4.44828 
 H                     7.08554  -4.37953   2.24551 
 H                     5.76284  -4.32687   3.42603 
 H                     7.99364  -5.78734   3.9067 
 H                     7.16914  -4.93129   5.21171 
 H                     9.82649  -4.37693   4.03344 
 H                     9.29534  -4.55235   6.4735 
 H                     8.3276   -3.08352   6.37325 
 H                     10.38723  -1.81605   5.61587 
 H                     11.32053  -3.30237   5.7443 
 H                     10.78726  -3.40603   8.18455 
 H                     9.79306  -1.95332   8.03462 
 H                     11.78782  -0.65422   7.25972 
 H                     12.78934  -2.10013   7.40091 
 H                     11.2855  -0.74858   9.7033 
 H                     13.03103  -0.6631    9.40052 
 H                     12.28454  -2.20811   9.85123 
 H                     9.12356  -2.68155   2.66075 
 H                     8.98155  -1.68324   4.10483 
 

 GradGradGradGradGradGradGradGradGradGradGradGradGradGradGradGradGradGrad
 Berny optimization.
 Initialization pass.
                           ----------------------------
                           !    Initial Parameters    !
                           ! (Angstroms and Degrees)  !
 --------------------------                            --------------------------
 ! Name  Definition              Value          Derivative Info.                !
 --------------------------------------------------------------------------------
 ! R1    R(1,2)                  1.5178         estimate D2E/DX2                !
 ! R2    R(1,17)                 1.0936         estimate D2E/DX2                !
 ! R3    R(1,18)                 1.0946         estimate D2E/DX2                !
 ! R4    R(1,19)                 1.0948         estimate D2E/DX2                !
 ! R5    R(2,3)                  1.523          estimate D2E/DX2                !
 ! R6    R(2,20)                 1.0961         estimate D2E/DX2                !
 ! R7    R(2,21)                 1.0959         estimate D2E/DX2                !
 ! R8    R(3,4)                  1.5249         estimate D2E/DX2                !
 ! R9    R(3,22)                 1.0976         estimate D2E/DX2                !
 ! R10   R(3,23)                 1.0968         estimate D2E/DX2                !
 ! R11   R(4,5)                  1.5208         estimate D2E/DX2                !
 ! R12   R(4,24)                 1.0965         estimate D2E/DX2                !
 ! R13   R(4,25)                 1.0961         estimate D2E/DX2                !
 ! R14   R(5,6)                  1.5246         estimate D2E/DX2                !
 ! R15   R(5,26)                 1.0961         estimate D2E/DX2                !
 ! R16   R(5,27)                 1.0962         estimate D2E/DX2                !
 ! R17   R(6,7)                  1.5238         estimate D2E/DX2                !
 ! R18   R(6,28)                 1.0979         estimate D2E/DX2                !
 ! R19   R(6,29)                 1.0958         estimate D2E/DX2                !
 ! R20   R(7,8)                  1.525          estimate D2E/DX2                !
 ! R21   R(7,16)                 1.5217         estimate D2E/DX2                !
 ! R22   R(7,30)                 1.097          estimate D2E/DX2                !
 ! R23   R(8,9)                  1.5202         estimate D2E/DX2                !
 ! R24   R(8,31)                 1.0952         estimate D2E/DX2                !
 ! R25   R(8,32)                 1.0949         estimate D2E/DX2                !
 ! R26   R(9,10)                 1.5399         estimate D2E/DX2                !
 ! R27   R(9,33)                 1.0952         estimate D2E/DX2                !
 ! R28   R(9,34)                 1.0959         estimate D2E/DX2                !
 ! R29   R(10,11)                1.533          estimate D2E/DX2                !
 ! R30   R(10,16)                1.5375         estimate D2E/DX2                !
 ! R31   R(10,35)                1.0972         estimate D2E/DX2                !
 ! R32   R(11,12)                1.5273         estimate D2E/DX2                !
 ! R33   R(11,36)                1.0973         estimate D2E/DX2                !
 ! R34   R(11,37)                1.098          estimate D2E/DX2                !
 ! R35   R(12,13)                1.5227         estimate D2E/DX2                !
 ! R36   R(12,38)                1.0939         estimate D2E/DX2                !
 ! R37   R(12,39)                1.0966         estimate D2E/DX2                !
 ! R38   R(13,14)                1.5257         estimate D2E/DX2                !
 ! R39   R(13,40)                1.0961         estimate D2E/DX2                !
 ! R40   R(13,41)                1.0973         estimate D2E/DX2                !
 ! R41   R(14,15)                1.5166         estimate D2E/DX2                !
 ! R42   R(14,42)                1.0967         estimate D2E/DX2                !
 ! R43   R(14,43)                1.0963         estimate D2E/DX2                !
 ! R44   R(15,44)                1.0946         estimate D2E/DX2                !
 ! R45   R(15,45)                1.0936         estimate D2E/DX2                !
 ! R46   R(15,46)                1.0944         estimate D2E/DX2                !
 ! R47   R(16,47)                1.0957         estimate D2E/DX2                !
 ! R48   R(16,48)                1.0938         estimate D2E/DX2                !
 ! A1    A(2,1,17)             110.2117         estimate D2E/DX2                !
 ! A2    A(2,1,18)             110.8427         estimate D2E/DX2                !
 ! A3    A(2,1,19)             110.8422         estimate D2E/DX2                !
 ! A4    A(17,1,18)            108.3031         estimate D2E/DX2                !
 ! A5    A(17,1,19)            108.2891         estimate D2E/DX2                !
 ! A6    A(18,1,19)            108.2642         estimate D2E/DX2                !
 ! A7    A(1,2,3)              110.8376         estimate D2E/DX2                !
 ! A8    A(1,2,20)             109.4851         estimate D2E/DX2                !
 ! A9    A(1,2,21)             109.473          estimate D2E/DX2                !
 ! A10   A(3,2,20)             109.7957         estimate D2E/DX2                !
 ! A11   A(3,2,21)             109.8346         estimate D2E/DX2                !
 ! A12   A(20,2,21)            107.3452         estimate D2E/DX2                !
 ! A13   A(2,3,4)              110.8535         estimate D2E/DX2                !
 ! A14   A(2,3,22)             109.7329         estimate D2E/DX2                !
 ! A15   A(2,3,23)             109.9042         estimate D2E/DX2                !
 ! A16   A(4,3,22)             109.6215         estimate D2E/DX2                !
 ! A17   A(4,3,23)             109.6477         estimate D2E/DX2                !
 ! A18   A(22,3,23)            107.0011         estimate D2E/DX2                !
 ! A19   A(3,4,5)              109.853          estimate D2E/DX2                !
 ! A20   A(3,4,24)             110.0901         estimate D2E/DX2                !
 ! A21   A(3,4,25)             109.8596         estimate D2E/DX2                !
 ! A22   A(5,4,24)             109.8769         estimate D2E/DX2                !
 ! A23   A(5,4,25)             109.6909         estimate D2E/DX2                !
 ! A24   A(24,4,25)            107.4353         estimate D2E/DX2                !
 ! A25   A(4,5,6)              111.3989         estimate D2E/DX2                !
 ! A26   A(4,5,26)             108.8            estimate D2E/DX2                !
 ! A27   A(4,5,27)             109.883          estimate D2E/DX2                !
 ! A28   A(6,5,26)             110.0973         estimate D2E/DX2                !
 ! A29   A(6,5,27)             109.4893         estimate D2E/DX2                !
 ! A30   A(26,5,27)            107.0726         estimate D2E/DX2                !
 ! A31   A(5,6,7)              110.169          estimate D2E/DX2                !
 ! A32   A(5,6,28)             109.5613         estimate D2E/DX2                !
 ! A33   A(5,6,29)             110.1189         estimate D2E/DX2                !
 ! A34   A(7,6,28)             109.7072         estimate D2E/DX2                !
 ! A35   A(7,6,29)             110.3509         estimate D2E/DX2                !
 ! A36   A(28,6,29)            106.8741         estimate D2E/DX2                !
 ! A37   A(6,7,8)              113.585          estimate D2E/DX2                !
 ! A38   A(6,7,16)             112.7162         estimate D2E/DX2                !
 ! A39   A(6,7,30)             109.5021         estimate D2E/DX2                !
 ! A40   A(8,7,16)             102.1493         estimate D2E/DX2                !
 ! A41   A(8,7,30)             109.7195         estimate D2E/DX2                !
 ! A42   A(16,7,30)            108.8994         estimate D2E/DX2                !
 ! A43   A(7,8,9)              103.4757         estimate D2E/DX2                !
 ! A44   A(7,8,31)             110.8527         estimate D2E/DX2                !
 ! A45   A(7,8,32)             112.7133         estimate D2E/DX2                !
 ! A46   A(9,8,31)             110.1812         estimate D2E/DX2                !
 ! A47   A(9,8,32)             111.4232         estimate D2E/DX2                !
 ! A48   A(31,8,32)            108.1691         estimate D2E/DX2                !
 ! A49   A(8,9,10)             105.7321         estimate D2E/DX2                !
 ! A50   A(8,9,33)             110.8989         estimate D2E/DX2                !
 ! A51   A(8,9,34)             109.6345         estimate D2E/DX2                !
 ! A52   A(10,9,33)            111.71           estimate D2E/DX2                !
 ! A53   A(10,9,34)            111.5626         estimate D2E/DX2                !
 ! A54   A(33,9,34)            107.3342         estimate D2E/DX2                !
 ! A55   A(9,10,11)            110.7939         estimate D2E/DX2                !
 ! A56   A(9,10,16)            105.6226         estimate D2E/DX2                !
 ! A57   A(9,10,35)            109.4836         estimate D2E/DX2                !
 ! A58   A(11,10,16)           113.0152         estimate D2E/DX2                !
 ! A59   A(11,10,35)           108.6374         estimate D2E/DX2                !
 ! A60   A(16,10,35)           109.2213         estimate D2E/DX2                !
 ! A61   A(10,11,12)           111.8787         estimate D2E/DX2                !
 ! A62   A(10,11,36)           109.2093         estimate D2E/DX2                !
 ! A63   A(10,11,37)           110.0007         estimate D2E/DX2                !
 ! A64   A(12,11,36)           109.0988         estimate D2E/DX2                !
 ! A65   A(12,11,37)           109.7629         estimate D2E/DX2                !
 ! A66   A(36,11,37)           106.7496         estimate D2E/DX2                !
 ! A67   A(11,12,13)           111.2175         estimate D2E/DX2                !
 ! A68   A(11,12,38)           110.7899         estimate D2E/DX2                !
 ! A69   A(11,12,39)           109.525          estimate D2E/DX2                !
 ! A70   A(13,12,38)           108.2506         estimate D2E/DX2                !
 ! A71   A(13,12,39)           110.0542         estimate D2E/DX2                !
 ! A72   A(38,12,39)           106.9037         estimate D2E/DX2                !
 ! A73   A(12,13,14)           110.248          estimate D2E/DX2                !
 ! A74   A(12,13,40)           109.8074         estimate D2E/DX2                !
 ! A75   A(12,13,41)           109.6322         estimate D2E/DX2                !
 ! A76   A(14,13,40)           110.1688         estimate D2E/DX2                !
 ! A77   A(14,13,41)           109.6171         estimate D2E/DX2                !
 ! A78   A(40,13,41)           107.3169         estimate D2E/DX2                !
 ! A79   A(13,14,15)           110.897          estimate D2E/DX2                !
 ! A80   A(13,14,42)           109.9157         estimate D2E/DX2                !
 ! A81   A(13,14,43)           109.882          estimate D2E/DX2                !
 ! A82   A(15,14,42)           109.3479         estimate D2E/DX2                !
 ! A83   A(15,14,43)           109.5705         estimate D2E/DX2                !
 ! A84   A(42,14,43)           107.1492         estimate D2E/DX2                !
 ! A85   A(14,15,44)           110.7617         estimate D2E/DX2                !
 ! A86   A(14,15,45)           110.2547         estimate D2E/DX2                !
 ! A87   A(14,15,46)           110.7394         estimate D2E/DX2                !
 ! A88   A(44,15,45)           108.2966         estimate D2E/DX2                !
 ! A89   A(44,15,46)           108.3504         estimate D2E/DX2                !
 ! A90   A(45,15,46)           108.3561         estimate D2E/DX2                !
 ! A91   A(7,16,10)            104.3184         estimate D2E/DX2                !
 ! A92   A(7,16,47)            110.9578         estimate D2E/DX2                !
 ! A93   A(7,16,48)            110.4133         estimate D2E/DX2                !
 ! A94   A(10,16,47)           109.4404         estimate D2E/DX2                !
 ! A95   A(10,16,48)           114.6373         estimate D2E/DX2                !
 ! A96   A(47,16,48)           107.1139         estimate D2E/DX2                !
 ! D1    D(17,1,2,3)           179.9018         estimate D2E/DX2                !
 ! D2    D(17,1,2,20)           58.6329         estimate D2E/DX2                !
 ! D3    D(17,1,2,21)          -58.7887         estimate D2E/DX2                !
 ! D4    D(18,1,2,3)            60.0176         estimate D2E/DX2                !
 ! D5    D(18,1,2,20)          -61.2513         estimate D2E/DX2                !
 ! D6    D(18,1,2,21)         -178.6729         estimate D2E/DX2                !
 ! D7    D(19,1,2,3)           -60.2318         estimate D2E/DX2                !
 ! D8    D(19,1,2,20)          178.4993         estimate D2E/DX2                !
 ! D9    D(19,1,2,21)           61.0777         estimate D2E/DX2                !
 ! D10   D(1,2,3,4)           -179.9046         estimate D2E/DX2                !
 ! D11   D(1,2,3,22)            58.8702         estimate D2E/DX2                !
 ! D12   D(1,2,3,23)           -58.5326         estimate D2E/DX2                !
 ! D13   D(20,2,3,4)           -58.8189         estimate D2E/DX2                !
 ! D14   D(20,2,3,22)          179.9558         estimate D2E/DX2                !
 ! D15   D(20,2,3,23)           62.553          estimate D2E/DX2                !
 ! D16   D(21,2,3,4)            58.9992         estimate D2E/DX2                !
 ! D17   D(21,2,3,22)          -62.2261         estimate D2E/DX2                !
 ! D18   D(21,2,3,23)         -179.6289         estimate D2E/DX2                !
 ! D19   D(2,3,4,5)           -179.5779         estimate D2E/DX2                !
 ! D20   D(2,3,4,24)            59.2932         estimate D2E/DX2                !
 ! D21   D(2,3,4,25)           -58.8271         estimate D2E/DX2                !
 ! D22   D(22,3,4,5)           -58.2871         estimate D2E/DX2                !
 ! D23   D(22,3,4,24)         -179.416          estimate D2E/DX2                !
 ! D24   D(22,3,4,25)           62.4638         estimate D2E/DX2                !
 ! D25   D(23,3,4,5)            58.8993         estimate D2E/DX2                !
 ! D26   D(23,3,4,24)          -62.2296         estimate D2E/DX2                !
 ! D27   D(23,3,4,25)          179.6501         estimate D2E/DX2                !
 ! D28   D(3,4,5,6)            179.3469         estimate D2E/DX2                !
 ! D29   D(3,4,5,26)            57.7957         estimate D2E/DX2                !
 ! D30   D(3,4,5,27)           -59.1346         estimate D2E/DX2                !
 ! D31   D(24,4,5,6)           -59.3961         estimate D2E/DX2                !
 ! D32   D(24,4,5,26)          179.0526         estimate D2E/DX2                !
 ! D33   D(24,4,5,27)           62.1223         estimate D2E/DX2                !
 ! D34   D(25,4,5,6)            58.4944         estimate D2E/DX2                !
 ! D35   D(25,4,5,26)          -63.0569         estimate D2E/DX2                !
 ! D36   D(25,4,5,27)         -179.9871         estimate D2E/DX2                !
 ! D37   D(4,5,6,7)           -178.0169         estimate D2E/DX2                !
 ! D38   D(4,5,6,28)            61.2019         estimate D2E/DX2                !
 ! D39   D(4,5,6,29)           -56.071          estimate D2E/DX2                !
 ! D40   D(26,5,6,7)           -57.2229         estimate D2E/DX2                !
 ! D41   D(26,5,6,28)         -178.0041         estimate D2E/DX2                !
 ! D42   D(26,5,6,29)           64.7229         estimate D2E/DX2                !
 ! D43   D(27,5,6,7)            60.2359         estimate D2E/DX2                !
 ! D44   D(27,5,6,28)          -60.5453         estimate D2E/DX2                !
 ! D45   D(27,5,6,29)         -177.8182         estimate D2E/DX2                !
 ! D46   D(5,6,7,8)             68.3248         estimate D2E/DX2                !
 ! D47   D(5,6,7,16)          -176.0982         estimate D2E/DX2                !
 ! D48   D(5,6,7,30)           -54.7134         estimate D2E/DX2                !
 ! D49   D(28,6,7,8)          -170.9816         estimate D2E/DX2                !
 ! D50   D(28,6,7,16)          -55.4045         estimate D2E/DX2                !
 ! D51   D(28,6,7,30)           65.9803         estimate D2E/DX2                !
 ! D52   D(29,6,7,8)           -53.4836         estimate D2E/DX2                !
 ! D53   D(29,6,7,16)           62.0934         estimate D2E/DX2                !
 ! D54   D(29,6,7,30)         -176.5218         estimate D2E/DX2                !
 ! D55   D(6,7,8,9)            164.4981         estimate D2E/DX2                !
 ! D56   D(6,7,8,31)            46.4052         estimate D2E/DX2                !
 ! D57   D(6,7,8,32)           -75.0061         estimate D2E/DX2                !
 ! D58   D(16,7,8,9)            42.8294         estimate D2E/DX2                !
 ! D59   D(16,7,8,31)          -75.2635         estimate D2E/DX2                !
 ! D60   D(16,7,8,32)          163.3252         estimate D2E/DX2                !
 ! D61   D(30,7,8,9)           -72.5832         estimate D2E/DX2                !
 ! D62   D(30,7,8,31)          169.3239         estimate D2E/DX2                !
 ! D63   D(30,7,8,32)           47.9126         estimate D2E/DX2                !
 ! D64   D(6,7,16,10)         -161.6947         estimate D2E/DX2                !
 ! D65   D(6,7,16,47)          -43.9461         estimate D2E/DX2                !
 ! D66   D(6,7,16,48)           74.6596         estimate D2E/DX2                !
 ! D67   D(8,7,16,10)          -39.4307         estimate D2E/DX2                !
 ! D68   D(8,7,16,47)           78.3178         estimate D2E/DX2                !
 ! D69   D(8,7,16,48)         -163.0765         estimate D2E/DX2                !
 ! D70   D(30,7,16,10)          76.5787         estimate D2E/DX2                !
 ! D71   D(30,7,16,47)        -165.6727         estimate D2E/DX2                !
 ! D72   D(30,7,16,48)         -47.067          estimate D2E/DX2                !
 ! D73   D(7,8,9,10)           -29.7129         estimate D2E/DX2                !
 ! D74   D(7,8,9,33)          -150.9733         estimate D2E/DX2                !
 ! D75   D(7,8,9,34)            90.6775         estimate D2E/DX2                !
 ! D76   D(31,8,9,10)           88.8462         estimate D2E/DX2                !
 ! D77   D(31,8,9,33)          -32.4143         estimate D2E/DX2                !
 ! D78   D(31,8,9,34)         -150.7634         estimate D2E/DX2                !
 ! D79   D(32,8,9,10)         -151.0816         estimate D2E/DX2                !
 ! D80   D(32,8,9,33)           87.658          estimate D2E/DX2                !
 ! D81   D(32,8,9,34)          -30.6912         estimate D2E/DX2                !
 ! D82   D(8,9,10,11)          128.0272         estimate D2E/DX2                !
 ! D83   D(8,9,10,16)            5.3131         estimate D2E/DX2                !
 ! D84   D(8,9,10,35)         -112.1736         estimate D2E/DX2                !
 ! D85   D(33,9,10,11)        -111.2388         estimate D2E/DX2                !
 ! D86   D(33,9,10,16)         126.0471         estimate D2E/DX2                !
 ! D87   D(33,9,10,35)           8.5604         estimate D2E/DX2                !
 ! D88   D(34,9,10,11)           8.9044         estimate D2E/DX2                !
 ! D89   D(34,9,10,16)        -113.8097         estimate D2E/DX2                !
 ! D90   D(34,9,10,35)         128.7036         estimate D2E/DX2                !
 ! D91   D(9,10,11,12)         176.6468         estimate D2E/DX2                !
 ! D92   D(9,10,11,36)          55.7632         estimate D2E/DX2                !
 ! D93   D(9,10,11,37)         -61.0823         estimate D2E/DX2                !
 ! D94   D(16,10,11,12)        -65.0404         estimate D2E/DX2                !
 ! D95   D(16,10,11,36)        174.076          estimate D2E/DX2                !
 ! D96   D(16,10,11,37)         57.2305         estimate D2E/DX2                !
 ! D97   D(35,10,11,12)         56.3423         estimate D2E/DX2                !
 ! D98   D(35,10,11,36)        -64.5413         estimate D2E/DX2                !
 ! D99   D(35,10,11,37)        178.6132         estimate D2E/DX2                !
 ! D100  D(9,10,16,7)           21.1672         estimate D2E/DX2                !
 ! D101  D(9,10,16,47)         -97.6196         estimate D2E/DX2                !
 ! D102  D(9,10,16,48)         142.0365         estimate D2E/DX2                !
 ! D103  D(11,10,16,7)        -100.1174         estimate D2E/DX2                !
 ! D104  D(11,10,16,47)        141.0958         estimate D2E/DX2                !
 ! D105  D(11,10,16,48)         20.7519         estimate D2E/DX2                !
 ! D106  D(35,10,16,7)         138.8303         estimate D2E/DX2                !
 ! D107  D(35,10,16,47)         20.0435         estimate D2E/DX2                !
 ! D108  D(35,10,16,48)       -100.3004         estimate D2E/DX2                !
 ! D109  D(10,11,12,13)        178.6867         estimate D2E/DX2                !
 ! D110  D(10,11,12,38)         58.2399         estimate D2E/DX2                !
 ! D111  D(10,11,12,39)        -59.4459         estimate D2E/DX2                !
 ! D112  D(36,11,12,13)        -60.3656         estimate D2E/DX2                !
 ! D113  D(36,11,12,38)        179.1876         estimate D2E/DX2                !
 ! D114  D(36,11,12,39)         61.5018         estimate D2E/DX2                !
 ! D115  D(37,11,12,13)         56.28           estimate D2E/DX2                !
 ! D116  D(37,11,12,38)        -64.1668         estimate D2E/DX2                !
 ! D117  D(37,11,12,39)        178.1474         estimate D2E/DX2                !
 ! D118  D(11,12,13,14)       -177.9366         estimate D2E/DX2                !
 ! D119  D(11,12,13,40)         60.4983         estimate D2E/DX2                !
 ! D120  D(11,12,13,41)        -57.1717         estimate D2E/DX2                !
 ! D121  D(38,12,13,14)        -56.0027         estimate D2E/DX2                !
 ! D122  D(38,12,13,40)       -177.5677         estimate D2E/DX2                !
 ! D123  D(38,12,13,41)         64.7623         estimate D2E/DX2                !
 ! D124  D(39,12,13,14)         60.5041         estimate D2E/DX2                !
 ! D125  D(39,12,13,40)        -61.061          estimate D2E/DX2                !
 ! D126  D(39,12,13,41)       -178.731          estimate D2E/DX2                !
 ! D127  D(12,13,14,15)        179.9811         estimate D2E/DX2                !
 ! D128  D(12,13,14,42)         58.9491         estimate D2E/DX2                !
 ! D129  D(12,13,14,43)        -58.7301         estimate D2E/DX2                !
 ! D130  D(40,13,14,15)        -58.6688         estimate D2E/DX2                !
 ! D131  D(40,13,14,42)       -179.7008         estimate D2E/DX2                !
 ! D132  D(40,13,14,43)         62.6201         estimate D2E/DX2                !
 ! D133  D(41,13,14,15)         59.2071         estimate D2E/DX2                !
 ! D134  D(41,13,14,42)        -61.8249         estimate D2E/DX2                !
 ! D135  D(41,13,14,43)       -179.5041         estimate D2E/DX2                !
 ! D136  D(13,14,15,44)        -60.4508         estimate D2E/DX2                !
 ! D137  D(13,14,15,45)        179.6972         estimate D2E/DX2                !
 ! D138  D(13,14,15,46)         59.7855         estimate D2E/DX2                !
 ! D139  D(42,14,15,44)         60.9157         estimate D2E/DX2                !
 ! D140  D(42,14,15,45)        -58.9363         estimate D2E/DX2                !
 ! D141  D(42,14,15,46)       -178.848          estimate D2E/DX2                !
 ! D142  D(43,14,15,44)        178.0772         estimate D2E/DX2                !
 ! D143  D(43,14,15,45)         58.2253         estimate D2E/DX2                !
 ! D144  D(43,14,15,46)        -61.6865         estimate D2E/DX2                !
 --------------------------------------------------------------------------------
 Trust Radius=3.00D-01 FncErr=1.00D-07 GrdErr=1.00D-06 EigMax=2.50D+02 EigMin=1.00D-04
 Number of steps in this run=    288 maximum allowed number of steps=    288.
 GradGradGradGradGradGradGradGradGradGradGradGradGradGradGradGradGradGrad

                          Input orientation:                          
 ---------------------------------------------------------------------
 Center     Atomic      Atomic             Coordinates (Angstroms)
 Number     Number       Type             X           Y           Z
 ---------------------------------------------------------------------
      1          6           0        1.022240    0.047190    0.050080
      2          6           0        2.539990    0.046520    0.053540
      3          6           0        3.078780   -0.802010    1.197790
      4          6           0        4.603670   -0.801030    1.203020
      5          6           0        5.116780   -1.662280    2.346610
      6          6           0        6.640700   -1.699010    2.374950
      7          6           0        7.123540   -2.607290    3.499180
      8          6           0        6.818030   -4.082940    3.265230
      9          6           0        7.711430   -4.793230    4.269460
     10          6           0        8.940360   -3.883330    4.451820
     11          6           0        9.192560   -3.600610    5.937230
     12          6           0       10.454380   -2.767360    6.151740
     13          6           0       10.672820   -2.468320    7.628710
     14          6           0       11.908950   -1.593310    7.813080
     15          6           0       12.140160   -1.285850    9.280050
     16          6           0        8.638590   -2.612450    3.640790
     17          1           0        0.646570    0.660360   -0.773810
     18          1           0        0.630820    0.454230    0.987760
     19          1           0        0.632550   -0.968560   -0.072180
     20          1           0        2.905840    1.075240    0.150040
     21          1           0        2.907330   -0.342520   -0.902860
     22          1           0        2.711200   -1.831630    1.100600
     23          1           0        2.706480   -0.417620    2.155130
     24          1           0        4.979300    0.223550    1.310310
     25          1           0        4.979540   -1.190500    0.249930
     26          1           0        4.717650   -2.676650    2.231520
     27          1           0        4.742430   -1.275560    3.301630
     28          1           0        7.030120   -0.683700    2.526170
     29          1           0        7.027310   -2.047620    1.410750
     30          1           0        6.679060   -2.283220    4.448280
     31          1           0        7.085540   -4.379530    2.245510
     32          1           0        5.762840   -4.326870    3.426030
     33          1           0        7.993640   -5.787340    3.906700
     34          1           0        7.169140   -4.931290    5.211710
     35          1           0        9.826490   -4.376930    4.033440
     36          1           0        9.295340   -4.552350    6.473500
     37          1           0        8.327600   -3.083520    6.373250
     38          1           0       10.387230   -1.816050    5.615870
     39          1           0       11.320530   -3.302370    5.744300
     40          1           0       10.787260   -3.406030    8.184550
     41          1           0        9.793060   -1.953320    8.034620
     42          1           0       11.787820   -0.654220    7.259720
     43          1           0       12.789340   -2.100130    7.400910
     44          1           0       11.285500   -0.748580    9.703300
     45          1           0       13.031030   -0.663100    9.400520
     46          1           0       12.284540   -2.208110    9.851230
     47          1           0        9.123560   -2.681550    2.660750
     48          1           0        8.981550   -1.683240    4.104830
 ---------------------------------------------------------------------
                    Distance matrix (angstroms):
                    1          2          3          4          5
     1  C    0.000000
     2  C    1.517754   0.000000
     3  C    2.503545   1.523025   0.000000
     4  C    3.856863   2.509665   1.524899   0.000000
     5  C    4.996158   3.849417   2.492648   1.520800   0.000000
     6  C    6.326241   5.025101   3.857148   2.515806   1.524626
     7  C    7.494559   6.318550   4.991544   3.858066   2.499709
     8  C    7.809375   6.757886   5.387096   4.463971   3.098017
     9  C    9.272437   8.242630   6.842985   5.915986   4.498045
    10  C    9.875268   8.703639   7.378439   6.233952   4.897421
    11  C   10.710701   9.600836   8.226345   7.162981   5.767292
    12  C   11.580899  10.379958   9.099654   7.911200   6.647570
    13  C   12.525858  11.395198  10.089736   8.994661   7.708428
    14  C   13.471298  12.275053  11.061651   9.883710   8.718981
    15  C   14.511288  13.381590  12.151775  11.057674   9.876343
    16  C    8.830383   7.558532   6.336989   5.050202   3.870513
    17  H    1.093572   2.155539   3.455630   4.658558   5.925745
    18  H    1.094594   2.164238   2.759485   4.171996   5.142949
    19  H    1.094785   2.164375   2.761269   4.174206   5.141995
    20  H    2.148215   1.096095   2.156793   2.740763   4.148155
    21  H    2.147914   1.095898   2.157141   2.742723   4.145177
    22  H    2.736082   2.157103   1.097578   2.157329   2.714413
    23  H    2.735681   2.158663   1.096751   2.157046   2.719446
    24  H    4.156634   2.749735   2.162501   1.096528   2.156194
    25  H    4.151149   2.742297   2.159225   1.096059   2.153480
    26  H    5.082720   4.111138   2.696065   2.142138   1.096128
    27  H    5.114886   4.141102   2.723623   2.156061   1.096245
    28  H    6.539101   5.177682   4.170333   2.766252   2.156555
    29  H    6.503885   5.134538   4.145815   2.733344   2.162047
    30  H    7.534891   6.470960   5.071655   4.127450   2.691338
    31  H    7.821724   6.712427   5.472704   4.477960   3.357035
    32  H    7.280297   6.394294   4.959221   4.326314   2.946622
    33  H    9.875003   8.866965   7.506501   6.607955   5.265579
    34  H    9.445214   8.533132   7.063537   6.301609   4.807016
    35  H   10.628020   9.407422   8.145708   6.933699   5.691756
    36  H   11.439418  10.392317   8.974619   7.991378   6.545540
    37  H   10.156383   9.123175   7.716268   6.768212   5.342576
    38  H   11.052272   9.797339   8.600067   7.345276   6.203979
    39  H   12.235133  10.986250   9.739045   8.485054   7.260903
    40  H   13.170040  12.085152  10.724570   9.683211   8.323254
    41  H   12.028392  10.968319   9.651389   8.656113   7.369244
    42  H   12.975693  11.744889  10.612079   9.397722   8.346113
    43  H   14.039599  12.792229  11.595637  10.349236   9.198143
    44  H   14.112137  13.047375  11.819340  10.812232   9.644109
    45  H   15.236347  14.068814  12.897727  11.757484  10.648538
    46  H   15.099282  14.001226  12.712402  11.651917  10.392018
    47  H    8.938289   7.588366   6.497098   5.107909   4.146309
    48  H    9.098681   7.803763   6.638535   5.325845   4.245966
                    6          7          8          9         10
     6  C    0.000000
     7  C    1.523811   0.000000
     8  C    2.550915   1.524996   0.000000
     9  C    3.782833   2.391083   1.520248   0.000000
    10  C    3.791184   2.415913   2.439698   1.539949   0.000000
    11  C    4.776810   3.348375   3.607024   2.529337   1.532964
    12  C    5.472629   4.261008   4.825529   3.894984   2.535227
    13  C    6.667220   5.446992   6.042049   5.045750   3.885396
    14  C    7.572245   6.522119   7.266269   6.357350   5.035354
    15  C    8.837147   7.767312   8.504519   7.551250   6.348025
    16  C    2.535407   1.521662   2.370195   2.451663   1.537521
    17  H    7.170140   8.419449   8.769245  10.251266  10.804595
    18  H    6.532947   7.604969   8.003396   9.404277   9.993127
    19  H    6.528389   7.587687   7.687511   9.142674   9.898594
    20  H    5.157118   6.524321   7.184460   8.631469   8.916735
    21  H    5.149967   6.502581   6.830614   8.345124   8.809505
    22  H    4.133101   5.081691   5.159464   6.619294   7.364956
    23  H    4.143473   5.109946   5.618873   6.976093   7.493143
    24  H    2.754986   4.171639   5.074298   6.433443   6.513489
    25  H    2.744767   4.142663   4.564897   6.049753   6.371445
    26  H    2.162053   2.720309   2.730898   4.194738   4.921086
    27  H    2.154408   2.735364   3.491536   4.703792   5.074053
    28  H    1.097893   2.157701   3.485115   4.515693   4.194613
    29  H    1.095754   2.164262   2.761417   4.022265   4.034563
    30  H    2.154407   1.096984   2.158220   2.719911   2.770170
    31  H    2.720262   2.171167   1.095151   2.158532   2.924786
    32  H    2.963285   2.194040   1.094890   2.173906   3.368324
    33  H    4.570683   3.322027   2.167607   1.095213   2.195151
    34  H    4.332908   2.887181   2.152152   1.095890   2.193826
    35  H    4.480078   3.274599   3.118879   2.168523   1.097228
    36  H    5.655685   4.164919   4.080491   2.724809   2.158886
    37  H    4.555096   3.152274   3.596864   2.780055   2.169577
    38  H    4.955174   3.969649   4.837715   4.223308   2.778865
    39  H    5.985323   4.810242   5.198806   4.174137   2.770059
    40  H    7.338892   6.001127   6.357099   5.168460   4.191912
    41  H    6.483357   5.303228   6.011087   5.155066   4.157943
    42  H    7.172545   6.301718   7.239536   6.533760   5.139989
    43  H    7.951537   6.897971   7.529404   6.545528   5.166390
    44  H    8.728241   7.698560   8.516161   7.658968   6.550144
    45  H    9.553432   8.573455   9.377551   8.466634   7.182833
    46  H    9.381198   8.194132   8.762027   7.665007   6.568373
    47  H    2.685453   2.169922   2.764916   3.006867   2.164664
    48  H    2.910724   2.161685   3.338309   3.363383   2.227666
                   11         12         13         14         15
    11  C    0.000000
    12  C    1.527256   0.000000
    13  C    2.516814   1.522689   0.000000
    14  C    3.863527   2.500843   1.525665   0.000000
    15  C    5.022042   3.850071   2.505643   1.516572   0.000000
    16  C    2.560660   3.102573   4.479104   5.398324   6.769203
    17  H   11.671669  12.486218  13.450527  14.340673  15.393844
    18  H   10.688422  11.556282  12.388918  13.340676  14.291776
    19  H   10.784918  11.766104  12.742057  13.774064  14.832059
    20  H    9.740533  10.381061  11.349595  12.120203  13.198655
    21  H    9.844089  10.611559  11.730710  12.592111  13.777760
    22  H    8.278303   9.292279  10.315473  11.389152  12.494261
    23  H    8.155056   9.029071   9.880689  10.866467  11.853802
    24  H    7.333768   7.896929   8.921015   9.675073  10.820026
    25  H    7.476868   8.203153   9.407053  10.265487  11.525044
    26  H    5.883095   6.948843   8.039721   9.167455  10.330041
    27  H    5.670617   6.555530   7.437461   8.474264   9.511468
    28  H    4.981952   5.404808   6.518439   7.251330   8.490582
    29  H    5.252533   5.894050   7.220094   8.063909   9.415275
    30  H    3.204711   4.170037   5.108769   6.256964   7.359644
    31  H    4.321463   5.404332   6.745379   7.875668   9.198086
    32  H    4.312373   5.645539   6.724926   8.030767   9.175378
    33  H    3.215937   4.496190   5.661030   6.941134   8.144319
    34  H    2.528105   4.044632   4.917711   6.354135   7.385910
    35  H    2.151501   2.733525   4.157527   5.135256   6.514197
    36  H    1.097250   2.152462   2.752298   4.169095   5.161371
    37  H    1.098022   2.161531   2.730331   4.137621   5.120226
    38  H    2.171443   1.093918   2.135074   2.681973   4.096351
    39  H    2.157412   1.096567   2.160132   2.747176   4.152069
    40  H    2.762495   2.156624   1.096063   2.163824   2.743287
    41  H    2.733717   2.155282   1.097254   2.157702   2.739615
    42  H    4.143135   2.733321   2.161096   1.096709   2.145888
    43  H    4.163007   2.730872   2.160350   1.096283   2.148407
    44  H    5.166987   4.168910   2.763477   2.162219   1.094643
    45  H    5.946192   4.649904   3.458220   2.155068   1.093609
    46  H    5.178686   4.165150   2.757707   2.161736   1.094375
    47  H    3.403638   3.737038   5.208291   5.957279   7.406955
    48  H    2.660549   2.744883   3.986788   4.725344   6.075989
                   16         17         18         19         20
    16  C    0.000000
    17  H    9.699091   0.000000
    18  H    8.975939   1.773659   0.000000
    19  H    8.976926   1.773658   1.774206   0.000000
    20  H    7.658251   2.475869   2.502627   3.065020   0.000000
    21  H    7.657981   2.476582   3.064597   2.501316   1.765968
    22  H    6.495860   3.739803   3.092874   2.537930   3.064530
    23  H    6.497260   3.739513   2.535989   3.092835   2.507740
    24  H    5.183091   4.827723   4.366524   4.714514   2.524052
    25  H    5.187342   4.821655   4.707536   4.364554   3.073075
    26  H    4.167005   6.061463   5.296369   4.991257   4.657456
    27  H    4.133082   6.093691   5.025088   5.326158   4.339567
    28  H    2.747659   7.310682   6.679269   6.910967   5.074401
    29  H    2.808618   7.267689   6.881370   6.652549   5.322420
    30  H    2.144805   8.504459   7.486657   7.663105   6.632595
    31  H    2.735204   8.716485   8.161531   7.658164   7.184386
    32  H    3.354891   8.287782   7.425746   7.059433   6.933783
    33  H    3.250630  10.837871  10.084073   9.655971   9.332374
    34  H    3.162925  10.470765   9.465475   9.292456   8.937261
    35  H    2.163023  11.521930  10.824815  10.630223   9.628206
    36  H    3.495537  12.429685  11.411971  11.433871  10.605736
    37  H    2.790154  11.139808  10.037908  10.258188   9.242246
    38  H    2.755528  11.909705  11.034542  11.323689   9.705980
    39  H    3.477578  13.119543  12.288475  12.389957  11.012094
    40  H    5.088448  14.128741  13.032600  13.312888  12.114120
    41  H    4.590533  12.964492  11.806827  12.272119  10.898283
    42  H    5.181599  13.798303  12.846976  13.352738  11.507743
    43  H    5.624029  14.896081  13.981518  14.314855  12.662609
    44  H    6.872712  14.998059  13.817728  14.460074  12.837827
    45  H    7.501199  16.082394  15.026249  15.606014  13.824351
    46  H    7.212906  16.017551  14.881477  15.355111  13.887170
    47  H    1.095650   9.737758   9.206446   9.082978   7.686168
    48  H    1.093794   9.938082   9.166220   9.362905   7.756535
                   21         22         23         24         25
    21  H    0.000000
    22  H    2.503950   0.000000
    23  H    3.065499   1.763939   0.000000
    24  H    3.084091   3.067902   2.508093   0.000000
    25  H    2.518343   2.506003   3.064952   1.767468   0.000000
    26  H    4.306943   2.453341   3.025534   3.054218   2.490768
    27  H    4.681441   3.046251   2.489099   2.503756   3.062079
    28  H    5.373272   4.690742   4.347681   2.550937   3.105317
    29  H    5.023385   4.332626   4.677668   3.059844   2.505099
    30  H    6.828394   5.211028   4.951807   4.361185   4.659243
    31  H    6.608110   5.190131   5.906019   5.147737   4.311321
    32  H    6.539745   4.576719   5.122378   5.079028   4.531886
    33  H    8.868398   7.171193   7.736663   7.208210   6.602098
    34  H    8.752588   6.810459   7.044944   6.825591   6.588408
    35  H    9.408416   8.106013   8.360546   7.216308   6.925403
    36  H   10.627325   8.923075   8.897044   8.252027   8.286193
    37  H    9.478090   7.804615   7.516419   6.912394   7.231050
    38  H   10.030655   8.905579   8.539687   7.207185   7.643804
    39  H   11.123281   9.891794   9.767588   8.503151   8.651951
    40  H   12.412067  10.857432  10.515869   9.703681  10.079503
    41  H   11.396776   9.912022   9.335223   8.551456   9.184403
    42  H   12.065984  11.032048  10.420343   9.084157   9.786594
    43  H   13.026738  11.888436  11.489696  10.173083  10.628119
    44  H   13.522176  12.194182  11.431710  10.543030  11.372187
    45  H   14.448243  13.294850  12.615557  11.448493  12.199916
    46  H   14.389682  12.975519  12.416724  11.498992  12.107168
    47  H    7.537366   6.653931   6.823485   5.238147   5.020775
    48  H    7.985652   6.954474   6.691758   5.240534   5.578452
                   26         27         28         29         30
    26  H    0.000000
    27  H    1.763180   0.000000
    28  H    3.066951   2.486999   0.000000
    29  H    2.530587   3.064666   1.761944   0.000000
    30  H    2.985957   2.465912   2.525117   3.066492   0.000000
    31  H    2.916659   4.029911   3.706886   2.477503   3.067888
    32  H    2.289651   3.219814   3.960863   3.294726   2.461902
    33  H    4.818167   5.593982   5.374139   4.598811   3.781572
    34  H    4.469311   4.785571   5.027273   4.773150   2.799157
    35  H    5.677862   6.000142   4.871498   4.487716   3.802897
    36  H    6.516739   6.444153   5.973198   6.086795   4.011906
    37  H    5.509193   5.055394   4.716208   5.233569   2.657757
    38  H    6.658723   6.124672   4.700920   5.387552   3.915615
    39  H    7.505276   7.303834   5.968368   6.227824   4.925604
    40  H    8.532920   8.057405   7.317407   7.865549   5.665485
    41  H    7.743317   6.954812   6.291963   7.178713   4.761057
    42  H    8.908441   8.104940   6.711414   7.669059   6.054524
    43  H    9.602455   9.068449   7.677107   8.311785   6.788746
    44  H   10.133193   9.169016   8.344080   9.412017   7.154694
    45  H   11.160700  10.308853   9.125132  10.089498   8.215655
    46  H   10.748829  10.032464   9.142716   9.945146   7.785815
    47  H    4.426771   4.645625   2.896896   2.521633   3.054425
    48  H    4.762037   4.333760   2.701727   3.348118   2.404037
                   31         32         33         34         35
    31  H    0.000000
    32  H    1.773679   0.000000
    33  H    2.359264   2.709333   0.000000
    34  H    3.018240   2.351947   1.765127   0.000000
    35  H    3.272538   4.109100   2.316173   2.959247   0.000000
    36  H    4.773781   4.670811   3.131786   2.501287   2.503355
    37  H    4.501177   4.100002   3.675057   2.470923   3.065011
    38  H    5.369536   5.699526   4.941830   4.497129   3.062127
    39  H    5.597941   6.108346   4.540930   4.491222   2.512743
    40  H    7.065595   6.981136   5.636927   4.924935   4.370062
    41  H    6.836004   6.566241   5.914165   4.870532   4.678081
    42  H    7.818675   8.030313   7.210233   6.619658   5.302289
    43  H    8.019174   8.374350   6.985969   6.662936   5.030125
    44  H    9.297424   9.094397   8.356196   7.390119   6.887739
    45  H   10.017728  10.096748   9.045175   8.374087   7.270981
    46  H    9.465286   9.397069   8.158440   7.423488   6.677759
    47  H    2.684974   3.819315   3.532003   3.922816   2.291877
    48  H    3.784429   4.220147   4.225974   3.880701   2.824002
                   36         37         38         39         40
    36  H    0.000000
    37  H    1.761826   0.000000
    38  H    3.068402   2.534202   0.000000
    39  H    2.489092   3.066122   1.759742   0.000000
    40  H    2.543141   3.071603   3.047323   2.499988   0.000000
    41  H    3.072422   2.486981   2.494440   3.065724   1.766714
    42  H    4.693188   4.319774   2.452294   3.086674   3.070650
    43  H    4.368239   4.682976   3.006194   2.519353   2.515510
    44  H    5.372245   5.028951   4.318966   4.711343   3.101110
    45  H    6.135886   6.094674   4.758419   4.822810   3.746565
    46  H    5.083290   5.340418   4.657442   4.358164   2.540607
    47  H    4.250466   3.818087   3.328466   3.836714   5.814218
    48  H    3.733745   2.744843   2.068047   3.283332   4.782542
                   41         42         43         44         45
    41  H    0.000000
    42  H    2.503437   0.000000
    43  H    3.066078   1.764549   0.000000
    44  H    2.542296   2.496460   3.064184   0.000000
    45  H    3.743635   2.475616   2.474249   1.773657   0.000000
    46  H    3.093940   3.062226   2.504107   1.774878   1.774103
    47  H    5.464158   5.688486   6.020391   7.616290   8.047792
    48  H    4.021783   4.345960   5.053435   6.125736   6.744131
                   46         47         48
    46  H    0.000000
    47  H    7.868859   0.000000
    48  H    6.648785   1.761294   0.000000
 Stoichiometry    C16H32
 Framework group  C1[X(C16H32)]
 Deg. of freedom   138
 Full point group                 C1      NOp   1
 Largest Abelian subgroup         C1      NOp   1
 Largest concise Abelian subgroup C1      NOp   1
                         Standard orientation:                         
 ---------------------------------------------------------------------
 Center     Atomic      Atomic             Coordinates (Angstroms)
 Number     Number       Type             X           Y           Z
 ---------------------------------------------------------------------
      1          6           0       -7.561576   -1.122751   -0.715208
      2          6           0       -6.406689   -1.074673    0.268409
      3          6           0       -5.135919   -0.582555   -0.411713
      4          6           0       -3.974774   -0.536345    0.575670
      5          6           0       -2.721786   -0.032699   -0.123755
      6          6           0       -1.540526    0.042727    0.837192
      7          6           0       -0.314809    0.596022    0.120615
      8          6           0       -0.446404    2.064815   -0.267898
      9          6           0        0.982459    2.477265   -0.583158
     10          6           0        1.877762    1.593630    0.305134
     11          6           0        2.955632    0.895643   -0.532117
     12          6           0        3.908977    0.076857    0.335773
     13          6           0        4.953167   -0.635323   -0.513372
     14          6           0        5.861052   -1.485984    0.369675
     15          6           0        6.907241   -2.202866   -0.461924
     16          6           0        0.925625    0.607761    1.001889
     17          1           0       -8.467614   -1.478805   -0.216990
     18          1           0       -7.337644   -1.799324   -1.546013
     19          1           0       -7.764017   -0.128828   -1.127140
     20          1           0       -6.240722   -2.074190    0.686554
     21          1           0       -6.663695   -0.410573    1.101422
     22          1           0       -5.303483    0.417969   -0.830704
     23          1           0       -4.881309   -1.242647   -1.249756
     24          1           0       -3.793902   -1.534760    0.991392
     25          1           0       -4.223148    0.127467    1.411737
     26          1           0       -2.927120    0.957500   -0.546651
     27          1           0       -2.470583   -0.694402   -0.960893
     28          1           0       -1.320012   -0.959283    1.227985
     29          1           0       -1.794581    0.671103    1.698166
     30          1           0       -0.110078   -0.006324   -0.773051
     31          1           0       -0.834530    2.655980    0.568306
     32          1           0       -1.105737    2.216999   -1.128655
     33          1           0        1.135456    3.542541   -0.380004
     34          1           0        1.186110    2.315343   -1.647715
     35          1           0        2.370479    2.216303    1.062378
     36          1           0        3.530411    1.650875   -1.082765
     37          1           0        2.486141    0.246027   -1.282601
     38          1           0        3.361580   -0.676943    0.909182
     39          1           0        4.400343    0.735246    1.062094
     40          1           0        5.546749    0.101132   -1.067130
     41          1           0        4.453859   -1.274579   -1.252297
     42          1           0        5.263716   -2.224699    0.917635
     43          1           0        6.355531   -0.852686    1.115505
     44          1           0        6.434160   -2.867687   -1.191616
     45          1           0        7.555069   -2.804778    0.181505
     46          1           0        7.530613   -1.484718   -1.003521
     47          1           0        0.689432    0.976872    2.006090
     48          1           0        1.321942   -0.405271    1.116276
 ---------------------------------------------------------------------
 Rotational constants (GHZ):           1.0652264           0.1190951           0.1114669
 Standard basis: 6-31G(2df,p) (6D, 7F)
 There are   656 symmetry adapted cartesian basis functions of A   symmetry.
 There are   608 symmetry adapted basis functions of A   symmetry.
   608 basis functions,   928 primitive gaussians,   656 cartesian basis functions
    64 alpha electrons       64 beta electrons
       nuclear repulsion energy      1092.9204523114 Hartrees.
 NAtoms=   48 NActive=   48 NUniq=   48 SFac= 1.00D+00 NAtFMM=   60 NAOKFM=F Big=F
 Integral buffers will be    131072 words long.
 Raffenetti 2 integral format.
 Two-electron integral symmetry is turned on.
 One-electron integrals computed using PRISM.
 PrsmSu:  requested number of processors reduced to:  12 ShMem   1 Linda.
 NBasis=   608 RedAO= T EigKep=  4.33D-04  NBF=   608
 NBsUse=   608 1.00D-06 EigRej= -1.00D+00 NBFU=   608
 ExpMin= 1.61D-01 ExpMax= 3.05D+03 ExpMxC= 4.57D+02 IAcc=3 IRadAn=         5 AccDes= 0.00D+00
 Harris functional with IExCor=  402 and IRadAn=       5 diagonalized for initial guess.
 HarFok:  IExCor=  402 AccDes= 0.00D+00 IRadAn=         5 IDoV= 1 UseB2=F ITyADJ=14
 ICtDFT=  3500011 ScaDFX=  1.000000  1.000000  1.000000  1.000000
 FoFCou: FMM=F IPFlag=           0 FMFlag=      100000 FMFlg1=           0
         NFxFlg=           0 DoJE=T BraDBF=F KetDBF=T FulRan=T
         wScrn=  0.000000 ICntrl=       500 IOpCl=  0 I1Cent=   200000004 NGrid=           0
         NMat0=    1 NMatS0=      1 NMatT0=    0 NMatD0=    1 NMtDS0=    0 NMtDT0=    0
 Petite list used in FoFCou.
 Requested convergence on RMS density matrix=1.00D-08 within 128 cycles.
 Requested convergence on MAX density matrix=1.00D-06.
 Requested convergence on             energy=1.00D-06.
 No special actions if energy rises.
 Integral accuracy reduced to 1.0D-05 until final iterations.
 Initial convergence to 1.0D-05 achieved.  Increase integral accuracy.
 SCF Done:  E(RB3LYP) =  -629.050552600     A.U. after   12 cycles
            NFock= 12  Conv=0.23D-08     -V/T= 2.0085

 **********************************************************************

            Population analysis using the SCF density.

 **********************************************************************

 Orbital symmetries:
       Occupied  (A) (A) (A) (A) (A) (A) (A) (A) (A) (A) (A) (A)
                 (A) (A) (A) (A) (A) (A) (A) (A) (A) (A) (A) (A)
                 (A) (A) (A) (A) (A) (A) (A) (A) (A) (A) (A) (A)
                 (A) (A) (A) (A) (A) (A) (A) (A) (A) (A) (A) (A)
                 (A) (A) (A) (A) (A) (A) (A) (A) (A) (A) (A) (A)
                 (A) (A) (A) (A)
       Virtual   (A) (A) (A) (A) (A) (A) (A) (A) (A) (A) (A) (A)
                 (A) (A) (A) (A) (A) (A) (A) (A) (A) (A) (A) (A)
                 (A) (A) (A) (A) (A) (A) (A) (A) (A) (A) (A) (A)
                 (A) (A) (A) (A) (A) (A) (A) (A) (A) (A) (A) (A)
                 (A) (A) (A) (A) (A) (A) (A) (A) (A) (A) (A) (A)
                 (A) (A) (A) (A) (A) (A) (A) (A) (A) (A) (A) (A)
                 (A) (A) (A) (A) (A) (A) (A) (A) (A) (A) (A) (A)
                 (A) (A) (A) (A) (A) (A) (A) (A) (A) (A) (A) (A)
                 (A) (A) (A) (A) (A) (A) (A) (A) (A) (A) (A) (A)
                 (A) (A) (A) (A) (A) (A) (A) (A) (A) (A) (A) (A)
                 (A) (A) (A) (A) (A) (A) (A) (A) (A) (A) (A) (A)
                 (A) (A) (A) (A) (A) (A) (A) (A) (A) (A) (A) (A)
                 (A) (A) (A) (A) (A) (A) (A) (A) (A) (A) (A) (A)
                 (A) (A) (A) (A) (A) (A) (A) (A) (A) (A) (A) (A)
                 (A) (A) (A) (A) (A) (A) (A) (A) (A) (A) (A) (A)
                 (A) (A) (A) (A) (A) (A) (A) (A) (A) (A) (A) (A)
                 (A) (A) (A) (A) (A) (A) (A) (A) (A) (A) (A) (A)
                 (A) (A) (A) (A) (A) (A) (A) (A) (A) (A) (A) (A)
                 (A) (A) (A) (A) (A) (A) (A) (A) (A) (A) (A) (A)
                 (A) (A) (A) (A) (A) (A) (A) (A) (A) (A) (A) (A)
                 (A) (A) (A) (A) (A) (A) (A) (A) (A) (A) (A) (A)
                 (A) (A) (A) (A) (A) (A) (A) (A) (A) (A) (A) (A)
                 (A) (A) (A) (A) (A) (A) (A) (A) (A) (A) (A) (A)
                 (A) (A) (A) (A) (A) (A) (A) (A) (A) (A) (A) (A)
                 (A) (A) (A) (A) (A) (A) (A) (A) (A) (A) (A) (A)
                 (A) (A) (A) (A) (A) (A) (A) (A) (A) (A) (A) (A)
                 (A) (A) (A) (A) (A) (A) (A) (A) (A) (A) (A) (A)
                 (A) (A) (A) (A) (A) (A) (A) (A) (A) (A) (A) (A)
                 (A) (A) (A) (A) (A) (A) (A) (A) (A) (A) (A) (A)
                 (A) (A) (A) (A) (A) (A) (A) (A) (A) (A) (A) (A)
                 (A) (A) (A) (A) (A) (A) (A) (A) (A) (A) (A) (A)
                 (A) (A) (A) (A) (A) (A) (A) (A) (A) (A) (A) (A)
                 (A) (A) (A) (A) (A) (A) (A) (A) (A) (A) (A) (A)
                 (A) (A) (A) (A) (A) (A) (A) (A) (A) (A) (A) (A)
                 (A) (A) (A) (A) (A) (A) (A) (A) (A) (A) (A) (A)
                 (A) (A) (A) (A) (A) (A) (A) (A) (A) (A) (A) (A)
                 (A) (A) (A) (A) (A) (A) (A) (A) (A) (A) (A) (A)
                 (A) (A) (A) (A) (A) (A) (A) (A) (A) (A) (A) (A)
                 (A) (A) (A) (A) (A) (A) (A) (A) (A) (A) (A) (A)
                 (A) (A) (A) (A) (A) (A) (A) (A) (A) (A) (A) (A)
                 (A) (A) (A) (A) (A) (A) (A) (A) (A) (A) (A) (A)
                 (A) (A) (A) (A) (A) (A) (A) (A) (A) (A) (A) (A)
                 (A) (A) (A) (A) (A) (A) (A) (A) (A) (A) (A) (A)
                 (A) (A) (A) (A) (A) (A) (A) (A) (A) (A) (A) (A)
                 (A) (A) (A) (A) (A) (A) (A) (A) (A) (A) (A) (A)
                 (A) (A) (A) (A)
 The electronic state is 1-A.
 Alpha  occ. eigenvalues --  -10.17018 -10.16963 -10.16958 -10.16876 -10.16784
 Alpha  occ. eigenvalues --  -10.16761 -10.16722 -10.16655 -10.16588 -10.16581
 Alpha  occ. eigenvalues --  -10.16552 -10.16493 -10.16486 -10.16414 -10.16353
 Alpha  occ. eigenvalues --  -10.16157  -0.84367  -0.80590  -0.79818  -0.77270
 Alpha  occ. eigenvalues --   -0.75133  -0.72267  -0.70200  -0.68311  -0.64759
 Alpha  occ. eigenvalues --   -0.62052  -0.58779  -0.57705  -0.57181  -0.57064
 Alpha  occ. eigenvalues --   -0.55081  -0.53472  -0.47953  -0.47731  -0.46872
 Alpha  occ. eigenvalues --   -0.46001  -0.44432  -0.42770  -0.42475  -0.41867
 Alpha  occ. eigenvalues --   -0.41455  -0.40242  -0.39685  -0.39509  -0.38386
 Alpha  occ. eigenvalues --   -0.37363  -0.36852  -0.35289  -0.34966  -0.34226
 Alpha  occ. eigenvalues --   -0.33801  -0.33651  -0.32885  -0.32633  -0.32519
 Alpha  occ. eigenvalues --   -0.32288  -0.31992  -0.31936  -0.31378  -0.30928
 Alpha  occ. eigenvalues --   -0.30395  -0.30016  -0.28084  -0.27435
 Alpha virt. eigenvalues --    0.08254   0.09048   0.09302   0.09688   0.10681
 Alpha virt. eigenvalues --    0.11491   0.11740   0.12102   0.12712   0.12974
 Alpha virt. eigenvalues --    0.13661   0.14615   0.15295   0.15940   0.16207
 Alpha virt. eigenvalues --    0.16461   0.17124   0.17887   0.18067   0.18420
 Alpha virt. eigenvalues --    0.18617   0.19251   0.19426   0.19853   0.19977
 Alpha virt. eigenvalues --    0.20329   0.20634   0.20790   0.21156   0.21630
 Alpha virt. eigenvalues --    0.21849   0.22077   0.23281   0.23405   0.23709
 Alpha virt. eigenvalues --    0.24153   0.24890   0.25723   0.26259   0.26832
 Alpha virt. eigenvalues --    0.27596   0.28740   0.30314   0.30498   0.31317
 Alpha virt. eigenvalues --    0.32348   0.33748   0.35263   0.42925   0.43856
 Alpha virt. eigenvalues --    0.46381   0.47438   0.47735   0.48972   0.49407
 Alpha virt. eigenvalues --    0.50759   0.51108   0.51945   0.52627   0.52702
 Alpha virt. eigenvalues --    0.53229   0.53364   0.53850   0.55139   0.55681
 Alpha virt. eigenvalues --    0.56213   0.57061   0.57598   0.57865   0.58682
 Alpha virt. eigenvalues --    0.60012   0.60231   0.60451   0.62066   0.62132
 Alpha virt. eigenvalues --    0.62756   0.62885   0.63812   0.64681   0.65286
 Alpha virt. eigenvalues --    0.66256   0.66607   0.67365   0.67948   0.68504
 Alpha virt. eigenvalues --    0.69916   0.70389   0.70730   0.71817   0.72824
 Alpha virt. eigenvalues --    0.73247   0.73448   0.73744   0.74115   0.74274
 Alpha virt. eigenvalues --    0.74921   0.75066   0.75790   0.76111   0.77061
 Alpha virt. eigenvalues --    0.77439   0.77996   0.78715   0.78947   0.79098
 Alpha virt. eigenvalues --    0.79218   0.80011   0.80077   0.80477   0.80790
 Alpha virt. eigenvalues --    0.81258   0.82066   0.82549   0.82889   0.83113
 Alpha virt. eigenvalues --    0.83618   0.85037   0.85431   0.86217   0.86611
 Alpha virt. eigenvalues --    0.86776   0.87979   0.88256   0.88860   0.89189
 Alpha virt. eigenvalues --    0.89846   0.90907   0.90993   0.92000   0.93689
 Alpha virt. eigenvalues --    0.99341   1.03704   1.04149   1.06747   1.07551
 Alpha virt. eigenvalues --    1.09499   1.10167   1.11777   1.12660   1.14144
 Alpha virt. eigenvalues --    1.17744   1.18466   1.19364   1.20069   1.20606
 Alpha virt. eigenvalues --    1.21099   1.22067   1.22487   1.22784   1.23435
 Alpha virt. eigenvalues --    1.24125   1.24955   1.25308   1.25989   1.28631
 Alpha virt. eigenvalues --    1.29938   1.33767   1.34231   1.34424   1.36180
 Alpha virt. eigenvalues --    1.36936   1.37484   1.38056   1.39383   1.39981
 Alpha virt. eigenvalues --    1.40461   1.41412   1.42062   1.42676   1.46151
 Alpha virt. eigenvalues --    1.46649   1.48037   1.49586   1.50435   1.50785
 Alpha virt. eigenvalues --    1.53346   1.54283   1.54722   1.55356   1.56330
 Alpha virt. eigenvalues --    1.56769   1.57910   1.59812   1.60716   1.61195
 Alpha virt. eigenvalues --    1.61537   1.62549   1.64162   1.65862   1.67362
 Alpha virt. eigenvalues --    1.68016   1.69012   1.70430   1.71420   1.72096
 Alpha virt. eigenvalues --    1.73546   1.74687   1.76433   1.77344   1.80239
 Alpha virt. eigenvalues --    1.80675   1.82466   1.82969   1.84411   1.84805
 Alpha virt. eigenvalues --    1.85738   1.86241   1.87783   1.89351   1.89640
 Alpha virt. eigenvalues --    1.90171   1.91051   1.91733   1.92803   1.93851
 Alpha virt. eigenvalues --    1.94230   1.94586   1.94912   1.96649   1.97303
 Alpha virt. eigenvalues --    1.97790   1.99570   2.01699   2.05513   2.05711
 Alpha virt. eigenvalues --    2.14141   2.14482   2.16702   2.17047   2.18633
 Alpha virt. eigenvalues --    2.19348   2.19611   2.20542   2.20878   2.21324
 Alpha virt. eigenvalues --    2.22016   2.23727   2.23840   2.25125   2.28233
 Alpha virt. eigenvalues --    2.29462   2.31535   2.31958   2.32850   2.33266
 Alpha virt. eigenvalues --    2.34734   2.35245   2.35791   2.37262   2.39025
 Alpha virt. eigenvalues --    2.40611   2.41033   2.41743   2.42038   2.44956
 Alpha virt. eigenvalues --    2.46235   2.48524   2.50558   2.52326   2.54201
 Alpha virt. eigenvalues --    2.54473   2.57186   2.59372   2.62604   2.64501
 Alpha virt. eigenvalues --    2.65495   2.66105   2.68046   2.70961   2.72681
 Alpha virt. eigenvalues --    2.73619   2.74353   2.74699   2.74870   2.75668
 Alpha virt. eigenvalues --    2.76062   2.76360   2.76998   2.77629   2.78387
 Alpha virt. eigenvalues --    2.78499   2.79212   2.79571   2.80761   2.81055
 Alpha virt. eigenvalues --    2.82515   2.83023   2.83271   2.83632   2.84013
 Alpha virt. eigenvalues --    2.84067   2.84562   2.85571   2.86837   2.87265
 Alpha virt. eigenvalues --    2.87670   2.88652   2.89151   2.89721   2.90538
 Alpha virt. eigenvalues --    2.91490   2.91903   2.92805   2.93085   2.93736
 Alpha virt. eigenvalues --    2.94249   2.95084   2.95594   2.95718   2.96226
 Alpha virt. eigenvalues --    2.97198   2.97779   2.98204   2.99969   3.00534
 Alpha virt. eigenvalues --    3.02065   3.02495   3.03359   3.03955   3.05847
 Alpha virt. eigenvalues --    3.06141   3.08488   3.11637   3.12440   3.12602
 Alpha virt. eigenvalues --    3.15670   3.16220   3.17628   3.19464   3.19866
 Alpha virt. eigenvalues --    3.22697   3.23125   3.23809   3.24445   3.24852
 Alpha virt. eigenvalues --    3.26705   3.27242   3.27839   3.29913   3.30921
 Alpha virt. eigenvalues --    3.32453   3.33519   3.36790   3.37466   3.38487
 Alpha virt. eigenvalues --    3.38821   3.40082   3.41479   3.43608   3.44586
 Alpha virt. eigenvalues --    3.45814   3.47469   3.48297   3.50946   3.51853
 Alpha virt. eigenvalues --    3.52572   3.53665   3.54497   3.54919   3.55163
 Alpha virt. eigenvalues --    3.55557   3.56639   3.57994   3.58088   3.59543
 Alpha virt. eigenvalues --    3.60366   3.61655   3.62026   3.62291   3.62887
 Alpha virt. eigenvalues --    3.63840   3.64466   3.66706   3.66929   3.69964
 Alpha virt. eigenvalues --    3.70571   3.73186   3.73621   3.74469   3.74959
 Alpha virt. eigenvalues --    3.75455   3.76176   3.77047   3.79588   3.80091
 Alpha virt. eigenvalues --    3.80447   3.80717   3.82003   3.82238   3.82441
 Alpha virt. eigenvalues --    3.83774   3.85085   3.87655   3.88246   3.89925
 Alpha virt. eigenvalues --    3.91034   3.91803   3.95524   3.97289   3.99475
 Alpha virt. eigenvalues --    4.00606   4.02982   4.04912   4.10322   4.12406
 Alpha virt. eigenvalues --    4.15405   4.19814   4.25247   4.26597   4.32614
 Alpha virt. eigenvalues --    4.33299   4.38320   4.38703   4.39428   4.41476
 Alpha virt. eigenvalues --    4.42559   4.42897   4.43899   4.44018   4.45631
 Alpha virt. eigenvalues --    4.46097   4.48266   4.50072   4.50648   4.51440
 Alpha virt. eigenvalues --    4.51726   4.52431   4.52914   4.53342   4.54863
 Alpha virt. eigenvalues --    4.55003   4.56431   4.56543   4.57321   4.57851
 Alpha virt. eigenvalues --    4.58384   4.59027   4.59815   4.60404   4.60789
 Alpha virt. eigenvalues --    4.61523   4.62139   4.63088   4.63759   4.64197
 Alpha virt. eigenvalues --    4.64418   4.64959   4.65673   4.66080   4.66805
 Alpha virt. eigenvalues --    4.67279   4.67650   4.68670   4.69762   4.69850
 Alpha virt. eigenvalues --    4.71510   4.72175   4.73135   4.73511   4.74226
 Alpha virt. eigenvalues --    4.75091   4.75761   4.77429   4.77911   4.78259
 Alpha virt. eigenvalues --    4.79129   4.79374   4.80918   4.81354   4.82533
 Alpha virt. eigenvalues --    4.83651   4.84545   4.84812   4.85232   4.85715
 Alpha virt. eigenvalues --    4.86438   4.87148   4.87726   4.88828   4.90135
 Alpha virt. eigenvalues --    4.90845   4.92160   4.92424   4.93099   4.93744
 Alpha virt. eigenvalues --    4.94642   4.96029   4.96560   4.96960   4.97311
 Alpha virt. eigenvalues --    4.97870   4.99374   5.00156   5.01533   5.03800
 Alpha virt. eigenvalues --    5.04982   5.10976   5.12060   5.15668   5.19848
 Alpha virt. eigenvalues --    5.21451   5.22793   5.25431   5.26456   5.28439
 Alpha virt. eigenvalues --    5.31539   5.34997   5.35536   5.40660   5.42646
 Alpha virt. eigenvalues --    5.44905   5.46840   5.49303   5.49454   5.50686
 Alpha virt. eigenvalues --    5.51364   5.55265   5.56352   5.60777   5.64762
 Alpha virt. eigenvalues --    5.69588   5.72933   5.79520   5.82448   6.11164
 Alpha virt. eigenvalues --    6.25290   6.60305   7.08204  11.11030  11.17740
 Alpha virt. eigenvalues --   11.34331  11.54663  11.65573  11.85597  11.94632
 Alpha virt. eigenvalues --   12.06447  12.16066  12.20744  12.32569  12.37471
 Alpha virt. eigenvalues --   12.53731  12.59364  12.83620  13.05773
          Condensed to atoms (all electrons):
               1          2          3          4          5          6
     1  C    4.956156   0.404086  -0.036533   0.002428  -0.000171   0.000001
     2  C    0.404086   4.775167   0.430089  -0.034201   0.002130  -0.000166
     3  C   -0.036533   0.430089   4.773381   0.428393  -0.034851   0.002136
     4  C    0.002428  -0.034201   0.428393   4.814028   0.421629  -0.038034
     5  C   -0.000171   0.002130  -0.034851   0.421629   4.801639   0.425182
     6  C    0.000001  -0.000166   0.002136  -0.038034   0.425182   4.875997
     7  C   -0.000000   0.000001  -0.000133   0.001910  -0.029754   0.427852
     8  C    0.000000   0.000000   0.000004   0.000356  -0.004008  -0.026687
     9  C   -0.000000  -0.000000  -0.000000  -0.000008   0.000329   0.003043
    10  C   -0.000000   0.000000  -0.000000   0.000002  -0.000175   0.002949
    11  C    0.000000  -0.000000   0.000000   0.000000   0.000003   0.000090
    12  C    0.000000  -0.000000   0.000000  -0.000000   0.000000   0.000001
    13  C    0.000000   0.000000  -0.000000   0.000000  -0.000000   0.000000
    14  C    0.000000   0.000000  -0.000000   0.000000  -0.000000  -0.000000
    15  C    0.000000   0.000000  -0.000000  -0.000000  -0.000000   0.000000
    16  C    0.000000  -0.000000   0.000001  -0.000173   0.002437  -0.032945
    17  H    0.369940  -0.021952   0.003461  -0.000181   0.000001  -0.000000
    18  H    0.378920  -0.029084  -0.004594   0.000193   0.000006   0.000000
    19  H    0.378843  -0.029040  -0.004543   0.000194   0.000006   0.000000
    20  H   -0.036239   0.370401  -0.033102  -0.002413   0.000190   0.000009
    21  H   -0.036286   0.370309  -0.032789  -0.002539   0.000208   0.000009
    22  H   -0.002677  -0.035833   0.364723  -0.031966  -0.003046   0.000192
    23  H   -0.002741  -0.036041   0.365300  -0.032553  -0.002302   0.000188
    24  H    0.000105  -0.003165  -0.031810   0.361873  -0.031202  -0.002356
    25  H    0.000106  -0.003342  -0.032274   0.362382  -0.031062  -0.002976
    26  H    0.000008   0.000156  -0.003135  -0.032736   0.364534  -0.033476
    27  H    0.000007   0.000131  -0.003254  -0.033357   0.362330  -0.033378
    28  H    0.000000   0.000009   0.000119  -0.002511  -0.031587   0.350382
    29  H    0.000000   0.000006   0.000151  -0.003897  -0.032390   0.352516
    30  H    0.000000   0.000000   0.000005   0.000170  -0.005130  -0.045444
    31  H    0.000000  -0.000000   0.000001  -0.000036  -0.000472  -0.007142
    32  H    0.000000  -0.000000   0.000001  -0.000037  -0.000676   0.000110
    33  H    0.000000   0.000000   0.000000   0.000000   0.000002  -0.000195
    34  H    0.000000  -0.000000  -0.000000  -0.000000  -0.000018  -0.000009
    35  H    0.000000  -0.000000   0.000000  -0.000000   0.000001  -0.000211
    36  H   -0.000000   0.000000  -0.000000   0.000000  -0.000000  -0.000002
    37  H    0.000000  -0.000000   0.000000  -0.000000  -0.000000  -0.000095
    38  H   -0.000000   0.000000  -0.000000   0.000000   0.000000  -0.000003
    39  H    0.000000   0.000000  -0.000000  -0.000000  -0.000000  -0.000000
    40  H    0.000000   0.000000   0.000000  -0.000000   0.000000  -0.000000
    41  H   -0.000000   0.000000  -0.000000   0.000000   0.000000  -0.000000
    42  H    0.000000  -0.000000  -0.000000  -0.000000  -0.000000  -0.000000
    43  H    0.000000   0.000000  -0.000000   0.000000   0.000000  -0.000000
    44  H    0.000000   0.000000   0.000000   0.000000   0.000000  -0.000000
    45  H    0.000000   0.000000   0.000000   0.000000   0.000000  -0.000000
    46  H    0.000000   0.000000   0.000000  -0.000000  -0.000000  -0.000000
    47  H    0.000000   0.000000   0.000000   0.000007   0.000250  -0.008306
    48  H   -0.000000   0.000000   0.000000   0.000004   0.000001   0.000027
               7          8          9         10         11         12
     1  C   -0.000000   0.000000  -0.000000  -0.000000   0.000000   0.000000
     2  C    0.000001   0.000000  -0.000000   0.000000  -0.000000  -0.000000
     3  C   -0.000133   0.000004  -0.000000  -0.000000   0.000000   0.000000
     4  C    0.001910   0.000356  -0.000008   0.000002   0.000000  -0.000000
     5  C   -0.029754  -0.004008   0.000329  -0.000175   0.000003   0.000000
     6  C    0.427852  -0.026687   0.003043   0.002949   0.000090   0.000001
     7  C    4.585746   0.418354  -0.053305  -0.035579  -0.001191   0.000203
     8  C    0.418354   4.900517   0.393902  -0.049366  -0.000133  -0.000094
     9  C   -0.053305   0.393902   4.957635   0.405780  -0.029170   0.002615
    10  C   -0.035579  -0.049366   0.405780   4.652335   0.420624  -0.032327
    11  C   -0.001191  -0.000133  -0.029170   0.420624   4.856964   0.429796
    12  C    0.000203  -0.000094   0.002615  -0.032327   0.429796   4.805338
    13  C   -0.000016   0.000002  -0.000151   0.002178  -0.035373   0.424291
    14  C    0.000000  -0.000000   0.000001  -0.000142   0.002188  -0.033029
    15  C   -0.000000   0.000000  -0.000000   0.000001  -0.000173   0.002327
    16  C    0.412459  -0.056438  -0.060668   0.404453  -0.022212  -0.006628
    17  H    0.000000  -0.000000  -0.000000   0.000000  -0.000000  -0.000000
    18  H    0.000000   0.000000   0.000000   0.000000  -0.000000  -0.000000
    19  H    0.000000   0.000000  -0.000000   0.000000  -0.000000   0.000000
    20  H    0.000000  -0.000000  -0.000000   0.000000  -0.000000   0.000000
    21  H    0.000000   0.000000   0.000000  -0.000000   0.000000   0.000000
    22  H    0.000017  -0.000010   0.000000   0.000000  -0.000000  -0.000000
    23  H    0.000010   0.000001   0.000000   0.000000   0.000000   0.000000
    24  H    0.000146   0.000002   0.000000  -0.000000  -0.000000  -0.000000
    25  H    0.000285  -0.000008  -0.000000   0.000000  -0.000000   0.000000
    26  H   -0.004183   0.002378  -0.000108   0.000006  -0.000000   0.000000
    27  H   -0.001943  -0.000822  -0.000023   0.000008  -0.000001   0.000000
    28  H   -0.024183   0.005108  -0.000215   0.000101  -0.000009  -0.000002
    29  H   -0.020684  -0.011723   0.000260   0.000102   0.000003   0.000000
    30  H    0.361785  -0.050285   0.003622  -0.000829   0.001145   0.000080
    31  H   -0.029398   0.357339  -0.025979  -0.000824   0.000068   0.000007
    32  H   -0.024221   0.360585  -0.026977   0.004396  -0.000111   0.000000
    33  H    0.004432  -0.023086   0.351652  -0.019871   0.002960  -0.000174
    34  H   -0.000741  -0.029207   0.364460  -0.031208  -0.014190   0.000446
    35  H    0.003034   0.005665  -0.040990   0.358345  -0.050003  -0.005563
    36  H    0.000076   0.000069  -0.004703  -0.025194   0.354680  -0.032093
    37  H    0.000339   0.000537  -0.004490  -0.028207   0.354804  -0.034302
    38  H    0.000203   0.000017   0.000060  -0.003029  -0.032996   0.364322
    39  H    0.000025   0.000000   0.000104  -0.001915  -0.032454   0.360606
    40  H    0.000001  -0.000000  -0.000001   0.000134  -0.001949  -0.031798
    41  H   -0.000001   0.000000   0.000004   0.000277  -0.002939  -0.032119
    42  H    0.000000  -0.000000   0.000000   0.000012   0.000179  -0.003157
    43  H    0.000000   0.000000   0.000000   0.000008   0.000192  -0.001982
    44  H    0.000000  -0.000000   0.000000   0.000000   0.000006   0.000213
    45  H    0.000000  -0.000000   0.000000  -0.000000   0.000001  -0.000177
    46  H   -0.000000  -0.000000   0.000000   0.000000   0.000005   0.000194
    47  H   -0.028341  -0.004968   0.002640  -0.020582   0.004621   0.000382
    48  H   -0.022284   0.006456   0.005620  -0.030126  -0.010138  -0.002085
              13         14         15         16         17         18
     1  C    0.000000   0.000000   0.000000   0.000000   0.369940   0.378920
     2  C    0.000000   0.000000   0.000000  -0.000000  -0.021952  -0.029084
     3  C   -0.000000  -0.000000  -0.000000   0.000001   0.003461  -0.004594
     4  C    0.000000   0.000000  -0.000000  -0.000173  -0.000181   0.000193
     5  C   -0.000000  -0.000000  -0.000000   0.002437   0.000001   0.000006
     6  C    0.000000  -0.000000   0.000000  -0.032945  -0.000000   0.000000
     7  C   -0.000016   0.000000  -0.000000   0.412459   0.000000   0.000000
     8  C    0.000002  -0.000000   0.000000  -0.056438  -0.000000   0.000000
     9  C   -0.000151   0.000001  -0.000000  -0.060668  -0.000000   0.000000
    10  C    0.002178  -0.000142   0.000001   0.404453   0.000000   0.000000
    11  C   -0.035373   0.002188  -0.000173  -0.022212  -0.000000  -0.000000
    12  C    0.424291  -0.033029   0.002327  -0.006628  -0.000000  -0.000000
    13  C    4.784837   0.431110  -0.037111   0.000343   0.000000  -0.000000
    14  C    0.431110   4.770360   0.403716   0.000005   0.000000   0.000000
    15  C   -0.037111   0.403716   4.957153   0.000000   0.000000   0.000000
    16  C    0.000343   0.000005   0.000000   4.976908  -0.000000   0.000000
[...]
 ,0.00003124,0.00004388,0.00002220,0.00001728,0.00000494,0.00040036,0.0
 0034299,0.00036127,0.00045576,0.00016165,0.00433573,0.00197780,0.00017
 544,-0.12790967,-0.14827125,-0.00285633,-0.00000645,-0.00000684,-0.000
 00367,-0.00000136,0.00000098,-0.00000165,-0.00000010,-0.00000027,0.000
 00025,-0.00000011,-0.00000049,0.00000017,-0.00000005,0.00000022,-0.000
 00024,0.00000013,0.00000020,-0.00000040,-0.00000025,-0.00000007,0.0000
 0006,-0.00000010,-0.00000014,-0.00000017,-0.00000015,0.00000056,-0.000
 00029,0.00000021,0.00000008,-0.00000070,0.00000004,-0.00000028,0.00000
 044,-0.00000051,0.00000007,0.00000005,-0.00000006,0.00000126,-0.000000
 42,-0.00000015,-0.00000016,-0.00000069,-0.00000438,0.00000006,-0.00000
 010,0.00000144,0.00000107,-0.00000406,-0.00000823,-0.00000202,-0.00000
 434,-0.00000116,-0.00000163,-0.00000017,0.00000118,-0.00000043,-0.0000
 0010,-0.00000002,0.00000242,-0.00000436,-0.00000618,-0.00000093,0.0000
 0819,-0.00000519,-0.00000447,0.00000047,-0.00005913,0.00001104,-0.0001
 1009,0.00001854,-0.00001276,-0.00000993,0.00022484,0.00054287,0.000134
 71,-0.00013963,-0.00008520,0.00011452,-0.00000857,0.00062894,-0.000536
 99,-0.00011594,-0.00003975,-0.00042381,0.00705932,0.00479839,0.0005910
 7,0.14060267,0.15786185,0.00000115,0.00000212,-0.00000151,-0.00000294,
 -0.00000411,0.00000200,0.00000382,0.00000489,-0.00000298,-0.00000600,-
 0.00000654,0.00000381,0.00000604,0.00000677,-0.00000800,-0.00001005,-0
 .00001197,0.00000897,0.00002047,0.00000179,-0.00000504,-0.00003283,-0.
 00003107,0.00000877,-0.00001810,0.00006182,-0.00009246,-0.00014986,-0.
 00019015,0.00012629,-0.00013515,0.00026520,-0.00067666,-0.00148248,-0.
 00124365,0.00068916,-0.00157524,0.00203250,-0.00566067,-0.02376312,-0.
 01984604,-0.00004809,-0.00210724,-0.00208020,-0.04640739,-0.00000355,-
 0.00003517,-0.00000325,-0.00000190,0.00000096,-0.00000200,-0.00000029,
 -0.00000041,0.00000050,-0.00000007,-0.00000046,0.00000034,-0.00000009,
 0.00000098,-0.00000007,0.00000019,0.00000013,-0.00000060,-0.00000023,0
 .00000001,0.00000012,-0.00000052,-0.00000012,0.00000003,-0.00000040,0.
 00000219,-0.00000044,0.00000042,0.00000013,-0.00000130,0.00000085,0.00
 000066,0.00000183,-0.00000112,0.00000003,0.00000039,-0.00000077,0.0000
 0531,-0.00000081,0.00000001,-0.00000071,-0.00000142,-0.00000977,0.0000
 0074,0.00000052,0.00000266,0.00000184,-0.00000587,-0.00002253,0.000002
 51,-0.00001597,-0.00000301,-0.00000828,-0.00000424,-0.00000010,0.00000
 186,0.00000539,0.00000784,0.00000143,-0.00000724,0.00002336,-0.0000159
 6,0.00000162,-0.00001443,0.00002000,0.00002163,-0.00002285,0.00006987,
 0.00002099,0.00010198,-0.00004854,0.00001230,0.00028778,0.00003867,-0.
 00004874,-0.00029214,0.00016447,0.00020279,0.00063148,0.00034786,0.001
 19212,0.00083164,-0.00034598,0.00107768,0.01893952,0.01660759,0.000517
 48,0.00570187,0.00246414,0.05008492,0.00000016,0.00000009,0.00000012,0
 .00000021,0.00000044,-0.00000005,0.00000018,-0.00000004,0.00000040,0.0
 0000065,0.00000137,-0.00000030,0.00000007,-0.00000055,0.00000134,0.000
 00162,0.00000268,-0.00000135,0.00000119,-0.00000240,0.00000256,-0.0000
 0126,0.00000134,-0.00000224,0.00000024,0.00000003,-0.00000052,0.000007
 18,-0.00000459,-0.00000655,0.00001113,-0.00002884,0.00000346,-0.000001
 07,-0.00023353,-0.00013870,0.00070585,0.00160039,0.00073214,-0.0064770
 4,0.01552643,-0.00196677,-0.07604784,0.08016125,-0.00991248,0.00000392
 ,0.00001106,0.00000928,0.00000003,-0.00000002,0.00000006,-0.00000010,0
 .00000008,0.00000007,-0.00000008,-0.00000027,-0.00000018,0.00000006,-0
 .00000045,-0.00000007,-0.00000007,0.00000005,0.00000018,-0.00000022,-0
 .00000061,-0.00000042,-0.00000025,0.00000018,0.00000016,0.00000024,-0.
 00000117,-0.00000009,-0.00000017,0.00000012,0.00000044,-0.00000079,-0.
 00000119,-0.00000109,-0.00000044,0.00000028,0.00000026,0.00000098,-0.0
 0000324,0.00000030,-0.00000018,0.00000038,0.00000080,-0.00000010,-0.00
 000008,0.,0.00000023,-0.00000078,0.00000148,0.00000102,-0.00000102,0.0
 0000051,0.00000079,-0.00000381,-0.00000221,-0.00000235,0.00000108,0.00
 000156,0.00000030,-0.00000048,0.00000300,-0.00002226,-0.00004995,-0.00
 001364,-0.00000722,0.00000217,0.00000108,0.00010722,-0.00015798,0.0001
 6045,-0.00000396,0.00001456,0.00003176,-0.00010993,-0.00076649,-0.0001
 9642,-0.00006023,0.00000277,-0.00002754,-0.00085102,-0.00008686,-0.003
 29329,0.00065759,-0.00069310,0.00027943,-0.00689883,0.01874284,-0.0028
 7122,0.00948078,-0.02440188,0.00308812,0.07950141,-0.00000089,-0.00000
 144,0.00000048,0.00000114,0.00000120,-0.00000153,-0.00000229,-0.000002
 67,0.00000068,0.00000202,0.00000075,-0.00000193,-0.00000280,-0.0000027
 1,0.00000157,0.00000230,0.00000056,-0.00000273,-0.00000893,-0.00000048
 ,-0.00000193,0.00000934,0.00000615,-0.00000166,0.00000321,-0.00001809,
 0.00001746,0.00002055,0.00002578,-0.00002430,0.00002502,-0.00003948,0.
 00007930,-0.00001508,0.00043231,-0.00005692,-0.00042270,0.00071692,-0.
 00028174,0.00066149,-0.00263118,0.00077219,0.08058687,-0.27334755,0.02
 926797,0.00000194,-0.00000011,-0.00000200,0.00000109,-0.00000074,0.000
 00117,0.00000023,0.00000009,-0.00000033,0.00000026,0.00000107,0.000000
 20,-0.00000001,0.00000067,0.00000043,-0.00000003,-0.00000031,0.0000001
 5,0.00000058,0.00000122,0.00000062,0.00000043,-0.00000015,-0.00000011,
 -0.00000021,0.00000122,0.00000053,-0.00000003,-0.00000034,0.00000012,0
 .00000094,0.00000186,0.00000088,0.00000079,-0.00000042,-0.00000029,-0.
 00000103,0.00000296,0.00000028,0.00000026,-0.00000040,-0.00000020,0.00
 000375,0.00000015,0.00000029,-0.00000147,-0.00000038,0.00000232,0.0000
 0778,0.00000191,0.00000440,-0.00000014,0.00000751,0.00000305,0.0000009
 5,-0.00000101,-0.00000186,-0.00000154,-0.00000107,0.00000358,0.0000082
 2,0.00001592,0.00000911,0.00000664,-0.00000011,-0.00000230,-0.00014242
 ,-0.00005800,-0.00014669,0.00000417,-0.00002012,0.00001235,0.00058556,
 0.00052323,0.00011439,0.00000920,-0.00001156,0.00001839,-0.00025580,0.
 00155484,0.00065049,-0.00013900,0.00043258,0.00054366,0.00147402,-0.00
 642107,0.00066817,0.00720752,-0.01827017,0.00175919,-0.08962689,0.2970
 9559,0.00000043,0.00000065,-0.00000036,-0.00000060,-0.00000097,0.00000
 050,0.00000120,0.00000129,-0.00000046,-0.00000114,-0.00000078,0.000000
 86,0.00000179,0.00000127,-0.00000091,-0.00000106,-0.00000077,0.0000011
 4,0.00000578,-0.00000159,0.00000190,-0.00000397,-0.00000092,0.00000018
 ,-0.00000013,0.00000693,-0.00000119,0.00001401,0.00000937,0.00001042,0
 .00005881,-0.00008986,0.00002430,0.00009799,-0.00002074,-0.00010438,0.
 00124134,0.00101284,0.00107360,-0.01078575,0.02899452,-0.00445635,-0.0
 0971435,0.02855273,-0.05048721,-0.00000060,0.00000576,-0.00000204,-0.0
 0000052,0.00000030,-0.00000060,-0.00000019,-0.00000012,0.00000022,-0.0
 0000009,-0.00000030,0.,0.00000008,0.,-0.00000011,-0.00000004,0.0000001
 5,0.00000003,-0.00000033,-0.00000043,-0.00000022,-0.00000029,0.,0.0000
 0004,0.00000021,-0.00000040,-0.00000024,0.00000003,0.00000028,0.,-0.00
 000073,-0.00000087,-0.00000042,-0.00000079,0.00000006,0.00000027,0.000
 00111,-0.00000158,-0.00000019,-0.00000015,0.00000059,0.00000053,-0.000
 00306,-0.00000068,-0.00000017,0.00000051,0.00000045,-0.00000141,-0.000
 00254,-0.00000185,-0.00000129,-0.00000050,-0.00000380,-0.00000067,0.00
 000059,-0.00000032,-0.00000002,0.00000046,0.00000197,-0.00000446,-0.00
 004245,-0.00004121,-0.00000265,-0.00000302,-0.00000447,0.00000127,0.00
 015904,-0.00016733,0.00012013,0.00000545,0.00002890,-0.00003177,-0.000
 20716,-0.00084097,0.00017146,-0.00006684,-0.00018284,0.00002610,-0.003
 56567,0.00028016,-0.00504827,0.00088300,0.00001596,0.00122578,0.007396
 07,-0.02405830,0.00327466,0.00041261,-0.00008017,-0.00098211,0.0141159
 1,-0.03340898,0.05519239,-0.00000482,-0.00000540,0.00000356,0.00000910
 ,0.00000458,-0.00000033,-0.00000575,-0.00002242,0.00002788,0.00004843,
 0.00002513,-0.00008302,0.00010720,0.00014874,-0.00007870,0.00159880,-0
 .00118838,0.00202775,-0.01780208,-0.01305910,0.01757628,-0.00122212,-0
 .00003248,0.00017071,-0.00162962,0.00156284,-0.00116209,0.00843779,0.0
 1108110,-0.01000935,0.00003609,0.00108678,0.00004765,-0.00001814,-0.00
 044229,-0.00015005,-0.00003675,-0.00000598,0.00005735,-0.00000045,-0.0
 0000904,-0.00001313,-0.00000498,0.00000048,0.00000068,-0.11912010,-0.0
 8074625,0.08610817,0.00000389,-0.00000031,0.00000225,0.00000304,-0.000
 00032,-0.00000163,0.00000117,0.00000259,0.00000142,-0.00000163,0.00000
 253,0.00000122,0.00000068,-0.00000079,-0.00000291,0.00000427,0.0000045
 3,0.00000415,0.00000913,-0.00000268,-0.00000184,-0.00001763,0.00001994
 ,-0.00000643,-0.00001585,0.00001941,-0.00003974,0.00014081,0.00007027,
 0.00010335,0.00031684,-0.00001776,-0.00001480,-0.00028681,0.00071758,0
 .00005661,0.00020287,0.00005652,-0.00108603,-0.00413600,-0.00185837,-0
 .00237820,0.00021297,-0.00032956,-0.00018541,0.00017710,-0.00063614,-0
 .00031692,0.00045178,0.00031758,0.00019913,0.00010732,0.00013218,-0.00
 007500,0.00141455,-0.00035819,-0.00041726,-0.00041581,0.00015957,-0.00
 021884,0.00000319,0.00004527,0.00006567,-0.00025506,0.00009889,-0.0002
 6752,-0.00008000,0.00003735,0.00003502,0.00002786,0.00002322,0.0000206
 0,0.00001113,-0.00000336,0.00001638,-0.00000156,0.00000038,-0.00000108
 ,-0.00000395,0.00000195,0.,0.00000026,-0.00000088,0.00000066,0.0000016
 9,0.00000022,-0.00000026,0.00000021,-0.00000008,0.00000007,0.13359026,
 -0.00000203,-0.00000336,0.00000030,-0.00000005,0.00000421,0.00000274,0
 .00000065,-0.00001911,0.00000164,-0.00002291,0.00003157,0.00000909,0.0
 0012850,-0.00006052,-0.00022215,0.00130612,0.00052086,0.00112944,-0.00
 227223,-0.00279766,0.00399937,-0.00001686,-0.00042102,0.00041135,0.002
 44114,-0.00361741,0.00013195,-0.01413089,-0.01568095,0.01573968,0.0001
 0251,-0.00189900,-0.00045784,-0.00009097,-0.00016981,0.00014649,0.0001
 3590,0.00016000,-0.00004230,0.00000106,-0.00000629,0.00005149,0.000014
 95,0.00001040,-0.00000460,-0.08081710,-0.12946893,0.09083660,0.0000015
 8,0.00000022,0.00000114,0.00000199,-0.00000009,-0.00000104,0.00000028,
 0.00000139,0.00000109,-0.00000008,0.00000054,0.00000023,0.00000118,-0.
 00000085,-0.00000249,-0.00000160,0.00000236,0.00000277,0.00000368,0.,-
 0.00000136,0.00000091,0.00000238,-0.00000268,-0.00000066,-0.00000164,-
 0.00001426,0.00003750,0.00002292,0.00005041,0.00014441,0.00000681,0.00
 005313,0.00003772,0.00029914,-0.00026375,-0.00009252,0.00013989,-0.000
 68544,-0.00007211,-0.00005593,-0.00018688,-0.00002329,-0.00016664,-0.0
 0026167,-0.00008085,-0.00018197,-0.00027820,-0.00092429,-0.00098702,-0
 .00012518,-0.00007789,0.00008295,0.00010347,-0.00018842,0.00143166,-0.
 00022267,0.00049027,-0.00005636,0.00053376,-0.00002931,-0.00001154,0.0
 0001312,0.00009872,0.00028051,0.00008653,0.00011952,-0.00005906,-0.000
 03101,-0.00005704,0.00002272,-0.00005378,-0.00000884,-0.00000396,-0.00
 003093,0.00000549,0.00001497,0.00000559,0.00001229,-0.00000512,-0.0000
 0366,-0.00000084,-0.00000098,-0.00000291,0.00000531,0.00000080,0.00000
 724,-0.00000368,0.00000161,-0.00000196,0.08520312,0.14285605,-0.000001
 17,-0.00000689,0.00000524,0.00001704,0.00001464,-0.00000121,-0.0000002
 0,-0.00003500,0.00001473,0.00010038,0.00006554,0.00000428,-0.00014437,
 -0.00022613,0.00023250,-0.00140618,0.00014737,0.00147580,-0.00715962,-
 0.00749290,0.00798749,-0.00052538,-0.00037103,-0.00038264,-0.00111637,
 -0.00022559,-0.00014045,0.00328332,0.00007321,-0.00247972,-0.00002968,
 0.00093908,-0.00015923,0.00012612,0.00067764,0.00016168,-0.00005833,-0
 .00028547,-0.00006481,-0.00002605,0.00003230,-0.00001807,-0.00000315,-
 0.00001318,-0.00000878,0.08627537,0.09236017,-0.14754650,0.00000464,-0
 .00000124,0.00000424,-0.00000011,0.00000088,-0.00000070,-0.00000057,-0
 .00000016,-0.00000105,0.00000101,-0.00000410,-0.00000105,-0.00000121,0
 .00000063,0.00000155,-0.00000200,-0.00000135,-0.00000004,0.00000504,0.
 00000002,0.00000258,0.00000618,-0.00001293,-0.00000895,-0.00000224,0.0
 0001580,-0.00001919,-0.00004099,-0.00000215,-0.00000042,0.00000194,0.0
 0001978,-0.00012814,0.00026627,-0.00017881,0.00004537,0.00038715,-0.00
 034211,0.00016186,-0.00179823,-0.00032192,0.00009755,-0.00000425,-0.00
 012037,-0.00005772,0.00008671,-0.00022656,-0.00016373,0.00016686,0.000
 02339,0.00009710,-0.00013970,-0.00018394,0.00003134,-0.00058464,-0.000
 54473,0.00158428,-0.00054013,0.00009774,-0.00002130,-0.00010044,-0.000
 07242,0.00051126,0.00004681,-0.00041705,-0.00034991,-0.00012692,0.0000
 2782,0.00001078,0.00006708,-0.00004301,0.00010886,0.00000301,0.0000130
 0,0.00006957,-0.00000229,-0.00003088,-0.00001813,-0.00001713,0.0000027
 0,0.00000308,-0.00000010,0.00000255,0.00000853,-0.00000151,0.00000294,
 -0.00000156,0.00000526,-0.00000579,0.00000802,-0.09260905,-0.09986981,
 0.15740021,0.00000436,0.00001318,-0.00001267,-0.00003411,-0.00002406,0
 .00000210,0.00002200,0.00006866,-0.00005863,-0.00023772,-0.00004514,0.
 00003998,-0.00004166,0.00057578,-0.00034769,-0.00134823,-0.00160542,-0
 .00014156,0.00021954,-0.01538527,-0.02547256,-0.00388860,-0.00019398,-
 0.00172390,-0.00068529,0.00035333,-0.00003387,-0.00461572,0.00789384,0
 .01278073,0.00072810,-0.00018008,0.00091922,-0.00023463,0.00074139,0.0
 0007176,0.00002100,-0.00025533,-0.00013556,-0.00004088,0.00000433,0.00
 000913,0.00000771,0.00000093,-0.00001457,-0.04618011,0.01453731,0.0261
 6157,-0.00000878,0.00000177,-0.00000633,-0.00000129,-0.00000100,0.0000
 0175,-0.00000017,-0.00000133,0.00000112,0.00000014,0.00000390,-0.00000
 004,0.00000132,0.00000020,-0.00000240,0.00000071,-0.00000208,0.0000021
 2,-0.00000329,0.00000064,0.00000401,-0.00000446,0.00002613,-0.00000903
 ,0.00000742,-0.00001102,-0.00000344,0.00010368,0.00002628,0.00006659,-
 0.00004685,0.00000114,0.00003308,0.00008748,0.00041910,0.00007881,0.00
 005047,-0.00007261,-0.00003724,0.00164245,-0.00008641,-0.00031976,0.00
 008518,-0.00012691,-0.00014892,0.00003811,-0.00116287,-0.00019550,0.00
 030898,0.00008632,0.00005034,0.00022379,-0.00007195,0.00006444,-0.0009
 6249,0.00341307,-0.00064361,0.00019642,-0.00021746,0.00002429,0.000182
 94,-0.00008102,-0.00048502,-0.00054728,-0.00038737,-0.00007871,0.00018
 510,-0.00009244,0.00003993,0.00007173,-0.00003531,0.00009059,-0.000010
 93,0.00002807,-0.00002314,-0.00000880,-0.00001957,-0.00000640,0.000011
 68,-0.00000452,-0.00000337,-0.00000248,0.00000049,0.00000062,0.0000095
 6,0.00000606,0.00000784,0.00000214,-0.00000494,0.00000547,-0.00185931,
 0.00861964,0.01559185,0.05655108,0.00000219,0.00000340,-0.00000383,-0.
 00000922,-0.00000703,0.00000533,0.00001358,0.00001320,-0.00001444,-0.0
 0004795,-0.00001168,0.00000185,0.00025316,-0.00001614,-0.00024245,-0.0
 0044035,-0.00020952,0.00024715,0.00040111,-0.00239548,-0.00414623,-0.0
 0113315,-0.00098523,0.00021503,0.00045087,-0.00065404,-0.00052274,0.00
 579734,-0.01266434,-0.02348521,-0.00058909,0.00146770,-0.00223659,0.00
 019683,0.00009999,0.00034013,0.00007292,0.00014748,0.00001336,0.000026
 25,0.00001200,0.00002533,0.00000420,-0.00000330,0.00000522,0.01426939,
 -0.10981858,-0.10811948,-0.00000321,0.00000138,-0.00000289,-0.00000063
 ,-0.00000049,0.00000085,0.00000008,-0.00000030,0.00000086,-0.00000005,
 0.00000241,-0.00000051,0.00000029,-0.00000037,-0.00000088,0.00000098,0
 .00000184,0.00000262,-0.00000231,-0.00000003,0.00000205,-0.00000085,0.
 00001032,-0.00000358,-0.00000186,-0.00000230,-0.00000591,-0.00000205,0
 .00000002,0.00003035,0.00004680,0.00000015,0.00003934,0.00002066,-0.00
 002369,-0.00009668,0.00010643,0.00004541,-0.00025192,-0.00011341,0.000
 90590,0.00022139,0.00007137,0.00005445,0.00000368,-0.00010099,-0.00041
 315,-0.00022861,-0.00050709,-0.00043283,0.00027271,-0.00040978,-0.0002
 6393,0.00021828,0.00140269,-0.00406904,0.00055860,-0.00057967,0.000297
 96,0.00010184,-0.00027959,-0.00010155,0.00120284,0.00024943,0.00024439
 ,-0.00003699,-0.00025936,0.00003672,0.00001793,-0.00004117,-0.00001112
 ,-0.00004467,0.00001324,-0.00000836,0.00004753,0.00000025,0.00000095,-
 0.00000074,-0.00001486,-0.00000448,0.00000310,0.00000188,0.00000252,0.
 00000221,-0.00000916,-0.00000464,-0.00000350,0.00000030,0.00000347,-0.
 00000198,-0.00210298,0.00978126,0.01651832,-0.01675347,0.11896868,0.00
 000728,0.00001822,-0.00001430,-0.00003239,-0.00003668,0.00000399,0.000
 02943,0.00007650,-0.00005543,-0.00016080,-0.00011619,0.00001634,-0.000
 12635,0.00053447,-0.00005787,-0.00116867,-0.00104062,-0.00035553,0.002
 94244,-0.00511842,-0.00878526,-0.00172578,0.00057163,-0.00014126,-0.00
 000247,0.00045397,-0.00036552,0.00006155,0.00323647,0.00467609,-0.0014
 3208,0.00038885,0.00107185,-0.00013770,-0.00037940,0.00012715,0.000046
 06,0.00022548,0.00002370,0.00004366,-0.00003600,0.00001988,0.00000479,
 0.00001144,0.00000646,0.02567489,-0.10898655,-0.23779184,-0.00001281,0
 .00000367,-0.00001117,-0.00000361,-0.00000244,0.00000339,0.00000031,-0
 .00000132,0.00000221,-0.00000044,0.00000968,-0.00000050,0.00000008,0.0
 0000121,-0.00000102,0.00000325,0.00000209,0.00000385,-0.00000756,-0.00
 000247,0.00000423,-0.00000735,0.00003932,-0.00000651,0.00000844,0.0000
 0142,0.00000323,0.00009273,0.00001206,0.00004958,-0.00013472,-0.000015
 71,-0.00003115,-0.00006047,0.00037141,-0.00014625,-0.00001718,-0.00005
 860,0.00047452,-0.00010470,0.00048423,0.00198746,0.00006291,0.00018691
 ,0.00007518,0.00007463,-0.00053665,-0.00007734,0.00009957,-0.00006716,
 0.00000843,-0.00005125,-0.00003049,0.00006451,-0.00089881,0.00054502,0
 .00069867,-0.00008980,0.00007104,0.00026400,0.00055465,-0.00025745,0.0
 0059501,0.00016743,0.00044368,0.00000474,-0.00007964,0.00016642,0.0000
 2065,-0.00006187,0.00001897,-0.00009246,0.00000072,-0.00002405,0.00000
 503,0.00000896,0.00002836,0.00000356,-0.00000886,0.00000679,0.00000425
 ,0.00000098,-0.00000202,0.00000300,-0.00000406,-0.00000481,-0.00000123
 ,-0.00000504,0.00000785,-0.00000632,0.00259305,-0.01055204,-0.01845460
 ,-0.02614341,0.11935189,0.25617460\\-0.00000158,0.00000053,0.00000009,
 0.00000136,0.00000013,-0.00000023,-0.00000190,-0.00000071,-0.00000022,
 0.00000216,0.00000119,-0.00000079,-0.00000233,-0.00000090,0.00000081,0
 .00000322,-0.00000272,0.00000306,0.00000557,0.00001075,-0.00000525,-0.
 00000946,0.00000009,0.00000410,0.00000413,-0.00000607,-0.00000792,0.00
 000869,-0.00000128,0.00001530,-0.00000520,0.00000328,-0.00000348,-0.00
 000244,0.00000095,-0.00000286,0.00000118,0.00000059,0.00000279,0.00000
 030,0.00000089,-0.00000099,0.00000134,0.,-0.00000056,-0.00001393,0.000
 00394,-0.00000734,0.00000019,-0.00000045,-0.00000038,0.00000022,0.0000
 0106,0.00000026,-0.00000013,0.00000003,0.00000080,0.00000057,0.0000001
 3,-0.00000071,-0.00000027,-0.00000124,-0.00000018,0.00000049,0.0000000
 7,0.00000091,0.00000011,0.00000123,-0.00000004,-0.00000052,-0.00000067
 ,0.00000032,-0.00000036,-0.00000019,-0.00000040,0.00000032,0.00000031,
 0.00000022,0.00000026,0.00000052,0.,0.00000107,0.00000096,-0.00000087,
 -0.00000064,-0.00000031,-0.00000169,-0.00000113,-0.00000033,0.00000136
 ,-0.00000040,-0.00000021,0.00000402,-0.00000230,0.00000247,0.00000221,
 -0.00000028,0.00000045,-0.00000160,0.00000095,0.00000108,0.00000036,-0
 .00000038,-0.00000122,0.00000068,0.00000093,-0.00000086,0.00000381,0.0
 0000199,0.00000111,0.00000200,0.00000173,0.00000017,-0.00000054,-0.000
 00010,-0.00000148,0.00000020,0.00000019,-0.00000031,-0.00000053,0.0000
 0057,0.00000065,-0.00000073,0.00000131,-0.00000043,-0.00000182,0.00000
 037,-0.00000197,-0.00000097,0.00000093,0.,-0.00000094,0.00000065,-0.00
 000039,-0.00000114,0.00000078,-0.00000046,-0.00000099,0.00000034,-0.00
 000191,-0.00000401,0.00000145,-0.00000847,0.00000387\\\@


 ON INDUCTION, OR "WHY DO YOU BELIEVE THE SUN WILL RISE TOMORROW?":

 ... THE FARMER WHO HAS FED THE CHICKEN EVERY DAY THROUGHOUT ITS
 LIFE AT LAST WRINGS ITS NECK INSTEAD, SHOWING THAT MORE REFINED VIEWS
 AS TO THE UNIFORMITY OF NATURE WOULD HAVE BEEN USEFUL TO THE CHICKEN.

                               -- BERTRAND RUSSELL
 Job cpu time:       0 days 16 hours 29 minutes 24.2 seconds.
 Elapsed time:       0 days  4 hours  7 minutes 21.9 seconds.
 File lengths (MBytes):  RWF=   1181 Int=      0 D2E=      0 Chk=     32 Scr=      1
 Normal termination of Gaussian 16 at Wed May 24 06:27:33 2023.
### All Done ###
