### Starting Gaussian ###
 Entering Gaussian System, Link 0=g16
 Initial command:
 /cluster/software/gaussian/gaussian-16-A.03/avx2/g16/l1.exe "/local/scratch/ks29c/Gau-12611.inp" -scrdir="/local/scratch/ks29c/"
 Entering Link 1 = /cluster/software/gaussian/gaussian-16-A.03/avx2/g16/l1.exe PID=     12612.
  
 Copyright (c) 1988,1990,1992,1993,1995,1998,2003,2009,2016,
            Gaussian, Inc.  All Rights Reserved.
  
 This is part of the Gaussian(R) 16 program.  It is based on
 the Gaussian(R) 09 system (copyright 2009, Gaussian, Inc.),
 the Gaussian(R) 03 system (copyright 2003, Gaussian, Inc.),
 the Gaussian(R) 98 system (copyright 1998, Gaussian, Inc.),
 the Gaussian(R) 94 system (copyright 1995, Gaussian, Inc.),
 the Gaussian 92(TM) system (copyright 1992, Gaussian, Inc.),
 the Gaussian 90(TM) system (copyright 1990, Gaussian, Inc.),
 the Gaussian 88(TM) system (copyright 1988, Gaussian, Inc.),
 the Gaussian 86(TM) system (copyright 1986, Carnegie Mellon
 University), and the Gaussian 82(TM) system (copyright 1983,
 Carnegie Mellon University). Gaussian is a federally registered
 trademark of Gaussian, Inc.
  
 This software contains proprietary and confidential information,
 including trade secrets, belonging to Gaussian, Inc.
  
 This software is provided under written license and may be
 used, copied, transmitted, or stored only in accord with that
 written license.
  
 The following legend is applicable only to US Government
 contracts under FAR:
  
                    RESTRICTED RIGHTS LEGEND
  
 Use, reproduction and disclosure by the US Government is
 subject to restrictions as set forth in subparagraphs (a)
 and (c) of the Commercial Computer Software - Restricted
 Rights clause in FAR 52.227-19.
  
 Gaussian, Inc.
 340 Quinnipiac St., Bldg. 40, Wallingford CT 06492
  
  
 ---------------------------------------------------------------
 Warning -- This program may not be used in any manner that
 competes with the business of Gaussian, Inc. or will provide
 assistance to any competitor of Gaussian, Inc.  The licensee
 of this program is prohibited from giving any competitor of
 Gaussian, Inc. access to this program.  By using this program,
 the user acknowledges that Gaussian, Inc. is engaged in the
 business of creating and licensing software in the field of
 computational chemistry and represents and warrants to the
 licensee that it is not a competitor of Gaussian, Inc. and that
 it will not use this program in any manner prohibited above.
 ---------------------------------------------------------------
  

 Cite this work as:
 Gaussian 16, Revision A.03,
 M. J. Frisch, G. W. Trucks, H. B. Schlegel, G. E. Scuseria, 
 M. A. Robb, J. R. Cheeseman, G. Scalmani, V. Barone, 
 G. A. Petersson, H. Nakatsuji, X. Li, M. Caricato, A. V. Marenich, 
 J. Bloino, B. G. Janesko, R. Gomperts, B. Mennucci, H. P. Hratchian, 
 J. V. Ortiz, A. F. Izmaylov, J. L. Sonnenberg, D. Williams-Young, 
 F. Ding, F. Lipparini, F. Egidi, J. Goings, B. Peng, A. Petrone, 
 T. Henderson, D. Ranasinghe, V. G. Zakrzewski, J. Gao, N. Rega, 
 G. Zheng, W. Liang, M. Hada, M. Ehara, K. Toyota, R. Fukuda, 
 J. Hasegawa, M. Ishida, T. Nakajima, Y. Honda, O. Kitao, H. Nakai, 
 T. Vreven, K. Throssell, J. A. Montgomery, Jr., J. E. Peralta, 
 F. Ogliaro, M. J. Bearpark, J. J. Heyd, E. N. Brothers, K. N. Kudin, 
 V. N. Staroverov, T. A. Keith, R. Kobayashi, J. Normand, 
 K. Raghavachari, A. P. Rendell, J. C. Burant, S. S. Iyengar, 
 J. Tomasi, M. Cossi, J. M. Millam, M. Klene, C. Adamo, R. Cammi, 
 J. W. Ochterski, R. L. Martin, K. Morokuma, O. Farkas, 
 J. B. Foresman, and D. J. Fox, Gaussian, Inc., Wallingford CT, 2016.
 
 ******************************************
 Gaussian 16:  ES64L-G16RevA.03 25-Dec-2016
                28-May-2023 
 ******************************************
 %chk=CCCCCCdCCqNrdCC[SH]dCCdCCdO.chk
 %NProcShared=20
 Will use up to   20 processors via shared memory.
 -----------------------------
 # opt freq b3lyp/6-31g(2df,p)
 -----------------------------
 1/18=20,19=15,26=3,38=1/1,3;
 2/9=110,12=2,17=6,18=5,40=1/2;
 3/5=1,6=6,7=104,11=2,25=1,30=1,71=1,74=-5/1,2,3;
 4//1;
 5/5=2,38=5/2;
 6/7=2,8=2,9=2,10=2,28=1/1;
 7//1,2,3,16;
 1/18=20,19=15,26=3/3(2);
 2/9=110/2;
 99//99;
 2/9=110/2;
 3/5=1,6=6,7=104,11=2,25=1,30=1,71=1,74=-5/1,2,3;
 4/5=5,16=3,69=1/1;
 5/5=2,38=5/2;
 7//1,2,3,16;
 1/18=20,19=15,26=3/3(-5);
 2/9=110/2;
 6/7=2,8=2,9=2,10=2,19=2,28=1/1;
 99/9=1/99;
 -------------------
 Title Card Required
 -------------------
 Symbolic Z-matrix:
 Charge =  0 Multiplicity = 1
 C                     0.9056    0.05926  -0.04137 
 C                     2.42309   0.05088  -0.03269 
 C                     2.94807  -0.94453   0.99742 
 C                     4.47109  -0.95815   1.01169 
 C                     5.00547  -1.95544   2.04416 
 C                     6.50612  -1.95195   2.03931 
 C                     7.27649  -2.71889   2.83023 
 C                     8.7416   -2.73108   2.83432 
 N                     9.40919  -1.91356   1.96913 
 C                     9.39586  -3.54959   3.68194 
 C                     10.89677  -3.64488   3.79279 
 S                     11.33585  -4.80304   5.13117 
 C                     13.12933  -4.77859   4.97553 
 C                     13.8853  -5.67446   5.87717 
 C                     15.22325  -5.66547   5.86965 
 C                     15.98149  -6.54376   6.78776 
 O                     17.20921  -6.54788   6.79493 
 H                     0.53285   0.77363  -0.7806 
 H                     0.51438   0.34405   0.94055 
 H                     0.51438  -0.93182  -0.29242 
 H                     2.79294   1.0574    0.196 
 H                     2.79295  -0.21211  -1.03079 
 H                     2.57312  -1.94872   0.76574 
 H                     2.57302  -0.67869   1.99307 
 H                     4.84391   0.04968   1.23787 
 H                     4.84395  -1.21896   0.01225 
 H                     4.63505  -2.95879   1.80356 
 H                     4.63514  -1.68075   3.03869 
 H                     6.96084  -1.2694    1.33133 
 H                     6.77766  -3.39077   3.52934 
 H                     8.90927  -1.28192   1.36243 
 H                     10.41686  -1.87322   1.97022 
 H                     8.81466  -4.18556   4.34694 
 H                     11.31548  -2.66551   4.04688 
 H                     11.32911  -3.99822   2.85041 
 H                     11.05908  -5.94862   4.54768 
 H                     13.68336  -4.12698   4.28082 
 H                     13.31199  -6.31125   6.54382 
 H                     15.81993  -5.03391   5.22413 
 H                     15.39377  -7.1892    7.46077 
 

 GradGradGradGradGradGradGradGradGradGradGradGradGradGradGradGradGradGrad
 Berny optimization.
 Initialization pass.
                           ----------------------------
                           !    Initial Parameters    !
                           ! (Angstroms and Degrees)  !
 --------------------------                            --------------------------
 ! Name  Definition              Value          Derivative Info.                !
 --------------------------------------------------------------------------------
 ! R1    R(1,2)                  1.5175         estimate D2E/DX2                !
 ! R2    R(1,18)                 1.0935         estimate D2E/DX2                !
 ! R3    R(1,19)                 1.0947         estimate D2E/DX2                !
 ! R4    R(1,20)                 1.0947         estimate D2E/DX2                !
 ! R5    R(2,3)                  1.5256         estimate D2E/DX2                !
 ! R6    R(2,21)                 1.0964         estimate D2E/DX2                !
 ! R7    R(2,22)                 1.0964         estimate D2E/DX2                !
 ! R8    R(3,4)                  1.5231         estimate D2E/DX2                !
 ! R9    R(3,23)                 1.0967         estimate D2E/DX2                !
 ! R10   R(3,24)                 1.0967         estimate D2E/DX2                !
 ! R11   R(4,5)                  1.5317         estimate D2E/DX2                !
 ! R12   R(4,25)                 1.0981         estimate D2E/DX2                !
 ! R13   R(4,26)                 1.0981         estimate D2E/DX2                !
 ! R14   R(5,6)                  1.5007         estimate D2E/DX2                !
 ! R15   R(5,27)                 1.0963         estimate D2E/DX2                !
 ! R16   R(5,28)                 1.0962         estimate D2E/DX2                !
 ! R17   R(6,7)                  1.3443         estimate D2E/DX2                !
 ! R18   R(6,29)                 1.0835         estimate D2E/DX2                !
 ! R19   R(7,8)                  1.4652         estimate D2E/DX2                !
 ! R20   R(7,30)                 1.0904         estimate D2E/DX2                !
 ! R21   R(8,9)                  1.3648         estimate D2E/DX2                !
 ! R22   R(8,10)                 1.3478         estimate D2E/DX2                !
 ! R23   R(9,31)                 1.0085         estimate D2E/DX2                !
 ! R24   R(9,32)                 1.0085         estimate D2E/DX2                !
 ! R25   R(10,11)                1.508          estimate D2E/DX2                !
 ! R26   R(10,33)                1.0883         estimate D2E/DX2                !
 ! R27   R(11,12)                1.8236         estimate D2E/DX2                !
 ! R28   R(11,34)                1.095          estimate D2E/DX2                !
 ! R29   R(11,35)                1.0954         estimate D2E/DX2                !
 ! R30   R(12,13)                1.8004         estimate D2E/DX2                !
 ! R31   R(12,36)                1.3151         estimate D2E/DX2                !
 ! R32   R(13,14)                1.4789         estimate D2E/DX2                !
 ! R33   R(13,37)                1.1019         estimate D2E/DX2                !
 ! R34   R(14,15)                1.338          estimate D2E/DX2                !
 ! R35   R(14,38)                1.0856         estimate D2E/DX2                !
 ! R36   R(15,16)                1.4796         estimate D2E/DX2                !
 ! R37   R(15,39)                1.0824         estimate D2E/DX2                !
 ! R38   R(16,17)                1.2277         estimate D2E/DX2                !
 ! R39   R(16,40)                1.1022         estimate D2E/DX2                !
 ! A1    A(2,1,18)             110.386          estimate D2E/DX2                !
 ! A2    A(2,1,19)             110.7124         estimate D2E/DX2                !
 ! A3    A(2,1,20)             110.7129         estimate D2E/DX2                !
 ! A4    A(18,1,19)            108.3371         estimate D2E/DX2                !
 ! A5    A(18,1,20)            108.3368         estimate D2E/DX2                !
 ! A6    A(19,1,20)            108.272          estimate D2E/DX2                !
 ! A7    A(1,2,3)              110.5827         estimate D2E/DX2                !
 ! A8    A(1,2,21)             109.4773         estimate D2E/DX2                !
 ! A9    A(1,2,22)             109.4776         estimate D2E/DX2                !
 ! A10   A(3,2,21)             110.0015         estimate D2E/DX2                !
 ! A11   A(3,2,22)             110.003          estimate D2E/DX2                !
 ! A12   A(21,2,22)            107.2338         estimate D2E/DX2                !
 ! A13   A(2,3,4)              110.8692         estimate D2E/DX2                !
 ! A14   A(2,3,23)             109.7032         estimate D2E/DX2                !
 ! A15   A(2,3,24)             109.7044         estimate D2E/DX2                !
 ! A16   A(4,3,23)             109.613          estimate D2E/DX2                !
 ! A17   A(4,3,24)             109.6107         estimate D2E/DX2                !
 ! A18   A(23,3,24)            107.2681         estimate D2E/DX2                !
 ! A19   A(3,4,5)              111.1607         estimate D2E/DX2                !
 ! A20   A(3,4,25)             109.4632         estimate D2E/DX2                !
 ! A21   A(3,4,26)             109.4573         estimate D2E/DX2                !
 ! A22   A(5,4,25)             109.8937         estimate D2E/DX2                !
 ! A23   A(5,4,26)             109.9002         estimate D2E/DX2                !
 ! A24   A(25,4,26)            106.8671         estimate D2E/DX2                !
 ! A25   A(4,5,6)              110.1929         estimate D2E/DX2                !
 ! A26   A(4,5,27)             109.2741         estimate D2E/DX2                !
 ! A27   A(4,5,28)             109.3006         estimate D2E/DX2                !
 ! A28   A(6,5,27)             109.8347         estimate D2E/DX2                !
 ! A29   A(6,5,28)             109.8874         estimate D2E/DX2                !
 ! A30   A(27,5,28)            108.3189         estimate D2E/DX2                !
 ! A31   A(5,6,7)              124.7376         estimate D2E/DX2                !
 ! A32   A(5,6,29)             115.041          estimate D2E/DX2                !
 ! A33   A(7,6,29)             120.2213         estimate D2E/DX2                !
 ! A34   A(6,7,8)              125.4096         estimate D2E/DX2                !
 ! A35   A(6,7,30)             117.8124         estimate D2E/DX2                !
 ! A36   A(8,7,30)             116.7779         estimate D2E/DX2                !
 ! A37   A(7,8,9)              118.8417         estimate D2E/DX2                !
 ! A38   A(7,8,10)             119.4872         estimate D2E/DX2                !
 ! A39   A(9,8,10)             121.6701         estimate D2E/DX2                !
 ! A40   A(8,9,31)             120.9371         estimate D2E/DX2                !
 ! A41   A(8,9,32)             120.8003         estimate D2E/DX2                !
 ! A42   A(31,9,32)            118.0946         estimate D2E/DX2                !
 ! A43   A(8,10,11)            124.5941         estimate D2E/DX2                !
 ! A44   A(8,10,33)            118.6802         estimate D2E/DX2                !
 ! A45   A(11,10,33)           116.7226         estimate D2E/DX2                !
 ! A46   A(10,11,12)           109.4953         estimate D2E/DX2                !
 ! A47   A(10,11,34)           109.9452         estimate D2E/DX2                !
 ! A48   A(10,11,35)           110.4861         estimate D2E/DX2                !
 ! A49   A(12,11,34)           107.798          estimate D2E/DX2                !
 ! A50   A(12,11,35)           109.361          estimate D2E/DX2                !
 ! A51   A(34,11,35)           109.7075         estimate D2E/DX2                !
 ! A52   A(11,12,13)            99.6591         estimate D2E/DX2                !
 ! A53   A(11,12,36)           100.1912         estimate D2E/DX2                !
 ! A54   A(13,12,36)           100.5519         estimate D2E/DX2                !
 ! A55   A(12,13,14)           116.634          estimate D2E/DX2                !
 ! A56   A(12,13,37)           124.2915         estimate D2E/DX2                !
 ! A57   A(14,13,37)           119.0518         estimate D2E/DX2                !
 ! A58   A(13,14,15)           120.2429         estimate D2E/DX2                !
 ! A59   A(13,14,38)           117.3719         estimate D2E/DX2                !
 ! A60   A(15,14,38)           122.375          estimate D2E/DX2                !
 ! A61   A(14,15,16)           120.3289         estimate D2E/DX2                !
 ! A62   A(14,15,39)           123.9526         estimate D2E/DX2                !
 ! A63   A(16,15,39)           115.7161         estimate D2E/DX2                !
 ! A64   A(15,16,17)           121.2024         estimate D2E/DX2                !
 ! A65   A(15,16,40)           116.9502         estimate D2E/DX2                !
 ! A66   A(17,16,40)           121.8474         estimate D2E/DX2                !
 ! D1    D(18,1,2,3)           179.9983         estimate D2E/DX2                !
 ! D2    D(18,1,2,21)           58.6419         estimate D2E/DX2                !
 ! D3    D(18,1,2,22)          -58.6431         estimate D2E/DX2                !
 ! D4    D(19,1,2,3)            60.0424         estimate D2E/DX2                !
 ! D5    D(19,1,2,21)          -61.3141         estimate D2E/DX2                !
 ! D6    D(19,1,2,22)         -178.5991         estimate D2E/DX2                !
 ! D7    D(20,1,2,3)           -60.0457         estimate D2E/DX2                !
 ! D8    D(20,1,2,21)          178.5979         estimate D2E/DX2                !
 ! D9    D(20,1,2,22)           61.3129         estimate D2E/DX2                !
 ! D10   D(1,2,3,4)           -179.9953         estimate D2E/DX2                !
 ! D11   D(1,2,3,23)            58.7996         estimate D2E/DX2                !
 ! D12   D(1,2,3,24)           -58.7923         estimate D2E/DX2                !
 ! D13   D(21,2,3,4)           -58.9494         estimate D2E/DX2                !
 ! D14   D(21,2,3,23)          179.8455         estimate D2E/DX2                !
 ! D15   D(21,2,3,24)           62.2536         estimate D2E/DX2                !
 ! D16   D(22,2,3,4)            58.9575         estimate D2E/DX2                !
 ! D17   D(22,2,3,23)          -62.2476         estimate D2E/DX2                !
 ! D18   D(22,2,3,24)         -179.8395         estimate D2E/DX2                !
 ! D19   D(2,3,4,5)            179.9885         estimate D2E/DX2                !
 ! D20   D(2,3,4,25)            58.4018         estimate D2E/DX2                !
 ! D21   D(2,3,4,26)           -58.4206         estimate D2E/DX2                !
 ! D22   D(23,3,4,5)           -58.7533         estimate D2E/DX2                !
 ! D23   D(23,3,4,25)          179.66           estimate D2E/DX2                !
 ! D24   D(23,3,4,26)           62.8376         estimate D2E/DX2                !
 ! D25   D(24,3,4,5)            58.7302         estimate D2E/DX2                !
 ! D26   D(24,3,4,25)          -62.8565         estimate D2E/DX2                !
 ! D27   D(24,3,4,26)         -179.6789         estimate D2E/DX2                !
 ! D28   D(3,4,5,6)            179.9603         estimate D2E/DX2                !
 ! D29   D(3,4,5,27)            59.1894         estimate D2E/DX2                !
 ! D30   D(3,4,5,28)           -59.1868         estimate D2E/DX2                !
 ! D31   D(25,4,5,6)           -58.7046         estimate D2E/DX2                !
 ! D32   D(25,4,5,27)         -179.4755         estimate D2E/DX2                !
 ! D33   D(25,4,5,28)           62.1483         estimate D2E/DX2                !
 ! D34   D(26,4,5,6)            58.6282         estimate D2E/DX2                !
 ! D35   D(26,4,5,27)          -62.1426         estimate D2E/DX2                !
 ! D36   D(26,4,5,28)          179.4811         estimate D2E/DX2                !
 ! D37   D(4,5,6,7)           -179.8999         estimate D2E/DX2                !
 ! D38   D(4,5,6,29)            -0.0275         estimate D2E/DX2                !
 ! D39   D(27,5,6,7)           -59.4657         estimate D2E/DX2                !
 ! D40   D(27,5,6,29)          120.4067         estimate D2E/DX2                !
 ! D41   D(28,5,6,7)            59.5993         estimate D2E/DX2                !
 ! D42   D(28,5,6,29)         -120.5283         estimate D2E/DX2                !
 ! D43   D(5,6,7,8)            179.7572         estimate D2E/DX2                !
 ! D44   D(5,6,7,30)            -0.2169         estimate D2E/DX2                !
 ! D45   D(29,6,7,8)            -0.1091         estimate D2E/DX2                !
 ! D46   D(29,6,7,30)          179.9169         estimate D2E/DX2                !
 ! D47   D(6,7,8,9)             -0.4464         estimate D2E/DX2                !
 ! D48   D(6,7,8,10)           179.914          estimate D2E/DX2                !
 ! D49   D(30,7,8,9)           179.5279         estimate D2E/DX2                !
 ! D50   D(30,7,8,10)           -0.1117         estimate D2E/DX2                !
 ! D51   D(7,8,9,31)             2.5411         estimate D2E/DX2                !
 ! D52   D(7,8,9,32)           177.7406         estimate D2E/DX2                !
 ! D53   D(10,8,9,31)         -177.8274         estimate D2E/DX2                !
 ! D54   D(10,8,9,32)           -2.628          estimate D2E/DX2                !
 ! D55   D(7,8,10,11)         -179.3435         estimate D2E/DX2                !
 ! D56   D(7,8,10,33)           -0.001          estimate D2E/DX2                !
 ! D57   D(9,8,10,11)            1.0274         estimate D2E/DX2                !
 ! D58   D(9,8,10,33)         -179.6301         estimate D2E/DX2                !
 ! D59   D(8,10,11,12)         176.6716         estimate D2E/DX2                !
 ! D60   D(8,10,11,34)          58.4156         estimate D2E/DX2                !
 ! D61   D(8,10,11,35)         -62.8182         estimate D2E/DX2                !
 ! D62   D(33,10,11,12)         -2.6826         estimate D2E/DX2                !
 ! D63   D(33,10,11,34)       -120.9386         estimate D2E/DX2                !
 ! D64   D(33,10,11,35)        117.8276         estimate D2E/DX2                !
 ! D65   D(10,11,12,13)        177.2888         estimate D2E/DX2                !
 ! D66   D(10,11,12,36)         74.6189         estimate D2E/DX2                !
 ! D67   D(34,11,12,13)        -63.1266         estimate D2E/DX2                !
 ! D68   D(34,11,12,36)       -165.7965         estimate D2E/DX2                !
 ! D69   D(35,11,12,13)         56.096          estimate D2E/DX2                !
 ! D70   D(35,11,12,36)        -46.574          estimate D2E/DX2                !
 ! D71   D(11,12,13,14)       -177.0849         estimate D2E/DX2                !
 ! D72   D(11,12,13,37)          4.6702         estimate D2E/DX2                !
 ! D73   D(36,12,13,14)        -74.7122         estimate D2E/DX2                !
 ! D74   D(36,12,13,37)        107.0428         estimate D2E/DX2                !
 ! D75   D(12,13,14,15)       -176.6568         estimate D2E/DX2                !
 ! D76   D(12,13,14,38)          2.2108         estimate D2E/DX2                !
 ! D77   D(37,13,14,15)          1.6846         estimate D2E/DX2                !
 ! D78   D(37,13,14,38)       -179.4478         estimate D2E/DX2                !
 ! D79   D(13,14,15,16)        178.9197         estimate D2E/DX2                !
 ! D80   D(13,14,15,39)         -0.5029         estimate D2E/DX2                !
 ! D81   D(38,14,15,16)          0.1105         estimate D2E/DX2                !
 ! D82   D(38,14,15,39)       -179.3121         estimate D2E/DX2                !
 ! D83   D(14,15,16,17)       -179.9564         estimate D2E/DX2                !
 ! D84   D(14,15,16,40)          0.0039         estimate D2E/DX2                !
 ! D85   D(39,15,16,17)         -0.488          estimate D2E/DX2                !
 ! D86   D(39,15,16,40)        179.4723         estimate D2E/DX2                !
 --------------------------------------------------------------------------------
 Trust Radius=3.00D-01 FncErr=1.00D-07 GrdErr=1.00D-06 EigMax=2.50D+02 EigMin=1.00D-04
 Number of steps in this run=    201 maximum allowed number of steps=    240.
 GradGradGradGradGradGradGradGradGradGradGradGradGradGradGradGradGradGrad

                          Input orientation:                          
 ---------------------------------------------------------------------
 Center     Atomic      Atomic             Coordinates (Angstroms)
 Number     Number       Type             X           Y           Z
 ---------------------------------------------------------------------
      1          6           0        0.905600    0.059260   -0.041370
      2          6           0        2.423090    0.050880   -0.032690
      3          6           0        2.948070   -0.944530    0.997420
      4          6           0        4.471090   -0.958150    1.011690
      5          6           0        5.005470   -1.955440    2.044160
      6          6           0        6.506120   -1.951950    2.039310
      7          6           0        7.276490   -2.718890    2.830230
      8          6           0        8.741600   -2.731080    2.834320
      9          7           0        9.409190   -1.913560    1.969130
     10          6           0        9.395860   -3.549590    3.681940
     11          6           0       10.896770   -3.644880    3.792790
     12         16           0       11.335850   -4.803040    5.131170
     13          6           0       13.129330   -4.778590    4.975530
     14          6           0       13.885300   -5.674460    5.877170
     15          6           0       15.223250   -5.665470    5.869650
     16          6           0       15.981490   -6.543760    6.787760
     17          8           0       17.209210   -6.547880    6.794930
     18          1           0        0.532850    0.773630   -0.780600
     19          1           0        0.514380    0.344050    0.940550
     20          1           0        0.514380   -0.931820   -0.292420
     21          1           0        2.792940    1.057400    0.196000
     22          1           0        2.792950   -0.212110   -1.030790
     23          1           0        2.573120   -1.948720    0.765740
     24          1           0        2.573020   -0.678690    1.993070
     25          1           0        4.843910    0.049680    1.237870
     26          1           0        4.843950   -1.218960    0.012250
     27          1           0        4.635050   -2.958790    1.803560
     28          1           0        4.635140   -1.680750    3.038690
     29          1           0        6.960840   -1.269400    1.331330
     30          1           0        6.777660   -3.390770    3.529340
     31          1           0        8.909270   -1.281920    1.362430
     32          1           0       10.416860   -1.873220    1.970220
     33          1           0        8.814660   -4.185560    4.346940
     34          1           0       11.315480   -2.665510    4.046880
     35          1           0       11.329110   -3.998220    2.850410
     36          1           0       11.059080   -5.948620    4.547680
     37          1           0       13.683360   -4.126980    4.280820
     38          1           0       13.311990   -6.311250    6.543820
     39          1           0       15.819930   -5.033910    5.224130
     40          1           0       15.393770   -7.189200    7.460770
 ---------------------------------------------------------------------
                    Distance matrix (angstroms):
                    1          2          3          4          5
     1  C    0.000000
     2  C    1.517538   0.000000
     3  C    2.501672   1.525638   0.000000
     4  C    3.854449   2.510613   1.523148   0.000000
     5  C    5.021691   3.873927   2.520020   1.531713   0.000000
     6  C    6.303969   4.997564   3.841894   2.486964   1.500662
     7  C    7.520136   6.278808   5.024218   3.778566   2.521566
     8  C    8.801050   7.475468   6.334900   4.970163   3.896747
     9  N    8.957967   7.528074   6.605249   5.119993   4.404558
    10  C    9.948435   8.682245   7.454326   6.172451   4.949663
    11  C   11.324527  10.004808   8.848040   7.499493   6.373330
    12  S   12.616943  11.386979  10.115871   8.881341   7.596852
    13  C   14.071022  12.768305  11.583757  10.260259   9.086265
    14  C   15.374566  14.109863  12.876614  11.599303  10.362165
    15  C   16.513867  15.210469  14.025190  12.703054  11.523963
    16  C   17.819073  16.548052  15.321536  14.037497  12.807320
    17  O   18.873182  17.572404  16.382575  15.064881  13.877737
    18  H    1.093494   2.157486   3.456402   4.660590   5.952430
    19  H    1.094680   2.162480   2.754364   4.166094   5.164833
    20  H    1.094677   2.162483   2.754396   4.166167   5.165007
    21  H    2.148181   1.096435   2.161958   2.746631   4.169915
    22  H    2.148181   1.096432   2.161975   2.746717   4.170103
    23  H    2.732038   2.158333   1.096659   2.154997   2.747859
    24  H    2.731997   2.158345   1.096655   2.154965   2.747638
    25  H    4.140873   2.733989   2.154177   1.098123   2.167190
    26  H    4.140933   2.734059   2.154120   1.098147   2.167291
    27  H    5.140155   4.162054   2.748273   2.157893   1.096271
    28  H    5.140416   4.162341   2.748638   2.158192   1.096216
    29  H    6.349455   4.918828   4.039723   2.529407   2.191404
    30  H    7.689848   6.595096   5.201968   4.192430   2.721505
    31  H    8.235785   6.767071   5.981887   4.463775   4.019706
    32  H    9.911864   8.462515   7.588915   6.091659   5.412520
    33  H    9.991446   8.830671   7.492692   6.356624   4.978570
    34  H   11.511028  10.153633   9.070531   7.679397   6.658176
    35  H   11.553142  10.199248   9.110457   7.723688   6.694133
    36  H   12.658877  11.469704  10.170238   8.989418   7.671981
    37  H   14.123636  12.761448  11.668554  10.275924   9.220846
    38  H   15.422926  14.223056  12.921884  11.722698  10.402802
    39  H   16.616351  15.263177  14.151780  12.773122  11.685107
    40  H   17.852993  16.637585  15.351425  14.132288  12.831550
                    6          7          8          9         10
     6  C    0.000000
     7  C    1.344329   0.000000
     8  C    2.497290   1.465166   0.000000
     9  N    2.904172   2.436895   1.364760   0.000000
    10  C    3.687992   2.430474   1.347766   2.368647   0.000000
    11  C    5.021804   3.858809   2.529516   2.921660   1.508012
    12  S    6.404265   5.110422   4.037161   4.696766   2.726713
    13  C    7.776773   6.565090   5.294266   5.575507   4.137948
    14  C    9.112549   7.854655   6.661837   7.032262   5.430394
    15  C   10.220083   9.003966   7.735351   7.943184   6.574306
    16  C   11.550547  10.298966   9.087476   9.372997   7.872845
    17  O   12.581519  11.359531  10.097268  10.276458   8.929103
    18  H    7.145672   8.409071   9.629861   9.673232  10.823929
    19  H    6.509980   7.660197   8.984984   9.234307  10.077516
    20  H    6.509883   7.659680   8.983373   9.230172  10.076157
    21  H    5.122664   6.426644   7.529932   7.466281   8.773522
    22  H    5.122518   6.426006   7.527996   7.461172   8.771945
    23  H    4.134063   5.193936   6.552958   6.941271   7.590572
    24  H    4.134320   5.194794   6.555256   6.946848   7.592463
    25  H    2.722457   4.014727   5.047105   5.023030   6.296703
    26  H    2.721958   4.013484   5.044032   5.015303   6.294311
    27  H    2.137804   2.844083   4.240056   4.890024   5.151958
    28  H    2.138428   2.845684   4.243580   4.897929   5.154686
    29  H    1.083458   2.108876   2.750744   2.610775   4.080926
    30  H    2.089049   1.090417   2.185247   3.397257   2.627448
    31  H    2.585002   2.623984   2.072351   1.008451   3.280126
    32  H    3.912143   3.364030   2.071012   1.008478   2.604351
    33  H    3.955190   2.611034   2.099731   3.342070   1.088336
    34  H    5.260176   4.218593   2.845955   2.918290   2.144696
    35  H    5.301541   4.249803   2.881165   2.967921   2.151782
    36  H    6.557037   5.262013   4.319593   5.064856   3.044857
    37  H    7.827381   6.718252   5.334969   5.339632   4.367458
    38  H    9.252782   7.945002   6.889592   7.449786   5.581505
    39  H   10.314486   9.169539   7.817735   7.837678   6.771280
    40  H   11.653812  10.359334   9.248256   9.685334   7.968767
                   11         12         13         14         15
    11  C    0.000000
    12  S    1.823564   0.000000
    13  C    2.769205   1.800387   0.000000
    14  C    4.170749   2.795637   1.478861   0.000000
    15  C    5.207164   4.049817   2.443462   1.338001   0.000000
    16  C    6.574780   5.230331   3.812456   2.445173   1.479610
    17  O    7.568828   6.348931   4.804792   3.557179   2.361954
    18  H   12.159357  13.518620  14.920841  16.253974  17.363631
    19  H   11.482197  12.694804  14.200685  15.471722  16.636142
    20  H   11.482319  12.708497  14.201616  15.470552  16.635186
    21  H   10.035955  11.475277  12.796236  14.164536  15.228260
    22  H   10.036072  11.490323  12.797241  14.163241  15.227198
    23  H    9.017934  10.197527  11.711706  12.960450  14.138243
    24  H    9.017876  10.180625  11.710676  12.961930  14.139454
    25  H    7.537540   8.991772  10.292253  11.663431  12.721911
    26  H    7.537520   9.010757  10.293330  11.661680  12.720474
    27  H    6.605823   7.705515   9.248019  10.465958  11.660582
    28  H    6.605640   7.682882   9.246579  10.467672  11.661921
    29  H    5.214713   6.787202   7.977774   9.381757  10.401404
    30  H    4.135341   5.033633   6.660422   7.825988   9.054242
    31  H    3.929426   5.699998   6.564305   8.027338   8.910493
    32  H    2.586669   4.406812   4.983027   6.460941   7.258657
    33  H    2.221396   2.711586   4.400362   5.501801   6.751208
    34  H    1.095009   2.396901   2.935566   4.359784   5.252896
    35  H    1.095375   2.418604   2.892387   4.301763   5.201909
    36  H    2.429696   1.315073   2.416187   3.135319   4.378138
    37  H    2.869787   2.586688   1.101892   2.232444   2.694920
    38  H    4.528905   2.859267   2.200442   1.085637   2.127076
    39  H    5.311840   4.490982   2.714096   2.139990   1.082401
    40  H    6.799948   5.252381   4.137046   2.660396   2.209636
                   16         17         18         19         20
    16  C    0.000000
    17  O    1.227748   0.000000
    18  H   18.694511  19.725469   0.000000
    19  H   17.912657  18.986569   1.774046   0.000000
    20  H   17.912407  18.986522   1.774041   1.774277   0.000000
    21  H   16.588152  17.584510   2.478362   2.501012   3.063884
    22  H   16.587860  17.584437   2.478373   3.063883   2.501011
    23  H   15.400114  16.483887   3.736985   3.086384   2.528280
    24  H   15.400492  16.484032   3.736947   2.528200   3.086347
    25  H   14.082628  15.076782   4.814931   4.349699   4.695738
    26  H   14.082110  15.076531   4.815040   4.695734   4.349764
    27  H   12.901006  13.996601   6.118569   5.351024   5.047936
    28  H   12.901320  13.996626   6.118802   5.048036   5.351435
    29  H   11.788284  12.757052   7.067763   6.656784   6.656378
    30  H   10.260075  11.377551   8.655372   7.738177   7.738279
    31  H   10.350723  11.230823   8.887197   8.561305   8.563602
    32  H    8.717095   9.553339  10.595588  10.199785  10.201220
    33  H    7.929827   9.057686  10.930398  10.050647  10.050131
    34  H    6.657694   7.573680  12.304363  11.634883  11.768558
    35  H    6.605084   7.525661  12.349657  11.809372  11.672128
    36  H    5.440797   6.575207  13.578687  12.798429  12.640631
    37  H    4.172167   4.961162  14.918776  14.302781  14.301944
    38  H    2.690687   3.912464  16.344696  15.474769  15.474213
    39  H    2.179607   2.586429  17.420652  16.778897  16.778538
    40  H    1.102248   2.037267  18.766294  17.906964  17.907066
                   21         22         23         24         25
    21  H    0.000000
    22  H    1.765409   0.000000
    23  H    3.067520   2.508318   0.000000
    24  H    2.508353   3.067539   1.766158   0.000000
    25  H    2.511468   3.069493   3.061535   2.501558   0.000000
    26  H    3.069564   2.511629   2.501393   3.061480   1.763970
    27  H    4.701851   4.355585   2.519696   3.080055   3.068309
    28  H    4.355692   4.702258   3.080590   2.519878   2.506177
    29  H    4.906563   4.905994   4.475875   4.476584   2.496017
    30  H    6.839252   6.839341   5.234038   5.233976   4.563652
    31  H    6.651501   6.654425   6.399020   6.396066   4.279699
    32  H    8.358262   8.359985   7.936040   7.934308   5.940678
    33  H    8.998891   8.998293   7.535600   7.536373   6.585623
    34  H   10.065934  10.219365   9.365283   9.197619   7.559366
    35  H   10.269926  10.112585   9.231125   9.403373   7.813040
    36  H   11.676922  11.504598  10.115028  10.310742   9.250015
    37  H   12.734394  12.733438  11.854874  11.855976  10.239136
    38  H   14.326278  14.325656  12.951494  12.952241  11.845797
    39  H   15.234455  15.234040  14.313407  14.313920  12.736019
    40  H   16.720174  16.720258  15.383599  15.383566  14.227629
                   26         27         28         29         30
    26  H    0.000000
    27  H    2.505881   0.000000
    28  H    3.068581   1.777339   0.000000
    29  H    2.494742   2.913132   2.914304   0.000000
    30  H    4.563542   2.784906   2.784834   3.060231   0.000000
    31  H    4.284131   4.612531   4.608373   1.948718   3.699528
    32  H    5.942981   5.885199   5.882768   3.566070   4.239999
    33  H    6.584587   5.044094   5.045194   4.586343   2.334423
    34  H    7.762181   7.053130   6.827382   5.318480   4.624463
    35  H    7.605047   6.854688   7.086279   5.369902   4.641728
    36  H    9.031481   7.598516   7.858675   7.002541   5.090203
    37  H   10.237795   9.453751   9.455010   7.877660   6.985372
    38  H   11.844852  10.440227  10.441034   9.639886   7.766194
    39  H   12.735371  11.878887  11.879367  10.383107   9.345313
    40  H   14.227541  12.870526  12.870351  11.988677  10.203997
                   31         32         33         34         35
    31  H    0.000000
    32  H    1.729703   0.000000
    33  H    4.165018   3.682765   0.000000
    34  H    3.861404   2.397448   2.941885   0.000000
    35  H    3.930394   2.474381   2.932091   1.791045   0.000000
    36  H    6.045295   4.864631   2.861136   3.330969   2.599558
    37  H    6.277205   4.592203   4.869501   2.792396   2.757743
    38  H    8.457240   6.999693   5.437906   4.848936   4.787818
    39  H    8.760558   7.054861   7.110764   5.223534   5.184078
    40  H   10.683373   9.120056   7.874165   6.982182   6.925261
                   36         37         38         39         40
    36  H    0.000000
    37  H    3.205687   0.000000
    38  H    3.031778   3.167036   0.000000
    39  H    4.894892   2.505451   3.108527   0.000000
    40  H    5.367930   4.734425   2.438319   3.135195   0.000000
 Stoichiometry    C14H23NOS
 Framework group  C1[X(C14H23NOS)]
 Deg. of freedom   114
 Full point group                 C1      NOp   1
 Largest Abelian subgroup         C1      NOp   1
 Largest concise Abelian subgroup C1      NOp   1
                         Standard orientation:                         
 ---------------------------------------------------------------------
 Center     Atomic      Atomic             Coordinates (Angstroms)
 Number     Number       Type             X           Y           Z
 ---------------------------------------------------------------------
      1          6           0        9.411248   -0.381083   -0.000808
      2          6           0        8.122330    0.419925   -0.000869
      3          6           0        6.912902   -0.510051   -0.000435
      4          6           0        5.615216    0.287439   -0.000609
      5          6           0        4.396238   -0.640050   -0.000463
      6          6           0        3.131163    0.167149    0.000337
      7          6           0        1.891168   -0.352109    0.002571
      8          6           0        0.646869    0.421452    0.008442
      9          7           0        0.718951    1.784246    0.021361
     10          6           0       -0.535952   -0.224620    0.008390
     11          6           0       -1.882419    0.454390   -0.000127
     12         16           0       -3.198225   -0.804460   -0.096762
     13          6           0       -4.645013    0.263255   -0.006301
     14          6           0       -5.963292   -0.406702    0.011764
     15          6           0       -7.087795    0.318375    0.010469
     16          6           0       -8.407797   -0.350061    0.004448
     17          8           0       -9.449660    0.299464    0.002383
     18          1           0       10.275806    0.288444   -0.001149
     19          1           0        9.470079   -1.019979   -0.887756
     20          1           0        9.470352   -1.019419    0.886521
     21          1           0        8.095618    1.069495   -0.883771
     22          1           0        8.095868    1.070036    0.881638
     23          1           0        6.945940   -1.159161    0.882868
     24          1           0        6.945751   -1.159774   -0.883290
     25          1           0        5.587445    0.940891   -0.882710
     26          1           0        5.587543    0.941248    0.881260
     27          1           0        4.429189   -1.280823    0.888432
     28          1           0        4.428815   -1.281374   -0.888906
     29          1           0        3.272574    1.241339    0.001145
     30          1           0        1.794410   -1.438222    0.000252
     31          1           0        1.609301    2.256654   -0.011528
     32          1           0       -0.118094    2.345935   -0.008453
     33          1           0       -0.536647   -1.312947    0.003937
     34          1           0       -1.970273    1.098699   -0.881145
     35          1           0       -2.016663    1.050986    0.908663
     36          1           0       -3.165394   -1.270211    1.132634
     37          1           0       -4.604124    1.364301    0.007541
     38          1           0       -5.971593   -1.492296    0.006755
     39          1           0       -7.109312    1.400546    0.004562
     40          1           0       -8.409578   -1.452302    0.001243
 ---------------------------------------------------------------------
 Rotational constants (GHZ):           3.5157475           0.0633042           0.0623546
 Standard basis: 6-31G(2df,p) (6D, 7F)
 There are   646 symmetry adapted cartesian basis functions of A   symmetry.
 There are   595 symmetry adapted basis functions of A   symmetry.
   595 basis functions,   933 primitive gaussians,   646 cartesian basis functions
    69 alpha electrons       69 beta electrons
       nuclear repulsion energy      1123.5434959853 Hartrees.
 NAtoms=   40 NActive=   40 NUniq=   40 SFac= 1.00D+00 NAtFMM=   60 NAOKFM=F Big=F
 Integral buffers will be    131072 words long.
 Raffenetti 2 integral format.
 Two-electron integral symmetry is turned on.
 One-electron integrals computed using PRISM.
 PrsmSu:  requested number of processors reduced to:  12 ShMem   1 Linda.
 NBasis=   595 RedAO= T EigKep=  2.83D-04  NBF=   595
 NBsUse=   595 1.00D-06 EigRej= -1.00D+00 NBFU=   595
 ExpMin= 1.17D-01 ExpMax= 2.19D+04 ExpMxC= 3.30D+03 IAcc=3 IRadAn=         5 AccDes= 0.00D+00
 Harris functional with IExCor=  402 and IRadAn=       5 diagonalized for initial guess.
 HarFok:  IExCor=  402 AccDes= 0.00D+00 IRadAn=         5 IDoV= 1 UseB2=F ITyADJ=14
 ICtDFT=  3500011 ScaDFX=  1.000000  1.000000  1.000000  1.000000
 FoFCou: FMM=F IPFlag=           0 FMFlag=      100000 FMFlg1=           0
         NFxFlg=           0 DoJE=T BraDBF=F KetDBF=T FulRan=T
         wScrn=  0.000000 ICntrl=       500 IOpCl=  0 I1Cent=   200000004 NGrid=           0
         NMat0=    1 NMatS0=      1 NMatT0=    0 NMatD0=    1 NMtDS0=    0 NMtDT0=    0
 Petite list used in FoFCou.
 Requested convergence on RMS density matrix=1.00D-08 within 128 cycles.
 Requested convergence on MAX density matrix=1.00D-06.
 Requested convergence on             energy=1.00D-06.
 No special actions if energy rises.
 Integral accuracy reduced to 1.0D-05 until final iterations.
 EnCoef did     4 forward-backward iterations
 EnCoef did     3 forward-backward iterations
 Initial convergence to 1.0D-05 achieved.  Increase integral accuracy.
 SCF Done:  E(RB3LYP) =  -1075.39569946     A.U. after   18 cycles
            NFock= 18  Conv=0.67D-08     -V/T= 2.0064

 **********************************************************************

            Population analysis using the SCF density.

 **********************************************************************

 Orbital symmetries:
       Occupied  (A) (A) (A) (A) (A) (A) (A) (A) (A) (A) (A) (A)
                 (A) (A) (A) (A) (A) (A) (A) (A) (A) (A) (A) (A)
                 (A) (A) (A) (A) (A) (A) (A) (A) (A) (A) (A) (A)
                 (A) (A) (A) (A) (A) (A) (A) (A) (A) (A) (A) (A)
                 (A) (A) (A) (A) (A) (A) (A) (A) (A) (A) (A) (A)
                 (A) (A) (A) (A) (A) (A) (A) (A) (A)
       Virtual   (A) (A) (A) (A) (A) (A) (A) (A) (A) (A) (A) (A)
                 (A) (A) (A) (A) (A) (A) (A) (A) (A) (A) (A) (A)
                 (A) (A) (A) (A) (A) (A) (A) (A) (A) (A) (A) (A)
                 (A) (A) (A) (A) (A) (A) (A) (A) (A) (A) (A) (A)
                 (A) (A) (A) (A) (A) (A) (A) (A) (A) (A) (A) (A)
                 (A) (A) (A) (A) (A) (A) (A) (A) (A) (A) (A) (A)
                 (A) (A) (A) (A) (A) (A) (A) (A) (A) (A) (A) (A)
                 (A) (A) (A) (A) (A) (A) (A) (A) (A) (A) (A) (A)
                 (A) (A) (A) (A) (A) (A) (A) (A) (A) (A) (A) (A)
                 (A) (A) (A) (A) (A) (A) (A) (A) (A) (A) (A) (A)
                 (A) (A) (A) (A) (A) (A) (A) (A) (A) (A) (A) (A)
                 (A) (A) (A) (A) (A) (A) (A) (A) (A) (A) (A) (A)
                 (A) (A) (A) (A) (A) (A) (A) (A) (A) (A) (A) (A)
                 (A) (A) (A) (A) (A) (A) (A) (A) (A) (A) (A) (A)
                 (A) (A) (A) (A) (A) (A) (A) (A) (A) (A) (A) (A)
                 (A) (A) (A) (A) (A) (A) (A) (A) (A) (A) (A) (A)
                 (A) (A) (A) (A) (A) (A) (A) (A) (A) (A) (A) (A)
                 (A) (A) (A) (A) (A) (A) (A) (A) (A) (A) (A) (A)
                 (A) (A) (A) (A) (A) (A) (A) (A) (A) (A) (A) (A)
                 (A) (A) (A) (A) (A) (A) (A) (A) (A) (A) (A) (A)
                 (A) (A) (A) (A) (A) (A) (A) (A) (A) (A) (A) (A)
                 (A) (A) (A) (A) (A) (A) (A) (A) (A) (A) (A) (A)
                 (A) (A) (A) (A) (A) (A) (A) (A) (A) (A) (A) (A)
                 (A) (A) (A) (A) (A) (A) (A) (A) (A) (A) (A) (A)
                 (A) (A) (A) (A) (A) (A) (A) (A) (A) (A) (A) (A)
                 (A) (A) (A) (A) (A) (A) (A) (A) (A) (A) (A) (A)
                 (A) (A) (A) (A) (A) (A) (A) (A) (A) (A) (A) (A)
                 (A) (A) (A) (A) (A) (A) (A) (A) (A) (A) (A) (A)
                 (A) (A) (A) (A) (A) (A) (A) (A) (A) (A) (A) (A)
                 (A) (A) (A) (A) (A) (A) (A) (A) (A) (A) (A) (A)
                 (A) (A) (A) (A) (A) (A) (A) (A) (A) (A) (A) (A)
                 (A) (A) (A) (A) (A) (A) (A) (A) (A) (A) (A) (A)
                 (A) (A) (A) (A) (A) (A) (A) (A) (A) (A) (A) (A)
                 (A) (A) (A) (A) (A) (A) (A) (A) (A) (A) (A) (A)
                 (A) (A) (A) (A) (A) (A) (A) (A) (A) (A) (A) (A)
                 (A) (A) (A) (A) (A) (A) (A) (A) (A) (A) (A) (A)
                 (A) (A) (A) (A) (A) (A) (A) (A) (A) (A) (A) (A)
                 (A) (A) (A) (A) (A) (A) (A) (A) (A) (A) (A) (A)
                 (A) (A) (A) (A) (A) (A) (A) (A) (A) (A) (A) (A)
                 (A) (A) (A) (A) (A) (A) (A) (A) (A) (A) (A) (A)
                 (A) (A) (A) (A) (A) (A) (A) (A) (A) (A) (A) (A)
                 (A) (A) (A) (A) (A) (A) (A) (A) (A) (A) (A) (A)
                 (A) (A) (A) (A) (A) (A) (A) (A) (A) (A) (A) (A)
                 (A) (A) (A) (A) (A) (A) (A) (A) (A) (A)
 The electronic state is 1-A.
 Alpha  occ. eigenvalues --  -88.98441 -19.06154 -14.36049 -10.26351 -10.24704
 Alpha  occ. eigenvalues --  -10.20620 -10.20601 -10.20482 -10.19948 -10.19243
 Alpha  occ. eigenvalues --  -10.19202 -10.18621 -10.18519 -10.18032 -10.17728
 Alpha  occ. eigenvalues --  -10.17662 -10.12892  -8.04173  -6.00515  -6.00382
 Alpha  occ. eigenvalues --   -5.99923  -0.96384  -0.94448  -0.87469  -0.83123
 Alpha  occ. eigenvalues --   -0.80362  -0.78661  -0.76310  -0.74936  -0.71060
 Alpha  occ. eigenvalues --   -0.67508  -0.63941  -0.61613  -0.59230  -0.59042
 Alpha  occ. eigenvalues --   -0.57489  -0.55961  -0.55055  -0.52639  -0.50798
 Alpha  occ. eigenvalues --   -0.49831  -0.49364  -0.47056  -0.45625  -0.45300
 Alpha  occ. eigenvalues --   -0.45223  -0.43446  -0.42226  -0.41336  -0.40269
 Alpha  occ. eigenvalues --   -0.39972  -0.39773  -0.38738  -0.38225  -0.37744
 Alpha  occ. eigenvalues --   -0.36350  -0.36110  -0.35162  -0.35131  -0.34342
 Alpha  occ. eigenvalues --   -0.33824  -0.33607  -0.33009  -0.31752  -0.27277
 Alpha  occ. eigenvalues --   -0.26569  -0.21733  -0.19024  -0.14741
 Alpha virt. eigenvalues --   -0.03621  -0.03097  -0.00475   0.02821   0.04731
 Alpha virt. eigenvalues --    0.05835   0.07261   0.07586   0.08025   0.09132
 Alpha virt. eigenvalues --    0.09936   0.10741   0.11667   0.11923   0.12371
 Alpha virt. eigenvalues --    0.12984   0.13620   0.14441   0.15348   0.15896
 Alpha virt. eigenvalues --    0.16103   0.16209   0.17728   0.18470   0.18571
 Alpha virt. eigenvalues --    0.19158   0.19164   0.19918   0.20494   0.20509
 Alpha virt. eigenvalues --    0.21675   0.22250   0.23815   0.24483   0.27255
 Alpha virt. eigenvalues --    0.27385   0.27863   0.29184   0.29752   0.30716
 Alpha virt. eigenvalues --    0.31975   0.33280   0.35205   0.35632   0.36772
 Alpha virt. eigenvalues --    0.38443   0.40430   0.41757   0.42243   0.44077
 Alpha virt. eigenvalues --    0.44656   0.46152   0.46819   0.47764   0.48305
 Alpha virt. eigenvalues --    0.48806   0.49371   0.49523   0.50783   0.51022
 Alpha virt. eigenvalues --    0.51204   0.52770   0.53296   0.53431   0.53517
 Alpha virt. eigenvalues --    0.54337   0.54718   0.54900   0.56888   0.58403
 Alpha virt. eigenvalues --    0.58548   0.58980   0.60331   0.60488   0.61636
 Alpha virt. eigenvalues --    0.62100   0.62897   0.63318   0.63831   0.64582
 Alpha virt. eigenvalues --    0.65897   0.66507   0.66660   0.68780   0.68899
 Alpha virt. eigenvalues --    0.69825   0.70170   0.70748   0.71793   0.72016
 Alpha virt. eigenvalues --    0.72147   0.72951   0.73419   0.73873   0.74321
 Alpha virt. eigenvalues --    0.74601   0.75192   0.75502   0.76012   0.76961
 Alpha virt. eigenvalues --    0.77067   0.77982   0.78107   0.78624   0.78795
 Alpha virt. eigenvalues --    0.79211   0.79339   0.79553   0.81503   0.81687
 Alpha virt. eigenvalues --    0.82053   0.82145   0.82872   0.83693   0.84377
 Alpha virt. eigenvalues --    0.84556   0.85187   0.86286   0.86805   0.87566
 Alpha virt. eigenvalues --    0.88144   0.88725   0.90595   0.91471   0.92135
 Alpha virt. eigenvalues --    0.93382   0.94447   0.94828   0.95414   0.96643
 Alpha virt. eigenvalues --    0.99117   1.00594   1.01359   1.02051   1.03959
 Alpha virt. eigenvalues --    1.04687   1.05595   1.08145   1.08217   1.09958
 Alpha virt. eigenvalues --    1.11673   1.12153   1.13604   1.14026   1.16755
 Alpha virt. eigenvalues --    1.18232   1.19649   1.20193   1.21851   1.22002
 Alpha virt. eigenvalues --    1.22717   1.23824   1.24289   1.25707   1.27384
 Alpha virt. eigenvalues --    1.29308   1.29393   1.31333   1.32455   1.33006
 Alpha virt. eigenvalues --    1.33602   1.34515   1.35107   1.35373   1.36385
 Alpha virt. eigenvalues --    1.38822   1.39279   1.39987   1.41123   1.42842
 Alpha virt. eigenvalues --    1.43762   1.44397   1.45822   1.47186   1.48454
 Alpha virt. eigenvalues --    1.49314   1.50121   1.51417   1.51694   1.53358
 Alpha virt. eigenvalues --    1.53912   1.55050   1.55351   1.58326   1.59082
 Alpha virt. eigenvalues --    1.59259   1.61411   1.62029   1.62487   1.63529
 Alpha virt. eigenvalues --    1.64219   1.65731   1.67280   1.68263   1.68849
 Alpha virt. eigenvalues --    1.69903   1.70376   1.71174   1.72882   1.74406
 Alpha virt. eigenvalues --    1.75100   1.77003   1.78192   1.80152   1.82411
 Alpha virt. eigenvalues --    1.83134   1.84447   1.85507   1.86937   1.87879
 Alpha virt. eigenvalues --    1.88600   1.89653   1.90756   1.91453   1.92588
 Alpha virt. eigenvalues --    1.93884   1.94932   1.95260   1.96171   1.97443
 Alpha virt. eigenvalues --    2.00092   2.03756   2.04886   2.06343   2.08441
 Alpha virt. eigenvalues --    2.09942   2.11743   2.13106   2.14130   2.14414
 Alpha virt. eigenvalues --    2.16768   2.17951   2.18652   2.19011   2.20041
 Alpha virt. eigenvalues --    2.20910   2.22856   2.24548   2.25460   2.28058
 Alpha virt. eigenvalues --    2.29948   2.30587   2.31629   2.31949   2.33540
 Alpha virt. eigenvalues --    2.33761   2.34410   2.36000   2.37364   2.38158
 Alpha virt. eigenvalues --    2.40756   2.43227   2.44062   2.45668   2.46856
 Alpha virt. eigenvalues --    2.50359   2.51268   2.52964   2.53770   2.54564
 Alpha virt. eigenvalues --    2.55285   2.56507   2.62290   2.64034   2.65280
 Alpha virt. eigenvalues --    2.67568   2.68494   2.70699   2.71357   2.72482
 Alpha virt. eigenvalues --    2.73020   2.74291   2.75552   2.76726   2.77431
 Alpha virt. eigenvalues --    2.79130   2.79466   2.80065   2.80402   2.81478
 Alpha virt. eigenvalues --    2.82074   2.83316   2.83666   2.83778   2.84433
 Alpha virt. eigenvalues --    2.84629   2.86124   2.87700   2.88289   2.89594
 Alpha virt. eigenvalues --    2.89856   2.90084   2.90381   2.91833   2.93102
 Alpha virt. eigenvalues --    2.93829   2.94028   2.94882   2.95641   2.97381
 Alpha virt. eigenvalues --    2.98634   2.99322   3.00129   3.00500   3.02212
 Alpha virt. eigenvalues --    3.02422   3.02668   3.03357   3.05224   3.06343
 Alpha virt. eigenvalues --    3.07938   3.09473   3.10870   3.12229   3.13084
 Alpha virt. eigenvalues --    3.13962   3.14866   3.15966   3.16426   3.17327
 Alpha virt. eigenvalues --    3.17988   3.18390   3.20135   3.20849   3.24153
 Alpha virt. eigenvalues --    3.24998   3.27127   3.28619   3.28796   3.29780
 Alpha virt. eigenvalues --    3.32816   3.33634   3.33823   3.36105   3.36875
 Alpha virt. eigenvalues --    3.37198   3.37569   3.38308   3.38791   3.39437
 Alpha virt. eigenvalues --    3.40769   3.41826   3.42745   3.44124   3.44887
 Alpha virt. eigenvalues --    3.46839   3.47314   3.48244   3.49940   3.51807
 Alpha virt. eigenvalues --    3.52891   3.53324   3.54164   3.54723   3.56500
 Alpha virt. eigenvalues --    3.56969   3.57819   3.58705   3.60414   3.60904
 Alpha virt. eigenvalues --    3.63306   3.63843   3.64941   3.65523   3.67866
 Alpha virt. eigenvalues --    3.69091   3.69682   3.70710   3.72777   3.73053
 Alpha virt. eigenvalues --    3.75364   3.75521   3.77694   3.80003   3.80387
 Alpha virt. eigenvalues --    3.82026   3.84198   3.85302   3.89626   3.90311
 Alpha virt. eigenvalues --    3.92336   3.95562   3.98773   4.03945   4.04751
 Alpha virt. eigenvalues --    4.07130   4.09011   4.09984   4.10299   4.11574
 Alpha virt. eigenvalues --    4.13090   4.15106   4.15562   4.17650   4.18362
 Alpha virt. eigenvalues --    4.23665   4.25026   4.26642   4.26919   4.28044
 Alpha virt. eigenvalues --    4.28453   4.30731   4.32593   4.33426   4.34653
 Alpha virt. eigenvalues --    4.37159   4.37855   4.38243   4.38872   4.39551
 Alpha virt. eigenvalues --    4.39678   4.41195   4.42333   4.42870   4.44282
 Alpha virt. eigenvalues --    4.44992   4.45971   4.46452   4.46759   4.48327
 Alpha virt. eigenvalues --    4.48712   4.49475   4.49668   4.51486   4.52458
 Alpha virt. eigenvalues --    4.53168   4.54746   4.55882   4.56433   4.57514
 Alpha virt. eigenvalues --    4.57727   4.60215   4.61455   4.61954   4.62544
 Alpha virt. eigenvalues --    4.62607   4.63508   4.64427   4.64931   4.65534
 Alpha virt. eigenvalues --    4.66329   4.67235   4.67350   4.68159   4.71359
 Alpha virt. eigenvalues --    4.71746   4.72261   4.72635   4.74022   4.74382
 Alpha virt. eigenvalues --    4.74517   4.75049   4.75576   4.77243   4.78899
 Alpha virt. eigenvalues --    4.79749   4.81502   4.82377   4.82813   4.84494
 Alpha virt. eigenvalues --    4.85226   4.86191   4.87937   4.88960   4.90660
 Alpha virt. eigenvalues --    4.91196   4.93931   4.95238   4.95647   4.96888
 Alpha virt. eigenvalues --    4.97211   5.06680   5.08424   5.09969   5.11354
 Alpha virt. eigenvalues --    5.11957   5.13613   5.15296   5.18179   5.20319
 Alpha virt. eigenvalues --    5.21126   5.22141   5.26301   5.28148   5.29718
 Alpha virt. eigenvalues --    5.34333   5.36863   5.38548   5.41605   5.47558
 Alpha virt. eigenvalues --    5.49718   5.54995   5.55053   5.57005   5.62934
 Alpha virt. eigenvalues --    5.64735   5.69338   5.73072   5.73543   5.81200
 Alpha virt. eigenvalues --    5.87196   5.92031   6.02074   6.06889   6.10869
 Alpha virt. eigenvalues --    6.38615   6.46864   6.57167   6.81735  10.04791
 Alpha virt. eigenvalues --   10.07654  10.55970  10.75121  11.12747  11.15421
 Alpha virt. eigenvalues --   11.31319  11.39900  11.54626  11.71772  11.78933
 Alpha virt. eigenvalues --   12.00074  12.00711  12.28481  12.52240  13.00557
 Alpha virt. eigenvalues --   14.33960
          Condensed to atoms (all electrons):
               1          2          3          4          5          6
     1  C    4.949890   0.405963  -0.036858   0.002268  -0.000165   0.000001
     2  C    0.405963   4.769497   0.431474  -0.031521   0.002224  -0.000121
     3  C   -0.036858   0.431474   4.783401   0.429271  -0.035985   0.001619
     4  C    0.002268  -0.031521   0.429271   4.791987   0.419804  -0.029128
     5  C   -0.000165   0.002224  -0.035985   0.419804   4.892082   0.406700
     6  C    0.000001  -0.000121   0.001619  -0.029128   0.406700   4.809104
     7  C   -0.000000   0.000001  -0.000125   0.000892  -0.010594   0.632814
     8  C    0.000000  -0.000000   0.000001  -0.000110   0.002609  -0.000037
     9  N   -0.000000   0.000000  -0.000000  -0.000003   0.000269  -0.009899
    10  C   -0.000000   0.000000  -0.000000   0.000002  -0.000246   0.001405
    11  C   -0.000000  -0.000000   0.000000  -0.000000   0.000002  -0.000209
    12  S   -0.000000   0.000000  -0.000000   0.000000  -0.000000   0.000004
    13  C    0.000000   0.000000   0.000000   0.000000   0.000000  -0.000000
    14  C    0.000000   0.000000   0.000000  -0.000000   0.000000   0.000000
    15  C    0.000000   0.000000   0.000000  -0.000000  -0.000000  -0.000000
    16  C    0.000000   0.000000   0.000000   0.000000   0.000000  -0.000000
    17  O    0.000000   0.000000   0.000000   0.000000   0.000000   0.000000
    18  H    0.371780  -0.021957   0.003509  -0.000173   0.000001  -0.000000
    19  H    0.379697  -0.029320  -0.004790   0.000218   0.000005   0.000000
    20  H    0.379675  -0.029328  -0.004790   0.000218   0.000005   0.000000
    21  H   -0.035469   0.371220  -0.033410  -0.002573   0.000159   0.000010
    22  H   -0.035480   0.371201  -0.033416  -0.002569   0.000159   0.000010
    23  H   -0.002605  -0.035040   0.365395  -0.031394  -0.002640   0.000268
    24  H   -0.002608  -0.035024   0.365440  -0.031382  -0.002634   0.000268
    25  H    0.000105  -0.003136  -0.032285   0.365372  -0.034781  -0.001407
    26  H    0.000105  -0.003126  -0.032332   0.365431  -0.034795  -0.001437
    27  H    0.000006   0.000084  -0.003422  -0.029935   0.358397  -0.024286
    28  H    0.000006   0.000085  -0.003457  -0.029741   0.358092  -0.023981
    29  H    0.000000   0.000010   0.000101  -0.005263  -0.063488   0.352480
    30  H    0.000000   0.000000  -0.000001   0.000121  -0.011344  -0.038499
    31  H   -0.000000   0.000000  -0.000000  -0.000015  -0.000361   0.005380
    32  H    0.000000  -0.000000   0.000000  -0.000000  -0.000001   0.000028
    33  H    0.000000   0.000000   0.000000   0.000000  -0.000016   0.000908
    34  H    0.000000   0.000000   0.000000  -0.000000   0.000000   0.000010
    35  H   -0.000000   0.000000  -0.000000   0.000000  -0.000000   0.000010
    36  H    0.000000   0.000000   0.000000  -0.000000   0.000000   0.000000
    37  H    0.000000   0.000000  -0.000000   0.000000  -0.000000   0.000000
    38  H    0.000000   0.000000   0.000000   0.000000   0.000000   0.000000
    39  H    0.000000   0.000000   0.000000  -0.000000   0.000000   0.000000
    40  H    0.000000   0.000000   0.000000   0.000000   0.000000  -0.000000
               7          8          9         10         11         12
     1  C   -0.000000   0.000000  -0.000000  -0.000000  -0.000000  -0.000000
     2  C    0.000001  -0.000000   0.000000   0.000000  -0.000000   0.000000
     3  C   -0.000125   0.000001  -0.000000  -0.000000   0.000000  -0.000000
     4  C    0.000892  -0.000110  -0.000003   0.000002  -0.000000   0.000000
     5  C   -0.010594   0.002609   0.000269  -0.000246   0.000002  -0.000000
     6  C    0.632814  -0.000037  -0.009899   0.001405  -0.000209   0.000004
     7  C    4.837891   0.443842  -0.037749  -0.048875   0.004287  -0.000172
     8  C    0.443842   4.286857   0.434090   0.591974   0.002948  -0.000808
     9  N   -0.037749   0.434090   6.573520  -0.051879  -0.017714   0.000361
    10  C   -0.048875   0.591974  -0.051879   5.101653   0.340165  -0.029570
    11  C    0.004287   0.002948  -0.017714   0.340165   5.042610   0.286165
    12  S   -0.000172  -0.000808   0.000361  -0.029570   0.286165  15.307009
    13  C    0.000000  -0.000008  -0.000001   0.001217  -0.022557   0.365145
    14  C   -0.000000   0.000000   0.000000  -0.000023   0.000435  -0.033204
    15  C    0.000000  -0.000000   0.000000  -0.000000  -0.000005  -0.000613
    16  C   -0.000000   0.000000  -0.000000  -0.000000  -0.000000  -0.000119
    17  O   -0.000000   0.000000  -0.000000  -0.000000  -0.000000   0.000002
    18  H    0.000000  -0.000000   0.000000   0.000000  -0.000000   0.000000
    19  H    0.000000  -0.000000   0.000000   0.000000   0.000000   0.000000
    20  H    0.000000  -0.000000   0.000000   0.000000   0.000000   0.000000
    21  H    0.000000   0.000000  -0.000000   0.000000   0.000000   0.000000
    22  H    0.000000   0.000000  -0.000000   0.000000   0.000000   0.000000
    23  H    0.000005   0.000000  -0.000000   0.000000  -0.000000   0.000000
    24  H    0.000005   0.000000  -0.000000   0.000000  -0.000000   0.000000
    25  H    0.000344   0.000001  -0.000002  -0.000000   0.000000   0.000000
    26  H    0.000337   0.000000  -0.000001   0.000000   0.000000   0.000000
    27  H   -0.006657  -0.000050  -0.000000   0.000011  -0.000000   0.000000
    28  H   -0.006684  -0.000074   0.000000   0.000013  -0.000000   0.000000
    29  H   -0.030836  -0.019994   0.000878   0.000286  -0.000004   0.000000
    30  H    0.362363  -0.045099   0.003184  -0.007195   0.000158  -0.000027
    31  H   -0.012264  -0.028406   0.352932   0.007056  -0.000116  -0.000002
    32  H    0.005392  -0.026939   0.355339  -0.013384   0.006568  -0.000301
    33  H   -0.012434  -0.013735   0.004280   0.374943  -0.067250  -0.005943
    34  H   -0.000081  -0.004469   0.004173  -0.029880   0.358510  -0.040939
    35  H   -0.000061  -0.006736   0.003672  -0.030847   0.359062  -0.028766
    36  H   -0.000001   0.000300  -0.000000   0.002158   0.003541   0.114658
    37  H    0.000000  -0.000006   0.000000   0.000345   0.000597  -0.051148
    38  H    0.000000   0.000000   0.000000   0.000005   0.000079  -0.001507
    39  H    0.000000   0.000000  -0.000000   0.000000   0.000001   0.000284
    40  H    0.000000   0.000000  -0.000000  -0.000000  -0.000000   0.000057
              13         14         15         16         17         18
     1  C    0.000000   0.000000   0.000000   0.000000   0.000000   0.371780
     2  C    0.000000   0.000000   0.000000   0.000000   0.000000  -0.021957
     3  C    0.000000   0.000000   0.000000   0.000000   0.000000   0.003509
     4  C    0.000000  -0.000000  -0.000000   0.000000   0.000000  -0.000173
     5  C    0.000000   0.000000  -0.000000   0.000000   0.000000   0.000001
     6  C   -0.000000   0.000000  -0.000000  -0.000000   0.000000  -0.000000
     7  C    0.000000  -0.000000   0.000000  -0.000000  -0.000000   0.000000
     8  C   -0.000008   0.000000  -0.000000   0.000000   0.000000  -0.000000
     9  N   -0.000001   0.000000   0.000000  -0.000000  -0.000000   0.000000
    10  C    0.001217  -0.000023  -0.000000  -0.000000  -0.000000   0.000000
    11  C   -0.022557   0.000435  -0.000005  -0.000000  -0.000000  -0.000000
    12  S    0.365145  -0.033204  -0.000613  -0.000119   0.000002   0.000000
    13  C    5.262759   0.476803  -0.003763  -0.000086  -0.000124   0.000000
    14  C    0.476803   4.816863   0.400187   0.039479   0.004324   0.000000
    15  C   -0.003763   0.400187   5.367139   0.353285  -0.069634   0.000000
    16  C   -0.000086   0.039479   0.353285   4.455118   0.743431   0.000000
    17  O   -0.000124   0.004324  -0.069634   0.743431   7.711258   0.000000
    18  H    0.000000   0.000000   0.000000   0.000000   0.000000   0.606184
    19  H    0.000000   0.000000   0.000000   0.000000   0.000000  -0.031576
    20  H    0.000000   0.000000   0.000000   0.000000   0.000000  -0.031584
    21  H    0.000000   0.000000   0.000000   0.000000   0.000000  -0.002398
    22  H    0.000000   0.000000   0.000000   0.000000   0.000000  -0.002398
    23  H    0.000000   0.000000   0.000000   0.000000   0.000000  -0.000050
    24  H    0.000000   0.000000   0.000000   0.000000   0.000000  -0.000050
    25  H   -0.000000   0.000000   0.000000   0.000000   0.000000   0.000004
    26  H   -0.000000   0.000000   0.000000   0.000000   0.000000   0.000004
    27  H   -0.000000   0.000000   0.000000  -0.000000   0.000000   0.000000
    28  H   -0.000000  -0.000000   0.000000  -0.000000   0.000000   0.000000
    29  H   -0.000000  -0.000000   0.000000  -0.000000   0.000000  -0.000000
    30  H    0.000000   0.000000  -0.000000   0.000000   0.000000   0.000000
    31  H   -0.000000  -0.000000  -0.000000   0.000000  -0.000000  -0.000000
    32  H    0.000009  -0.000000   0.000000   0.000000   0.000000  -0.000000
    33  H    0.000116   0.000001   0.000000  -0.000000  -0.000000   0.000000
    34  H    0.003998   0.000111  -0.000006  -0.000000   0.000000   0.000000
    35  H    0.001977   0.000008  -0.000007   0.000000   0.000000   0.000000
    36  H   -0.056550   0.001160   0.000429   0.000007  -0.000000   0.000000
    37  H    0.366206  -0.015311  -0.009427   0.000084   0.000002   0.000000
    38  H   -0.063772   0.358150  -0.047347  -0.008825   0.000113   0.000000
    39  H   -0.011959  -0.045644   0.340387  -0.021373   0.000480   0.000000
    40  H   -0.000164   0.011677  -0.137107   0.331350  -0.055082   0.000000
              19         20         21         22         23         24
     1  C    0.379697   0.379675  -0.035469  -0.035480  -0.002605  -0.002608
     2  C   -0.029320  -0.029328   0.371220   0.371201  -0.035040  -0.035024
     3  C   -0.004790  -0.004790  -0.033410  -0.033416   0.365395   0.365440
     4  C    0.000218   0.000218  -0.002573  -0.002569  -0.031394  -0.031382
     5  C    0.000005   0.000005   0.000159   0.000159  -0.002640  -0.002634
     6  C    0.000000   0.000000   0.000010   0.000010   0.000268   0.000268
     7  C    0.000000   0.000000   0.000000   0.000000   0.000005   0.000005
     8  C   -0.000000  -0.000000   0.000000   0.000000   0.000000   0.000000
     9  N    0.000000   0.000000  -0.000000  -0.000000  -0.000000  -0.000000
    10  C    0.000000   0.000000   0.000000   0.000000   0.000000   0.000000
    11  C    0.000000   0.000000   0.000000   0.000000  -0.000000  -0.000000
    12  S    0.000000   0.000000   0.000000   0.000000   0.000000   0.000000
    13  C    0.000000   0.000000   0.000000   0.000000   0.000000   0.000000
    14  C    0.000000   0.000000   0.000000   0.000000   0.000000   0.000000
    15  C    0.000000   0.000000   0.000000   0.000000   0.000000   0.000000
    16  C    0.000000   0.000000   0.000000   0.000000   0.000000   0.000000
    17  O    0.000000   0.000000   0.000000   0.000000   0.000000   0.000000
    18  H   -0.031576  -0.031584  -0.002398  -0.002398  -0.000050  -0.000050
    19  H    0.600180  -0.033257  -0.004507   0.005702  -0.000410   0.005062
    20  H   -0.033257   0.600306   0.005702  -0.004508   0.005063  -0.000410
    21  H   -0.004507   0.005702   0.643775  -0.041626   0.006154  -0.005513
    22  H    0.005702  -0.004508  -0.041626   0.643878  -0.005516   0.006153
    23  H   -0.000410   0.005063   0.006154  -0.005516   0.644063  -0.042182
    24  H    0.005062  -0.000410  -0.005513   0.006153  -0.042182   0.643832
    25  H    0.000005   0.000010   0.005050  -0.000448   0.006238  -0.005603
    26  H    0.000010   0.000005  -0.000449   0.005048  -0.005610   0.006236
    27  H    0.000001  -0.000002   0.000007   0.000003   0.005034  -0.000571
    28  H   -0.000002   0.000001   0.000003   0.000007  -0.000571   0.005025
    29  H   -0.000000  -0.000000   0.000000   0.000000   0.000022   0.000022
    30  H    0.000000   0.000000  -0.000000  -0.000000   0.000000   0.000000
    31  H   -0.000000  -0.000000  -0.000000  -0.000000  -0.000000  -0.000000
    32  H    0.000000   0.000000  -0.000000  -0.000000   0.000000   0.000000
    33  H   -0.000000  -0.000000   0.000000   0.000000  -0.000000  -0.000000
    34  H    0.000000  -0.000000  -0.000000   0.000000  -0.000000   0.000000
    35  H   -0.000000   0.000000   0.000000  -0.000000   0.000000  -0.000000
    36  H   -0.000000  -0.000000   0.000000  -0.000000  -0.000000  -0.000000
    37  H    0.000000   0.000000  -0.000000   0.000000   0.000000   0.000000
    38  H    0.000000   0.000000   0.000000   0.000000   0.000000   0.000000
    39  H    0.000000   0.000000   0.000000   0.000000   0.000000   0.000000
    40  H    0.000000   0.000000   0.000000   0.000000   0.000000   0.000000
              25         26         27         28         29         30
     1  C    0.000105   0.000105   0.000006   0.000006   0.000000   0.000000
     2  C   -0.003136  -0.003126   0.000084   0.000085   0.000010   0.000000
     3  C   -0.032285  -0.032332  -0.003422  -0.003457   0.000101  -0.000001
     4  C    0.365372   0.365431  -0.029935  -0.029741  -0.005263   0.000121
     5  C   -0.034781  -0.034795   0.358397   0.358092  -0.063488  -0.011344
     6  C   -0.001407  -0.001437  -0.024286  -0.023981   0.352480  -0.038499
     7  C    0.000344   0.000337  -0.006657  -0.006684  -0.030836   0.362363
     8  C    0.000001   0.000000  -0.000050  -0.000074  -0.019994  -0.045099
     9  N   -0.000002  -0.000001  -0.000000   0.000000   0.000878   0.003184
    10  C   -0.000000   0.000000   0.000011   0.000013   0.000286  -0.007195
    11  C    0.000000   0.000000  -0.000000  -0.000000  -0.000004   0.000158
    12  S    0.000000   0.000000   0.000000   0.000000   0.000000  -0.000027
    13  C   -0.000000  -0.000000  -0.000000  -0.000000  -0.000000   0.000000
    14  C    0.000000   0.000000   0.000000  -0.000000  -0.000000   0.000000
    15  C    0.000000   0.000000   0.000000   0.000000   0.000000  -0.000000
    16  C    0.000000   0.000000  -0.000000  -0.000000  -0.000000   0.000000
    17  O    0.000000   0.000000   0.000000   0.000000   0.000000   0.000000
    18  H    0.000004   0.000004   0.000000   0.000000  -0.000000   0.000000
    19  H    0.000005   0.000010   0.000001  -0.000002  -0.000000   0.000000
    20  H    0.000010   0.000005  -0.000002   0.000001  -0.000000   0.000000
    21  H    0.005050  -0.000449   0.000007   0.000003   0.000000  -0.000000
    22  H   -0.000448   0.005048   0.000003   0.000007   0.000000  -0.000000
    23  H    0.006238  -0.005610   0.005034  -0.000571   0.000022   0.000000
    24  H   -0.005603   0.006236  -0.000571   0.005025   0.000022   0.000000
    25  H    0.642929  -0.043658   0.006004  -0.005565   0.003754   0.000016
    26  H   -0.043658   0.642888  -0.005571   0.005998   0.003814   0.000016
    27  H    0.006004  -0.005571   0.614550  -0.037242   0.004712   0.002093
    28  H   -0.005565   0.005998  -0.037242   0.614099   0.004756   0.002118
    29  H    0.003754   0.003814   0.004712   0.004756   0.655997   0.007791
    30  H    0.000016   0.000016   0.002093   0.002118   0.007791   0.626268
    31  H    0.000003  -0.000000   0.000012   0.000010   0.008529   0.000024
    32  H    0.000000   0.000000   0.000000   0.000000  -0.000051  -0.000130
    33  H   -0.000000  -0.000000   0.000001   0.000001   0.000016   0.004676
    34  H    0.000000  -0.000000   0.000000  -0.000000  -0.000001   0.000004
    35  H   -0.000000   0.000000  -0.000000   0.000000  -0.000000   0.000000
    36  H   -0.000000   0.000000  -0.000000   0.000000  -0.000000   0.000001
    37  H    0.000000   0.000000  -0.000000  -0.000000  -0.000000  -0.000000
    38  H    0.000000   0.000000  -0.000000  -0.000000  -0.000000   0.000000
    39  H    0.000000  -0.000000   0.000000   0.000000  -0.000000   0.000000
    40  H    0.000000   0.000000  -0.000000   0.000000  -0.000000   0.000000
              31         32         33         34         35         36
     1  C   -0.000000   0.000000   0.000000   0.000000  -0.000000   0.000000
     2  C    0.000000  -0.000000   0.000000   0.000000   0.000000   0.000000
     3  C   -0.000000   0.000000   0.000000   0.000000  -0.000000   0.000000
     4  C   -0.000015  -0.000000   0.000000  -0.000000   0.000000  -0.000000
     5  C   -0.000361  -0.000001  -0.000016   0.000000  -0.000000   0.000000
     6  C    0.005380   0.000028   0.000908   0.000010   0.000010   0.000000
     7  C   -0.012264   0.005392  -0.012434  -0.000081  -0.000061  -0.000001
     8  C   -0.028406  -0.026939  -0.013735  -0.004469  -0.006736   0.000300
     9  N    0.352932   0.355339   0.004280   0.004173   0.003672  -0.000000
    10  C    0.007056  -0.013384   0.374943  -0.029880  -0.030847   0.002158
    11  C   -0.000116   0.006568  -0.067250   0.358510   0.359062   0.003541
    12  S   -0.000002  -0.000301  -0.005943  -0.040939  -0.028766   0.114658
    13  C   -0.000000   0.000009   0.000116   0.003998   0.001977  -0.056550
    14  C   -0.000000  -0.000000   0.000001   0.000111   0.000008   0.001160
    15  C   -0.000000   0.000000   0.000000  -0.000006  -0.000007   0.000429
    16  C    0.000000   0.000000  -0.000000  -0.000000   0.000000   0.000007
    17  O   -0.000000   0.000000  -0.000000   0.000000   0.000000  -0.000000
    18  H   -0.000000  -0.000000   0.000000   0.000000   0.000000   0.000000
    19  H   -0.000000   0.000000  -0.000000   0.000000  -0.000000  -0.000000
    20  H   -0.000000   0.000000  -0.000000  -0.000000   0.000000  -0.000000
    21  H   -0.000000  -0.000000   0.000000  -0.000000   0.000000   0.000000
    22  H   -0.000000  -0.000000   0.000000   0.000000  -0.000000  -0.000000
    23  H   -0.000000   0.000000  -0.000000  -0.000000   0.000000  -0.000000
    24  H   -0.000000   0.000000  -0.000000   0.000000  -0.000000  -0.000000
    25  H    0.000003   0.000000  -0.000000   0.000000  -0.000000  -0.000000
    26  H   -0.000000   0.000000  -0.000000  -0.000000   0.000000   0.000000
    27  H    0.000012   0.000000   0.000001   0.000000  -0.000000  -0.000000
    28  H    0.000010   0.000000   0.000001  -0.000000   0.000000   0.000000
    29  H    0.008529  -0.000051   0.000016  -0.000001  -0.000000  -0.000000
    30  H    0.000024  -0.000130   0.004676   0.000004   0.000000   0.000001
    31  H    0.434992  -0.029256  -0.000175   0.000013  -0.000010  -0.000000
    32  H   -0.029256   0.443945   0.000021   0.002297   0.001574  -0.000001
    33  H   -0.000175   0.000021   0.611779   0.003913   0.003620   0.000792
    34  H    0.000013   0.002297   0.003913   0.576151  -0.043316   0.004083
    35  H   -0.000010   0.001574   0.003620  -0.043316   0.582137  -0.009966
    36  H   -0.000000  -0.000001   0.000792   0.004083  -0.009966   0.781090
    37  H    0.000000   0.000010   0.000007   0.001119   0.002665   0.000590
    38  H    0.000000   0.000000   0.000000   0.000004   0.000006   0.000426
    39  H   -0.000000   0.000000  -0.000000  -0.000000  -0.000001   0.000001
    40  H   -0.000000   0.000000  -0.000000  -0.000000  -0.000000  -0.000000
              37         38         39         40
     1  C    0.000000   0.000000   0.000000   0.000000
     2  C    0.000000   0.000000   0.000000   0.000000
     3  C   -0.000000   0.000000   0.000000   0.000000
     4  C    0.000000   0.000000  -0.000000   0.000000
     5  C   -0.000000   0.000000   0.000000   0.000000
     6  C    0.000000   0.000000   0.000000  -0.000000
     7  C    0.000000   0.000000   0.000000   0.000000
     8  C   -0.000006   0.000000   0.000000   0.000000
     9  N    0.000000   0.000000  -0.000000  -0.000000
    10  C    0.000345   0.000005   0.000000  -0.000000
    11  C    0.000597   0.000079   0.000001  -0.000000
    12  S   -0.051148  -0.001507   0.000284   0.000057
    13  C    0.366206  -0.063772  -0.011959  -0.000164
    14  C   -0.015311   0.358150  -0.045644   0.011677
    15  C   -0.009427  -0.047347   0.340387  -0.137107
    16  C    0.000084  -0.008825  -0.021373   0.331350
    17  O    0.000002   0.000113   0.000480  -0.055082
    18  H    0.000000   0.000000   0.000000   0.000000
    19  H    0.000000   0.000000   0.000000   0.000000
    20  H    0.000000   0.000000   0.000000   0.000000
    21  H   -0.000000   0.000000   0.000000   0.000000
    22  H    0.000000   0.000000   0.000000   0.000000
    23  H    0.000000   0.000000   0.000000   0.000000
    24  H    0.000000   0.000000   0.000000   0.000000
    25  H    0.000000   0.000000   0.000000   0.000000
    26  H    0.000000   0.000000  -0.000000   0.000000
    27  H   -0.000000  -0.000000   0.000000  -0.000000
    28  H   -0.000000  -0.000000   0.000000   0.000000
    29  H   -0.000000  -0.000000  -0.000000  -0.000000
    30  H   -0.000000   0.000000   0.000000   0.000000
    31  H    0.000000   0.000000  -0.000000  -0.000000
    32  H    0.000010   0.000000   0.000000   0.000000
    33  H    0.000007   0.000000  -0.000000  -0.000000
    34  H    0.001119   0.000004  -0.000000  -0.000000
    35  H    0.002665   0.000006  -0.000001  -0.000000
    36  H    0.000590   0.000426   0.000001  -0.000000
    37  H    0.586772   0.005014   0.004768   0.000014
    38  H    0.005014   0.660526   0.006839   0.011687
    39  H    0.004768   0.006839   0.647506   0.006934
    40  H    0.000014   0.011687   0.006934   0.792851
 Mulliken charges:
               1
     1  C   -0.376311
     2  C   -0.163186
     3  C   -0.159339
     4  C   -0.181776
     5  C   -0.243457
     6  C   -0.082013
     7  C   -0.121638
     8  C    0.383849
     9  N   -0.615448
    10  C   -0.209333
    11  C   -0.297273
    12  S    0.119433
    13  C   -0.319246
    14  C   -0.015018
    15  C   -0.193517
    16  C    0.107649
    17  O   -0.334770
    18  H    0.108705
    19  H    0.112982
    20  H    0.112894
    21  H    0.093865
    22  H    0.093799
    23  H    0.093776
    24  H    0.093934
    25  H    0.097052
    26  H    0.097087
    27  H    0.116822
    28  H    0.117106
    29  H    0.076468
    30  H    0.093464
    31  H    0.261655
    32  H    0.254882
    33  H    0.094479
    34  H    0.164305
    35  H    0.164979
    36  H    0.157282
    37  H    0.107699
    38  H    0.078603
    39  H    0.071775
    40  H    0.037782
 Sum of Mulliken charges =  -0.00000
 Mulliken charges with hydrogens summed into heavy atoms:
               1
     1  C   -0.041730
     2  C    0.024478
     3  C    0.028371
     4  C    0.012363
     5  C   -0.009529
     6  C   -0.005546
     7  C   -0.028175
     8  C    0.383849
     9  N   -0.098911
    10  C   -0.114854
    11  C    0.032012
    12  S    0.276715
    13  C   -0.211548
    14  C    0.063585
    15  C   -0.121742
    16  C    0.145431
    17  O   -0.334770
 Electronic spatial extent (au):  <R**2>=          16400.4551
 Charge=             -0.0000 electrons
 Dipole moment (field-independent basis, Debye):
    X=             13.9647    Y=             -0.0651    Z=              0.5921  Tot=             13.9774
 Quadrupole moment (field-independent basis, Debye-Ang):
   XX=           -233.0351   YY=           -101.0517   ZZ=           -114.4352
   XY=             12.4443   XZ=             -2.3990   YZ=             -1.6153
 Traceless Quadrupole moment (field-independent basis, Debye-Ang):
   XX=            -83.5278   YY=             48.4556   ZZ=             35.0721
   XY=             12.4443   XZ=             -2.3990   YZ=             -1.6153
 Octapole moment (field-independent basis, Debye-Ang**2):
[...]
 ,-0.00000269,0.00000173,-0.00000214,0.00000027,-0.00000080,0.00000029,
 0.00000018,-0.00000012,0.00000096,0.00000008,0.00000238,0.00000004,0.0
 0000023,-0.00000023,-0.00000201,0.00000082,0.00000135,0.00000124,0.000
 00045,-0.00000073,-0.00000087,-0.00000041,0.00000569,-0.00000026,0.000
 00033,-0.00000043,-0.00000464,0.00000439,0.00000345,0.00000350,-0.0000
 0194,-0.00000451,-0.00000263,-0.00000876,0.00001157,0.00002166,0.00003
 320,0.00000150,0.00004029,0.00009086,-0.00007219,0.00010010,-0.0003123
 9,0.00030444,0.00008057,0.00031801,-0.00000600,0.00044071,0.00105694,-
 0.00016966,0.00380415,-0.00003606,0.00078393,-0.00030944,0.09532986,0.
 14333210,0.00000664,0.00000845,-0.00000784,-0.00001406,-0.00001511,0.0
 0001096,0.00002083,0.00002022,-0.00001521,-0.00002697,-0.00004061,0.00
 002039,0.00001453,0.00004202,0.00001252,-0.00003179,-0.00001425,-0.000
 01868,0.00009862,0.00016877,-0.00002058,-0.00058050,-0.00025204,0.0002
 1376,0.00002274,-0.00005363,0.00010314,0.00205910,-0.00137750,0.001926
 29,0.01249910,0.02030224,-0.00112892,-0.03829793,-0.03621090,-0.029491
 77,-0.00180099,-0.00103288,-0.00083097,-0.00205308,-0.00193874,0.00261
 986,-0.00074167,-0.00038270,-0.00107245,0.00101524,0.00101745,0.001075
 30,-0.00097245,-0.00017271,-0.00042277,-0.00000836,0.00000494,-0.00000
 687,-0.00000201,-0.00000126,0.00000305,-0.00000080,-0.00000231,0.00000
 131,0.00000050,0.00000283,-0.00000107,0.00000009,0.00000111,-0.0000005
 4,-0.00000194,-0.00000078,-0.00000039,-0.00000518,0.00000003,0.0000013
 9,0.00000208,0.00000412,-0.00000068,0.00000291,0.00000080,0.00000098,-
 0.00000217,-0.00000249,-0.00000296,-0.00003696,-0.00000227,-0.00000206
 ,-0.00000052,0.00000169,-0.00000225,0.00001839,0.00000157,0.00000860,-
 0.00005728,-0.00003282,-0.00005119,0.00003335,-0.00001474,-0.00040955,
 -0.00047521,0.00005147,-0.00024011,-0.00126695,0.00221432,-0.00596366,
 0.00063432,-0.00055041,0.00084435,0.02879594,0.01640075,0.03386625,0.0
 0000466,0.00000645,-0.00000529,-0.00001050,-0.00000889,0.00000797,0.00
 001583,0.00001629,-0.00001069,-0.00002007,-0.00002838,0.00001858,0.000
 00714,0.00002908,0.00000304,0.00003312,-0.00004523,-0.00001368,-0.0000
 2645,0.00006626,-0.00001956,0.00027849,-0.00013292,0.00014073,-0.00006
 366,0.00016654,-0.00019526,0.00001066,0.00002073,0.00014693,0.00169971
 ,-0.00176979,0.00050090,-0.01962754,0.02164030,0.01281476,-0.06047296,
 0.06113631,0.04517529,0.00857877,-0.01542364,-0.01313142,0.00144634,-0
 .00128274,0.00057704,0.00032634,-0.00021969,0.00007469,-0.00043250,0.0
 0016959,-0.00001439,-0.00000553,0.00000290,-0.00000390,-0.00000098,-0.
 00000059,0.00000163,-0.00000113,-0.00000229,0.00000034,0.00000004,0.00
 000032,-0.00000074,0.00000033,0.00000084,-0.00000084,-0.00000273,-0.00
 000245,-0.00000113,-0.00000289,0.00000030,0.00000067,0.00000119,-0.000
 00045,-0.00000019,0.00000247,0.00000045,-0.00000063,-0.00000685,-0.000
 00534,-0.00000590,-0.00002210,-0.00000082,-0.00000222,0.00000662,-0.00
 001593,0.00000109,-0.00001819,-0.00000785,-0.00000239,0.00001446,-0.00
 006564,0.00000260,-0.00007653,-0.00021820,0.00009463,-0.00003032,0.000
 00434,-0.00004234,-0.00000198,-0.00008794,-0.00003892,0.00011798,0.000
 21194,-0.00096215,0.00181282,0.00005961,0.00098742,0.06881906,0.000003
 25,0.00000418,-0.00000340,-0.00000714,-0.00000545,0.00000331,0.0000105
 7,0.00001233,-0.00000833,-0.00002230,-0.00002063,0.00000664,0.00001687
 ,0.00003330,-0.00001007,-0.00004045,0.00002118,0.00001699,0.00009576,0
 .00004118,0.00005518,-0.00034125,-0.00030612,0.00003938,0.00006171,0.0
 0035390,0.00008048,0.00036188,0.00018854,0.00029502,-0.00074674,-0.000
 84490,-0.00231204,0.00658206,-0.00448454,-0.00408975,0.05545641,-0.180
 27224,-0.14817798,0.00303579,-0.00582195,-0.00669733,0.00080193,-0.000
 83789,0.00226548,-0.00060727,-0.00037544,0.00008995,0.00017112,-0.0000
 1244,0.00000548,-0.00000311,0.00000121,-0.00000202,-0.00000130,0.00000
 011,0.00000153,-0.00000061,-0.00000140,-0.00000021,0.00000008,-0.00000
 032,-0.00000059,-0.00000012,0.00000068,0.00000106,-0.00000177,-0.00000
 220,-0.00000153,-0.00000350,0.00000095,0.00000175,0.00000144,-0.000001
 75,0.00000059,0.00000175,0.,0.00000321,-0.00000520,-0.00000544,-0.0000
 0688,-0.00002249,0.00000243,0.00000039,0.00000336,-0.00000532,0.000000
 64,-0.00000222,-0.00000542,-0.00001457,0.00001279,-0.00002084,-0.00000
 617,-0.00001747,0.00006508,-0.00010641,-0.00006167,-0.00002859,-0.0000
 2755,0.00005733,-0.00011283,0.00032733,0.00034238,-0.00018165,0.000208
 22,0.00023461,0.00055586,0.00156047,-0.06450471,0.18917857,-0.00000252
 ,-0.00000353,0.00000288,0.00000544,0.00000426,-0.00000324,-0.00000895,
 -0.00001045,0.00000657,0.00001790,0.00001686,-0.00000614,-0.00001292,-
 0.00002836,0.00001023,0.00002085,-0.00001166,-0.00001383,-0.00005912,-
 0.00003228,-0.00004913,0.00022666,0.00030449,-0.00004015,-0.00006909,-
 0.00031867,-0.00005769,-0.00030237,-0.00025506,-0.00021873,0.00033303,
 0.00103983,0.00293095,-0.00722297,0.00644721,0.00252977,0.04366811,-0.
 15244268,-0.16497001,0.00876898,-0.01217740,-0.00954590,0.00159302,0.0
 0129951,-0.00031109,0.00001709,0.00026606,-0.00017722,-0.00032301,0.00
 006890,-0.00007854,0.00000265,-0.00000110,0.00000158,0.00000081,-0.000
 00008,-0.00000110,0.00000078,0.00000146,0.00000029,0.,0.00000052,0.000
 00049,0.00000021,-0.00000069,-0.00000053,0.00000191,0.00000215,0.00000
 137,0.00000262,-0.00000072,-0.00000128,-0.00000092,0.00000220,-0.00000
 042,-0.00000151,-0.00000021,-0.00000224,0.00000503,0.00000517,0.000006
 03,0.00001672,-0.00000164,0.00000020,-0.00000264,0.00000755,-0.0000022
 4,0.00000575,0.00000564,0.00001223,-0.00002402,0.00002383,-0.00000772,
 0.00001762,-0.00010640,0.00008509,0.00004175,0.00004698,0.00000864,-0.
 00002458,0.00006707,-0.00032240,0.00022239,-0.00047617,0.00018250,0.00
 010339,-0.00061744,-0.00116585,-0.04305653,0.15979660,0.17025359,-0.00
 000140,-0.00000201,0.00000193,0.00000388,0.00000361,-0.00000278,-0.000
 00519,-0.00000539,0.00000407,0.00000780,0.00001153,-0.00000671,-0.0000
 0146,-0.00001140,0.00000083,-0.00001420,0.00001617,0.00000200,0.000008
 01,-0.00002161,-0.00000330,-0.00005990,0.00013005,0.00004457,-0.000020
 01,-0.00010111,0.00003153,0.00011559,-0.00012621,0.00001023,-0.0002122
 3,0.00037801,-0.00023806,0.00120813,-0.00169830,-0.00056148,0.00646709
 ,-0.01436766,-0.01320304,-0.08647062,0.06801614,0.05177528,-0.00938193
 ,0.02400190,0.01846744,-0.00126414,0.00179554,0.00459689,0.00129168,-0
 .00090997,-0.00101305,0.00000195,-0.00000102,0.00000148,0.00000030,0.0
 0000030,-0.00000056,0.00000012,0.00000040,-0.00000031,-0.00000011,-0.0
 0000080,0.00000011,-0.00000007,-0.00000013,0.00000045,0.00000045,0.000
 00014,0.00000013,0.00000091,0.,-0.00000012,-0.00000047,-0.00000111,-0.
 00000020,-0.00000073,0.00000006,0.00000065,0.00000156,0.00000088,0.000
 00131,0.00000733,0.00000106,0.00000093,-0.00000107,0.00000262,-0.00000
 175,0.00000276,0.00000241,-0.00000039,-0.00000407,0.00002555,-0.000014
 69,0.00002287,0.00004519,-0.00003219,0.00000261,0.00000220,0.00000285,
 0.00002375,-0.00000684,0.00004833,0.00000616,-0.00004586,0.00014771,0.
 00001786,-0.00000937,0.00007687,-0.00199189,-0.00048622,-0.00319602,0.
 09367551,0.00000084,0.00000079,-0.00000104,-0.00000163,-0.00000156,0.0
 0000045,0.00000273,0.00000254,-0.00000262,-0.00000587,-0.00000510,0.00
 000079,0.00000686,0.00000677,-0.00000030,-0.00002201,0.00002113,0.0000
 0724,0.00006417,-0.00001165,0.00001337,-0.00012192,-0.00000756,0.00000
 580,0.00001453,0.00003459,0.00002416,0.00024289,-0.00005095,-0.0000342
 5,-0.00032708,0.00046404,-0.00042208,0.00040429,-0.00142944,0.00143143
 ,0.00464381,-0.00716255,-0.00869333,0.06764461,-0.18234608,-0.11567900
 ,0.00635371,-0.00450456,-0.00791514,-0.00461746,-0.00316866,0.00174291
 ,0.00091744,0.00065339,-0.00029155,-0.00000076,0.00000023,-0.00000054,
 -0.00000055,0.00000013,0.00000064,0.,-0.00000013,-0.00000005,0.0000001
 2,0.00000022,-0.00000018,-0.00000030,0.00000017,0.00000067,-0.00000019
 ,-0.00000021,-0.00000037,-0.00000133,0.00000041,0.00000091,0.00000054,
 -0.00000001,0.00000013,0.00000015,-0.00000011,0.00000159,-0.00000084,-
 0.00000089,-0.00000140,-0.00000818,0.00000112,0.00000047,0.00000034,0.
 00000128,-0.00000279,0.00000284,-0.00000106,-0.00000367,-0.00000363,0.
 00000231,-0.00000613,-0.00000147,-0.00000863,-0.00002065,-0.00000903,0
 .00000179,0.00000214,0.00000291,0.00001975,0.00000693,0.00005857,-0.00
 011201,0.00013586,-0.00031130,0.00023331,0.00022655,-0.00044534,0.0023
 6339,-0.00328064,-0.07769970,0.19059386,-0.00000067,-0.00000062,0.0000
 0036,0.00000014,0.00000032,-0.00000101,-0.00000128,-0.00000045,0.00000
 005,-0.00000182,-0.00000136,-0.00000136,-0.00000023,0.00000461,-0.0000
 0219,-0.00000612,0.00000077,0.00000492,0.00001648,0.00000662,0.0000274
 7,-0.00006610,-0.00019697,-0.00010047,0.00007432,0.00011879,0.00004521
 ,-0.00009081,0.00011608,-0.00012492,-0.00044467,0.00011056,0.00010067,
 0.00186296,0.00041545,-0.00170169,0.00660046,-0.01566670,-0.01043471,0
 .05102929,-0.11680807,-0.14156674,0.00071717,-0.00007767,0.00583461,-0
 .00254060,0.00446694,-0.00340894,0.00107333,-0.00105866,0.00065397,0.0
 0000057,-0.00000051,0.00000049,0.00000010,0.00000006,-0.00000021,0.000
 00037,0.00000062,0.00000004,0.00000008,0.00000052,0.00000022,-0.000000
 05,-0.00000022,0.00000008,0.00000065,0.00000065,0.00000017,0.00000010,
 -0.00000006,-0.00000004,0.00000006,0.00000112,0.00000046,-0.00000010,-
 0.00000025,0.00000004,0.00000098,0.00000069,0.00000053,-0.00000070,-0.
 00000063,-0.00000028,-0.00000174,0.00000515,0.00000019,0.00000637,0.00
 000094,-0.00000095,-0.00000624,-0.00000079,0.00000538,-0.00006296,-0.0
 0000704,-0.00003143,-0.00000999,0.00001839,-0.00002065,0.00001019,0.00
 003977,-0.00002874,0.00004733,-0.00007410,0.00008119,-0.00012009,0.000
 03417,0.00044684,-0.00358691,-0.00305090,0.00051375,-0.05255432,0.1352
 8670,0.14577759,0.00000042,0.00000065,-0.00000045,-0.00000073,-0.00000
 059,0.00000090,0.00000147,0.00000144,-0.00000066,-0.00000118,-0.000001
 78,0.00000182,0.00000061,0.00000177,0.00000037,0.00000463,-0.00000278,
 -0.00000169,-0.00000647,0.00000379,-0.00000427,0.00002281,0.00001114,0
 .00002897,-0.00001161,-0.00000121,-0.00001958,0.00000948,-0.00001387,0
 .00003381,0.00017210,-0.00015133,-0.00007203,0.00027786,-0.00038753,0.
 00021435,0.00106748,-0.00010208,0.00179232,-0.00980039,0.02168732,0.01
 749796,-0.10387589,0.08830336,0.06193444,0.00894118,-0.01275465,-0.010
 47543,0.00118892,0.00116826,0.00295145,-0.00000050,0.00000029,-0.00000
 031,-0.00000002,-0.00000004,0.00000010,-0.00000022,-0.00000038,-0.0000
 0002,-0.00000005,-0.00000021,-0.00000013,0.00000004,0.00000015,-0.0000
 0017,-0.00000046,-0.00000045,-0.00000018,-0.00000016,0.00000004,-0.000
 00001,0.00000001,-0.00000047,-0.00000013,0.00000024,0.00000016,-0.0000
 0021,-0.00000083,-0.00000079,-0.00000065,-0.00000118,0.00000001,-0.000
 00020,0.00000052,-0.00000234,0.00000018,-0.00000235,-0.00000096,-0.000
 00022,0.00000446,-0.00000403,0.00000253,0.00000794,-0.00000132,0.00001
 300,-0.00000232,-0.00000335,0.00000341,-0.00000280,-0.00000947,0.00000
 609,-0.00001432,0.00003377,-0.00006416,-0.00007149,0.00008465,-0.00003
 471,-0.00020206,-0.00049821,-0.00066958,-0.00389917,0.00288622,-0.0024
 1405,0.10714638,-0.00000008,-0.00000043,0.00000023,0.00000099,0.000000
 42,-0.00000126,-0.00000053,-0.00000122,0.00000056,0.00000181,0.0000014
 8,-0.00000227,-0.00000064,-0.00000188,0.00000043,-0.00000078,-0.000001
 58,0.00000023,-0.00000436,0.00000549,-0.00000669,0.00000071,-0.0000029
 3,0.00003574,-0.00000686,0.00001519,0.00000823,0.00008591,-0.00006026,
 0.00010041,0.00025527,-0.00012329,-0.00035147,-0.00008991,-0.00048894,
 0.00042650,-0.00175831,-0.00105125,0.00170671,0.00080644,-0.00281524,-
 0.00498856,0.08932069,-0.18315902,-0.11904417,0.00964813,-0.00808462,-
 0.00650364,-0.00149955,0.00064053,0.00293160,0.00000049,-0.00000041,0.
 00000035,-0.00000032,0.00000023,0.00000027,0.00000012,0.00000017,-0.00
 000017,0.00000005,-0.00000012,-0.00000011,-0.00000031,0.00000016,0.000
 00081,0.00000019,0.00000007,-0.00000016,-0.00000054,0.00000026,0.00000
 060,0.00000011,-0.00000001,-0.00000020,-0.00000037,0.00000023,0.000001
 22,0.00000059,0.00000020,-0.00000005,-0.00000030,0.00000069,0.00000081
 ,0.00000083,0.00000152,-0.00000137,0.00000159,0.00000155,-0.00000073,-
 0.00000322,0.00000040,-0.00000555,0.00000129,-0.00000414,-0.00001671,0
 .00000089,-0.00000257,0.00000463,0.00000327,-0.00002820,0.00000136,0.0
 0001513,0.00003961,-0.00005898,-0.00015682,0.00025586,0.00023112,0.000
 46011,0.00024136,0.00034787,0.00249423,0.00389885,-0.00357685,-0.09926
 053,0.18994873,-0.00000013,-0.00000010,-0.00000008,-0.00000068,-0.0000
 0036,-0.00000003,-0.00000023,0.00000023,-0.00000064,-0.00000169,-0.000
 00160,0.00000043,0.00000024,0.00000170,-0.00000114,-0.00000277,0.00000
 022,0.00000183,0.00000933,-0.00000248,0.00000790,-0.00001729,-0.000037
 90,-0.00005046,0.00002104,0.00002230,0.00001195,-0.00006921,0.00004458
 ,-0.00006368,-0.00023518,0.00012056,0.00027944,0.00024948,0.00057586,-
 0.00023205,0.00076367,0.00205243,-0.00084552,-0.00423221,0.00435320,0.
 00504430,0.06258195,-0.11945713,-0.13134019,0.01329891,-0.01656899,-0.
 00942434,0.00011060,0.00414336,0.00166842,-0.00000002,-0.00000005,-0.0
 0000002,0.00000006,-0.00000012,-0.00000010,0.00000020,0.00000038,0.000
 00017,0.00000012,0.00000053,0.00000019,0.00000011,-0.00000020,-0.00000
 018,0.00000036,0.00000048,0.00000030,0.00000011,-0.00000017,-0.0000001
 3,0.00000014,0.00000092,0.00000028,0.00000012,-0.00000029,-0.00000033,
 0.00000024,0.00000065,0.00000045,-0.00000081,-0.00000051,-0.00000022,-
 0.00000014,0.00000158,0.00000059,0.00000113,0.00000003,0.00000040,-0.0
 0000368,-0.00000309,0.00000110,-0.00000763,-0.00000869,0.00000075,-0.0
 0000218,0.00000597,-0.00000646,0.00000151,0.00002385,-0.00000860,-0.00
 000716,-0.00002685,0.00005711,0.00020535,-0.00029028,-0.00022798,0.000
 48185,-0.00019759,0.00008110,-0.00305619,-0.00320525,0.00368055,-0.067
 46490,0.13246552,0.13259588,-0.00000364,-0.00000494,0.00000516,0.00001
 004,0.00000911,-0.00000580,-0.00001332,-0.00001426,0.00001184,0.000025
 05,0.00003058,-0.00001383,-0.00001288,-0.00003477,0.00000286,0.0000089
 9,-0.00000487,-0.00001050,-0.00009156,-0.00002156,-0.00003817,0.000131
 38,0.00036355,0.00013490,-0.00011233,-0.00030484,-0.00003783,0.0000231
 9,-0.00020593,0.00011108,0.00033574,-0.00007480,0.00007087,-0.00116782
 ,0.00048285,0.00007460,0.00233911,-0.00013117,0.00066704,-0.00122671,-
 0.00203121,-0.00194630,0.00860480,-0.00636596,-0.00866048,-0.08312999,
 0.05152255,0.04305334,-0.03993755,0.03620461,0.01264207,0.00000463,-0.
 00000210,0.00000333,0.00000127,0.00000044,-0.00000183,0.00000017,0.000
 00077,-0.00000056,-0.00000047,-0.00000200,0.00000039,0.00000018,-0.000
 00045,-0.00000007,0.00000098,0.00000038,0.00000056,0.00000361,-0.00000
 045,-0.00000143,-0.00000188,-0.00000245,-0.00000073,-0.00000195,0.0000
 0035,-0.00000104,0.00000417,0.00000277,0.00000425,0.00002742,0.0000009
 2,0.00000150,-0.00000247,0.00000007,0.00000160,-0.00000066,0.00000601,
 0.00000535,0.00000984,0.00004424,-0.00001604,0.00002730,0.00006326,0.0
 0000904,0.00003781,-0.00000302,0.00000467,0.00000623,-0.00002396,0.000
 02168,-0.00000200,0.00000587,-0.00000799,0.00013736,0.00000078,0.00012
 276,-0.00015917,0.00012269,-0.00009593,0.00046236,0.00033097,0.0004684
 8,-0.00095236,-0.00031542,-0.00262445,0.11461510,0.00000317,0.00000416
 ,-0.00000463,-0.00000869,-0.00000822,0.00000459,0.00001171,0.00001220,
 -0.00001073,-0.00002206,-0.00002754,0.00001146,0.00001118,0.00003078,-
 0.00000264,-0.00000850,0.00000253,0.00000974,0.00007992,0.00002434,0.0
 0003098,-0.00011111,-0.00035610,-0.00011966,0.00010394,0.00030145,0.00
 004428,0.00000677,0.00018041,-0.00006408,-0.00016344,0.00001469,-0.000
 16887,0.00090991,-0.00088963,0.00034365,-0.00267017,0.00023436,-0.0004
 0376,0.00339029,-0.00045974,0.00195056,0.00964640,-0.00581263,-0.01601
 725,0.04435968,-0.14944277,-0.07646685,0.02674348,0.00432441,-0.002995
 72,-0.00000396,0.00000169,-0.00000287,-0.00000131,-0.00000031,0.000001
 79,0.,-0.00000046,0.00000048,0.00000051,0.00000204,-0.00000034,-0.0000
 0036,0.00000041,0.00000045,-0.00000058,-0.00000002,-0.00000046,-0.0000
 0355,0.00000050,0.00000163,0.00000178,0.00000272,0.00000064,0.00000153
 ,-0.00000033,0.00000156,-0.00000314,-0.00000196,-0.00000360,-0.0000253
 1,-0.00000058,-0.00000103,0.00000251,0.00000151,-0.00000180,0.00000278
 ,-0.00000439,-0.00000424,-0.00001194,-0.00004156,0.00001139,-0.0000308
 9,-0.00006853,-0.00001784,-0.00003285,0.00000250,0.00000448,-0.0000075
 2,0.00002117,-0.00002771,0.00000814,0.00000450,-0.00001044,-0.00038824
 ,0.00006272,-0.00016271,0.00027647,0.00028313,0.00001100,-0.00143328,0
 .00051110,-0.00010707,-0.00098466,0.00077311,-0.00401269,-0.07964861,0
 .15031837,0.00000229,0.00000317,-0.00000341,-0.00000682,-0.00000606,0.
 00000347,0.00000847,0.00000953,-0.00000821,-0.00001766,-0.00002086,0.0
 0000866,0.00000951,0.00002439,-0.00000197,-0.00001246,0.00000814,0.000
 00947,0.00007885,0.00000996,0.00003178,-0.00012369,-0.00026799,-0.0001
 1626,0.00009376,0.00022894,0.00003832,-0.00000275,0.00015944,-0.000093
 96,-0.00036323,0.00011978,-0.00009206,0.00046682,-0.00002882,-0.000260
 08,-0.00117789,0.00033754,-0.00015348,0.00335436,-0.00025339,-0.000101
 79,0.00789630,-0.02310534,-0.00729115,0.03580214,-0.07345378,-0.119477
 16,0.00254875,0.00123654,0.02063229,-0.00000293,0.00000123,-0.00000207
 ,-0.00000088,-0.00000027,0.00000121,0.,-0.00000031,0.00000036,0.000000
 39,0.00000151,-0.00000016,-0.00000014,0.00000021,0.00000018,-0.0000004
 1,-0.00000005,-0.00000027,-0.00000245,0.00000026,0.00000106,0.00000136
 ,0.00000195,0.00000069,0.00000134,-0.00000041,0.00000093,-0.00000263,-
 0.00000158,-0.00000277,-0.00001945,-0.00000063,-0.00000105,0.00000147,
 0.00000142,-0.00000158,0.00000137,-0.00000385,-0.00000443,-0.00001059,
 -0.00003047,0.00001082,-0.00002544,-0.00004660,-0.00001200,-0.00002408
 ,0.00000037,-0.00000459,-0.00000608,0.00001624,-0.00001309,0.00000532,
 -0.00001367,0.00002783,0.00000490,-0.00002438,-0.00007071,0.00006491,-
 0.00004637,0.00034821,-0.00133039,0.00067221,0.00024951,-0.00325796,-0
 .00370625,-0.00123097,-0.04395440,0.09817827,0.10757842\\0.00000032,-0
 .00000040,0.00000021,0.00000029,-0.00000035,-0.00000070,0.00000123,-0.
 00000018,0.00000017,0.00000065,0.00000355,-0.00000308,-0.00000113,-0.0
 0000469,0.00000693,-0.00000157,0.00000322,-0.00000349,0.00000262,-0.00
 000192,-0.00000017,-0.00000556,-0.00000466,0.00000465,0.00000239,0.000
 00154,-0.00000363,0.00000608,-0.00000111,0.00000017,-0.00000584,0.0000
 0412,-0.00001542,0.00000180,-0.00000262,0.00001192,-0.00000536,-0.0000
 0036,-0.00000464,0.00000346,0.00000329,-0.00000056,-0.00000103,0.,-0.0
 0000043,0.00000052,0.00000004,0.00000085,0.00000055,0.00000066,-0.0000
 0100,0.00000016,-0.00000047,-0.00000036,0.00000010,0.00000030,-0.00000
 013,-0.00000025,-0.00000025,0.00000036,0.00000030,-0.00000031,-0.00000
 083,-0.00000013,-0.00000068,-0.00000028,-0.00000033,-0.00000003,0.0000
 0049,0.00000045,0.00000063,0.00000015,-0.00000007,0.00000043,-0.000000
 80,-0.00000035,-0.00000050,-0.00000035,0.00000217,0.00000054,0.0000008
 7,0.00000007,0.00000110,-0.00000009,-0.00000127,0.00000059,-0.00000090
 ,0.00000028,0.00000106,-0.00000090,0.00000033,0.00000112,-0.00000029,0
 .00000023,-0.00000021,0.00000096,-0.00000189,0.00000039,-0.00000008,0.
 00000020,-0.00000082,0.00000140,-0.00000023,-0.00000099,0.00000302,-0.
 00000042,-0.00000031,0.00000245,0.00000142,-0.00000070,0.00000154,0.00
 000004,-0.00000063,0.00000142,-0.00000051,-0.00000088,0.00000106,0.000
 00026,0.00000048,-0.00000049\\\@


 CHEMISTRY BEGAN BY SAYING IT WOULD CHANGE THE BASER
 METALS INTO GOLD.  BY NOT DOING THAT IT HAS DONE MUCH
 GREATER THINGS.  --  RALPH WALDO EMERSON
 Job cpu time:       0 days 10 hours 20 minutes 21.7 seconds.
 Elapsed time:       0 days  2 hours 35 minutes  7.0 seconds.
 File lengths (MBytes):  RWF=   1031 Int=      0 D2E=      0 Chk=     30 Scr=      1
 Normal termination of Gaussian 16 at Sun May 28 23:55:17 2023.
### All Done ###
