### Starting Gaussian ###
 Entering Gaussian System, Link 0=g16
 Initial command:
 /cluster/software/gaussian/gaussian-16-A.03/avx2/g16/l1.exe "/local/scratch/linjian/Gau-10454.inp" -scrdir="/local/scratch/linjian/"
 Entering Link 1 = /cluster/software/gaussian/gaussian-16-A.03/avx2/g16/l1.exe PID=     10455.
  
 Copyright (c) 1988,1990,1992,1993,1995,1998,2003,2009,2016,
            Gaussian, Inc.  All Rights Reserved.
  
 This is part of the Gaussian(R) 16 program.  It is based on
 the Gaussian(R) 09 system (copyright 2009, Gaussian, Inc.),
 the Gaussian(R) 03 system (copyright 2003, Gaussian, Inc.),
 the Gaussian(R) 98 system (copyright 1998, Gaussian, Inc.),
 the Gaussian(R) 94 system (copyright 1995, Gaussian, Inc.),
 the Gaussian 92(TM) system (copyright 1992, Gaussian, Inc.),
 the Gaussian 90(TM) system (copyright 1990, Gaussian, Inc.),
 the Gaussian 88(TM) system (copyright 1988, Gaussian, Inc.),
 the Gaussian 86(TM) system (copyright 1986, Carnegie Mellon
 University), and the Gaussian 82(TM) system (copyright 1983,
 Carnegie Mellon University). Gaussian is a federally registered
 trademark of Gaussian, Inc.
  
 This software contains proprietary and confidential information,
 including trade secrets, belonging to Gaussian, Inc.
  
 This software is provided under written license and may be
 used, copied, transmitted, or stored only in accord with that
 written license.
  
 The following legend is applicable only to US Government
 contracts under FAR:
  
                    RESTRICTED RIGHTS LEGEND
  
 Use, reproduction and disclosure by the US Government is
 subject to restrictions as set forth in subparagraphs (a)
 and (c) of the Commercial Computer Software - Restricted
 Rights clause in FAR 52.227-19.
  
 Gaussian, Inc.
 340 Quinnipiac St., Bldg. 40, Wallingford CT 06492
  
  
 ---------------------------------------------------------------
 Warning -- This program may not be used in any manner that
 competes with the business of Gaussian, Inc. or will provide
 assistance to any competitor of Gaussian, Inc.  The licensee
 of this program is prohibited from giving any competitor of
 Gaussian, Inc. access to this program.  By using this program,
 the user acknowledges that Gaussian, Inc. is engaged in the
 business of creating and licensing software in the field of
 computational chemistry and represents and warrants to the
 licensee that it is not a competitor of Gaussian, Inc. and that
 it will not use this program in any manner prohibited above.
 ---------------------------------------------------------------
  

 Cite this work as:
 Gaussian 16, Revision A.03,
 M. J. Frisch, G. W. Trucks, H. B. Schlegel, G. E. Scuseria, 
 M. A. Robb, J. R. Cheeseman, G. Scalmani, V. Barone, 
 G. A. Petersson, H. Nakatsuji, X. Li, M. Caricato, A. V. Marenich, 
 J. Bloino, B. G. Janesko, R. Gomperts, B. Mennucci, H. P. Hratchian, 
 J. V. Ortiz, A. F. Izmaylov, J. L. Sonnenberg, D. Williams-Young, 
 F. Ding, F. Lipparini, F. Egidi, J. Goings, B. Peng, A. Petrone, 
 T. Henderson, D. Ranasinghe, V. G. Zakrzewski, J. Gao, N. Rega, 
 G. Zheng, W. Liang, M. Hada, M. Ehara, K. Toyota, R. Fukuda, 
 J. Hasegawa, M. Ishida, T. Nakajima, Y. Honda, O. Kitao, H. Nakai, 
 T. Vreven, K. Throssell, J. A. Montgomery, Jr., J. E. Peralta, 
 F. Ogliaro, M. J. Bearpark, J. J. Heyd, E. N. Brothers, K. N. Kudin, 
 V. N. Staroverov, T. A. Keith, R. Kobayashi, J. Normand, 
 K. Raghavachari, A. P. Rendell, J. C. Burant, S. S. Iyengar, 
 J. Tomasi, M. Cossi, J. M. Millam, M. Klene, C. Adamo, R. Cammi, 
 J. W. Ochterski, R. L. Martin, K. Morokuma, O. Farkas, 
 J. B. Foresman, and D. J. Fox, Gaussian, Inc., Wallingford CT, 2016.
 
 ******************************************
 Gaussian 16:  ES64L-G16RevA.03 25-Dec-2016
                22-May-2023 
 ******************************************
 %chk=CCCCCCqCrCCCCCCqCrCC.chk
 %NProcShared=20
 Will use up to   20 processors via shared memory.
 -----------------------------
 # opt freq b3lyp/6-31g(2df,p)
 -----------------------------
 1/18=20,19=15,26=3,38=1/1,3;
 2/9=110,12=2,17=6,18=5,40=1/2;
 3/5=1,6=6,7=104,11=2,25=1,30=1,71=1,74=-5/1,2,3;
 4//1;
 5/5=2,38=5/2;
 6/7=2,8=2,9=2,10=2,28=1/1;
 7//1,2,3,16;
 1/18=20,19=15,26=3/3(2);
 2/9=110/2;
 99//99;
 2/9=110/2;
 3/5=1,6=6,7=104,11=2,25=1,30=1,71=1,74=-5/1,2,3;
 4/5=5,16=3,69=1/1;
 5/5=2,38=5/2;
 7//1,2,3,16;
 1/18=20,19=15,26=3/3(-5);
 2/9=110/2;
 6/7=2,8=2,9=2,10=2,19=2,28=1/1;
 99/9=1/99;
 -------------------
 Title Card Required
 -------------------
 Symbolic Z-matrix:
 Charge =  0 Multiplicity = 1
 C                     0.8706   -0.0258    0.07447 
 C                     2.38521  -0.00683   0.09027 
 C                     2.90298   1.37195   0.48557 
 C                     4.42212   1.36729   0.47395 
 C                     4.9861    2.74026   0.81708 
 C                     6.52179   2.74719   0.78092 
 C                     7.05475   2.36603  -0.60842 
 C                     7.01274   4.13787   1.20955 
 C                     8.52927   4.19428   1.27206 
 C                     9.01427   5.57474   1.67731 
 C                     10.53293   5.56142   1.64925 
 C                     11.10747   6.92932   1.98197 
 C                     12.64565   6.92617   1.93745 
 C                     13.16365   6.53402   0.54711 
 C                     13.15963   8.31255   2.36171 
 C                     14.67701   8.38402   2.4299 
 H                     0.50846  -1.01908  -0.20453 
 H                     0.48256   0.69866  -0.64792 
 H                     0.4716    0.22367   1.06243 
 H                     2.76338  -0.27681  -0.90384 
 H                     2.75786  -0.76096   0.79242 
 H                     2.53654   1.64636   1.48185 
 H                     2.53275   2.12455  -0.21993 
 H                     4.74342   1.06377  -0.52735 
 H                     4.80633   0.62412   1.18078 
 H                     4.64398   3.02775   1.82123 
 H                     4.59279   3.49174   0.12348 
 H                     6.8903    2.01132   1.50489 
 H                     6.71485   3.07814  -1.36575 
 H                     6.73619   1.36427  -0.90703 
 H                     8.14701   2.33097  -0.63275 
 H                     6.60733   4.38345   2.20078 
 H                     6.63991   4.89953   0.51644 
 H                     8.95757   3.96899   0.2891 
 H                     8.90436   3.43857   1.96988 
 H                     8.64558   5.83703   2.6753 
 H                     8.63575   6.32204   0.97196 
 H                     10.8413   5.25424   0.64372 
 H                     10.9176   4.81178   2.3489 
 H                     10.76713   7.22012   2.98503 
 H                     10.71155   7.67558   1.28395 
 H                     13.00772   6.18502   2.66046 
 H                     12.80879   7.23547  -0.21408 
 H                     12.84363   5.52824   0.26063 
 H                     14.25548   6.5088    0.5148 
 H                     12.75616   8.5608    3.35216 
 H                     12.78982   9.0776    1.66955 
 H                     15.06987   7.63001   3.11829 
 H                     14.99379   9.37073   2.77871 
 H                     15.13187   8.22694   1.44792 
 

 GradGradGradGradGradGradGradGradGradGradGradGradGradGradGradGradGradGrad
 Berny optimization.
 Initialization pass.
                           ----------------------------
                           !    Initial Parameters    !
                           ! (Angstroms and Degrees)  !
 --------------------------                            --------------------------
 ! Name  Definition              Value          Derivative Info.                !
 --------------------------------------------------------------------------------
 ! R1    R(1,2)                  1.5148         estimate D2E/DX2                !
 ! R2    R(1,17)                 1.0934         estimate D2E/DX2                !
 ! R3    R(1,18)                 1.0942         estimate D2E/DX2                !
 ! R4    R(1,19)                 1.0943         estimate D2E/DX2                !
 ! R5    R(2,3)                  1.5249         estimate D2E/DX2                !
 ! R6    R(2,20)                 1.0973         estimate D2E/DX2                !
 ! R7    R(2,21)                 1.0957         estimate D2E/DX2                !
 ! R8    R(3,4)                  1.5192         estimate D2E/DX2                !
 ! R9    R(3,22)                 1.0964         estimate D2E/DX2                !
 ! R10   R(3,23)                 1.096          estimate D2E/DX2                !
 ! R11   R(4,5)                  1.5234         estimate D2E/DX2                !
 ! R12   R(4,24)                 1.0945         estimate D2E/DX2                !
 ! R13   R(4,25)                 1.0952         estimate D2E/DX2                !
 ! R14   R(5,6)                  1.5361         estimate D2E/DX2                !
 ! R15   R(5,26)                 1.0991         estimate D2E/DX2                !
 ! R16   R(5,27)                 1.0957         estimate D2E/DX2                !
 ! R17   R(6,7)                  1.5361         estimate D2E/DX2                !
 ! R18   R(6,8)                  1.5358         estimate D2E/DX2                !
 ! R19   R(6,28)                 1.0961         estimate D2E/DX2                !
 ! R20   R(7,29)                 1.0937         estimate D2E/DX2                !
 ! R21   R(7,30)                 1.0928         estimate D2E/DX2                !
 ! R22   R(7,31)                 1.0931         estimate D2E/DX2                !
 ! R23   R(8,9)                  1.5189         estimate D2E/DX2                !
 ! R24   R(8,32)                 1.0987         estimate D2E/DX2                !
 ! R25   R(8,33)                 1.0952         estimate D2E/DX2                !
 ! R26   R(9,10)                 1.5183         estimate D2E/DX2                !
 ! R27   R(9,34)                 1.0956         estimate D2E/DX2                !
 ! R28   R(9,35)                 1.0949         estimate D2E/DX2                !
 ! R29   R(10,11)                1.519          estimate D2E/DX2                !
 ! R30   R(10,36)                1.0958         estimate D2E/DX2                !
 ! R31   R(10,37)                1.0951         estimate D2E/DX2                !
 ! R32   R(11,12)                1.5205         estimate D2E/DX2                !
 ! R33   R(11,38)                1.0957         estimate D2E/DX2                !
 ! R34   R(11,39)                1.0952         estimate D2E/DX2                !
 ! R35   R(12,13)                1.5388         estimate D2E/DX2                !
 ! R36   R(12,40)                1.0984         estimate D2E/DX2                !
 ! R37   R(12,41)                1.0959         estimate D2E/DX2                !
 ! R38   R(13,14)                1.5347         estimate D2E/DX2                !
 ! R39   R(13,15)                1.5383         estimate D2E/DX2                !
 ! R40   R(13,42)                1.0969         estimate D2E/DX2                !
 ! R41   R(14,43)                1.0942         estimate D2E/DX2                !
 ! R42   R(14,44)                1.0937         estimate D2E/DX2                !
 ! R43   R(14,45)                1.0926         estimate D2E/DX2                !
 ! R44   R(15,16)                1.5206         estimate D2E/DX2                !
 ! R45   R(15,46)                1.0979         estimate D2E/DX2                !
 ! R46   R(15,47)                1.096          estimate D2E/DX2                !
 ! R47   R(16,48)                1.094          estimate D2E/DX2                !
 ! R48   R(16,49)                1.0934         estimate D2E/DX2                !
 ! R49   R(16,50)                1.0936         estimate D2E/DX2                !
 ! A1    A(2,1,17)             110.1934         estimate D2E/DX2                !
 ! A2    A(2,1,18)             110.6821         estimate D2E/DX2                !
 ! A3    A(2,1,19)             110.6278         estimate D2E/DX2                !
 ! A4    A(17,1,18)            108.3934         estimate D2E/DX2                !
 ! A5    A(17,1,19)            108.4632         estimate D2E/DX2                !
 ! A6    A(18,1,19)            108.4091         estimate D2E/DX2                !
 ! A7    A(1,2,3)              110.7028         estimate D2E/DX2                !
 ! A8    A(1,2,20)             109.3931         estimate D2E/DX2                !
 ! A9    A(1,2,21)             109.7622         estimate D2E/DX2                !
 ! A10   A(3,2,20)             109.8939         estimate D2E/DX2                !
 ! A11   A(3,2,21)             109.9197         estimate D2E/DX2                !
 ! A12   A(20,2,21)            107.0971         estimate D2E/DX2                !
 ! A13   A(2,3,4)              109.5586         estimate D2E/DX2                !
 ! A14   A(2,3,22)             110.3872         estimate D2E/DX2                !
 ! A15   A(2,3,23)             109.8349         estimate D2E/DX2                !
 ! A16   A(4,3,22)             109.9938         estimate D2E/DX2                !
 ! A17   A(4,3,23)             109.5709         estimate D2E/DX2                !
 ! A18   A(22,3,23)            107.4668         estimate D2E/DX2                !
 ! A19   A(3,4,5)              111.4508         estimate D2E/DX2                !
 ! A20   A(3,4,24)             107.5413         estimate D2E/DX2                !
 ! A21   A(3,4,25)             110.3611         estimate D2E/DX2                !
 ! A22   A(5,4,24)             110.3222         estimate D2E/DX2                !
 ! A23   A(5,4,25)             109.6519         estimate D2E/DX2                !
 ! A24   A(24,4,25)            107.4131         estimate D2E/DX2                !
 ! A25   A(4,5,6)              111.6453         estimate D2E/DX2                !
 ! A26   A(4,5,26)             109.043          estimate D2E/DX2                !
 ! A27   A(4,5,27)             110.0384         estimate D2E/DX2                !
 ! A28   A(6,5,26)             109.3605         estimate D2E/DX2                !
 ! A29   A(6,5,27)             109.9298         estimate D2E/DX2                !
 ! A30   A(26,5,27)            106.6912         estimate D2E/DX2                !
 ! A31   A(5,6,7)              111.5325         estimate D2E/DX2                !
 ! A32   A(5,6,8)              108.487          estimate D2E/DX2                !
 ! A33   A(5,6,28)             108.5135         estimate D2E/DX2                !
 ! A34   A(7,6,8)              111.4814         estimate D2E/DX2                !
 ! A35   A(7,6,28)             108.3101         estimate D2E/DX2                !
 ! A36   A(8,6,28)             108.4271         estimate D2E/DX2                !
 ! A37   A(6,7,29)             110.9101         estimate D2E/DX2                !
 ! A38   A(6,7,30)             111.9301         estimate D2E/DX2                !
 ! A39   A(6,7,31)             112.0109         estimate D2E/DX2                !
 ! A40   A(29,7,30)            108.485          estimate D2E/DX2                !
 ! A41   A(29,7,31)            108.422          estimate D2E/DX2                !
 ! A42   A(30,7,31)            104.8214         estimate D2E/DX2                !
 ! A43   A(6,8,9)              111.3639         estimate D2E/DX2                !
 ! A44   A(6,8,32)             109.6469         estimate D2E/DX2                !
 ! A45   A(6,8,33)             110.1375         estimate D2E/DX2                !
 ! A46   A(9,8,32)             108.8434         estimate D2E/DX2                !
 ! A47   A(9,8,33)             109.8833         estimate D2E/DX2                !
 ! A48   A(32,8,33)            106.851          estimate D2E/DX2                !
 ! A49   A(8,9,10)             111.328          estimate D2E/DX2                !
 ! A50   A(8,9,34)             110.2279         estimate D2E/DX2                !
 ! A51   A(8,9,35)             110.0389         estimate D2E/DX2                !
 ! A52   A(10,9,34)            107.551          estimate D2E/DX2                !
 ! A53   A(10,9,35)            110.3664         estimate D2E/DX2                !
 ! A54   A(34,9,35)            107.215          estimate D2E/DX2                !
 ! A55   A(9,10,11)            107.8468         estimate D2E/DX2                !
 ! A56   A(9,10,36)            110.6866         estimate D2E/DX2                !
 ! A57   A(9,10,37)            109.7629         estimate D2E/DX2                !
 ! A58   A(11,10,36)           110.813          estimate D2E/DX2                !
 ! A59   A(11,10,37)           109.8562         estimate D2E/DX2                !
 ! A60   A(36,10,37)           107.8771         estimate D2E/DX2                !
 ! A61   A(10,11,12)           111.4599         estimate D2E/DX2                !
 ! A62   A(10,11,38)           107.5051         estimate D2E/DX2                !
 ! A63   A(10,11,39)           110.204          estimate D2E/DX2                !
 ! A64   A(12,11,38)           110.2847         estimate D2E/DX2                !
 ! A65   A(12,11,39)           110.0765         estimate D2E/DX2                !
 ! A66   A(38,11,39)           107.1888         estimate D2E/DX2                !
 ! A67   A(11,12,13)           111.6866         estimate D2E/DX2                !
 ! A68   A(11,12,40)           108.7185         estimate D2E/DX2                !
 ! A69   A(11,12,41)           109.6783         estimate D2E/DX2                !
 ! A70   A(13,12,40)           109.6745         estimate D2E/DX2                !
 ! A71   A(13,12,41)           110.1271         estimate D2E/DX2                !
 ! A72   A(40,12,41)           106.8242         estimate D2E/DX2                !
 ! A73   A(12,13,14)           111.3539         estimate D2E/DX2                !
 ! A74   A(12,13,15)           108.9151         estimate D2E/DX2                !
 ! A75   A(12,13,42)           108.1958         estimate D2E/DX2                !
 ! A76   A(14,13,15)           111.5548         estimate D2E/DX2                !
 ! A77   A(14,13,42)           108.2457         estimate D2E/DX2                !
 ! A78   A(15,13,42)           108.4747         estimate D2E/DX2                !
 ! A79   A(13,14,43)           110.9131         estimate D2E/DX2                !
 ! A80   A(13,14,44)           111.9345         estimate D2E/DX2                !
 ! A81   A(13,14,45)           111.7149         estimate D2E/DX2                !
 ! A82   A(43,14,44)           108.2049         estimate D2E/DX2                !
 ! A83   A(43,14,45)           108.5598         estimate D2E/DX2                !
 ! A84   A(44,14,45)           105.274          estimate D2E/DX2                !
 ! A85   A(13,15,16)           112.8398         estimate D2E/DX2                !
 ! A86   A(13,15,46)           109.2572         estimate D2E/DX2                !
 ! A87   A(13,15,47)           110.0114         estimate D2E/DX2                !
 ! A88   A(16,15,46)           108.3989         estimate D2E/DX2                !
 ! A89   A(16,15,47)           109.404          estimate D2E/DX2                !
 ! A90   A(46,15,47)           106.7321         estimate D2E/DX2                !
 ! A91   A(15,16,48)           110.7433         estimate D2E/DX2                !
 ! A92   A(15,16,49)           110.2316         estimate D2E/DX2                !
 ! A93   A(15,16,50)           111.5953         estimate D2E/DX2                !
 ! A94   A(48,16,49)           108.4933         estimate D2E/DX2                !
 ! A95   A(48,16,50)           108.4624         estimate D2E/DX2                !
 ! A96   A(49,16,50)           107.1919         estimate D2E/DX2                !
 ! D1    D(17,1,2,3)          -179.6938         estimate D2E/DX2                !
 ! D2    D(17,1,2,20)           59.0619         estimate D2E/DX2                !
 ! D3    D(17,1,2,21)          -58.1739         estimate D2E/DX2                !
 ! D4    D(18,1,2,3)            60.4244         estimate D2E/DX2                !
 ! D5    D(18,1,2,20)          -60.8198         estimate D2E/DX2                !
 ! D6    D(18,1,2,21)         -178.0557         estimate D2E/DX2                !
 ! D7    D(19,1,2,3)           -59.7599         estimate D2E/DX2                !
 ! D8    D(19,1,2,20)          178.9959         estimate D2E/DX2                !
 ! D9    D(19,1,2,21)           61.76           estimate D2E/DX2                !
 ! D10   D(1,2,3,4)           -179.2016         estimate D2E/DX2                !
 ! D11   D(1,2,3,22)            59.524          estimate D2E/DX2                !
 ! D12   D(1,2,3,23)           -58.8002         estimate D2E/DX2                !
 ! D13   D(20,2,3,4)           -58.2537         estimate D2E/DX2                !
 ! D14   D(20,2,3,22)         -179.5281         estimate D2E/DX2                !
 ! D15   D(20,2,3,23)           62.1477         estimate D2E/DX2                !
 ! D16   D(21,2,3,4)            59.3714         estimate D2E/DX2                !
 ! D17   D(21,2,3,22)          -61.9031         estimate D2E/DX2                !
 ! D18   D(21,2,3,23)          179.7727         estimate D2E/DX2                !
 ! D19   D(2,3,4,5)            178.0519         estimate D2E/DX2                !
 ! D20   D(2,3,4,24)            57.0182         estimate D2E/DX2                !
 ! D21   D(2,3,4,25)           -59.859          estimate D2E/DX2                !
 ! D22   D(22,3,4,5)           -60.4366         estimate D2E/DX2                !
 ! D23   D(22,3,4,24)          178.5297         estimate D2E/DX2                !
 ! D24   D(22,3,4,25)           61.6525         estimate D2E/DX2                !
 ! D25   D(23,3,4,5)            57.49           estimate D2E/DX2                !
 ! D26   D(23,3,4,24)          -63.5437         estimate D2E/DX2                !
 ! D27   D(23,3,4,25)          179.5791         estimate D2E/DX2                !
 ! D28   D(3,4,5,6)           -178.9357         estimate D2E/DX2                !
 ! D29   D(3,4,5,26)            60.1145         estimate D2E/DX2                !
 ! D30   D(3,4,5,27)           -56.585          estimate D2E/DX2                !
 ! D31   D(24,4,5,6)           -59.5401         estimate D2E/DX2                !
 ! D32   D(24,4,5,26)          179.5101         estimate D2E/DX2                !
 ! D33   D(24,4,5,27)           62.8106         estimate D2E/DX2                !
 ! D34   D(25,4,5,6)            58.5666         estimate D2E/DX2                !
 ! D35   D(25,4,5,26)          -62.3832         estimate D2E/DX2                !
 ! D36   D(25,4,5,27)         -179.0827         estimate D2E/DX2                !
 ! D37   D(4,5,6,7)             59.8489         estimate D2E/DX2                !
 ! D38   D(4,5,6,8)           -176.9886         estimate D2E/DX2                !
 ! D39   D(4,5,6,28)           -59.379          estimate D2E/DX2                !
 ! D40   D(26,5,6,7)          -179.3864         estimate D2E/DX2                !
 ! D41   D(26,5,6,8)           -56.2239         estimate D2E/DX2                !
 ! D42   D(26,5,6,28)           61.3857         estimate D2E/DX2                !
 ! D43   D(27,5,6,7)           -62.564          estimate D2E/DX2                !
 ! D44   D(27,5,6,8)            60.5985         estimate D2E/DX2                !
 ! D45   D(27,5,6,28)          178.2081         estimate D2E/DX2                !
 ! D46   D(5,6,7,29)            60.9116         estimate D2E/DX2                !
 ! D47   D(5,6,7,30)           -60.4011         estimate D2E/DX2                !
 ! D48   D(5,6,7,31)          -177.8006         estimate D2E/DX2                !
 ! D49   D(8,6,7,29)           -60.5282         estimate D2E/DX2                !
 ! D50   D(8,6,7,30)           178.1592         estimate D2E/DX2                !
 ! D51   D(8,6,7,31)            60.7596         estimate D2E/DX2                !
 ! D52   D(28,6,7,29)         -179.7399         estimate D2E/DX2                !
 ! D53   D(28,6,7,30)           58.9475         estimate D2E/DX2                !
 ! D54   D(28,6,7,31)          -58.452          estimate D2E/DX2                !
 ! D55   D(5,6,8,9)            176.8136         estimate D2E/DX2                !
 ! D56   D(5,6,8,32)            56.2893         estimate D2E/DX2                !
 ! D57   D(5,6,8,33)           -61.0175         estimate D2E/DX2                !
 ! D58   D(7,6,8,9)            -59.9931         estimate D2E/DX2                !
 ! D59   D(7,6,8,32)           179.4826         estimate D2E/DX2                !
 ! D60   D(7,6,8,33)            62.1758         estimate D2E/DX2                !
 ! D61   D(28,6,8,9)            59.1489         estimate D2E/DX2                !
 ! D62   D(28,6,8,32)          -61.3754         estimate D2E/DX2                !
 ! D63   D(28,6,8,33)         -178.6822         estimate D2E/DX2                !
 ! D64   D(6,8,9,10)           179.2175         estimate D2E/DX2                !
 ! D65   D(6,8,9,34)            59.9508         estimate D2E/DX2                !
 ! D66   D(6,8,9,35)           -58.0923         estimate D2E/DX2                !
 ! D67   D(32,8,9,10)          -59.7869         estimate D2E/DX2                !
 ! D68   D(32,8,9,34)         -179.0537         estimate D2E/DX2                !
 ! D69   D(32,8,9,35)           62.9032         estimate D2E/DX2                !
 ! D70   D(33,8,9,10)           56.9018         estimate D2E/DX2                !
 ! D71   D(33,8,9,34)          -62.3649         estimate D2E/DX2                !
 ! D72   D(33,8,9,35)          179.592          estimate D2E/DX2                !
 ! D73   D(8,9,10,11)         -177.296          estimate D2E/DX2                !
 ! D74   D(8,9,10,36)           61.3327         estimate D2E/DX2                !
 ! D75   D(8,9,10,37)          -57.6365         estimate D2E/DX2                !
 ! D76   D(34,9,10,11)         -56.4463         estimate D2E/DX2                !
 ! D77   D(34,9,10,36)        -177.8177         estimate D2E/DX2                !
 ! D78   D(34,9,10,37)          63.2132         estimate D2E/DX2                !
 ! D79   D(35,9,10,11)          60.2024         estimate D2E/DX2                !
 ! D80   D(35,9,10,36)         -61.169          estimate D2E/DX2                !
 ! D81   D(35,9,10,37)         179.8619         estimate D2E/DX2                !
 ! D82   D(9,10,11,12)         177.3867         estimate D2E/DX2                !
 ! D83   D(9,10,11,38)          56.4173         estimate D2E/DX2                !
 ! D84   D(9,10,11,39)         -60.0866         estimate D2E/DX2                !
 ! D85   D(36,10,11,12)        -61.3206         estimate D2E/DX2                !
 ! D86   D(36,10,11,38)        177.71           estimate D2E/DX2                !
 ! D87   D(36,10,11,39)         61.2061         estimate D2E/DX2                !
 ! D88   D(37,10,11,12)         57.7863         estimate D2E/DX2                !
 ! D89   D(37,10,11,38)        -63.1832         estimate D2E/DX2                !
 ! D90   D(37,10,11,39)       -179.687          estimate D2E/DX2                !
 ! D91   D(10,11,12,13)       -179.2737         estimate D2E/DX2                !
 ! D92   D(10,11,12,40)         59.5746         estimate D2E/DX2                !
 ! D93   D(10,11,12,41)        -56.8957         estimate D2E/DX2                !
 ! D94   D(38,11,12,13)        -59.9424         estimate D2E/DX2                !
 ! D95   D(38,11,12,40)        178.906          estimate D2E/DX2                !
 ! D96   D(38,11,12,41)         62.4357         estimate D2E/DX2                !
 ! D97   D(39,11,12,13)         58.1263         estimate D2E/DX2                !
 ! D98   D(39,11,12,40)        -63.0253         estimate D2E/DX2                !
 ! D99   D(39,11,12,41)       -179.4956         estimate D2E/DX2                !
 ! D100  D(11,12,13,14)         59.8141         estimate D2E/DX2                !
 ! D101  D(11,12,13,15)       -176.7527         estimate D2E/DX2                !
 ! D102  D(11,12,13,42)        -59.0267         estimate D2E/DX2                !
 ! D103  D(40,12,13,14)       -179.5909         estimate D2E/DX2                !
 ! D104  D(40,12,13,15)        -56.1578         estimate D2E/DX2                !
 ! D105  D(40,12,13,42)         61.5682         estimate D2E/DX2                !
 ! D106  D(41,12,13,14)        -62.3064         estimate D2E/DX2                !
 ! D107  D(41,12,13,15)         61.1268         estimate D2E/DX2                !
 ! D108  D(41,12,13,42)        178.8528         estimate D2E/DX2                !
 ! D109  D(12,13,14,43)         59.9752         estimate D2E/DX2                !
 ! D110  D(12,13,14,44)        -60.9842         estimate D2E/DX2                !
 ! D111  D(12,13,14,45)       -178.763          estimate D2E/DX2                !
 ! D112  D(15,13,14,43)        -61.9406         estimate D2E/DX2                !
 ! D113  D(15,13,14,44)        177.1            estimate D2E/DX2                !
 ! D114  D(15,13,14,45)         59.3212         estimate D2E/DX2                !
 ! D115  D(42,13,14,43)        178.7862         estimate D2E/DX2                !
 ! D116  D(42,13,14,44)         57.8268         estimate D2E/DX2                !
 ! D117  D(42,13,14,45)        -59.952          estimate D2E/DX2                !
 ! D118  D(12,13,15,16)        176.5493         estimate D2E/DX2                !
 ! D119  D(12,13,15,46)         55.8907         estimate D2E/DX2                !
 ! D120  D(12,13,15,47)        -60.9679         estimate D2E/DX2                !
 ! D121  D(14,13,15,16)        -60.1374         estimate D2E/DX2                !
 ! D122  D(14,13,15,46)        179.2039         estimate D2E/DX2                !
 ! D123  D(14,13,15,47)         62.3454         estimate D2E/DX2                !
 ! D124  D(42,13,15,16)         58.9998         estimate D2E/DX2                !
 ! D125  D(42,13,15,46)        -61.6589         estimate D2E/DX2                !
 ! D126  D(42,13,15,47)       -178.5174         estimate D2E/DX2                !
 ! D127  D(13,15,16,48)        -57.3379         estimate D2E/DX2                !
 ! D128  D(13,15,16,49)       -177.4085         estimate D2E/DX2                !
 ! D129  D(13,15,16,50)         63.6003         estimate D2E/DX2                !
 ! D130  D(46,15,16,48)         63.8097         estimate D2E/DX2                !
 ! D131  D(46,15,16,49)        -56.2609         estimate D2E/DX2                !
 ! D132  D(46,15,16,50)       -175.2521         estimate D2E/DX2                !
 ! D133  D(47,15,16,48)        179.8397         estimate D2E/DX2                !
 ! D134  D(47,15,16,49)         59.7691         estimate D2E/DX2                !
 ! D135  D(47,15,16,50)        -59.222          estimate D2E/DX2                !
 --------------------------------------------------------------------------------
 Trust Radius=3.00D-01 FncErr=1.00D-07 GrdErr=1.00D-06 EigMax=2.50D+02 EigMin=1.00D-04
 Number of steps in this run=    290 maximum allowed number of steps=    300.
 GradGradGradGradGradGradGradGradGradGradGradGradGradGradGradGradGradGrad

                          Input orientation:                          
 ---------------------------------------------------------------------
 Center     Atomic      Atomic             Coordinates (Angstroms)
 Number     Number       Type             X           Y           Z
 ---------------------------------------------------------------------
      1          6           0        0.870600   -0.025800    0.074470
      2          6           0        2.385210   -0.006830    0.090270
      3          6           0        2.902980    1.371950    0.485570
      4          6           0        4.422120    1.367290    0.473950
      5          6           0        4.986100    2.740260    0.817080
      6          6           0        6.521790    2.747190    0.780920
      7          6           0        7.054750    2.366030   -0.608420
      8          6           0        7.012740    4.137870    1.209550
      9          6           0        8.529270    4.194280    1.272060
     10          6           0        9.014270    5.574740    1.677310
     11          6           0       10.532930    5.561420    1.649250
     12          6           0       11.107470    6.929320    1.981970
     13          6           0       12.645650    6.926170    1.937450
     14          6           0       13.163650    6.534020    0.547110
     15          6           0       13.159630    8.312550    2.361710
     16          6           0       14.677010    8.384020    2.429900
     17          1           0        0.508460   -1.019080   -0.204530
     18          1           0        0.482560    0.698660   -0.647920
     19          1           0        0.471600    0.223670    1.062430
     20          1           0        2.763380   -0.276810   -0.903840
     21          1           0        2.757860   -0.760960    0.792420
     22          1           0        2.536540    1.646360    1.481850
     23          1           0        2.532750    2.124550   -0.219930
     24          1           0        4.743420    1.063770   -0.527350
     25          1           0        4.806330    0.624120    1.180780
     26          1           0        4.643980    3.027750    1.821230
     27          1           0        4.592790    3.491740    0.123480
     28          1           0        6.890300    2.011320    1.504890
     29          1           0        6.714850    3.078140   -1.365750
     30          1           0        6.736190    1.364270   -0.907030
     31          1           0        8.147010    2.330970   -0.632750
     32          1           0        6.607330    4.383450    2.200780
     33          1           0        6.639910    4.899530    0.516440
     34          1           0        8.957570    3.968990    0.289100
     35          1           0        8.904360    3.438570    1.969880
     36          1           0        8.645580    5.837030    2.675300
     37          1           0        8.635750    6.322040    0.971960
     38          1           0       10.841300    5.254240    0.643720
     39          1           0       10.917600    4.811780    2.348900
     40          1           0       10.767130    7.220120    2.985030
     41          1           0       10.711550    7.675580    1.283950
     42          1           0       13.007720    6.185020    2.660460
     43          1           0       12.808790    7.235470   -0.214080
     44          1           0       12.843630    5.528240    0.260630
     45          1           0       14.255480    6.508800    0.514800
     46          1           0       12.756160    8.560800    3.352160
     47          1           0       12.789820    9.077600    1.669550
     48          1           0       15.069870    7.630010    3.118290
     49          1           0       14.993790    9.370730    2.778710
     50          1           0       15.131870    8.226940    1.447920
 ---------------------------------------------------------------------
                    Distance matrix (angstroms):
                    1          2          3          4          5
     1  C    0.000000
     2  C    1.514811   0.000000
     3  C    2.500655   1.524920   0.000000
     4  C    3.835828   2.486849   1.519192   0.000000
     5  C    5.013970   3.852192   2.514271   1.523436   0.000000
     6  C    6.334390   5.017262   3.882564   2.531199   1.536131
     7  C    6.665651   5.284244   4.407063   3.016579   2.539963
     8  C    7.506693   6.312318   5.006455   3.863746   2.492913
     9  C    8.826014   7.536274   6.343442   5.049508   3.856843
    10  C   10.012717   8.810054   7.512094   6.343387   5.000043
    11  C   11.271982   9.991054   8.781910   7.504269   6.278437
    12  C   12.522211  11.303386  10.021838   8.826336   7.508419
    13  C   13.800449  12.520191  11.308268  10.033415   8.800328
    14  C   13.941797  12.616108  11.486170  10.154546   9.018748
    15  C   15.025971  13.800712  12.525602  11.320086  10.012137
    16  C   16.336771  15.065476  13.841146  12.578673  11.329914
    17  H    1.093431   2.152614   3.453547   4.633771   5.935115
    18  H    1.094196   2.159333   2.756184   4.150397   5.157153
    19  H    1.094304   2.158733   2.750077   4.154610   5.174373
    20  H    2.145393   1.097341   2.160638   2.711603   4.123683
    21  H    2.148875   1.095717   2.159750   2.720410   4.150205
    22  H    2.748125   2.166202   1.096427   2.156190   2.763852
    23  H    2.733755   2.158882   1.095996   2.150496   2.733755
    24  H    4.067934   2.662479   2.123253   1.094513   2.162638
    25  H    4.139600   2.729310   2.159932   1.095229   2.154679
    26  H    5.158850   4.160161   2.748953   2.149770   1.099097
    27  H    5.121542   4.136968   2.734973   2.159918   1.095671
    28  H    6.514042   5.135165   4.164916   2.751277   2.151840
    29  H    6.772292   5.512061   4.568241   3.401193   2.804904
    30  H    6.107437   4.669641   4.078344   2.694816   2.815798
    31  H    7.681189   6.259905   5.447037   4.003532   3.501554
    32  H    7.541402   6.446325   5.072799   4.105400   2.691298
    33  H    7.598628   6.508184   5.139010   4.170985   2.736406
    34  H    9.022389   7.683918   6.591000   5.231952   4.190598
    35  H    8.951857   7.609404   6.518486   5.159310   4.143591
    36  H   10.079058   8.945687   7.596665   6.531626   5.141474
    37  H   10.069663   8.938748   7.589771   6.523208   5.115963
    38  H   11.296802   9.974499   8.838219   7.506202   6.374442
    39  H   11.380572  10.055948   8.918439   7.587569   6.466866
    40  H   12.606190  11.439625  10.114012   8.990011   7.628202
    41  H   12.554616  11.391762  10.067121   8.944694   7.573383
    42  H   13.877007  12.561154  11.401823  10.084834   8.922489
    43  H   13.976040  12.696242  11.532365  10.258906   9.081007
    44  H   13.199828  11.834043  10.776914   9.395788   8.356031
    45  H   14.901339  13.547582  12.460632  11.096475  10.010728
    46  H   15.024629  13.841995  12.529248  11.379231  10.033900
    47  H   15.082572  13.902406  12.590808  11.441011  10.088936
    48  H   16.416319  15.112605  13.932973  12.632845  11.440614
    49  H   17.177665  15.941852  14.677420  13.458350  12.164086
    50  H   16.534144  15.235338  14.052144  12.755476  11.551548
                    6          7          8          9         10
     6  C    0.000000
     7  C    1.536097   0.000000
     8  C    1.535821   2.538936   0.000000
     9  C    2.522947   3.008806   1.518866   0.000000
    10  C    3.874405   4.400011   2.507891   1.518263   0.000000
    11  C    4.976257   5.235010   3.822508   2.454791   1.518978
    12  C    6.321487   6.630104   5.015540   3.825118   2.511810
    13  C    7.503539   7.650784   6.327253   4.985033   3.883421
    14  C    7.649121   7.485055   6.634309   5.241890   4.406237
    15  C    8.805285   9.025095   7.519287   6.291877   5.014780
    16  C   10.049906  10.175777   8.846473   7.529225   6.365930
    17  H    7.163521   7.380787   8.420179   9.679506  10.925593
    18  H    6.535316   6.780514   7.610625   8.980825  10.098164
    19  H    6.561418   7.121749   7.624245   8.985307  10.098972
    20  H    5.109661   5.048538   6.481734   7.613848   8.942964
    21  H    5.145330   5.495788   6.502041   7.621918   8.948005
    22  H    4.193489   5.030047   5.130120   6.515268   7.578348
    23  H    4.159546   4.545077   5.115387   6.516753   7.583761
    24  H    2.776342   2.654185   4.197228   5.231695   6.591626
    25  H    2.758644   3.360190   4.149158   5.158939   6.516283
    26  H    2.164978   3.486099   2.686548   4.093636   5.060366
    27  H    2.169706   2.804309   2.730053   4.160369   5.128622
    28  H    1.096101   2.149172   2.150449   2.739662   4.151980
    29  H    2.180594   1.093701   2.800703   3.390565   4.558570
    30  H    2.192626   1.092782   3.499893   3.996564   5.440268
    31  H    2.193865   1.093093   2.818781   2.691904   4.075606
    32  H    2.168102   3.487373   1.098728   2.142932   2.736157
    33  H    2.171743   2.802860   1.095230   2.153606   2.727840
    34  H    2.769062   2.644947   2.158266   1.095631   2.123388
    35  H    2.751049   3.349482   2.155307   1.094871   2.158912
    36  H    4.200746   5.036010   2.775200   2.163617   1.095770
    37  H    4.157508   4.543916   2.731521   2.151455   1.095104
    38  H    4.996228   4.924182   4.027942   2.619887   2.123456
    39  H    5.103356   5.445094   4.123130   2.691656   2.157732
    40  H    6.548902   7.089206   5.171851   4.134972   2.736773
    41  H    6.488155   6.718971   5.118801   4.108763   2.729289
    42  H    7.577508   7.791541   6.498904   5.093841   4.157724
    43  H    7.788520   7.548240   6.724288   5.456349   4.553434
    44  H    6.926081   6.653266   6.069008   4.627758   4.083276
    45  H    8.604097   8.382999   7.652534   6.222534   5.449237
    46  H    8.903747   9.304163   7.559098   6.423388   5.071826
    47  H    8.952762   9.117310   7.614932   6.492850   5.150230
    48  H   10.118048  10.287857   8.986416   7.615265   6.555215
    49  H   10.937881  11.116062   9.671724   8.417580   7.167795
    50  H   10.227709  10.189145   9.093821   7.738708   6.671717
                   11         12         13         14         15
    11  C    0.000000
    12  C    1.520510   0.000000
    13  C    2.531637   1.538827   0.000000
    14  C    3.013528   2.538299   1.534650   0.000000
    15  C    3.869867   2.503775   1.538253   2.540858   0.000000
    16  C    5.074434   3.880517   2.548383   3.042640   1.520592
    17  H   12.133816  13.427467  14.663780  14.756968  15.928497
    18  H   11.398832  12.594688  13.907077  14.010338  15.090967
    19  H   11.404661  12.606864  13.924678  14.183589  15.103119
    20  H   10.048338  11.396493  12.554486  12.516320  13.875263
    21  H   10.057751  11.413651  12.576623  12.710522  13.892015
    22  H    8.904941  10.080706  11.413942  11.734497  12.572282
    23  H    8.905548  10.072736  11.400903  11.534635  12.565301
    24  H    7.647540   9.011243  10.143383  10.098434  11.477111
    25  H    7.575641   8.949962  10.086789  10.255401  11.414209
    26  H    6.413173   7.551476   8.901568   9.300650  10.036808
    27  H    6.472775   7.596841   8.940601   9.104646  10.081698
    28  H    5.088497   6.496064   7.580693   7.792758   8.929957
    29  H    5.462109   6.733047   7.803387   7.562352   9.101000
    30  H    6.210143   7.643572   8.599274   8.375744  10.011186
    31  H    4.619085   6.061840   6.925284   6.650141   8.358974
    32  H    4.135473   5.174997   6.557139   7.095415   7.641751
    33  H    4.108158   5.121222   6.495803   6.725450   7.586862
    34  H    2.620611   4.031307   5.006386   4.933260   6.389017
    35  H    2.694724   4.127854   5.114847   5.454139   6.482016
    36  H    2.165832   2.781134   4.210844   5.042613   5.157828
    37  H    2.153266   2.738304   4.168506   4.552726   5.134104
    38  H    1.095693   2.160475   2.779346   2.653390   4.204688
    39  H    1.095190   2.157467   2.761538   3.355190   4.157193
    40  H    2.142532   1.098419   2.170868   3.486760   2.702959
    41  H    2.152910   1.095851   2.174723   2.803371   2.749617
    42  H    2.745179   2.150647   1.096878   2.147641   2.153767
    43  H    3.384373   2.794790   2.179762   1.094243   2.813874
    44  H    2.696053   2.817852   2.192061   1.093653   3.502396
    45  H    4.005232   3.498484   2.188535   1.092599   2.804546
    46  H    4.103527   2.693943   2.164632   3.484565   1.097910
    47  H    4.178216   2.746455   2.172834   2.805249   1.095968
    48  H    5.198170   4.181244   2.786865   3.383169   2.165015
    49  H    5.973759   4.658193   3.492471   4.046773   2.158188
    50  H    5.319378   4.262021   2.848321   2.747968   2.175333
                   16         17         18         19         20
    16  C    0.000000
    17  H   17.207740   0.000000
    18  H   16.432290   1.774231   0.000000
    19  H   16.439433   1.775098   1.775115   0.000000
    20  H   15.101602   2.474806   2.493828   3.060875   0.000000
    21  H   15.112185   2.473931   3.063015   2.503874   1.764010
    22  H   13.917107   3.749874   3.106910   2.542427   3.072712
    23  H   13.917098   3.739037   2.533696   3.083201   2.507479
    24  H   12.688877   4.730472   4.278174   4.634826   2.420632
    25  H   12.617713   4.805297   4.695177   4.354796   3.054662
    26  H   11.389548   6.130503   5.370175   5.084034   4.677903
    27  H   11.443141   6.094000   5.028951   5.342857   4.313247
    28  H   10.104445   7.268653   6.885986   6.677662   5.298017
    29  H   10.293460   7.526946   6.709593   7.281636   5.204149
    30  H   11.111643   6.705109   6.294288   6.665195   4.298415
    31  H    9.415951   8.351865   7.836355   8.137952   5.988111
    32  H    9.009816   8.495238   7.694516   7.499786   6.792101
    33  H    8.966492   8.552451   7.544269   7.759499   6.621116
    34  H    7.535749   9.824051   9.132298   9.307908   7.603809
    35  H    7.615286   9.751402   9.235080   9.070308   7.731361
    36  H    6.551758  11.023266  10.202036  10.046149   9.208125
    37  H    6.547837  11.014945  10.035981  10.190763   9.030403
    38  H    5.262949  12.117824  11.389694  11.533110   9.911622
    39  H    5.186581  12.201194  11.609856  11.481493  10.147185
    40  H    4.117037  13.538760  12.708271  12.595421  11.635604
    41  H    4.188074  13.487614  12.531631  12.666357  11.454272
    42  H    2.770431  14.708458  14.068588  13.973035  12.625608
    43  H    3.435119  14.813366  13.959013  14.247845  12.562658
    44  H    4.027716  13.972838  13.302119  13.485120  11.690425
    45  H    2.713254  15.689709  14.993431  15.159093  13.421081
    46  H    2.138102  15.950871  15.114733  15.022018  14.002590
    47  H    2.149575  16.008964  15.068044  15.182201  13.951947
    48  H    1.093961  17.259274  16.583654  16.498179  15.170532
    49  H    1.093442  18.074088  17.248837  17.248430  16.006846
    50  H    1.093552  17.379977  16.603308  16.707018  15.192896
                   21         22         23         24         25
    21  H    0.000000
    22  H    2.513859   0.000000
    23  H    3.066218   1.767692   0.000000
    24  H    3.002313   3.040825   2.471199   0.000000
    25  H    2.503098   2.507502   3.063078   1.764924   0.000000
    26  H    4.355482   2.542581   3.072360   3.063157   2.492784
    27  H    4.679734   3.078760   2.496178   2.518195   3.063777
    28  H    5.026948   4.369091   4.687864   3.104343   2.524342
    29  H    5.920655   5.255197   4.439842   2.940602   4.018641
    30  H    4.819942   4.839771   4.326551   2.050753   2.937879
    31  H    6.374487   6.034699   5.633200   3.633363   4.166818
    32  H    6.577754   4.957807   5.250206   4.683709   4.291452
    33  H    6.869325   5.324733   5.011139   4.404455   4.699201
    34  H    7.814228   6.931586   6.703684   5.183238   5.405187
    35  H    7.536705   6.633198   6.864352   5.402708   5.033653
    36  H    9.041236   7.503760   7.715669   6.947505   6.644386
    37  H    9.206015   7.702099   7.502408   6.711748   6.868359
    38  H   10.077040   9.093311   8.920362   7.491034   7.625438
    39  H   10.002970   9.000768   9.172012   7.774374   7.499908
    40  H   11.517534  10.053306  10.200079   9.301749   9.071586
    41  H   11.605085  10.159796   9.998418   9.089302   9.198117
    42  H   12.521815  11.473193  11.597804  10.231715  10.018775
    43  H   12.883211  11.816660  11.476870  10.160621  10.473536
    44  H   11.897882  11.081357  10.868776   9.282554   9.460193
    45  H   13.605945  12.724467  12.537299  11.009710  11.151656
    46  H   13.907318  12.479911  12.597748  11.638731  11.441398
    47  H   14.078595  12.664451  12.534852  11.566866  11.637712
    48  H   15.079908  13.984504  14.093728  12.768781  12.576832
    49  H   16.009824  14.714986  14.723331  13.601680  13.521868
    50  H   15.307781  14.210824  14.098181  12.772337  12.825405
                   26         27         28         29         30
    26  H    0.000000
    27  H    1.760756   0.000000
    28  H    2.485791   3.062432   0.000000
    29  H    3.801037   2.625264   3.067485   0.000000
    30  H    3.819412   3.190963   2.501956   1.774325   0.000000
    31  H    4.333444   3.814676   2.500200   1.773875   1.732095
    32  H    2.415931   3.027985   2.488239   3.799412   4.334805
    33  H    3.031464   2.515351   3.062921   2.620251   3.812296
    34  H    4.673373   4.393916   3.095840   2.926078   3.626268
    35  H    4.282722   4.690592   2.511911   4.006281   4.156957
    36  H    4.963294   5.332661   4.368858   5.260159   6.040235
    37  H    5.244791   5.007598   4.681123   4.435948   5.631910
    38  H    6.689586   6.513135   5.183488   5.079466   5.864181
    39  H    6.543662   6.833610   4.977356   5.870881   6.322230
    40  H    7.511549   7.759624   6.659746   7.246120   8.104788
    41  H    7.662010   7.502695   6.836271   6.643115   7.774093
    42  H    8.979132   9.192446   7.495195   8.090938   8.677483
    43  H    9.408056   9.035049   8.079302   7.466314   8.475119
    44  H    8.713334   8.499559   7.025599   6.797797   7.483508
    45  H   10.305600  10.130319   8.686396   8.495116   9.221036
    46  H    9.938101  10.137078   8.984231   9.424206  10.303921
    47  H   10.147827  10.039097   9.206724   9.061558  10.138080
    48  H   11.470063  11.656044  10.053761  10.518198  11.176445
    49  H   12.176565  12.239018  11.020439  11.194377  12.077915
    50  H   11.711822  11.629637  10.322822  10.260268  11.096372
                   31         32         33         34         35
    31  H    0.000000
    32  H    3.822588   0.000000
    33  H    3.192098   1.761931   0.000000
    34  H    2.046930   3.057765   2.507815   0.000000
    35  H    2.928146   2.494486   3.061801   1.763292   0.000000
    36  H    4.846052   2.548044   3.092296   3.046451   2.513403
    37  H    4.329273   3.063106   2.492872   2.471176   3.063070
    38  H    4.175414   4.594476   4.218258   2.307826   2.967675
    39  H    4.766637   4.334032   4.654486   2.965601   2.466272
    40  H    6.622473   5.095653   5.339758   4.594822   4.335961
    41  H    6.230205   5.340723   4.987362   4.219595   4.657112
    42  H    7.023207   6.664980   6.840929   5.190169   4.985725
    43  H    6.779498   7.240419   6.636668   5.074936   5.867768
    44  H    5.751426   6.630699   6.240742   4.187306   4.775574
    45  H    7.488961   8.115038   7.783743   5.879577   6.338616
    46  H    8.714043   7.522236   7.671683   6.700473   6.556241
    47  H    8.507249   7.780773   7.523784   6.533734   6.854608
    48  H    9.490844   9.110245   9.235224   7.666003   7.543244
    49  H   10.395897   9.774440   9.741499   8.474250   8.539665
    50  H    9.374429   9.381204   9.168026   7.589136   7.872916
                   36         37         38         39         40
    36  H    0.000000
    37  H    1.771073   0.000000
    38  H    3.047646   2.472325   0.000000
    39  H    2.513911   3.063281   1.763301   0.000000
    40  H    2.551440   3.066232   3.058091   2.495477   0.000000
    41  H    3.095861   2.497670   2.507911   3.062340   1.761876
    42  H    4.376024   4.688702   3.102735   2.520210   2.489382
    43  H    5.257040   4.433431   2.920978   4.002467   3.795117
    44  H    4.852794   4.340779   2.056978   2.929809   3.820558
    45  H    6.048968   5.641386   3.639666   4.169561   4.333197
    46  H    4.977342   5.258819   4.683554   4.294413   2.426612
    47  H    5.356076   5.033492   4.412158   4.707860   3.044995
    48  H    6.684498   6.907635   5.445051   5.076980   4.324273
    49  H    7.266189   7.278979   6.224696   6.130586   4.746825
    50  H    7.020690   6.786366   5.281352   5.498650   4.735752
                   41         42         43         44         45
    41  H    0.000000
    42  H    3.064139   0.000000
    43  H    2.614614   3.066920   0.000000
    44  H    3.194373   2.493485   1.772342   0.000000
    45  H    3.809515   2.503117   1.775451   1.737648   0.000000
    46  H    3.039990   2.487180   3.804910   4.331470   3.809104
    47  H    2.536445   3.065355   2.634742   3.819150   3.174955
    48  H    4.728830   2.559310   4.046336   4.188055   2.949322
    49  H    4.842047   3.755956   4.276722   5.072341   3.723041
    50  H    4.457590   3.186174   3.023567   3.732115   2.142610
                   46         47         48         49         50
    46  H    0.000000
    47  H    1.760509   0.000000
    48  H    2.504859   3.064799   0.000000
    49  H    2.447819   2.484682   1.775164   0.000000
    50  H    3.062938   2.501588   1.774910   1.760206   0.000000
 Stoichiometry    C16H34
 Framework group  C1[X(C16H34)]
 Deg. of freedom   144
 Full point group                 C1      NOp   1
 Largest Abelian subgroup         C1      NOp   1
 Largest concise Abelian subgroup C1      NOp   1
                         Standard orientation:                         
 ---------------------------------------------------------------------
 Center     Atomic      Atomic             Coordinates (Angstroms)
 Number     Number       Type             X           Y           Z
 ---------------------------------------------------------------------
      1          6           0       -8.384744   -0.397224    0.155571
      2          6           0       -7.114740    0.291406   -0.299985
      3          6           0       -5.885865   -0.491302    0.150144
      4          6           0       -4.628617    0.231389   -0.302610
      5          6           0       -3.371648   -0.490198    0.166645
      6          6           0       -2.097753    0.251018   -0.266357
      7          6           0       -2.051200    1.674948    0.307971
      8          6           0       -0.880159   -0.573928    0.175994
      9          6           0        0.418056    0.062727   -0.289047
     10          6           0        1.621990   -0.743179    0.165024
     11          6           0        2.871913   -0.004561   -0.281552
     12          6           0        4.133486   -0.711196    0.188606
     13          6           0        5.402859    0.042490   -0.245721
     14          6           0        5.430917    1.466084    0.326768
     15          6           0        6.636655   -0.766281    0.190008
     16          6           0        7.944488   -0.141376   -0.269628
     17          1           0       -9.260221    0.167716   -0.176052
     18          1           0       -8.414357   -0.470751    1.246892
     19          1           0       -8.446119   -1.407420   -0.260647
     20          1           0       -7.082582    1.307280    0.113685
     21          1           0       -7.116703    0.387949   -1.391438
     22          1           0       -5.905593   -1.505598   -0.265749
     23          1           0       -5.883177   -0.583547    1.242248
     24          1           0       -4.662782    1.243862    0.111746
     25          1           0       -4.614420    0.324130   -1.393814
     26          1           0       -3.363040   -1.505688   -0.253734
     27          1           0       -3.387101   -0.600931    1.256597
     28          1           0       -2.090304    0.320501   -1.360228
     29          1           0       -2.052294    1.655018    1.401490
     30          1           0       -2.897756    2.278575   -0.028405
     31          1           0       -1.166556    2.222935   -0.026647
     32          1           0       -0.948511   -1.587287   -0.243094
     33          1           0       -0.873041   -0.680943    1.265961
     34          1           0        0.517506    1.070019    0.130333
     35          1           0        0.416672    0.164286   -1.379196
     36          1           0        1.594080   -1.753124   -0.259175
     37          1           0        1.614952   -0.836530    1.256119
     38          1           0        2.824455    1.006786    0.137336
     39          1           0        2.882013    0.096912   -1.371984
     40          1           0        4.145211   -1.726895   -0.229416
     41          1           0        4.112441   -0.817237    1.279111
     42          1           0        5.401977    0.112496   -1.340363
     43          1           0        5.411114    1.447628    1.420676
     44          1           0        4.582636    2.062774   -0.020302
     45          1           0        6.319428    2.014066    0.004222
     46          1           0        6.571249   -1.779641   -0.227401
     47          1           0        6.648242   -0.874386    1.280570
     48          1           0        7.957488   -0.025851   -1.357394
     49          1           0        8.788302   -0.772575    0.022229
     50          1           0        8.102977    0.840563    0.184833
 ---------------------------------------------------------------------
 Rotational constants (GHZ):           2.7074698           0.0886373           0.0870247
 Standard basis: 6-31G(2df,p) (6D, 7F)
 There are   666 symmetry adapted cartesian basis functions of A   symmetry.
 There are   618 symmetry adapted basis functions of A   symmetry.
   618 basis functions,   942 primitive gaussians,   666 cartesian basis functions
    65 alpha electrons       65 beta electrons
       nuclear repulsion energy      1078.1141129836 Hartrees.
 NAtoms=   50 NActive=   50 NUniq=   50 SFac= 1.00D+00 NAtFMM=   60 NAOKFM=F Big=F
 Integral buffers will be    131072 words long.
 Raffenetti 2 integral format.
 Two-electron integral symmetry is turned on.
 One-electron integrals computed using PRISM.
 PrsmSu:  requested number of processors reduced to:  12 ShMem   1 Linda.
 NBasis=   618 RedAO= T EigKep=  4.24D-04  NBF=   618
 NBsUse=   618 1.00D-06 EigRej= -1.00D+00 NBFU=   618
 ExpMin= 1.61D-01 ExpMax= 3.05D+03 ExpMxC= 4.57D+02 IAcc=3 IRadAn=         5 AccDes= 0.00D+00
 Harris functional with IExCor=  402 and IRadAn=       5 diagonalized for initial guess.
 HarFok:  IExCor=  402 AccDes= 0.00D+00 IRadAn=         5 IDoV= 1 UseB2=F ITyADJ=14
 ICtDFT=  3500011 ScaDFX=  1.000000  1.000000  1.000000  1.000000
 FoFCou: FMM=F IPFlag=           0 FMFlag=      100000 FMFlg1=           0
         NFxFlg=           0 DoJE=T BraDBF=F KetDBF=T FulRan=T
         wScrn=  0.000000 ICntrl=       500 IOpCl=  0 I1Cent=   200000004 NGrid=           0
         NMat0=    1 NMatS0=      1 NMatT0=    0 NMatD0=    1 NMtDS0=    0 NMtDT0=    0
 Petite list used in FoFCou.
 Requested convergence on RMS density matrix=1.00D-08 within 128 cycles.
 Requested convergence on MAX density matrix=1.00D-06.
 Requested convergence on             energy=1.00D-06.
 No special actions if energy rises.
 Integral accuracy reduced to 1.0D-05 until final iterations.
 Initial convergence to 1.0D-05 achieved.  Increase integral accuracy.
 SCF Done:  E(RB3LYP) =  -630.259708205     A.U. after   11 cycles
            NFock= 11  Conv=0.80D-08     -V/T= 2.0087

 **********************************************************************

            Population analysis using the SCF density.

 **********************************************************************

 Orbital symmetries:
       Occupied  (A) (A) (A) (A) (A) (A) (A) (A) (A) (A) (A) (A)
                 (A) (A) (A) (A) (A) (A) (A) (A) (A) (A) (A) (A)
                 (A) (A) (A) (A) (A) (A) (A) (A) (A) (A) (A) (A)
                 (A) (A) (A) (A) (A) (A) (A) (A) (A) (A) (A) (A)
                 (A) (A) (A) (A) (A) (A) (A) (A) (A) (A) (A) (A)
                 (A) (A) (A) (A) (A)
       Virtual   (A) (A) (A) (A) (A) (A) (A) (A) (A) (A) (A) (A)
                 (A) (A) (A) (A) (A) (A) (A) (A) (A) (A) (A) (A)
                 (A) (A) (A) (A) (A) (A) (A) (A) (A) (A) (A) (A)
                 (A) (A) (A) (A) (A) (A) (A) (A) (A) (A) (A) (A)
                 (A) (A) (A) (A) (A) (A) (A) (A) (A) (A) (A) (A)
                 (A) (A) (A) (A) (A) (A) (A) (A) (A) (A) (A) (A)
                 (A) (A) (A) (A) (A) (A) (A) (A) (A) (A) (A) (A)
                 (A) (A) (A) (A) (A) (A) (A) (A) (A) (A) (A) (A)
                 (A) (A) (A) (A) (A) (A) (A) (A) (A) (A) (A) (A)
                 (A) (A) (A) (A) (A) (A) (A) (A) (A) (A) (A) (A)
                 (A) (A) (A) (A) (A) (A) (A) (A) (A) (A) (A) (A)
                 (A) (A) (A) (A) (A) (A) (A) (A) (A) (A) (A) (A)
                 (A) (A) (A) (A) (A) (A) (A) (A) (A) (A) (A) (A)
                 (A) (A) (A) (A) (A) (A) (A) (A) (A) (A) (A) (A)
                 (A) (A) (A) (A) (A) (A) (A) (A) (A) (A) (A) (A)
                 (A) (A) (A) (A) (A) (A) (A) (A) (A) (A) (A) (A)
                 (A) (A) (A) (A) (A) (A) (A) (A) (A) (A) (A) (A)
                 (A) (A) (A) (A) (A) (A) (A) (A) (A) (A) (A) (A)
                 (A) (A) (A) (A) (A) (A) (A) (A) (A) (A) (A) (A)
                 (A) (A) (A) (A) (A) (A) (A) (A) (A) (A) (A) (A)
                 (A) (A) (A) (A) (A) (A) (A) (A) (A) (A) (A) (A)
                 (A) (A) (A) (A) (A) (A) (A) (A) (A) (A) (A) (A)
                 (A) (A) (A) (A) (A) (A) (A) (A) (A) (A) (A) (A)
                 (A) (A) (A) (A) (A) (A) (A) (A) (A) (A) (A) (A)
                 (A) (A) (A) (A) (A) (A) (A) (A) (A) (A) (A) (A)
                 (A) (A) (A) (A) (A) (A) (A) (A) (A) (A) (A) (A)
                 (A) (A) (A) (A) (A) (A) (A) (A) (A) (A) (A) (A)
                 (A) (A) (A) (A) (A) (A) (A) (A) (A) (A) (A) (A)
                 (A) (A) (A) (A) (A) (A) (A) (A) (A) (A) (A) (A)
                 (A) (A) (A) (A) (A) (A) (A) (A) (A) (A) (A) (A)
                 (A) (A) (A) (A) (A) (A) (A) (A) (A) (A) (A) (A)
                 (A) (A) (A) (A) (A) (A) (A) (A) (A) (A) (A) (A)
                 (A) (A) (A) (A) (A) (A) (A) (A) (A) (A) (A) (A)
                 (A) (A) (A) (A) (A) (A) (A) (A) (A) (A) (A) (A)
                 (A) (A) (A) (A) (A) (A) (A) (A) (A) (A) (A) (A)
                 (A) (A) (A) (A) (A) (A) (A) (A) (A) (A) (A) (A)
                 (A) (A) (A) (A) (A) (A) (A) (A) (A) (A) (A) (A)
                 (A) (A) (A) (A) (A) (A) (A) (A) (A) (A) (A) (A)
                 (A) (A) (A) (A) (A) (A) (A) (A) (A) (A) (A) (A)
                 (A) (A) (A) (A) (A) (A) (A) (A) (A) (A) (A) (A)
                 (A) (A) (A) (A) (A) (A) (A) (A) (A) (A) (A) (A)
                 (A) (A) (A) (A) (A) (A) (A) (A) (A) (A) (A) (A)
                 (A) (A) (A) (A) (A) (A) (A) (A) (A) (A) (A) (A)
                 (A) (A) (A) (A) (A) (A) (A) (A) (A) (A) (A) (A)
                 (A) (A) (A) (A) (A) (A) (A) (A) (A) (A) (A) (A)
                 (A) (A) (A) (A) (A) (A) (A) (A) (A) (A) (A) (A)
                 (A)
 The electronic state is 1-A.
 Alpha  occ. eigenvalues --  -10.17583 -10.17442 -10.16963 -10.16934 -10.16698
 Alpha  occ. eigenvalues --  -10.16573 -10.16564 -10.16530 -10.16485 -10.16485
 Alpha  occ. eigenvalues --  -10.16463 -10.16454 -10.16449 -10.16437 -10.16410
 Alpha  occ. eigenvalues --  -10.16401  -0.82089  -0.81257  -0.79525  -0.77696
 Alpha  occ. eigenvalues --   -0.74356  -0.72431  -0.70202  -0.67144  -0.66422
 Alpha  occ. eigenvalues --   -0.63275  -0.60250  -0.57608  -0.57149  -0.56806
 Alpha  occ. eigenvalues --   -0.54890  -0.54768  -0.48042  -0.47532  -0.46022
 Alpha  occ. eigenvalues --   -0.45108  -0.44604  -0.43334  -0.42536  -0.42313
 Alpha  occ. eigenvalues --   -0.41399  -0.40637  -0.40451  -0.38552  -0.38362
 Alpha  occ. eigenvalues --   -0.37897  -0.37276  -0.36690  -0.35770  -0.35236
 Alpha  occ. eigenvalues --   -0.34975  -0.34379  -0.33670  -0.33302  -0.32974
 Alpha  occ. eigenvalues --   -0.32583  -0.32275  -0.31978  -0.31612  -0.31505
 Alpha  occ. eigenvalues --   -0.31346  -0.30883  -0.30704  -0.29403  -0.26509
 Alpha virt. eigenvalues --    0.08481   0.08899   0.09732   0.10562   0.10797
 Alpha virt. eigenvalues --    0.11269   0.11663   0.12262   0.12621   0.13429
 Alpha virt. eigenvalues --    0.13564   0.14141   0.14997   0.15721   0.16074
 Alpha virt. eigenvalues --    0.16435   0.16776   0.17147   0.17688   0.17774
 Alpha virt. eigenvalues --    0.17930   0.18717   0.18995   0.19641   0.19815
 Alpha virt. eigenvalues --    0.20029   0.20500   0.20770   0.21326   0.21886
 Alpha virt. eigenvalues --    0.22029   0.22517   0.22531   0.23273   0.23620
 Alpha virt. eigenvalues --    0.23793   0.24273   0.24401   0.24894   0.25896
 Alpha virt. eigenvalues --    0.26184   0.26709   0.27267   0.28321   0.29337
 Alpha virt. eigenvalues --    0.29930   0.30076   0.35525   0.35857   0.41041
 Alpha virt. eigenvalues --    0.44529   0.46408   0.47574   0.48156   0.48627
 Alpha virt. eigenvalues --    0.48821   0.48965   0.49265   0.51189   0.51662
 Alpha virt. eigenvalues --    0.52758   0.52958   0.53146   0.53571   0.54329
 Alpha virt. eigenvalues --    0.55614   0.55714   0.57032   0.58052   0.58626
 Alpha virt. eigenvalues --    0.58730   0.59909   0.60047   0.60983   0.61647
 Alpha virt. eigenvalues --    0.62376   0.62764   0.63363   0.64079   0.65282
 Alpha virt. eigenvalues --    0.66250   0.66870   0.67074   0.67478   0.68327
 Alpha virt. eigenvalues --    0.69389   0.70167   0.70383   0.71643   0.71776
 Alpha virt. eigenvalues --    0.72509   0.72777   0.73422   0.73593   0.73672
 Alpha virt. eigenvalues --    0.74213   0.74353   0.74752   0.75310   0.75526
 Alpha virt. eigenvalues --    0.75828   0.76076   0.76455   0.76670   0.77196
 Alpha virt. eigenvalues --    0.77601   0.78126   0.78928   0.79405   0.80219
 Alpha virt. eigenvalues --    0.80445   0.80733   0.81082   0.81285   0.81879
 Alpha virt. eigenvalues --    0.83150   0.83578   0.84060   0.84113   0.85492
 Alpha virt. eigenvalues --    0.86420   0.86917   0.87073   0.87439   0.87645
 Alpha virt. eigenvalues --    0.88058   0.89131   0.89607   0.89809   0.90483
 Alpha virt. eigenvalues --    0.91510   0.92949   0.95328   0.97414   1.03049
 Alpha virt. eigenvalues --    1.06228   1.06713   1.08326   1.08654   1.09192
 Alpha virt. eigenvalues --    1.09343   1.10020   1.10330   1.11778   1.13874
 Alpha virt. eigenvalues --    1.16675   1.17776   1.19500   1.20638   1.21788
 Alpha virt. eigenvalues --    1.22553   1.22978   1.23461   1.24323   1.25113
 Alpha virt. eigenvalues --    1.25538   1.25702   1.26759   1.27784   1.28691
 Alpha virt. eigenvalues --    1.32166   1.34592   1.35327   1.35772   1.37869
 Alpha virt. eigenvalues --    1.38232   1.38441   1.39057   1.40304   1.41576
 Alpha virt. eigenvalues --    1.41919   1.42421   1.43576   1.44570   1.46194
 Alpha virt. eigenvalues --    1.46776   1.48857   1.49261   1.49609   1.52334
 Alpha virt. eigenvalues --    1.54032   1.54113   1.54703   1.56232   1.56822
 Alpha virt. eigenvalues --    1.57878   1.58977   1.60177   1.61230   1.61977
 Alpha virt. eigenvalues --    1.64877   1.66226   1.66814   1.68108   1.68342
 Alpha virt. eigenvalues --    1.69170   1.69533   1.71271   1.71866   1.74280
 Alpha virt. eigenvalues --    1.76183   1.78915   1.79112   1.79871   1.81472
 Alpha virt. eigenvalues --    1.82163   1.84542   1.84686   1.85545   1.86723
 Alpha virt. eigenvalues --    1.87385   1.87864   1.88362   1.89546   1.90097
 Alpha virt. eigenvalues --    1.91822   1.92185   1.93468   1.94386   1.95085
 Alpha virt. eigenvalues --    1.95562   1.96033   1.96945   1.97424   1.97727
 Alpha virt. eigenvalues --    1.98161   1.98668   1.99930   2.01815   2.04414
 Alpha virt. eigenvalues --    2.05966   2.14663   2.15320   2.17358   2.17696
 Alpha virt. eigenvalues --    2.17999   2.20336   2.20999   2.21115   2.21616
 Alpha virt. eigenvalues --    2.22810   2.23346   2.25839   2.26544   2.27266
 Alpha virt. eigenvalues --    2.27938   2.28727   2.29751   2.30559   2.31545
 Alpha virt. eigenvalues --    2.32187   2.33094   2.35341   2.35798   2.37868
 Alpha virt. eigenvalues --    2.38471   2.40648   2.42361   2.42543   2.45604
 Alpha virt. eigenvalues --    2.46065   2.47577   2.47762   2.51832   2.52950
 Alpha virt. eigenvalues --    2.54255   2.56842   2.58776   2.61664   2.64498
 Alpha virt. eigenvalues --    2.65469   2.66164   2.68828   2.70976   2.74016
 Alpha virt. eigenvalues --    2.74450   2.74990   2.75244   2.75646   2.75940
 Alpha virt. eigenvalues --    2.76616   2.77139   2.77537   2.77954   2.78865
 Alpha virt. eigenvalues --    2.79444   2.80166   2.80797   2.81394   2.81620
 Alpha virt. eigenvalues --    2.82275   2.82784   2.83305   2.83350   2.83845
 Alpha virt. eigenvalues --    2.84058   2.84939   2.85424   2.85476   2.85981
 Alpha virt. eigenvalues --    2.86821   2.87324   2.88643   2.89059   2.89566
 Alpha virt. eigenvalues --    2.90291   2.90684   2.91234   2.91760   2.92368
 Alpha virt. eigenvalues --    2.93178   2.93276   2.94415   2.95041   2.95549
 Alpha virt. eigenvalues --    2.96161   2.96607   2.97464   2.98411   2.99136
 Alpha virt. eigenvalues --    2.99907   3.00480   3.00703   3.01006   3.01556
 Alpha virt. eigenvalues --    3.03997   3.04583   3.06710   3.07490   3.08545
 Alpha virt. eigenvalues --    3.10336   3.11590   3.13857   3.15158   3.15719
 Alpha virt. eigenvalues --    3.16333   3.17071   3.18347   3.19400   3.20055
 Alpha virt. eigenvalues --    3.22048   3.24074   3.24627   3.25326   3.25816
 Alpha virt. eigenvalues --    3.27639   3.27990   3.30097   3.32433   3.33272
 Alpha virt. eigenvalues --    3.34351   3.37241   3.38316   3.38476   3.39276
 Alpha virt. eigenvalues --    3.39965   3.43002   3.43542   3.45769   3.47286
 Alpha virt. eigenvalues --    3.48285   3.48519   3.49709   3.51012   3.52766
 Alpha virt. eigenvalues --    3.54513   3.54908   3.56091   3.56250   3.57343
 Alpha virt. eigenvalues --    3.58032   3.59317   3.59497   3.60479   3.61048
 Alpha virt. eigenvalues --    3.62181   3.62287   3.64258   3.64907   3.65972
 Alpha virt. eigenvalues --    3.66428   3.67150   3.69280   3.71017   3.72114
 Alpha virt. eigenvalues --    3.73140   3.73592   3.74035   3.74859   3.76028
 Alpha virt. eigenvalues --    3.76385   3.76953   3.77715   3.78192   3.79826
 Alpha virt. eigenvalues --    3.80210   3.81570   3.82783   3.83005   3.83996
 Alpha virt. eigenvalues --    3.84671   3.85166   3.88677   3.90566   3.91839
 Alpha virt. eigenvalues --    3.93932   3.94993   3.97816   3.98822   3.99585
 Alpha virt. eigenvalues --    3.99908   4.01477   4.02507   4.07138   4.11286
 Alpha virt. eigenvalues --    4.16133   4.18064   4.22105   4.26489   4.27471
 Alpha virt. eigenvalues --    4.34206   4.34573   4.37808   4.39309   4.40576
 Alpha virt. eigenvalues --    4.40918   4.41527   4.43084   4.43705   4.44294
 Alpha virt. eigenvalues --    4.44531   4.45133   4.46160   4.47044   4.48055
 Alpha virt. eigenvalues --    4.49705   4.50538   4.51309   4.52756   4.53675
 Alpha virt. eigenvalues --    4.54378   4.55761   4.56094   4.57002   4.57530
 Alpha virt. eigenvalues --    4.58356   4.59177   4.59596   4.60115   4.60350
 Alpha virt. eigenvalues --    4.61206   4.61971   4.63000   4.63401   4.63663
 Alpha virt. eigenvalues --    4.64249   4.64921   4.65155   4.65771   4.66517
 Alpha virt. eigenvalues --    4.67120   4.68307   4.68815   4.69469   4.70528
 Alpha virt. eigenvalues --    4.70820   4.71993   4.72564   4.73478   4.73930
 Alpha virt. eigenvalues --    4.75307   4.75921   4.76127   4.77400   4.78199
 Alpha virt. eigenvalues --    4.78680   4.78907   4.78997   4.80633   4.81440
 Alpha virt. eigenvalues --    4.82444   4.82714   4.82873   4.83806   4.84288
 Alpha virt. eigenvalues --    4.84578   4.85241   4.86003   4.86163   4.88079
 Alpha virt. eigenvalues --    4.89590   4.89963   4.91207   4.91843   4.92057
 Alpha virt. eigenvalues --    4.92635   4.93394   4.94097   4.94120   4.95753
 Alpha virt. eigenvalues --    4.96337   4.97278   4.97973   4.99598   5.00717
 Alpha virt. eigenvalues --    5.01593   5.03709   5.07999   5.12230   5.17749
 Alpha virt. eigenvalues --    5.20098   5.22222   5.25462   5.27385   5.29032
 Alpha virt. eigenvalues --    5.32713   5.34950   5.39622   5.40239   5.42306
 Alpha virt. eigenvalues --    5.44576   5.45666   5.49232   5.50268   5.51749
 Alpha virt. eigenvalues --    5.53065   5.54840   5.55731   5.57545   5.61686
 Alpha virt. eigenvalues --    5.63151   5.68553   5.74516   5.76418   5.90762
 Alpha virt. eigenvalues --    6.22121   6.57397  11.13912  11.20504  11.34105
 Alpha virt. eigenvalues --   11.49058  11.61103  11.70166  11.86576  12.00712
 Alpha virt. eigenvalues --   12.17369  12.19698  12.27324  12.35803  12.43543
 Alpha virt. eigenvalues --   12.49354  12.67767  12.79948
          Condensed to atoms (all electrons):
               1          2          3          4          5          6
     1  C    4.958584   0.403679  -0.037842   0.002297  -0.000179   0.000001
     2  C    0.403679   4.768988   0.432128  -0.034557   0.002233  -0.000146
     3  C   -0.037842   0.432128   4.785896   0.427191  -0.036098   0.001934
     4  C    0.002297  -0.034557   0.427191   4.804541   0.425594  -0.031803
     5  C   -0.000179   0.002233  -0.036098   0.425594   4.858013   0.419288
     6  C    0.000001  -0.000146   0.001934  -0.031803   0.419288   4.607754
     7  C    0.000000   0.000009   0.000627  -0.005069  -0.034237   0.404119
     8  C   -0.000000   0.000001  -0.000148   0.001871  -0.033123   0.420689
     9  C    0.000000  -0.000000   0.000001  -0.000149   0.001830  -0.031896
    10  C   -0.000000   0.000000  -0.000000   0.000001  -0.000151   0.001918
    11  C    0.000000  -0.000000   0.000000  -0.000000   0.000001  -0.000141
    12  C    0.000000   0.000000  -0.000000   0.000000  -0.000000   0.000001
    13  C    0.000000   0.000000   0.000000  -0.000000   0.000000  -0.000000
    14  C    0.000000   0.000000  -0.000000   0.000000  -0.000000  -0.000000
    15  C    0.000000   0.000000   0.000000   0.000000  -0.000000   0.000000
    16  C    0.000000   0.000000   0.000000   0.000000   0.000000  -0.000000
    17  H    0.369626  -0.022027   0.003597  -0.000184   0.000001  -0.000000
    18  H    0.378855  -0.028816  -0.004706   0.000241   0.000006   0.000000
    19  H    0.378929  -0.029203  -0.004623   0.000206   0.000006   0.000000
    20  H   -0.036450   0.370384  -0.032961  -0.003288   0.000213   0.000015
    21  H   -0.036463   0.370987  -0.033728  -0.001779   0.000202   0.000009
    22  H   -0.002453  -0.034778   0.364016  -0.031896  -0.002034   0.000101
    23  H   -0.002774  -0.035289   0.364122  -0.030703  -0.002725   0.000255
    24  H    0.000181  -0.003957  -0.032726   0.364491  -0.031070  -0.005479
    25  H    0.000103  -0.003264  -0.033497   0.362270  -0.032075  -0.001619
    26  H    0.000009   0.000102  -0.002709  -0.032544   0.352793  -0.024737
    27  H    0.000006   0.000127  -0.003665  -0.034289   0.355519  -0.025017
    28  H    0.000000   0.000005   0.000126  -0.004443  -0.040620   0.359364
    29  H   -0.000000   0.000001  -0.000045  -0.000330  -0.005304  -0.025804
    30  H   -0.000000   0.000009  -0.000083  -0.000661  -0.004466  -0.023470
    31  H    0.000000  -0.000000  -0.000008   0.000197   0.004032  -0.023361
    32  H    0.000000   0.000000   0.000007   0.000216  -0.004293  -0.024910
    33  H    0.000000   0.000000   0.000006   0.000150  -0.004717  -0.024975
    34  H    0.000000   0.000000   0.000000   0.000007   0.000146  -0.005694
    35  H    0.000000   0.000000   0.000000   0.000007   0.000227  -0.001811
    36  H    0.000000   0.000000   0.000000   0.000000   0.000002   0.000079
    37  H    0.000000   0.000000   0.000000   0.000000   0.000010   0.000230
    38  H    0.000000   0.000000   0.000000   0.000000   0.000000   0.000021
    39  H    0.000000   0.000000   0.000000   0.000000   0.000000   0.000009
    40  H    0.000000   0.000000   0.000000   0.000000   0.000000   0.000000
    41  H    0.000000   0.000000   0.000000   0.000000   0.000000   0.000000
    42  H    0.000000   0.000000   0.000000   0.000000   0.000000   0.000000
    43  H    0.000000   0.000000  -0.000000   0.000000  -0.000000   0.000000
    44  H    0.000000   0.000000  -0.000000   0.000000  -0.000000   0.000000
    45  H    0.000000   0.000000   0.000000  -0.000000   0.000000  -0.000000
    46  H    0.000000   0.000000   0.000000   0.000000   0.000000   0.000000
    47  H    0.000000   0.000000   0.000000   0.000000   0.000000   0.000000
    48  H    0.000000   0.000000   0.000000   0.000000   0.000000   0.000000
    49  H    0.000000   0.000000   0.000000   0.000000  -0.000000   0.000000
    50  H    0.000000   0.000000   0.000000   0.000000   0.000000   0.000000
               7          8          9         10         11         12
     1  C    0.000000  -0.000000   0.000000  -0.000000   0.000000   0.000000
     2  C    0.000009   0.000001  -0.000000   0.000000  -0.000000   0.000000
     3  C    0.000627  -0.000148   0.000001  -0.000000   0.000000  -0.000000
     4  C   -0.005069   0.001871  -0.000149   0.000001  -0.000000   0.000000
     5  C   -0.034237  -0.033123   0.001830  -0.000151   0.000001  -0.000000
     6  C    0.404119   0.420689  -0.031896   0.001918  -0.000141   0.000001
     7  C    5.011615  -0.033899  -0.005011   0.000644   0.000013   0.000000
     8  C   -0.033899   4.862514   0.423997  -0.038155   0.002051  -0.000170
     9  C   -0.005011   0.423997   4.808873   0.425331  -0.038296   0.002032
    10  C    0.000644  -0.038155   0.425331   4.829257   0.425459  -0.037693
    11  C    0.000013   0.002051  -0.038296   0.425459   4.807211   0.425034
    12  C    0.000000  -0.000170   0.002032  -0.037693   0.425034   4.847159
    13  C   -0.000000   0.000001  -0.000141   0.001998  -0.031257   0.426303
    14  C    0.000000   0.000000   0.000012   0.000630  -0.004813  -0.033756
    15  C   -0.000000  -0.000000   0.000001  -0.000147   0.002021  -0.031542
    16  C   -0.000000   0.000000  -0.000000   0.000001  -0.000161   0.002258
    17  H   -0.000000   0.000000  -0.000000   0.000000  -0.000000   0.000000
    18  H    0.000000   0.000000   0.000000   0.000000   0.000000   0.000000
    19  H   -0.000000   0.000000   0.000000   0.000000   0.000000   0.000000
    20  H   -0.000014   0.000000   0.000000   0.000000   0.000000   0.000000
    21  H    0.000000   0.000000   0.000000   0.000000   0.000000   0.000000
    22  H   -0.000005   0.000002   0.000000   0.000000   0.000000   0.000000
    23  H   -0.000014   0.000010   0.000000   0.000000   0.000000   0.000000
    24  H    0.000043   0.000148   0.000007   0.000000   0.000000   0.000000
    25  H   -0.001087   0.000228   0.000008   0.000000   0.000000   0.000000
    26  H    0.005370  -0.004156   0.000236   0.000008   0.000000   0.000000
    27  H   -0.008963  -0.004679   0.000177   0.000006   0.000000   0.000000
    28  H   -0.052689  -0.040740  -0.004391   0.000127   0.000008   0.000000
    29  H    0.370969  -0.005430  -0.000350  -0.000048   0.000001  -0.000000
    30  H    0.371018   0.004006   0.000199  -0.000009  -0.000000  -0.000000
    31  H    0.371024  -0.004316  -0.000827  -0.000074   0.000012  -0.000000
    32  H    0.005363   0.352762  -0.032337  -0.002535   0.000153   0.000012
    33  H   -0.009040   0.354915  -0.033271  -0.003711   0.000207   0.000008
    34  H    0.000124  -0.031459   0.363911  -0.032368  -0.004661   0.000287
    35  H   -0.001117  -0.032968   0.362832  -0.033986  -0.002410   0.000181
    36  H   -0.000005  -0.002122  -0.031015   0.360985  -0.031095  -0.002182
    37  H   -0.000014  -0.003126  -0.030244   0.361004  -0.030402  -0.003152
    38  H   -0.000022   0.000294  -0.004558  -0.032294   0.363919  -0.031542
    39  H    0.000000   0.000192  -0.002327  -0.033866   0.362899  -0.033225
    40  H   -0.000000   0.000013   0.000163  -0.002372  -0.032245   0.353458
    41  H    0.000000   0.000008   0.000216  -0.003576  -0.033245   0.355758
    42  H   -0.000000   0.000000   0.000008   0.000138  -0.004323  -0.039496
    43  H   -0.000000  -0.000000   0.000001  -0.000050  -0.000403  -0.005460
    44  H    0.000000  -0.000000   0.000011  -0.000097  -0.001004  -0.004276
    45  H   -0.000000  -0.000000  -0.000000  -0.000008   0.000208   0.003957
    46  H    0.000000   0.000000   0.000000   0.000008   0.000238  -0.003320
[...]
 01,-0.00000214,0.00000014,0.00000279,-0.00000257,-0.00000210,0.0000019
 6,-0.00000217,-0.00000093,-0.00000192,-0.00000196,-0.00000176,0.000001
 46,0.00000318,0.00000037,-0.00000069,0.00000055,-0.00000487,0.00000243
 ,-0.00000525,0.00000136,-0.00000248,-0.00000216,0.00000386,0.00000811,
 -0.00000282,0.00000210,-0.00000184,0.00000712,-0.00006129,0.00000044,-
 0.00002562,-0.00000423,-0.00001692,-0.00001847,0.00006787,0.00035815,-
 0.00004527,-0.00011730,-0.00001703,-0.00008435,-0.00091936,0.00038963,
 -0.00069756,-0.00156510,-0.00506781,-0.00302624,0.00020725,0.00030078,
 -0.00126338,-0.00028820,0.00049469,-0.00019431,0.00006504,-0.00004967,
 -0.00012626,-0.00110309,0.00286582,-0.00263254,-0.03848823,0.19489794,
 -0.00000044,0.00000036,-0.00000047,-0.00000011,0.00000030,-0.00000056,
 -0.00000082,0.00000085,-0.00000062,0.00000064,0.00000057,-0.00000071,-
 0.00000097,0.00000240,-0.00000111,0.00000306,-0.00000073,-0.00000019,-
 0.00000128,0.00000086,-0.00000113,-0.00000287,0.00001116,-0.00000251,0
 .00002787,-0.00000356,0.00000496,-0.00000726,0.00010339,-0.00003576,0.
 00021528,-0.00019494,0.00021489,0.00052516,0.00010870,0.00031128,0.002
 49675,-0.01009849,0.00780774,0.00018406,-0.00040877,0.00161441,-0.0323
 3876,0.11795230,-0.15711411,-0.00230033,0.00706403,-0.00709770,0.00000
 006,-0.00000020,-0.00000014,0.00000051,-0.00000034,0.00000056,-0.00000
 004,0.00000030,0.00000011,-0.00000003,0.00000007,0.,0.00000037,-0.0000
 0078,0.00000055,-0.00000011,0.00000027,-0.00000023,0.00000071,-0.00000
 053,0.00000096,-0.00000005,-0.00000017,-0.00000016,0.00000039,-0.00000
 136,0.00000079,-0.00000019,0.00000060,-0.00000051,0.00000106,-0.000000
 64,0.00000193,0.00000029,-0.00000281,0.00000133,0.00000088,-0.00000085
 ,0.00000131,-0.00000008,-0.00000005,0.00000017,0.00000089,-0.00000010,
 -0.00000069,-0.00000018,0.00000117,-0.00000137,0.00000237,-0.00000157,
 0.00000526,-0.00000037,-0.00000116,-0.00000117,0.00000169,-0.00000623,
 0.00000023,-0.00000318,0.00000327,-0.00000357,-0.00000738,0.00000091,0
 .00001628,0.00000689,0.00000227,-0.00000263,-0.00008498,-0.00003911,-0
 .00010413,-0.00012984,0.00009523,-0.00003892,0.00019793,0.00016056,0.0
 0021816,-0.00042359,-0.00297517,0.00004190,-0.00026670,0.00036497,0.00
 016897,-0.00007074,0.00013731,0.00018777,0.00006786,-0.00005419,-0.000
 07168,-0.00500730,0.01848800,-0.01746486,0.03904779,-0.12917042,0.1698
 0109,0.00000004,-0.00000016,-0.00000031,-0.00000032,0.00000073,-0.0000
 0013,0.00000018,-0.00000063,-0.00000063,-0.00000081,0.00000122,-0.0000
 0058,0.00000020,-0.00000125,-0.00000104,-0.00000084,0.00000299,-0.0000
 0079,-0.00000054,-0.00000071,-0.00000023,0.00000101,-0.00000189,-0.000
 00269,-0.00000197,0.00000612,-0.00000322,0.00001457,0.00000993,0.00000
 104,0.00005256,-0.00005287,0.00007871,-0.00003440,0.00002118,0.0002087
 9,0.00154426,0.00179473,0.00024117,-0.00001465,-0.00014113,-0.00003284
 ,-0.00827351,0.02387441,-0.02217343,-0.06009011,0.04251433,-0.03696839
 ,-0.00000031,-0.00000022,0.,0.00000016,-0.00000012,0.00000028,-0.00000
 010,0.00000016,0.00000004,-0.00000005,0.,0.00000011,0.00000014,-0.0000
 0041,0.00000020,-0.00000022,0.00000024,0.00000011,0.00000029,-0.000000
 24,0.00000045,0.00000005,0.00000003,0.00000026,0.00000014,-0.00000077,
 0.00000035,-0.00000023,0.00000044,-0.00000003,0.00000042,-0.00000032,0
 .00000084,0.00000026,-0.00000184,0.00000087,0.00000068,-0.00000006,0.0
 0000076,-0.00000049,-0.00000090,-0.00000040,-0.00000035,0.00000103,0.0
 0000017,-0.00000106,0.00000100,0.00000014,0.00000103,-0.00000060,0.000
 00213,-0.00000003,-0.00000027,0.00000107,0.00000015,-0.00000499,0.0000
 0090,-0.00000410,0.00000370,-0.00000013,0.00000584,0.00000108,0.000007
 68,0.00000248,-0.00000795,-0.00000152,-0.00002107,-0.00006731,-0.00000
 845,-0.00002866,0.00005471,-0.00000736,0.00020521,-0.00009981,0.000197
 12,0.00011968,-0.00108707,0.00028022,-0.00007570,0.00002372,0.00016401
 ,0.00008014,-0.00002439,-0.00005004,0.00002729,-0.00007277,-0.00003804
 ,0.00122704,0.00019055,0.00070444,-0.00618874,-0.00105813,-0.00214514,
 0.06667860,-0.00000025,0.00000081,0.00000055,0.00000080,-0.00000225,-0
 .00000028,-0.00000117,0.00000231,0.00000092,0.00000248,-0.00000321,0.0
 0000059,-0.00000124,0.00000486,0.00000171,0.00000402,-0.00000794,0.000
 00038,0.00000053,0.00000254,-0.00000041,-0.00000479,0.00001230,0.00000
 431,0.00002018,-0.00001448,0.00000019,-0.00001434,0.00003374,0.0000175
 4,0.00008667,-0.00003337,0.00003455,-0.00015672,0.00030409,-0.00010855
 ,-0.00020169,0.00115860,-0.00080454,0.00010042,0.00006734,0.00002434,-
 0.00061958,0.00229516,-0.00271930,0.04304935,-0.18375716,0.12136435,0.
 00000113,0.00000082,-0.00000008,-0.00000010,-0.00000006,-0.00000032,0.
 00000011,-0.00000030,-0.00000007,0.00000010,0.00000021,-0.00000002,-0.
 00000012,0.00000055,-0.00000018,0.00000037,-0.00000027,-0.00000015,-0.
 00000018,0.00000028,-0.00000048,-0.00000009,0.00000015,-0.00000015,-0.
 00000010,0.00000092,-0.00000045,-0.00000010,-0.00000045,0.00000019,0.0
 0000002,0.00000031,-0.00000053,-0.00000053,0.00000195,-0.00000079,-0.0
 0000092,-0.00000058,-0.00000047,0.00000153,0.00000288,0.00000162,0.000
 00164,-0.00000299,-0.00000151,0.00000141,-0.00000110,-0.00000068,-0.00
 000009,0.00000025,-0.00000109,-0.00000071,-0.00000066,-0.00000064,-0.0
 0000101,0.00000470,-0.00000180,0.00000615,-0.00000254,-0.00000359,0.00
 000306,0.00000070,-0.00000102,-0.00000060,0.00000216,0.00000062,0.0000
 0126,-0.00000427,-0.00000014,0.00001625,-0.00001841,0.00000426,-0.0000
 8665,-0.00012709,-0.00000291,0.00019758,0.00041687,0.00034595,-0.00001
 111,-0.00002504,0.00001446,0.00001593,0.00000715,0.00003710,0.00004447
 ,-0.00003182,0.00006758,0.00057921,0.00005233,-0.00001860,-0.00081284,
 0.00099681,-0.00089658,-0.04734911,0.19783276,-0.00000026,0.00000019,-
 0.00000017,-0.00000018,0.00000059,-0.00000007,-0.00000031,-0.00000004,
 -0.00000003,-0.00000037,0.00000112,-0.00000055,-0.00000048,-0.00000057
 ,-0.00000018,-0.00000108,0.00000288,-0.00000079,-0.00000156,-0.0000007
 1,-0.00000023,-0.00000098,-0.00000251,-0.00000092,-0.00000674,0.000006
 77,-0.00000452,0.00000418,-0.00001432,0.00000296,-0.00002161,-0.000005
 19,-0.00000831,-0.00002192,-0.00028520,0.00018690,0.00046799,0.0013117
 7,0.00011812,-0.00003267,-0.00032540,-0.00010788,-0.00285549,0.0072725
 9,-0.00761748,-0.03719115,0.12115454,-0.15524655,-0.00000016,-0.000000
 24,0.,0.00000026,-0.00000016,0.00000033,0.00000007,0.00000005,-0.00000
 016,-0.00000002,-0.00000014,-0.00000022,0.00000014,-0.00000036,0.00000
 032,0.00000004,0.00000003,-0.00000037,0.00000042,-0.00000033,0.0000005
 3,-0.00000007,-0.00000027,-0.00000030,0.00000009,-0.00000074,0.0000006
 0,0.00000030,0.00000011,-0.00000076,0.00000060,-0.00000037,0.00000085,
 0.00000007,-0.00000177,0.00000124,0.00000104,-0.00000040,0.00000071,-0
 .00000063,-0.00000077,-0.00000042,0.00000053,0.00000112,-0.00000038,0.
 00000040,0.00000043,-0.00000095,0.00000174,-0.00000085,0.00000196,-0.0
 0000006,-0.00000022,-0.00000124,-0.00000052,-0.00000442,0.00000329,0.0
 0000186,0.00000252,-0.00000231,0.00000703,-0.00000080,0.00000378,-0.00
 000280,-0.00000960,-0.00000473,-0.00001693,-0.00004171,0.00001179,0.00
 004206,0.00001710,-0.00003434,0.00019049,-0.00002497,0.00008439,-0.000
 20688,-0.00084789,0.00011364,0.00012519,0.00000941,0.00022263,-0.00003
 807,-0.00008127,-0.00003725,0.00003179,0.00017945,-0.00018463,-0.00009
 984,-0.00048618,0.00069381,-0.00236424,-0.00047722,0.00072763,0.044076
 72,-0.13457667,0.16638863,0.00000095,-0.00000298,-0.00000061,-0.000002
 23,0.00000462,0.00000090,0.00000342,-0.00000703,-0.00000144,-0.0000076
 2,0.00000768,0.00000056,0.00000436,-0.00001744,-0.00000489,-0.00001918
 ,0.00002347,0.00000183,-0.00000104,-0.00000676,0.00000311,0.00001866,-
 0.00005804,-0.00001504,-0.00011435,0.00005442,0.00001157,0.00006350,-0
 .00028221,-0.00009226,-0.00069791,0.00029214,0.00001481,0.00024211,-0.
 00188330,-0.00086247,-0.00628016,0.00196870,-0.00124356,-0.00059242,0.
 00028415,0.00048019,-0.00418186,-0.03018780,-0.01511883,-0.04848086,-0
 .02482464,-0.01305992,-0.00000247,-0.00000146,0.00000016,-0.00000024,0
 .00000068,-0.00000020,-0.00000018,0.00000066,0.00000051,-0.00000016,-0
 .00000035,-0.00000004,-0.00000004,-0.00000048,0.00000008,-0.00000059,0
 .00000034,0.00000069,-0.00000065,0.00000034,-0.00000035,0.00000019,-0.
 00000083,-0.00000048,0.00000006,-0.00000069,0.00000045,0.00000118,0.00
 000056,0.00000035,-0.00000146,0.00000039,-0.00000101,0.00000105,-0.000
 00167,-0.00000004,0.00000026,0.00000212,-0.00000074,-0.00000354,-0.000
 00674,-0.00000479,-0.00000374,0.00000662,0.00000491,-0.00000169,0.0000
 0117,0.00000302,-0.00000335,0.00000225,-0.00000279,0.00000337,0.000000
 91,-0.00000373,0.00000167,-0.00000578,0.00000391,-0.00000311,0.0000023
 2,0.00001561,-0.00000091,0.00000802,-0.00000929,0.00002173,-0.00000518
 ,-0.00004737,0.00001607,-0.00000517,0.00002799,0.00001794,-0.00000995,
 0.00009660,-0.00003219,0.00005452,-0.00008311,0.00005947,0.00016991,0.
 00024987,0.00008225,-0.00000430,-0.00004921,0.00027506,-0.00004232,-0.
 00007803,0.00048172,-0.00011920,-0.00013738,0.00133196,-0.00005837,0.0
 0073889,0.00120978,0.00060371,0.00013760,-0.00011418,0.00603563,0.0040
 3926,0.05456771,0.00000125,-0.00000292,-0.00000075,-0.00000153,0.00000
 456,0.00000095,0.00000359,-0.00000605,-0.00000128,-0.00000546,0.000006
 23,0.00000043,0.00000427,-0.00001141,-0.00000310,-0.00000844,0.0000159
 4,0.00000166,0.00000097,-0.00000553,0.00000178,0.00001526,-0.00002632,
 -0.00000688,-0.00003646,0.00002617,0.00000882,0.00004702,-0.00007671,-
 0.00001943,-0.00011573,0.00010559,0.00000722,0.00022930,-0.00018150,-0
 .00034965,-0.00082092,0.00105403,0.00011742,0.00005829,0.00017063,0.00
 017892,0.00051899,-0.00174700,-0.00009288,-0.02599855,-0.24971910,-0.1
 0683988,-0.00000270,-0.00000186,0.00000018,-0.00000036,0.00000087,-0.0
 0000030,-0.00000023,0.00000079,0.00000071,-0.00000023,-0.00000034,0.00
 000020,-0.00000017,-0.00000034,-0.00000017,-0.00000064,0.00000028,0.00
 000069,-0.00000078,0.00000037,-0.00000042,0.00000033,-0.00000056,-0.00
 000019,-0.00000004,-0.00000051,0.00000016,0.00000063,0.00000039,0.0000
 0039,-0.00000147,0.00000028,-0.00000100,0.00000069,-0.00000100,-0.0000
 0052,0.00000032,0.00000222,-0.00000062,-0.00000293,-0.00000609,-0.0000
 0366,-0.00000478,0.00000557,0.00000435,-0.00000230,0.00000095,0.000002
 18,-0.00000350,0.00000157,-0.00000204,0.00000208,0.00000045,0.00000004
 ,0.00000084,-0.00000351,-0.00000006,-0.00000955,0.00000044,0.00000728,
 -0.00000268,0.00000339,-0.00000295,0.00000834,-0.00000007,-0.00000423,
 0.00000807,-0.00000670,0.00000196,-0.00001425,-0.00000878,0.00003210,-
 0.00010952,0.00000314,-0.00003661,0.00014847,0.00050023,-0.00002545,-0
 .00004644,-0.00000214,-0.00007526,-0.00002164,-0.00001928,-0.00002608,
 -0.00009233,-0.00003147,0.00010422,-0.00040894,0.00024955,0.00036541,-
 0.00039400,0.00057251,-0.00022892,-0.00221934,-0.02022992,-0.01144011,
 0.02891899,0.26986931,0.00000095,-0.00000244,-0.00000037,-0.00000152,0
 .00000385,0.00000067,0.00000288,-0.00000511,-0.00000064,-0.00000504,0.
 00000547,0.00000037,0.00000353,-0.00001086,-0.00000228,-0.00000972,0.0
 0001534,0.00000088,0.00000060,-0.00000490,0.00000204,0.00001301,-0.000
 03029,-0.00000589,-0.00004970,0.00003160,0.00000231,0.00004388,-0.0001
 1169,-0.00001085,-0.00029367,0.00011810,-0.00002390,0.00018677,-0.0007
 6386,0.00000221,-0.00172773,0.00112231,-0.00002315,0.00018419,-0.00018
 141,0.00025572,-0.00033539,-0.00870715,-0.00545225,-0.01369279,-0.1067
 2093,-0.10296826,-0.00000219,-0.00000149,0.00000010,-0.00000022,0.0000
 0070,-0.00000025,-0.00000014,0.00000063,0.00000045,-0.00000013,-0.0000
 0035,-0.00000010,-0.00000009,-0.00000034,0.00000005,-0.00000044,0.0000
 0017,0.00000035,-0.00000065,0.00000035,-0.00000044,0.00000025,-0.00000
 069,-0.00000046,-0.00000002,-0.00000036,0.00000028,0.00000079,0.000000
 28,0.00000012,-0.00000120,0.00000029,-0.00000101,0.00000057,-0.0000009
 5,-0.00000022,0.00000029,0.00000170,-0.00000051,-0.00000275,-0.0000053
 5,-0.00000342,-0.00000359,0.00000497,0.00000347,-0.00000144,0.00000072
 ,0.00000156,-0.00000267,0.00000152,-0.00000228,0.00000260,0.00000039,-
 0.00000013,0.00000069,-0.00000302,0.00000187,-0.00001243,0.00000072,0.
 00000684,-0.00000335,0.00000510,-0.00000784,0.00001497,0.00001598,0.00
 001309,0.00000570,-0.00000574,0.00001302,-0.00004127,0.00000479,0.0000
 3484,0.00004761,0.00001877,-0.00004044,0.00000622,-0.00033432,0.000150
 82,-0.00004954,0.00002327,-0.00003341,-0.00019011,-0.00002393,-0.00001
 806,-0.00034079,0.00024142,0.00006535,0.00004027,0.00049711,0.00075183
 ,0.00034569,0.00005105,-0.00016624,0.00272718,0.01925009,0.01054326,0.
 01620699,0.11798702,0.10865440,0.00000010,-0.00000080,0.00000032,-0.00
 000056,0.00000172,0.00000050,0.00000062,-0.00000145,0.00000067,-0.0000
 0164,0.00000229,0.00000074,0.00000036,-0.00000388,-0.00000006,-0.00000
 303,0.00000744,0.00000229,-0.00000218,-0.00000315,0.00000117,0.0000030
 8,-0.00000990,0.00000048,-0.00001602,0.00001009,0.00000435,0.00001529,
 -0.00002840,-0.00002790,0.00005744,0.00004245,-0.00008398,-0.00016985,
 -0.00015898,-0.00003356,0.00054367,0.00087136,0.00111581,-0.00055341,0
 .00021287,0.00003743,-0.02065577,0.00166607,0.02514781,-0.15526549,0.0
 0589842,0.12829632,-0.00000086,-0.00000076,0.,0.,0.00000039,0.,0.00000
 021,0.00000017,-0.00000036,0.00000001,-0.00000056,-0.00000082,-0.00000
 002,-0.00000017,0.00000030,0.00000032,-0.00000020,-0.00000087,-0.00000
 019,0.00000019,0.,-0.00000022,-0.00000132,-0.00000146,-0.00000007,-0.0
 0000007,0.00000040,0.00000181,-0.00000032,-0.00000195,-0.00000049,0.00
 000033,-0.00000005,0.00000010,-0.00000051,-0.00000069,-0.00000059,0.00
 000098,-0.00000062,-0.00000140,-0.00000271,-0.00000227,0.00000067,0.00
 000181,0.00000189,0.00000286,0.,-0.00000313,-0.00000134,0.00000096,0.0
 0000004,-0.00000018,-0.00000550,-0.00000730,-0.00000070,-0.00000184,0.
 00000124,0.00002704,0.00000617,-0.00000953,-0.00000112,0.00000173,0.00
 000334,-0.00002840,-0.00011313,-0.00009763,-0.00000475,-0.00001067,0.0
 0000522,0.00034323,-0.00001450,-0.00022073,-0.00001874,0.00003093,-0.0
 0000175,0.00000239,-0.00013145,-0.00010828,-0.00003333,0.00001282,-0.0
 0009767,0.00053510,0.00007594,-0.00010659,0.00088929,-0.00069065,-0.00
 039134,-0.00574156,-0.00086869,-0.00295807,0.00149455,0.00040040,-0.00
 012735,0.00489001,-0.00090625,-0.00612725,0.00214168,0.00035823,-0.003
 06701,0.17155211,-0.00000049,0.00000104,0.00000014,0.00000061,-0.00000
 165,-0.00000028,-0.00000137,0.00000209,0.00000033,0.00000194,-0.000002
 05,0.00000003,-0.00000164,0.00000382,0.00000068,0.00000252,-0.00000526
 ,0.00000025,-0.00000120,0.00000193,-0.00000078,-0.00000526,0.00000803,
 0.00000108,0.00000816,-0.00000909,0.00000214,-0.00000758,0.00001366,-0
 .00001011,0.00002247,-0.00003149,-0.00000852,-0.00006248,0.00001959,-0
 .00017522,-0.00008497,0.00006976,0.00085721,-0.00075471,0.00001131,-0.
 00043249,-0.00130996,-0.00055338,0.00263575,0.00608224,-0.04745296,-0.
 00642678,0.00000097,0.00000064,-0.00000006,0.00000014,-0.00000031,0.00
 000009,0.00000010,-0.00000026,-0.00000015,0.00000004,0.00000014,-0.000
 00003,0.00000005,0.00000014,0.00000004,0.00000029,-0.00000013,-0.00000
 024,0.00000029,-0.00000015,0.00000017,-0.00000019,0.00000011,-0.000000
 12,0.00000002,0.00000013,0.00000002,0.00000003,-0.00000021,-0.00000025
 ,0.00000052,-0.00000008,0.00000040,-0.00000029,0.00000034,0.00000021,-
 0.00000006,-0.00000085,0.00000012,0.00000109,0.00000222,0.00000124,0.0
 0000202,-0.00000203,-0.00000147,0.00000156,-0.00000055,-0.00000095,0.0
 0000123,-0.00000048,0.00000084,-0.00000111,-0.00000034,-0.00000233,-0.
 00000042,0.00000143,0.00000030,0.00001093,-0.00000005,-0.00000173,0.00
 000209,-0.00000139,0.00000233,-0.00002017,-0.00002361,-0.00002196,-0.0
 0000109,0.00000383,0.00000178,0.00010354,-0.00001821,-0.00003899,-0.00
 000148,0.00000306,0.00000222,-0.00006525,0.00002423,-0.00004399,0.0001
 3194,-0.00004372,0.00007666,0.00021124,-0.00000123,0.00011902,-0.00020
 799,-0.00095965,-0.00107717,-0.00049927,0.00082445,-0.00020131,0.00030
 741,0.00013976,-0.00041219,-0.01630702,0.00106037,0.01867075,0.0190883
 9,-0.00050636,-0.02248852,-0.00664787,0.04742338,-0.00000011,0.0000006
 5,-0.00000028,0.00000031,-0.00000141,-0.00000067,-0.00000076,0.0000012
 3,-0.00000054,0.00000121,-0.00000168,-0.00000071,-0.00000055,0.0000029
 3,-0.00000005,0.00000225,-0.00000492,-0.00000174,0.00000092,0.00000200
 ,-0.00000075,-0.00000292,0.00000792,0.00000145,0.00001498,-0.00000770,
 -0.00000397,0.00000248,0.00004125,0.00001706,0.00008830,-0.00006817,-0
 .00010703,-0.00000770,0.00015259,0.00006656,0.00062934,-0.00025640,0.0
 0012287,0.00011874,-0.00072607,-0.00052536,-0.00731096,0.00095173,0.00
 997198,0.12950928,-0.00603245,-0.20000387,0.00000077,0.00000070,-0.000
 00008,0.00000012,-0.00000042,0.00000012,-0.00000019,-0.00000005,0.0000
 0030,-0.00000002,0.00000047,0.00000066,0.00000013,-0.00000004,-0.00000
 007,-0.00000018,0.00000025,0.00000057,0.00000025,-0.00000020,0.0000001
 4,0.00000008,0.00000078,0.00000098,0.00000017,-0.00000015,-0.00000015,
 -0.00000109,0.00000037,0.00000111,0.00000048,-0.00000028,0.00000035,0.
 ,-0.00000004,0.00000055,0.00000010,-0.00000085,0.00000053,0.00000115,0
 .00000226,0.00000142,0.00000019,-0.00000172,-0.00000140,-0.00000141,0.
 00000039,0.00000114,0.00000096,-0.00000058,0.00000053,-0.00000051,0.00
 000171,0.00000423,0.00000043,-0.00000009,-0.00000078,-0.00000768,0.000
 00246,0.00000202,0.00000033,-0.00000130,0.00000113,-0.00003120,-0.0000
 1050,0.00003663,0.00000066,-0.00000142,0.00000176,0.00004544,0.0000326
 8,-0.00001073,0.00000592,0.00000705,0.00000346,0.00000042,-0.00007479,
 -0.00000010,-0.00009650,0.00005958,-0.00010873,-0.00021799,0.00007936,
 0.00005443,-0.00096921,-0.00090510,-0.00066612,-0.00297346,-0.00060441
 ,0.00058708,0.00082177,0.00007152,0.00098289,0.01273962,-0.00202932,-0
 .01585163,0.00877772,0.00033835,-0.01174353,-0.14114209,0.00897184,0.2
 1716636\\-0.00000096,0.00000014,0.00000008,0.00000094,-0.00000271,-0.0
 0000096,-0.00000008,0.00000317,0.00000061,0.00000091,-0.00000368,-0.00
 000120,0.00000055,0.00000193,0.00000114,-0.00000006,-0.00000031,0.0000
 0112,-0.00000058,-0.00000038,-0.00000215,-0.00000276,0.00000159,0.0000
 0018,0.00000313,-0.00000179,-0.00000031,-0.00000219,0.00000243,0.00000
 130,0.00000102,-0.00000331,-0.00000008,0.00000037,0.00000323,0.0000008
 6,0.00000008,-0.00000056,0.,0.00000189,-0.00000028,-0.00000244,-0.0000
 0203,0.00000010,-0.00000039,0.00000213,0.00000056,0.00000096,0.0000003
 5,-0.00000027,-0.00000033,0.00000026,-0.00000028,-0.00000021,0.0000001
 1,-0.00000045,-0.00000017,0.00000007,0.00000013,0.00000004,0.,0.000000
 36,0.00000004,0.00000012,-0.00000078,-0.00000046,0.00000007,-0.0000005
 3,-0.00000024,0.00000066,0.00000020,-0.00000141,0.00000051,0.00000081,
 -0.00000046,-0.00000015,-0.00000028,0.00000002,0.00000051,-0.00000093,
 -0.00000019,-0.00000037,-0.00000029,-0.00000072,-0.00000017,-0.0000000
 3,0.00000166,-0.00000126,-0.00000109,0.00000063,0.00000056,0.00000046,
 0.00000090,0.00000076,0.00000025,-0.00000019,0.00000068,-0.00000017,0.
 00000010,-0.00000025,0.00000039,-0.00000048,-0.00000071,0.00000030,-0.
 00000013,0.00000008,-0.00000013,-0.00000051,0.00000047,-0.00000040,-0.
 00000023,-0.00000068,0.00000077,0.00000021,-0.00000028,0.00000048,0.00
 000011,-0.00000004,0.,0.00000004,0.00000033,-0.00000028,0.00000011,-0.
 00000029,0.00000046,0.00000036,-0.00000006,0.00000032,0.00000064,-0.00
 000036,0.00000058,0.00000039,-0.00000094,-0.00000041,0.00000036,-0.000
 00018,-0.00000005,0.00000023,-0.00000037,-0.00000016,-0.00000023,0.,0.
 00000002,0.00000018,-0.00000082,-0.00000001,0.00000057,-0.00000096,0.0
 0000089,0.00000062\\\@


 IN THE WOODS WE RETURN TO REASON AND FAITH.

                                 -- EMERSON
 Job cpu time:       0 days 17 hours 57 minutes 13.6 seconds.
 Elapsed time:       0 days  4 hours 30 minutes 47.6 seconds.
 File lengths (MBytes):  RWF=   1303 Int=      0 D2E=      0 Chk=     33 Scr=      1
 Normal termination of Gaussian 16 at Mon May 22 18:46:46 2023.
### All Done ###
