### Starting Gaussian ###
 Entering Gaussian System, Link 0=g16
 Initial command:
 /cluster/software/gaussian/gaussian-16-A.03/avx2/g16/l1.exe "/local/scratch/linjian/Gau-16738.inp" -scrdir="/local/scratch/linjian/"
 Entering Link 1 = /cluster/software/gaussian/gaussian-16-A.03/avx2/g16/l1.exe PID=     16739.
  
 Copyright (c) 1988,1990,1992,1993,1995,1998,2003,2009,2016,
            Gaussian, Inc.  All Rights Reserved.
  
 This is part of the Gaussian(R) 16 program.  It is based on
 the Gaussian(R) 09 system (copyright 2009, Gaussian, Inc.),
 the Gaussian(R) 03 system (copyright 2003, Gaussian, Inc.),
 the Gaussian(R) 98 system (copyright 1998, Gaussian, Inc.),
 the Gaussian(R) 94 system (copyright 1995, Gaussian, Inc.),
 the Gaussian 92(TM) system (copyright 1992, Gaussian, Inc.),
 the Gaussian 90(TM) system (copyright 1990, Gaussian, Inc.),
 the Gaussian 88(TM) system (copyright 1988, Gaussian, Inc.),
 the Gaussian 86(TM) system (copyright 1986, Carnegie Mellon
 University), and the Gaussian 82(TM) system (copyright 1983,
 Carnegie Mellon University). Gaussian is a federally registered
 trademark of Gaussian, Inc.
  
 This software contains proprietary and confidential information,
 including trade secrets, belonging to Gaussian, Inc.
  
 This software is provided under written license and may be
 used, copied, transmitted, or stored only in accord with that
 written license.
  
 The following legend is applicable only to US Government
 contracts under FAR:
  
                    RESTRICTED RIGHTS LEGEND
  
 Use, reproduction and disclosure by the US Government is
 subject to restrictions as set forth in subparagraphs (a)
 and (c) of the Commercial Computer Software - Restricted
 Rights clause in FAR 52.227-19.
  
 Gaussian, Inc.
 340 Quinnipiac St., Bldg. 40, Wallingford CT 06492
  
  
 ---------------------------------------------------------------
 Warning -- This program may not be used in any manner that
 competes with the business of Gaussian, Inc. or will provide
 assistance to any competitor of Gaussian, Inc.  The licensee
 of this program is prohibited from giving any competitor of
 Gaussian, Inc. access to this program.  By using this program,
 the user acknowledges that Gaussian, Inc. is engaged in the
 business of creating and licensing software in the field of
 computational chemistry and represents and warrants to the
 licensee that it is not a competitor of Gaussian, Inc. and that
 it will not use this program in any manner prohibited above.
 ---------------------------------------------------------------
  

 Cite this work as:
 Gaussian 16, Revision A.03,
 M. J. Frisch, G. W. Trucks, H. B. Schlegel, G. E. Scuseria, 
 M. A. Robb, J. R. Cheeseman, G. Scalmani, V. Barone, 
 G. A. Petersson, H. Nakatsuji, X. Li, M. Caricato, A. V. Marenich, 
 J. Bloino, B. G. Janesko, R. Gomperts, B. Mennucci, H. P. Hratchian, 
 J. V. Ortiz, A. F. Izmaylov, J. L. Sonnenberg, D. Williams-Young, 
 F. Ding, F. Lipparini, F. Egidi, J. Goings, B. Peng, A. Petrone, 
 T. Henderson, D. Ranasinghe, V. G. Zakrzewski, J. Gao, N. Rega, 
 G. Zheng, W. Liang, M. Hada, M. Ehara, K. Toyota, R. Fukuda, 
 J. Hasegawa, M. Ishida, T. Nakajima, Y. Honda, O. Kitao, H. Nakai, 
 T. Vreven, K. Throssell, J. A. Montgomery, Jr., J. E. Peralta, 
 F. Ogliaro, M. J. Bearpark, J. J. Heyd, E. N. Brothers, K. N. Kudin, 
 V. N. Staroverov, T. A. Keith, R. Kobayashi, J. Normand, 
 K. Raghavachari, A. P. Rendell, J. C. Burant, S. S. Iyengar, 
 J. Tomasi, M. Cossi, J. M. Millam, M. Klene, C. Adamo, R. Cammi, 
 J. W. Ochterski, R. L. Martin, K. Morokuma, O. Farkas, 
 J. B. Foresman, and D. J. Fox, Gaussian, Inc., Wallingford CT, 2016.
 
 ******************************************
 Gaussian 16:  ES64L-G16RevA.03 25-Dec-2016
                23-May-2023 
 ******************************************
 %chk=CCCCCqOCqCrOCCrCqCrdO.chk
 %NProcShared=20
 Will use up to   20 processors via shared memory.
 -----------------------------
 # opt freq b3lyp/6-31g(2df,p)
 -----------------------------
 1/18=20,19=15,26=3,38=1/1,3;
 2/9=110,12=2,17=6,18=5,40=1/2;
 3/5=1,6=6,7=104,11=2,25=1,30=1,71=1,74=-5/1,2,3;
 4//1;
 5/5=2,38=5/2;
 6/7=2,8=2,9=2,10=2,28=1/1;
 7//1,2,3,16;
 1/18=20,19=15,26=3/3(2);
 2/9=110/2;
 99//99;
 2/9=110/2;
 3/5=1,6=6,7=104,11=2,25=1,30=1,71=1,74=-5/1,2,3;
 4/5=5,16=3,69=1/1;
 5/5=2,38=5/2;
 7//1,2,3,16;
 1/18=20,19=15,26=3/3(-5);
 2/9=110/2;
 6/7=2,8=2,9=2,10=2,19=2,28=1/1;
 99/9=1/99;
 -------------------
 Title Card Required
 -------------------
 Symbolic Z-matrix:
 Charge =  0 Multiplicity = 1
 C                     0.986     0.01513   0.28549 
 C                     2.50402  -0.09302   0.42012 
 C                     3.0406   -1.31753  -0.3539 
 C                     4.53527  -1.14511  -0.73766 
 C                     5.04128  -1.89821  -2.00804 
 O                     4.60699  -1.4045   -3.31635 
 C                     3.18551  -1.30403  -3.49777 
 C                     2.75865   0.00207  -2.84725 
 O                     2.69056  -1.20751  -4.84084 
 C                     1.2474   -1.14523  -4.82227 
 C                     0.73668  -0.61462  -6.12997 
 C                     6.60168  -1.91511  -2.05963 
 C                     7.41142  -1.035    -1.11314 
 O                     7.20176  -2.62538  -2.85025 
 H                     0.57528   0.73382   0.99917 
 H                     0.51477  -0.9584    0.43748 
 H                     0.69622   0.36927  -0.71131 
 H                     2.80662  -0.14877   1.4683 
 H                     2.92123   0.8452    0.02333 
 H                     2.37566  -1.43642  -1.19977 
 H                     2.87231  -2.28387   0.12603 
 H                     5.10254  -1.45223   0.14753 
 H                     4.79181  -0.08108  -0.8692 
 H                     4.73903  -2.94903  -1.91607 
 H                     2.75562  -2.23006  -3.09113 
 H                     2.91746   0.91975  -3.40526 
 H                     3.36174   0.20423  -2.00009 
 H                     1.72181  -0.05916  -2.51353 
 H                     0.85049  -0.43203  -4.09566 
 H                     0.83864  -2.12619  -4.56084 
 H                     1.11705   0.40236  -6.28016 
 H                    -0.35677  -0.57132  -6.10823 
 H                     1.08195  -1.23838  -6.95182 
 H                     6.82161  -0.40885  -0.44843 
 H                     8.04176  -0.35994  -1.6965 
 H                     8.03088  -1.67926  -0.48214 
 

 GradGradGradGradGradGradGradGradGradGradGradGradGradGradGradGradGradGrad
 Berny optimization.
 Initialization pass.
                           ----------------------------
                           !    Initial Parameters    !
                           ! (Angstroms and Degrees)  !
 --------------------------                            --------------------------
 ! Name  Definition              Value          Derivative Info.                !
 --------------------------------------------------------------------------------
 ! R1    R(1,2)                  1.5278         estimate D2E/DX2                !
 ! R2    R(1,15)                 1.093          estimate D2E/DX2                !
 ! R3    R(1,16)                 1.0922         estimate D2E/DX2                !
 ! R4    R(1,17)                 1.0968         estimate D2E/DX2                !
 ! R5    R(2,3)                  1.5448         estimate D2E/DX2                !
 ! R6    R(2,18)                 1.0924         estimate D2E/DX2                !
 ! R7    R(2,19)                 1.1008         estimate D2E/DX2                !
 ! R8    R(3,4)                  1.5528         estimate D2E/DX2                !
 ! R9    R(3,20)                 1.0825         estimate D2E/DX2                !
 ! R10   R(3,21)                 1.092          estimate D2E/DX2                !
 ! R11   R(4,5)                  1.5611         estimate D2E/DX2                !
 ! R12   R(4,22)                 1.0953         estimate D2E/DX2                !
 ! R13   R(4,23)                 1.1024         estimate D2E/DX2                !
 ! R14   R(5,6)                  1.4643         estimate D2E/DX2                !
 ! R15   R(5,12)                 1.5613         estimate D2E/DX2                !
 ! R16   R(5,24)                 1.0973         estimate D2E/DX2                !
 ! R17   R(6,7)                  1.4365         estimate D2E/DX2                !
 ! R18   R(7,8)                  1.5203         estimate D2E/DX2                !
 ! R19   R(7,9)                  1.4346         estimate D2E/DX2                !
 ! R20   R(7,25)                 1.099          estimate D2E/DX2                !
 ! R21   R(8,26)                 1.0857         estimate D2E/DX2                !
 ! R22   R(8,27)                 1.0594         estimate D2E/DX2                !
 ! R23   R(8,28)                 1.0909         estimate D2E/DX2                !
 ! R24   R(9,10)                 1.4446         estimate D2E/DX2                !
 ! R25   R(10,11)                1.5008         estimate D2E/DX2                !
 ! R26   R(10,29)                1.0928         estimate D2E/DX2                !
 ! R27   R(10,30)                1.0944         estimate D2E/DX2                !
 ! R28   R(11,31)                1.0961         estimate D2E/DX2                !
 ! R29   R(11,32)                1.0945         estimate D2E/DX2                !
 ! R30   R(11,33)                1.088          estimate D2E/DX2                !
 ! R31   R(12,13)                1.5252         estimate D2E/DX2                !
 ! R32   R(12,14)                1.2205         estimate D2E/DX2                !
 ! R33   R(13,34)                1.0871         estimate D2E/DX2                !
 ! R34   R(13,35)                1.0924         estimate D2E/DX2                !
 ! R35   R(13,36)                1.0941         estimate D2E/DX2                !
 ! A1    A(2,1,15)             111.2469         estimate D2E/DX2                !
 ! A2    A(2,1,16)             110.6907         estimate D2E/DX2                !
 ! A3    A(2,1,17)             111.4352         estimate D2E/DX2                !
 ! A4    A(15,1,16)            109.458          estimate D2E/DX2                !
 ! A5    A(15,1,17)            106.3701         estimate D2E/DX2                !
 ! A6    A(16,1,17)            107.4743         estimate D2E/DX2                !
 ! A7    A(1,2,3)              110.9207         estimate D2E/DX2                !
 ! A8    A(1,2,18)             111.3086         estimate D2E/DX2                !
 ! A9    A(1,2,19)             106.5278         estimate D2E/DX2                !
 ! A10   A(3,2,18)             110.1263         estimate D2E/DX2                !
 ! A11   A(3,2,19)             111.3054         estimate D2E/DX2                !
 ! A12   A(18,2,19)            106.5214         estimate D2E/DX2                !
 ! A13   A(2,3,4)              111.7258         estimate D2E/DX2                !
 ! A14   A(2,3,20)             105.3799         estimate D2E/DX2                !
 ! A15   A(2,3,21)             115.3222         estimate D2E/DX2                !
 ! A16   A(4,3,20)             114.2277         estimate D2E/DX2                !
 ! A17   A(4,3,21)             110.8076         estimate D2E/DX2                !
 ! A18   A(20,3,21)             98.7179         estimate D2E/DX2                !
 ! A19   A(3,4,5)              117.3589         estimate D2E/DX2                !
 ! A20   A(3,4,22)             105.5254         estimate D2E/DX2                !
 ! A21   A(3,4,23)             111.1416         estimate D2E/DX2                !
 ! A22   A(5,4,22)             110.7641         estimate D2E/DX2                !
 ! A23   A(5,4,23)             107.0433         estimate D2E/DX2                !
 ! A24   A(22,4,23)            104.2734         estimate D2E/DX2                !
 ! A25   A(4,5,6)              117.9244         estimate D2E/DX2                !
 ! A26   A(4,5,12)             110.8577         estimate D2E/DX2                !
 ! A27   A(4,5,24)             107.7277         estimate D2E/DX2                !
 ! A28   A(6,5,12)             105.6965         estimate D2E/DX2                !
 ! A29   A(6,5,24)             108.4266         estimate D2E/DX2                !
 ! A30   A(12,5,24)            105.5268         estimate D2E/DX2                !
 ! A31   A(5,6,7)              115.4619         estimate D2E/DX2                !
 ! A32   A(6,7,8)              106.492          estimate D2E/DX2                !
 ! A33   A(6,7,9)              117.6667         estimate D2E/DX2                !
 ! A34   A(6,7,25)             106.3449         estimate D2E/DX2                !
 ! A35   A(8,7,9)              104.2361         estimate D2E/DX2                !
 ! A36   A(8,7,25)             117.1142         estimate D2E/DX2                !
 ! A37   A(9,7,25)             105.554          estimate D2E/DX2                !
 ! A38   A(7,8,26)             117.7212         estimate D2E/DX2                !
 ! A39   A(7,8,27)             110.2599         estimate D2E/DX2                !
 ! A40   A(7,8,28)             110.4583         estimate D2E/DX2                !
 ! A41   A(26,8,27)             99.5808         estimate D2E/DX2                !
 ! A42   A(26,8,28)            110.1015         estimate D2E/DX2                !
 ! A43   A(27,8,28)            107.8873         estimate D2E/DX2                !
 ! A44   A(7,9,10)             109.6043         estimate D2E/DX2                !
 ! A45   A(9,10,11)            110.1202         estimate D2E/DX2                !
 ! A46   A(9,10,29)            113.5488         estimate D2E/DX2                !
 ! A47   A(9,10,30)            109.7277         estimate D2E/DX2                !
 ! A48   A(11,10,29)           103.0041         estimate D2E/DX2                !
 ! A49   A(11,10,30)           113.4495         estimate D2E/DX2                !
 ! A50   A(29,10,30)           106.8881         estimate D2E/DX2                !
 ! A51   A(10,11,31)           109.2276         estimate D2E/DX2                !
 ! A52   A(10,11,32)           109.6723         estimate D2E/DX2                !
 ! A53   A(10,11,33)           110.3344         estimate D2E/DX2                !
 ! A54   A(31,11,32)           108.2215         estimate D2E/DX2                !
 ! A55   A(31,11,33)           108.5597         estimate D2E/DX2                !
 ! A56   A(32,11,33)           110.7763         estimate D2E/DX2                !
 ! A57   A(5,12,13)            120.2549         estimate D2E/DX2                !
 ! A58   A(5,12,14)            121.2696         estimate D2E/DX2                !
 ! A59   A(13,12,14)           118.4754         estimate D2E/DX2                !
 ! A60   A(12,13,34)           115.0736         estimate D2E/DX2                !
 ! A61   A(12,13,35)           109.363          estimate D2E/DX2                !
 ! A62   A(12,13,36)           108.5854         estimate D2E/DX2                !
 ! A63   A(34,13,35)           106.4786         estimate D2E/DX2                !
 ! A64   A(34,13,36)           107.0808         estimate D2E/DX2                !
 ! A65   A(35,13,36)           110.1929         estimate D2E/DX2                !
 ! D1    D(15,1,2,3)           167.373          estimate D2E/DX2                !
 ! D2    D(15,1,2,18)           44.3813         estimate D2E/DX2                !
 ! D3    D(15,1,2,19)          -71.3494         estimate D2E/DX2                !
 ! D4    D(16,1,2,3)            45.4418         estimate D2E/DX2                !
 ! D5    D(16,1,2,18)          -77.5499         estimate D2E/DX2                !
 ! D6    D(16,1,2,19)          166.7194         estimate D2E/DX2                !
 ! D7    D(17,1,2,3)           -74.1036         estimate D2E/DX2                !
 ! D8    D(17,1,2,18)          162.9047         estimate D2E/DX2                !
 ! D9    D(17,1,2,19)           47.174          estimate D2E/DX2                !
 ! D10   D(1,2,3,4)            156.311          estimate D2E/DX2                !
 ! D11   D(1,2,3,20)            31.717          estimate D2E/DX2                !
 ! D12   D(1,2,3,21)           -75.9848         estimate D2E/DX2                !
 ! D13   D(18,2,3,4)           -80.0174         estimate D2E/DX2                !
 ! D14   D(18,2,3,20)          155.3887         estimate D2E/DX2                !
 ! D15   D(18,2,3,21)           47.6868         estimate D2E/DX2                !
 ! D16   D(19,2,3,4)            37.8875         estimate D2E/DX2                !
 ! D17   D(19,2,3,20)          -86.7065         estimate D2E/DX2                !
 ! D18   D(19,2,3,21)          165.5916         estimate D2E/DX2                !
 ! D19   D(2,3,4,5)           -152.6143         estimate D2E/DX2                !
 ! D20   D(2,3,4,22)            83.4657         estimate D2E/DX2                !
 ! D21   D(2,3,4,23)           -28.9781         estimate D2E/DX2                !
 ! D22   D(20,3,4,5)           -33.1169         estimate D2E/DX2                !
 ! D23   D(20,3,4,22)         -157.0369         estimate D2E/DX2                !
 ! D24   D(20,3,4,23)           90.5193         estimate D2E/DX2                !
 ! D25   D(21,3,4,5)            77.2979         estimate D2E/DX2                !
 ! D26   D(21,3,4,22)          -46.6221         estimate D2E/DX2                !
 ! D27   D(21,3,4,23)         -159.066          estimate D2E/DX2                !
 ! D28   D(3,4,5,6)             72.0036         estimate D2E/DX2                !
 ! D29   D(3,4,5,12)          -166.0171         estimate D2E/DX2                !
 ! D30   D(3,4,5,24)           -51.0217         estimate D2E/DX2                !
 ! D31   D(22,4,5,6)          -166.7648         estimate D2E/DX2                !
 ! D32   D(22,4,5,12)          -44.7855         estimate D2E/DX2                !
 ! D33   D(22,4,5,24)           70.2099         estimate D2E/DX2                !
 ! D34   D(23,4,5,6)           -53.6847         estimate D2E/DX2                !
 ! D35   D(23,4,5,12)           68.2945         estimate D2E/DX2                !
 ! D36   D(23,4,5,24)         -176.7101         estimate D2E/DX2                !
 ! D37   D(4,5,6,7)            -55.3963         estimate D2E/DX2                !
 ! D38   D(12,5,6,7)          -179.9741         estimate D2E/DX2                !
 ! D39   D(24,5,6,7)            67.2757         estimate D2E/DX2                !
 ! D40   D(4,5,12,13)          -11.6011         estimate D2E/DX2                !
 ! D41   D(4,5,12,14)          168.4063         estimate D2E/DX2                !
 ! D42   D(6,5,12,13)          117.2747         estimate D2E/DX2                !
 ! D43   D(6,5,12,14)          -62.7179         estimate D2E/DX2                !
 ! D44   D(24,5,12,13)        -127.9635         estimate D2E/DX2                !
 ! D45   D(24,5,12,14)          52.0439         estimate D2E/DX2                !
 ! D46   D(5,6,7,8)             81.2688         estimate D2E/DX2                !
 ! D47   D(5,6,7,9)           -162.3211         estimate D2E/DX2                !
 ! D48   D(5,6,7,25)           -44.3342         estimate D2E/DX2                !
 ! D49   D(6,7,8,26)            79.6312         estimate D2E/DX2                !
 ! D50   D(6,7,8,27)           -33.5963         estimate D2E/DX2                !
 ! D51   D(6,7,8,28)          -152.7492         estimate D2E/DX2                !
 ! D52   D(9,7,8,26)           -45.4478         estimate D2E/DX2                !
 ! D53   D(9,7,8,27)          -158.6753         estimate D2E/DX2                !
 ! D54   D(9,7,8,28)            82.1718         estimate D2E/DX2                !
 ! D55   D(25,7,8,26)         -161.5968         estimate D2E/DX2                !
 ! D56   D(25,7,8,27)           85.1758         estimate D2E/DX2                !
 ! D57   D(25,7,8,28)          -33.9772         estimate D2E/DX2                !
 ! D58   D(6,7,9,10)           178.742          estimate D2E/DX2                !
 ! D59   D(8,7,9,10)           -63.6321         estimate D2E/DX2                !
 ! D60   D(25,7,9,10)           60.3336         estimate D2E/DX2                !
 ! D61   D(7,9,10,11)          162.0512         estimate D2E/DX2                !
 ! D62   D(7,9,10,29)           47.1484         estimate D2E/DX2                !
 ! D63   D(7,9,10,30)          -72.3856         estimate D2E/DX2                !
 ! D64   D(9,10,11,31)         -61.5984         estimate D2E/DX2                !
 ! D65   D(9,10,11,32)         179.9523         estimate D2E/DX2                !
 ! D66   D(9,10,11,33)          57.6604         estimate D2E/DX2                !
 ! D67   D(29,10,11,31)         59.8213         estimate D2E/DX2                !
 ! D68   D(29,10,11,32)        -58.628          estimate D2E/DX2                !
 ! D69   D(29,10,11,33)        179.08           estimate D2E/DX2                !
 ! D70   D(30,10,11,31)        174.9824         estimate D2E/DX2                !
 ! D71   D(30,10,11,32)         56.5331         estimate D2E/DX2                !
 ! D72   D(30,10,11,33)        -65.7588         estimate D2E/DX2                !
 ! D73   D(5,12,13,34)          -1.3101         estimate D2E/DX2                !
 ! D74   D(5,12,13,35)        -121.0702         estimate D2E/DX2                !
 ! D75   D(5,12,13,36)         118.6531         estimate D2E/DX2                !
 ! D76   D(14,12,13,34)        178.6827         estimate D2E/DX2                !
 ! D77   D(14,12,13,35)         58.9226         estimate D2E/DX2                !
 ! D78   D(14,12,13,36)        -61.3541         estimate D2E/DX2                !
 --------------------------------------------------------------------------------
 Trust Radius=3.00D-01 FncErr=1.00D-07 GrdErr=1.00D-06 EigMax=2.50D+02 EigMin=1.00D-04
 Number of steps in this run=    188 maximum allowed number of steps=    216.
 GradGradGradGradGradGradGradGradGradGradGradGradGradGradGradGradGradGrad

                          Input orientation:                          
 ---------------------------------------------------------------------
 Center     Atomic      Atomic             Coordinates (Angstroms)
 Number     Number       Type             X           Y           Z
 ---------------------------------------------------------------------
      1          6           0        0.986000    0.015130    0.285490
      2          6           0        2.504020   -0.093020    0.420120
      3          6           0        3.040600   -1.317530   -0.353900
      4          6           0        4.535270   -1.145110   -0.737660
      5          6           0        5.041280   -1.898210   -2.008040
      6          8           0        4.606990   -1.404500   -3.316350
      7          6           0        3.185510   -1.304030   -3.497770
      8          6           0        2.758650    0.002070   -2.847250
      9          8           0        2.690560   -1.207510   -4.840840
     10          6           0        1.247400   -1.145230   -4.822270
     11          6           0        0.736680   -0.614620   -6.129970
     12          6           0        6.601680   -1.915110   -2.059630
     13          6           0        7.411420   -1.035000   -1.113140
     14          8           0        7.201760   -2.625380   -2.850250
     15          1           0        0.575280    0.733820    0.999170
     16          1           0        0.514770   -0.958400    0.437480
     17          1           0        0.696220    0.369270   -0.711310
     18          1           0        2.806620   -0.148770    1.468300
     19          1           0        2.921230    0.845200    0.023330
     20          1           0        2.375660   -1.436420   -1.199770
     21          1           0        2.872310   -2.283870    0.126030
     22          1           0        5.102540   -1.452230    0.147530
     23          1           0        4.791810   -0.081080   -0.869200
     24          1           0        4.739030   -2.949030   -1.916070
     25          1           0        2.755620   -2.230060   -3.091130
     26          1           0        2.917460    0.919750   -3.405260
     27          1           0        3.361740    0.204230   -2.000090
     28          1           0        1.721810   -0.059160   -2.513530
     29          1           0        0.850490   -0.432030   -4.095660
     30          1           0        0.838640   -2.126190   -4.560840
     31          1           0        1.117050    0.402360   -6.280160
     32          1           0       -0.356770   -0.571320   -6.108230
     33          1           0        1.081950   -1.238380   -6.951820
     34          1           0        6.821610   -0.408850   -0.448430
     35          1           0        8.041760   -0.359940   -1.696500
     36          1           0        8.030880   -1.679260   -0.482140
 ---------------------------------------------------------------------
                    Distance matrix (angstroms):
                    1          2          3          4          5
     1  C    0.000000
     2  C    1.527811   0.000000
     3  C    2.531044   1.544814   0.000000
     4  C    3.871732   2.563850   1.552752   0.000000
     5  C    5.036511   3.948716   2.660092   1.561112   0.000000
     6  O    5.300959   4.483712   3.352201   2.592695   1.464251
     7  C    4.570676   4.157022   3.147237   3.076575   2.452800
     8  C    3.599516   3.278656   2.835072   2.987101   3.086379
     9  O    5.538920   5.380947   4.501918   4.499215   3.745358
    10  C    5.244423   5.492622   4.817840   5.243484   4.783346
    11  C    6.451114   6.804354   6.258204   6.617228   6.096515
    12  C    6.384456   5.124450   3.993483   2.571100   1.561344
    13  C    6.659201   5.226929   4.445260   2.902645   2.676479
    14  O    7.445860   6.259148   5.025683   3.710041   2.430179
    15  H    1.092953   2.176925   3.480896   4.714709   5.993000
    16  H    1.092208   2.169401   2.671156   4.192879   5.230019
    17  H    1.096813   2.182198   2.910181   4.127026   5.069765
    18  H    2.177283   1.092408   2.177420   2.974422   4.487670
    19  H    2.121994   1.100801   2.198625   2.673119   4.018380
    20  H    2.498830   2.108375   1.082486   2.227627   2.823487
    21  H    2.978086   2.240971   1.092002   2.192754   3.067152
    22  H    4.372423   2.945176   2.126305   1.095299   2.202075
    23  H    3.978285   2.626113   2.204786   1.102395   2.158970
    24  H    5.264821   4.313913   2.826098   2.164323   1.097286
    25  H    4.424251   4.118145   2.899371   3.143738   2.550970
    26  H    4.262688   3.978714   3.785681   3.741263   3.795225
    27  H    3.302087   2.584852   2.264691   2.188977   2.690943
    28  H    2.895073   3.036330   2.826076   3.499794   3.828382
    29  H    4.405995   4.820929   4.425094   5.036095   4.906176
    30  H    5.300366   5.631806   4.816732   5.407800   4.922494
    31  H    6.578365   6.860236   6.463639   6.693146   6.240450
    32  H    6.559467   7.143686   6.723932   7.287271   6.907325
    33  H    7.345689   7.594711   6.882959   7.109845   6.368095
    34  H    5.896842   4.415395   3.889816   2.419315   2.796453
    35  H    7.338441   5.934466   5.266038   3.719051   3.386180
    36  H    7.286326   5.820345   5.005016   3.545405   3.363632
                    6          7          8          9         10
     6  O    0.000000
     7  C    1.436528   0.000000
     8  C    2.369568   1.520290   0.000000
     9  O    2.456741   1.434618   2.332835   0.000000
    10  C    3.690781   2.352826   2.738773   1.444623   0.000000
    11  C    4.849708   3.660674   3.904474   2.414751   1.500820
    12  C    2.412230   3.756579   4.366326   4.851050   6.073978
    13  C    3.585456   4.859748   5.072565   6.017643   7.194786
    14  O    2.905276   4.277325   5.161853   5.130666   6.444696
    15  H    6.280988   5.584676   4.483025   6.507602   6.154002
    16  H    5.571042   4.768491   4.092304   5.714611   5.313814
    17  H    5.022610   4.094003   2.991771   4.849396   4.415598
    18  H    5.264130   5.112733   4.318452   6.398410   6.557086
    19  H    4.365364   4.133664   2.996253   5.284598   5.499396
    20  H    3.075673   2.440121   2.220389   3.661824   3.805295
    21  H    3.953781   3.766976   3.752177   5.085409   5.331276
    22  H    3.499473   4.121308   4.071550   5.546293   6.297243
    23  H    2.788215   3.314391   2.837840   4.632280   5.414981
    24  H    2.088969   2.760656   3.673961   3.972833   4.887860
    25  H    2.039570   1.098951   2.245416   2.027641   2.539376
    26  H    2.874814   2.241786   1.085694   2.576356   3.010176
    27  H    2.423056   2.132827   1.059371   3.242430   3.775735
    28  H    3.283097   2.158900   1.090942   2.770118   2.595167
    29  H    3.957817   2.563235   2.321216   2.131319   1.092773
    30  H    4.033615   2.704416   3.339509   2.086140   1.094401
    31  H    4.922255   3.864193   3.826219   2.671939   2.130134
    32  H    5.755666   4.460842   4.546274   3.361136   2.134579
    33  H    5.066571   4.044717   4.604078   2.654207   2.137998
    34  H    3.757769   4.829187   4.736120   6.082491   7.123521
    35  H    3.938612   5.264888   5.419089   6.264231   7.520003
    36  H    4.453231   5.719478   6.018058   6.909402   8.070782
                   11         12         13         14         15
    11  C    0.000000
    12  C    7.256526   0.000000
    13  C    8.360470   1.525161   0.000000
    14  O    7.523096   1.220516   2.364491   0.000000
    15  H    7.257340   7.258828   7.370440   8.367347   0.000000
    16  H    6.580185   6.648408   7.069234   7.635694   1.784031
    17  H    5.507409   6.473856   6.872216   7.474292   1.753073
    18  H    7.888940   5.474370   5.352889   6.640838   2.444980
    19  H    6.690772   5.050123   4.998852   6.214928   2.543256
    20  H    5.260084   4.339095   5.052477   5.237266   3.575842
    21  H    6.817980   4.338352   4.868135   5.264885   3.891680
    22  H    7.692160   2.707994   2.663512   3.843135   5.099038
    23  H    6.663666   2.838383   2.798540   4.025653   4.683374
    24  H    6.263005   2.135197   3.383767   2.653767   6.276848
    25  H    3.990027   3.994417   5.197796   4.470175   5.501729
    26  H    3.812366   4.839486   5.410225   5.588489   4.991932
    27  H    4.961589   3.871997   4.326925   4.845123   4.128000
    28  H    3.789150   5.240583   5.940119   6.060422   3.779208
    29  H    2.045656   6.278625   7.232206   6.833774   5.233760
    30  H    2.181148   6.285955   7.501918   6.607920   6.258013
    31  H    1.096123   7.298267   8.269413   7.612830   7.306985
    32  H    1.094523   8.161921   9.247200   8.483217   7.286099
    33  H    1.087991   7.406680   8.613579   7.496581   8.207590
    34  H    8.327581   2.216564   1.087097   3.290328   6.512901
    35  H    8.548960   2.150406   1.092403   2.677491   8.013194
    36  H    9.286377   2.141661   1.094058   2.681516   7.975162
                   16         17         18         19         20
    16  H    0.000000
    17  H    1.765035   0.000000
    18  H    2.640202   3.077800   0.000000
    19  H    3.035711   2.390999   1.757569   0.000000
    20  H    2.524283   2.513887   2.993721   2.645640   0.000000
    21  H    2.722474   3.532090   2.522827   3.131137   1.650024
    22  H    4.623372   4.844701   2.952065   3.170445   3.041602
    23  H    4.557431   4.123300   3.067486   2.270170   2.789983
    24  H    5.229357   5.367204   4.798919   4.632694   2.895961
    25  H    4.369167   4.081812   5.012262   4.380013   2.086019
    26  H    4.905815   3.534728   4.990552   3.429402   3.272502
    27  H    3.924117   2.965331   3.530226   2.167745   2.074753
    28  H    3.312709   2.117400   4.127931   2.948243   2.012543
    29  H    4.575930   3.481337   5.904603   4.783864   3.423612
    30  H    5.143134   4.589824   6.643317   5.846448   3.759655
    31  H    6.880487   5.584826   7.949656   6.571542   5.547574
    32  H    6.614812   5.578552   8.221277   7.095621   5.683973
    33  H    7.416322   6.455795   8.663727   7.508460   5.899066
    34  H    6.392423   6.180209   4.456640   4.124095   4.624595
    35  H    7.846503   7.447100   6.121049   5.534438   5.788803
    36  H    7.606395   7.618808   5.782690   5.721619   5.705741
                   21         22         23         24         25
    21  H    0.000000
    22  H    2.380339   0.000000
    23  H    3.086624   1.735035   0.000000
    24  H    2.845567   2.575072   3.053500   0.000000
    25  H    3.219725   4.074552   3.701507   2.414870   0.000000
    26  H    4.768147   4.798248   3.308542   4.528053   3.169570
    27  H    3.309164   3.222812   1.845376   3.441952   2.735602
    28  H    3.638717   4.522302   3.482700   4.220417   2.472891
    29  H    5.033859   6.093062   5.105606   5.119243   2.805622
    30  H    5.111499   6.387786   5.782580   4.783818   2.417778
    31  H    7.164917   7.787094   6.558663   6.587552   4.447972
    32  H    7.226741   8.349527   7.361769   7.013907   4.641259
    33  H    7.375256   8.161596   7.218079   6.454404   4.323139
    34  H    4.409385   2.097382   2.098706   3.597724   5.180052
    35  H    5.809160   3.637658   3.365169   4.202335   5.778029
    36  H    5.229366   3.003865   3.632571   3.808510   5.910886
                   26         27         28         29         30
    26  H    0.000000
    27  H    1.638248   0.000000
    28  H    1.784104   1.738495   0.000000
    29  H    2.564435   3.332059   1.844279   0.000000
    30  H    3.864532   4.284196   3.040408   1.756904   0.000000
    31  H    3.431358   4.837033   3.842686   2.353572   3.070365
    32  H    4.499991   5.595142   4.183858   2.351025   2.498208
    33  H    4.539241   5.638989   4.636637   2.976814   2.562068
    34  H    5.074486   3.841122   5.513155   6.996935   7.460369
    35  H    5.551209   4.723668   6.379638   7.581262   7.950410
    36  H    6.437899   5.258572   6.823169   8.134563   8.280329
                   31         32         33         34         35
    31  H    0.000000
    32  H    1.774756   0.000000
    33  H    1.773242   1.796254   0.000000
    34  H    8.198118   9.142695   8.713547   0.000000
    35  H    8.339224   9.489117   8.765215   1.746092   0.000000
    36  H    9.260196  10.160369   9.504671   1.754255   1.793152
                   36
    36  H    0.000000
 Stoichiometry    C11H22O3
 Framework group  C1[X(C11H22O3)]
 Deg. of freedom   102
 Full point group                 C1      NOp   1
 Largest Abelian subgroup         C1      NOp   1
 Largest concise Abelian subgroup C1      NOp   1
                         Standard orientation:                         
 ---------------------------------------------------------------------
 Center     Atomic      Atomic             Coordinates (Angstroms)
 Number     Number       Type             X           Y           Z
 ---------------------------------------------------------------------
      1          6           0        1.023591    3.795793   -0.085061
      2          6           0       -0.342822    3.169028    0.187499
      3          6           0       -0.575839    1.938880   -0.717425
      4          6           0       -1.613881    0.961406   -0.102566
      5          6           0       -1.495809   -0.546568   -0.488757
      6          8           0       -0.381747   -1.313049    0.072853
      7          6           0        0.926214   -0.772971   -0.174471
      8          6           0        1.142335    0.323546    0.856171
      9          8           0        2.051144   -1.646339   -0.001583
     10          6           0        3.268595   -0.937881   -0.322259
     11          6           0        4.452256   -1.658185    0.254431
     12          6           0       -2.788504   -1.325651   -0.089054
     13          6           0       -3.831182   -0.673023    0.812620
     14          8           0       -2.991112   -2.462246   -0.484986
     15          1           0        1.107335    4.781117    0.380416
     16          1           0        1.200033    3.884682   -1.159252
     17          1           0        1.834475    3.186675    0.332599
     18          1           0       -1.147270    3.895069    0.049354
     19          1           0       -0.352529    2.889869    1.252271
     20          1           0        0.404375    1.506363   -0.871973
     21          1           0       -0.823227    2.163916   -1.756957
     22          1           0       -2.594449    1.359068   -0.385460
     23          1           0       -1.606421    1.014492    0.998525
     24          1           0       -1.442336   -0.608034   -1.583015
     25          1           0        0.943326   -0.476322   -1.232488
     26          1           0        1.430879    0.024208    1.859103
     27          1           0        0.225866    0.808360    1.073669
     28          1           0        1.836142    1.074047    0.474681
     29          1           0        3.333207    0.050396    0.139572
     30          1           0        3.334753   -0.788083   -1.404339
     31          1           0        4.357936   -1.691386    1.345984
     32          1           0        5.370163   -1.115981    0.006557
     33          1           0        4.493490   -2.678593   -0.120793
     34          1           0       -3.584605    0.330269    1.150827
     35          1           0       -3.963075   -1.279416    1.711639
     36          1           0       -4.774075   -0.603882    0.262044
 ---------------------------------------------------------------------
 Rotational constants (GHZ):           0.6699968           0.4292756           0.2783605
 Standard basis: 6-31G(2df,p) (6D, 7F)
 There are   544 symmetry adapted cartesian basis functions of A   symmetry.
 There are   502 symmetry adapted basis functions of A   symmetry.
   502 basis functions,   770 primitive gaussians,   544 cartesian basis functions
    56 alpha electrons       56 beta electrons
       nuclear repulsion energy       981.7642148937 Hartrees.
 NAtoms=   36 NActive=   36 NUniq=   36 SFac= 1.00D+00 NAtFMM=   60 NAOKFM=F Big=F
 Integral buffers will be    131072 words long.
 Raffenetti 2 integral format.
 Two-electron integral symmetry is turned on.
 One-electron integrals computed using PRISM.
 PrsmSu:  requested number of processors reduced to:  12 ShMem   1 Linda.
 NBasis=   502 RedAO= T EigKep=  5.56D-04  NBF=   502
 NBsUse=   502 1.00D-06 EigRej= -1.00D+00 NBFU=   502
 ExpMin= 1.61D-01 ExpMax= 5.48D+03 ExpMxC= 8.25D+02 IAcc=3 IRadAn=         5 AccDes= 0.00D+00
 Harris functional with IExCor=  402 and IRadAn=       5 diagonalized for initial guess.
 HarFok:  IExCor=  402 AccDes= 0.00D+00 IRadAn=         5 IDoV= 1 UseB2=F ITyADJ=14
 ICtDFT=  3500011 ScaDFX=  1.000000  1.000000  1.000000  1.000000
 FoFCou: FMM=F IPFlag=           0 FMFlag=      100000 FMFlg1=           0
         NFxFlg=           0 DoJE=T BraDBF=F KetDBF=T FulRan=T
         wScrn=  0.000000 ICntrl=       500 IOpCl=  0 I1Cent=   200000004 NGrid=           0
         NMat0=    1 NMatS0=      1 NMatT0=    0 NMatD0=    1 NMtDS0=    0 NMtDT0=    0
 Petite list used in FoFCou.
 Requested convergence on RMS density matrix=1.00D-08 within 128 cycles.
 Requested convergence on MAX density matrix=1.00D-06.
 Requested convergence on             energy=1.00D-06.
 No special actions if energy rises.
 Integral accuracy reduced to 1.0D-05 until final iterations.
 Initial convergence to 1.0D-05 achieved.  Increase integral accuracy.
 SCF Done:  E(RB3LYP) =  -658.054473311     A.U. after   13 cycles
            NFock= 13  Conv=0.94D-08     -V/T= 2.0077

 **********************************************************************

            Population analysis using the SCF density.

 **********************************************************************

 Orbital symmetries:
       Occupied  (A) (A) (A) (A) (A) (A) (A) (A) (A) (A) (A) (A)
                 (A) (A) (A) (A) (A) (A) (A) (A) (A) (A) (A) (A)
                 (A) (A) (A) (A) (A) (A) (A) (A) (A) (A) (A) (A)
                 (A) (A) (A) (A) (A) (A) (A) (A) (A) (A) (A) (A)
                 (A) (A) (A) (A) (A) (A) (A) (A)
       Virtual   (A) (A) (A) (A) (A) (A) (A) (A) (A) (A) (A) (A)
                 (A) (A) (A) (A) (A) (A) (A) (A) (A) (A) (A) (A)
                 (A) (A) (A) (A) (A) (A) (A) (A) (A) (A) (A) (A)
                 (A) (A) (A) (A) (A) (A) (A) (A) (A) (A) (A) (A)
                 (A) (A) (A) (A) (A) (A) (A) (A) (A) (A) (A) (A)
                 (A) (A) (A) (A) (A) (A) (A) (A) (A) (A) (A) (A)
                 (A) (A) (A) (A) (A) (A) (A) (A) (A) (A) (A) (A)
                 (A) (A) (A) (A) (A) (A) (A) (A) (A) (A) (A) (A)
                 (A) (A) (A) (A) (A) (A) (A) (A) (A) (A) (A) (A)
                 (A) (A) (A) (A) (A) (A) (A) (A) (A) (A) (A) (A)
                 (A) (A) (A) (A) (A) (A) (A) (A) (A) (A) (A) (A)
                 (A) (A) (A) (A) (A) (A) (A) (A) (A) (A) (A) (A)
                 (A) (A) (A) (A) (A) (A) (A) (A) (A) (A) (A) (A)
                 (A) (A) (A) (A) (A) (A) (A) (A) (A) (A) (A) (A)
                 (A) (A) (A) (A) (A) (A) (A) (A) (A) (A) (A) (A)
                 (A) (A) (A) (A) (A) (A) (A) (A) (A) (A) (A) (A)
                 (A) (A) (A) (A) (A) (A) (A) (A) (A) (A) (A) (A)
                 (A) (A) (A) (A) (A) (A) (A) (A) (A) (A) (A) (A)
                 (A) (A) (A) (A) (A) (A) (A) (A) (A) (A) (A) (A)
                 (A) (A) (A) (A) (A) (A) (A) (A) (A) (A) (A) (A)
                 (A) (A) (A) (A) (A) (A) (A) (A) (A) (A) (A) (A)
                 (A) (A) (A) (A) (A) (A) (A) (A) (A) (A) (A) (A)
                 (A) (A) (A) (A) (A) (A) (A) (A) (A) (A) (A) (A)
                 (A) (A) (A) (A) (A) (A) (A) (A) (A) (A) (A) (A)
                 (A) (A) (A) (A) (A) (A) (A) (A) (A) (A) (A) (A)
                 (A) (A) (A) (A) (A) (A) (A) (A) (A) (A) (A) (A)
                 (A) (A) (A) (A) (A) (A) (A) (A) (A) (A) (A) (A)
                 (A) (A) (A) (A) (A) (A) (A) (A) (A) (A) (A) (A)
                 (A) (A) (A) (A) (A) (A) (A) (A) (A) (A) (A) (A)
                 (A) (A) (A) (A) (A) (A) (A) (A) (A) (A) (A) (A)
                 (A) (A) (A) (A) (A) (A) (A) (A) (A) (A) (A) (A)
                 (A) (A) (A) (A) (A) (A) (A) (A) (A) (A) (A) (A)
                 (A) (A) (A) (A) (A) (A) (A) (A) (A) (A) (A) (A)
                 (A) (A) (A) (A) (A) (A) (A) (A) (A) (A) (A) (A)
                 (A) (A) (A) (A) (A) (A) (A) (A) (A) (A) (A) (A)
                 (A) (A) (A) (A) (A) (A) (A) (A) (A) (A) (A) (A)
                 (A) (A) (A) (A) (A) (A) (A) (A) (A) (A) (A) (A)
                 (A) (A)
 The electronic state is 1-A.
 Alpha  occ. eigenvalues --  -19.14825 -19.13864 -19.12996 -10.28275 -10.27547
 Alpha  occ. eigenvalues --  -10.25319 -10.22786 -10.19896 -10.18913 -10.18840
 Alpha  occ. eigenvalues --  -10.18635 -10.17943 -10.17538 -10.16275  -1.04832
 Alpha  occ. eigenvalues --   -1.03221  -1.00143  -0.81407  -0.78099  -0.76097
 Alpha  occ. eigenvalues --   -0.73696  -0.73141  -0.68668  -0.63546  -0.61471
 Alpha  occ. eigenvalues --   -0.59942  -0.59206  -0.53797  -0.50796  -0.50287
 Alpha  occ. eigenvalues --   -0.47646  -0.47348  -0.46655  -0.46113  -0.43947
 Alpha  occ. eigenvalues --   -0.43579  -0.43314  -0.42277  -0.40720  -0.39657
 Alpha  occ. eigenvalues --   -0.39402  -0.38999  -0.38500  -0.37800  -0.36809
 Alpha  occ. eigenvalues --   -0.36331  -0.35048  -0.34571  -0.34116  -0.33928
 Alpha  occ. eigenvalues --   -0.33133  -0.32393  -0.29989  -0.27159  -0.24415
 Alpha  occ. eigenvalues --   -0.24302
 Alpha virt. eigenvalues --   -0.03110   0.07371   0.08430   0.08695   0.10089
 Alpha virt. eigenvalues --    0.10821   0.11093   0.12058   0.12449   0.13303
 Alpha virt. eigenvalues --    0.14570   0.14975   0.15281   0.15740   0.16346
 Alpha virt. eigenvalues --    0.16528   0.16789   0.17429   0.18029   0.18648
 Alpha virt. eigenvalues --    0.19090   0.19712   0.19963   0.20728   0.22077
 Alpha virt. eigenvalues --    0.22354   0.23529   0.24890   0.25471   0.26774
 Alpha virt. eigenvalues --    0.27517   0.28245   0.29554   0.30620   0.31713
 Alpha virt. eigenvalues --    0.34829   0.41205   0.44235   0.45522   0.46458
 Alpha virt. eigenvalues --    0.47048   0.48909   0.49471   0.50162   0.50685
 Alpha virt. eigenvalues --    0.51368   0.51837   0.52241   0.53369   0.54037
 Alpha virt. eigenvalues --    0.54520   0.55099   0.56459   0.56861   0.57544
 Alpha virt. eigenvalues --    0.58736   0.59640   0.60073   0.61638   0.62100
 Alpha virt. eigenvalues --    0.62489   0.63477   0.64594   0.64878   0.66125
 Alpha virt. eigenvalues --    0.67547   0.69832   0.70099   0.70421   0.71999
 Alpha virt. eigenvalues --    0.72699   0.73308   0.73754   0.73944   0.74253
 Alpha virt. eigenvalues --    0.74806   0.75724   0.76048   0.76349   0.77036
 Alpha virt. eigenvalues --    0.77724   0.77877   0.78710   0.80030   0.81034
 Alpha virt. eigenvalues --    0.81530   0.82305   0.83022   0.83937   0.85021
 Alpha virt. eigenvalues --    0.85570   0.87574   0.88449   0.89380   0.89717
 Alpha virt. eigenvalues --    0.91519   0.91798   0.93894   0.95405   0.95817
 Alpha virt. eigenvalues --    0.96349   0.97602   0.98300   0.98706   1.00102
 Alpha virt. eigenvalues --    1.01233   1.01743   1.05745   1.06156   1.08166
 Alpha virt. eigenvalues --    1.08898   1.11364   1.11649   1.14547   1.15485
 Alpha virt. eigenvalues --    1.18568   1.19007   1.20159   1.22517   1.22685
 Alpha virt. eigenvalues --    1.24377   1.24907   1.27314   1.27843   1.30466
 Alpha virt. eigenvalues --    1.31890   1.33070   1.33422   1.34570   1.36099
 Alpha virt. eigenvalues --    1.37017   1.39526   1.40066   1.40855   1.41449
 Alpha virt. eigenvalues --    1.44126   1.45086   1.46233   1.47911   1.49599
 Alpha virt. eigenvalues --    1.49886   1.50727   1.51597   1.52573   1.54466
 Alpha virt. eigenvalues --    1.55745   1.56961   1.57630   1.58918   1.59860
 Alpha virt. eigenvalues --    1.60374   1.61432   1.62390   1.62796   1.65980
 Alpha virt. eigenvalues --    1.66323   1.68109   1.69030   1.70322   1.72742
 Alpha virt. eigenvalues --    1.73239   1.74913   1.76582   1.77755   1.78907
 Alpha virt. eigenvalues --    1.80392   1.81765   1.83022   1.85078   1.85841
 Alpha virt. eigenvalues --    1.88338   1.88917   1.90605   1.94208   1.95067
 Alpha virt. eigenvalues --    1.95570   1.96692   1.96816   1.97108   1.99829
 Alpha virt. eigenvalues --    2.00852   2.02180   2.03695   2.05678   2.07651
 Alpha virt. eigenvalues --    2.09592   2.13899   2.16671   2.18040   2.19172
 Alpha virt. eigenvalues --    2.20425   2.22359   2.25972   2.27078   2.27417
 Alpha virt. eigenvalues --    2.29063   2.31804   2.33520   2.33996   2.34783
 Alpha virt. eigenvalues --    2.37291   2.38214   2.40587   2.42318   2.43661
 Alpha virt. eigenvalues --    2.47140   2.48935   2.51221   2.52370   2.53454
 Alpha virt. eigenvalues --    2.56198   2.59333   2.61766   2.63515   2.64053
 Alpha virt. eigenvalues --    2.65104   2.66301   2.67510   2.70222   2.71313
 Alpha virt. eigenvalues --    2.72353   2.73394   2.74851   2.76217   2.76958
 Alpha virt. eigenvalues --    2.78393   2.79832   2.80863   2.82186   2.83006
 Alpha virt. eigenvalues --    2.84297   2.85799   2.86664   2.88176   2.89213
 Alpha virt. eigenvalues --    2.89862   2.90648   2.91205   2.91768   2.92871
 Alpha virt. eigenvalues --    2.93149   2.95016   2.96462   2.97410   2.98080
 Alpha virt. eigenvalues --    2.98634   2.99908   3.00778   3.03018   3.04777
 Alpha virt. eigenvalues --    3.05071   3.09105   3.09616   3.11398   3.13996
 Alpha virt. eigenvalues --    3.14525   3.15094   3.17259   3.18428   3.19132
 Alpha virt. eigenvalues --    3.22855   3.23688   3.24773   3.27100   3.28372
 Alpha virt. eigenvalues --    3.29658   3.31559   3.33032   3.34137   3.34619
 Alpha virt. eigenvalues --    3.37359   3.39464   3.39984   3.40812   3.43036
 Alpha virt. eigenvalues --    3.44186   3.45655   3.46483   3.47547   3.48372
 Alpha virt. eigenvalues --    3.49562   3.51957   3.53453   3.54512   3.55820
 Alpha virt. eigenvalues --    3.56783   3.58151   3.59443   3.60213   3.60232
 Alpha virt. eigenvalues --    3.61428   3.62280   3.63335   3.65482   3.67191
 Alpha virt. eigenvalues --    3.68200   3.69852   3.71515   3.72188   3.75201
 Alpha virt. eigenvalues --    3.77927   3.79399   3.80824   3.81185   3.84899
 Alpha virt. eigenvalues --    3.89838   3.91116   3.92070   3.96308   3.97451
 Alpha virt. eigenvalues --    3.99811   4.01791   4.03135   4.05935   4.06313
 Alpha virt. eigenvalues --    4.08237   4.12457   4.16882   4.18082   4.20137
 Alpha virt. eigenvalues --    4.22148   4.24128   4.25349   4.28392   4.28961
 Alpha virt. eigenvalues --    4.30318   4.34538   4.35796   4.39130   4.39369
 Alpha virt. eigenvalues --    4.40076   4.41006   4.42455   4.43351   4.43883
 Alpha virt. eigenvalues --    4.44372   4.45890   4.46776   4.47992   4.48640
 Alpha virt. eigenvalues --    4.50156   4.51145   4.51780   4.52601   4.53789
 Alpha virt. eigenvalues --    4.54112   4.54754   4.55374   4.56043   4.57268
 Alpha virt. eigenvalues --    4.58553   4.59022   4.60137   4.61098   4.62508
 Alpha virt. eigenvalues --    4.62751   4.63328   4.63951   4.66411   4.66948
 Alpha virt. eigenvalues --    4.68288   4.70093   4.71459   4.72212   4.72641
 Alpha virt. eigenvalues --    4.74124   4.74873   4.75537   4.75737   4.78271
 Alpha virt. eigenvalues --    4.79119   4.79890   4.81026   4.82216   4.84390
 Alpha virt. eigenvalues --    4.84864   4.85674   4.86746   4.88336   4.88728
 Alpha virt. eigenvalues --    4.89650   4.90927   4.92658   4.93057   4.94709
 Alpha virt. eigenvalues --    4.96850   4.99376   5.01294   5.03049   5.03229
 Alpha virt. eigenvalues --    5.07518   5.08415   5.10519   5.11985   5.14299
 Alpha virt. eigenvalues --    5.17745   5.24480   5.29151   5.31621   5.32913
 Alpha virt. eigenvalues --    5.38701   5.40985   5.41286   5.43687   5.45034
 Alpha virt. eigenvalues --    5.47539   5.48920   5.51271   5.52912   5.56400
 Alpha virt. eigenvalues --    5.59860   5.65328   5.68673   5.73432   5.83824
 Alpha virt. eigenvalues --    5.87695   5.89656   5.93994   5.96298   5.99050
 Alpha virt. eigenvalues --    6.02113   6.03621   6.08459   6.12627   6.28336
 Alpha virt. eigenvalues --    6.34395   6.40155   6.60273   6.74487   6.92816
 Alpha virt. eigenvalues --    7.09970   7.29062  10.78066  11.28058  11.32307
 Alpha virt. eigenvalues --   11.68379  11.73167  11.84787  11.94556  12.13779
 Alpha virt. eigenvalues --   12.46294  12.53373  12.67794  13.12874  13.53807
 Alpha virt. eigenvalues --   13.70520
          Condensed to atoms (all electrons):
               1          2          3          4          5          6
     1  C    4.954874   0.408759  -0.029720   0.002269  -0.000107   0.000001
     2  C    0.408759   4.781683   0.418591  -0.032469   0.001591  -0.000007
     3  C   -0.029720   0.418591   4.879112   0.409009  -0.018589   0.000704
     4  C    0.002269  -0.032469   0.409009   5.093800   0.277596  -0.035817
     5  C   -0.000107   0.001591  -0.018589   0.277596   4.980649   0.343881
     6  O    0.000001  -0.000007   0.000704  -0.035817   0.343881   7.780244
     7  C    0.000124   0.000183  -0.002729  -0.003581  -0.061397   0.364418
     8  C   -0.003667  -0.002799  -0.007723  -0.003088  -0.005593  -0.045168
     9  O    0.000000  -0.000003   0.000179  -0.000049   0.000950  -0.004401
    10  C   -0.000002  -0.000000   0.000017   0.000018  -0.000293   0.001607
    11  C   -0.000000  -0.000000   0.000000  -0.000000  -0.000000  -0.000031
    12  C    0.000000  -0.000042   0.000679  -0.017721   0.339628  -0.008291
    13  C   -0.000000   0.000025   0.000489   0.000161  -0.110822   0.000646
    14  O   -0.000000   0.000000  -0.000040   0.001893  -0.053583  -0.002719
    15  H    0.372430  -0.023634   0.003477  -0.000123   0.000001   0.000000
    16  H    0.379776  -0.031604  -0.006716   0.000255   0.000006   0.000000
    17  H    0.379958  -0.027285  -0.003744   0.000087   0.000008   0.000001
    18  H   -0.035165   0.370299  -0.031692   0.001607  -0.000001  -0.000000
    19  H   -0.037386   0.374446  -0.035627  -0.009115   0.000306  -0.000005
    20  H   -0.006777  -0.042713   0.373612  -0.033104  -0.003356  -0.000691
    21  H   -0.000016  -0.026014   0.351477  -0.025044  -0.000395  -0.000084
    22  H   -0.000101   0.000867  -0.030450   0.354100  -0.022754   0.001931
    23  H    0.000298  -0.009732  -0.040772   0.349673  -0.016535   0.000282
    24  H    0.000005  -0.000036  -0.004764  -0.075810   0.333000  -0.030334
    25  H   -0.000039   0.000148  -0.003619  -0.006406  -0.001866  -0.044944
    26  H    0.000060   0.000091   0.000763  -0.000189   0.000629  -0.000417
    27  H    0.000001   0.000308  -0.007667  -0.000066  -0.003140  -0.005883
    28  H   -0.000073  -0.001346  -0.004415  -0.000489   0.000032   0.003302
    29  H   -0.000000  -0.000019   0.000011   0.000007   0.000014  -0.000062
    30  H   -0.000001   0.000001  -0.000039  -0.000005   0.000027  -0.000060
    31  H   -0.000000   0.000000  -0.000000  -0.000000   0.000000  -0.000001
    32  H    0.000000   0.000000  -0.000000  -0.000000  -0.000000   0.000000
    33  H    0.000000  -0.000000   0.000000   0.000000   0.000000  -0.000001
    34  H    0.000000  -0.000027   0.000234  -0.002641  -0.000706   0.000069
    35  H   -0.000000  -0.000000  -0.000016   0.000000   0.003980  -0.000073
    36  H    0.000000  -0.000000  -0.000018  -0.000439   0.003898  -0.000001
               7          8          9         10         11         12
     1  C    0.000124  -0.003667   0.000000  -0.000002  -0.000000   0.000000
     2  C    0.000183  -0.002799  -0.000003  -0.000000  -0.000000  -0.000042
     3  C   -0.002729  -0.007723   0.000179   0.000017   0.000000   0.000679
     4  C   -0.003581  -0.003088  -0.000049   0.000018  -0.000000  -0.017721
     5  C   -0.061397  -0.005593   0.000950  -0.000293  -0.000000   0.339628
     6  O    0.364418  -0.045168  -0.004401   0.001607  -0.000031  -0.008291
     7  C    4.462664   0.336914   0.378553  -0.076266   0.002480   0.001846
     8  C    0.336914   5.234545  -0.065042  -0.011149   0.000858  -0.000094
     9  O    0.378553  -0.065042   7.768961   0.346814  -0.028095  -0.000012
    10  C   -0.076266  -0.011149   0.346814   4.716076   0.426719  -0.000001
    11  C    0.002480   0.000858  -0.028095   0.426719   4.938743  -0.000000
    12  C    0.001846  -0.000094  -0.000012  -0.000001  -0.000000   4.246477
    13  C   -0.000138   0.000009   0.000000  -0.000000   0.000000   0.342939
    14  O    0.000007  -0.000006  -0.000000   0.000000  -0.000000   0.755125
    15  H   -0.000002   0.000132   0.000000  -0.000000   0.000000  -0.000000
    16  H   -0.000005  -0.000065  -0.000000   0.000000   0.000000   0.000000
    17  H   -0.000052  -0.001343   0.000002  -0.000033   0.000001   0.000000
    18  H   -0.000007   0.000198   0.000000   0.000000   0.000000   0.000002
    19  H    0.000166  -0.001880  -0.000000  -0.000000  -0.000000   0.000000
    20  H   -0.001745  -0.001959  -0.000301   0.000101   0.000001   0.000111
    21  H    0.000011   0.000026  -0.000003  -0.000002  -0.000000  -0.000029
    22  H   -0.000158   0.000871   0.000001  -0.000000  -0.000000  -0.002553
    23  H   -0.000832  -0.009052  -0.000007  -0.000001   0.000000  -0.005209
    24  H   -0.006996  -0.001693  -0.000020   0.000002   0.000000  -0.010335
    25  H    0.359906  -0.078974  -0.043519  -0.004902   0.000043   0.000487
    26  H   -0.011159   0.361275  -0.001556   0.000390  -0.000257   0.000011
    27  H   -0.019857   0.357911   0.003022   0.000819  -0.000030   0.000103
    28  H   -0.016509   0.352009   0.001430  -0.006649   0.000014   0.000002
    29  H   -0.008474   0.008578  -0.034117   0.355454  -0.037139   0.000000
    30  H    0.000311  -0.003121  -0.031730   0.363716  -0.038621   0.000000
    31  H    0.000416  -0.000161   0.001821  -0.025710   0.376009   0.000000
    32  H   -0.000158   0.000023   0.002242  -0.023539   0.366445   0.000000
    33  H    0.000054   0.000035   0.001282  -0.027995   0.377459   0.000000
    34  H   -0.000007   0.000006   0.000000  -0.000000  -0.000000  -0.008234
    35  H    0.000002   0.000002  -0.000000   0.000000  -0.000000  -0.013544
    36  H    0.000001  -0.000000  -0.000000   0.000000  -0.000000  -0.009688
              13         14         15         16         17         18
     1  C   -0.000000  -0.000000   0.372430   0.379776   0.379958  -0.035165
     2  C    0.000025   0.000000  -0.023634  -0.031604  -0.027285   0.370299
     3  C    0.000489  -0.000040   0.003477  -0.006716  -0.003744  -0.031692
     4  C    0.000161   0.001893  -0.000123   0.000255   0.000087   0.001607
     5  C   -0.110822  -0.053583   0.000001   0.000006   0.000008  -0.000001
     6  O    0.000646  -0.002719   0.000000   0.000000   0.000001  -0.000000
     7  C   -0.000138   0.000007  -0.000002  -0.000005  -0.000052  -0.000007
     8  C    0.000009  -0.000006   0.000132  -0.000065  -0.001343   0.000198
     9  O    0.000000  -0.000000   0.000000  -0.000000   0.000002   0.000000
    10  C   -0.000000   0.000000  -0.000000   0.000000  -0.000033   0.000000
    11  C    0.000000  -0.000000   0.000000   0.000000   0.000001   0.000000
    12  C    0.342939   0.755125  -0.000000   0.000000   0.000000   0.000002
    13  C    5.233538  -0.071153   0.000000   0.000000  -0.000000  -0.000003
    14  O   -0.071153   7.675891   0.000000   0.000000  -0.000000  -0.000000
    15  H    0.000000   0.000000   0.601229  -0.029583  -0.031283  -0.004722
    16  H    0.000000   0.000000  -0.029583   0.598467  -0.034818  -0.001356
    17  H   -0.000000  -0.000000  -0.031283  -0.034818   0.586885   0.005170
    18  H   -0.000003  -0.000000  -0.004722  -0.001356   0.005170   0.639029
    19  H   -0.000004   0.000000   0.000280   0.005780  -0.007738  -0.040390
    20  H   -0.000005  -0.000000   0.000089   0.001144   0.003033   0.006173
    21  H    0.000007   0.000000  -0.000189   0.003363  -0.000174  -0.007073
    22  H   -0.001032   0.000092   0.000007  -0.000001   0.000001   0.001436
    23  H    0.000568  -0.000047  -0.000011   0.000024   0.000011   0.000047
    24  H    0.007363  -0.001801  -0.000000  -0.000000  -0.000000  -0.000000
    25  H    0.000011  -0.000022  -0.000000   0.000006  -0.000008  -0.000002
    26  H    0.000000  -0.000000  -0.000000  -0.000002   0.000038   0.000001
    27  H   -0.000017  -0.000004  -0.000003   0.000061  -0.000588  -0.000362
    28  H   -0.000000   0.000000  -0.000160   0.000180   0.007515   0.000045
    29  H    0.000000  -0.000000   0.000000  -0.000002   0.000045  -0.000000
    30  H   -0.000000  -0.000000  -0.000000   0.000001  -0.000003  -0.000000
    31  H    0.000000   0.000000   0.000000   0.000000  -0.000000  -0.000000
    32  H   -0.000000  -0.000000  -0.000000   0.000000  -0.000000  -0.000000
    33  H    0.000000  -0.000000  -0.000000  -0.000000  -0.000000  -0.000000
    34  H    0.344765   0.003410  -0.000000   0.000000   0.000000   0.000008
    35  H    0.367660  -0.001692   0.000000   0.000000  -0.000000   0.000000
    36  H    0.360763  -0.001655  -0.000000  -0.000000   0.000000   0.000000
              19         20         21         22         23         24
     1  C   -0.037386  -0.006777  -0.000016  -0.000101   0.000298   0.000005
     2  C    0.374446  -0.042713  -0.026014   0.000867  -0.009732  -0.000036
     3  C   -0.035627   0.373612   0.351477  -0.030450  -0.040772  -0.004764
     4  C   -0.009115  -0.033104  -0.025044   0.354100   0.349673  -0.075810
     5  C    0.000306  -0.003356  -0.000395  -0.022754  -0.016535   0.333000
     6  O   -0.000005  -0.000691  -0.000084   0.001931   0.000282  -0.030334
     7  C    0.000166  -0.001745   0.000011  -0.000158  -0.000832  -0.006996
     8  C   -0.001880  -0.001959   0.000026   0.000871  -0.009052  -0.001693
     9  O   -0.000000  -0.000301  -0.000003   0.000001  -0.000007  -0.000020
    10  C   -0.000000   0.000101  -0.000002  -0.000000  -0.000001   0.000002
    11  C   -0.000000   0.000001  -0.000000  -0.000000   0.000000   0.000000
    12  C    0.000000   0.000111  -0.000029  -0.002553  -0.005209  -0.010335
    13  C   -0.000004  -0.000005   0.000007  -0.001032   0.000568   0.007363
    14  O    0.000000  -0.000000   0.000000   0.000092  -0.000047  -0.001801
    15  H    0.000280   0.000089  -0.000189   0.000007  -0.000011  -0.000000
    16  H    0.005780   0.001144   0.003363  -0.000001   0.000024  -0.000000
    17  H   -0.007738   0.003033  -0.000174   0.000001   0.000011  -0.000000
    18  H   -0.040390   0.006173  -0.007073   0.001436   0.000047  -0.000000
    19  H    0.633391  -0.000587   0.004977   0.000060   0.006100   0.000007
    20  H   -0.000587   0.631739  -0.046125   0.005040   0.000552   0.000908
    21  H    0.004977  -0.046125   0.652215  -0.008133   0.005120   0.002660
    22  H    0.000060   0.005040  -0.008133   0.629871  -0.040366  -0.000496
    23  H    0.006100   0.000552   0.005120  -0.040366   0.612522   0.006661
    24  H    0.000007   0.000908   0.002660  -0.000496   0.006661   0.667221
    25  H    0.000014   0.007910   0.000366  -0.000034   0.000428   0.012531
    26  H   -0.000198   0.000875  -0.000047  -0.000010   0.000206   0.000017
    27  H    0.004779  -0.014048   0.001327  -0.000258   0.006770   0.000422
    28  H   -0.000162   0.001387   0.000303  -0.000025   0.000515   0.000141
    29  H   -0.000003   0.000079  -0.000002   0.000000   0.000001  -0.000001
    30  H    0.000000   0.000190   0.000001  -0.000000  -0.000000   0.000002
    31  H    0.000000   0.000001  -0.000000  -0.000000  -0.000000  -0.000000
    32  H    0.000000   0.000000   0.000000  -0.000000   0.000000  -0.000000
    33  H   -0.000000   0.000000  -0.000000   0.000000  -0.000000  -0.000000
    34  H    0.000002   0.000008   0.000002   0.000091   0.005002   0.000059
    35  H    0.000000   0.000001  -0.000000   0.000137   0.000084  -0.000054
    36  H    0.000000   0.000000   0.000001   0.000394  -0.000002  -0.000313
              25         26         27         28         29         30
     1  C   -0.000039   0.000060   0.000001  -0.000073  -0.000000  -0.000001
     2  C    0.000148   0.000091   0.000308  -0.001346  -0.000019   0.000001
     3  C   -0.003619   0.000763  -0.007667  -0.004415   0.000011  -0.000039
     4  C   -0.006406  -0.000189  -0.000066  -0.000489   0.000007  -0.000005
     5  C   -0.001866   0.000629  -0.003140   0.000032   0.000014   0.000027
     6  O   -0.044944  -0.000417  -0.005883   0.003302  -0.000062  -0.000060
     7  C    0.359906  -0.011159  -0.019857  -0.016509  -0.008474   0.000311
     8  C   -0.078974   0.361275   0.357911   0.352009   0.008578  -0.003121
     9  O   -0.043519  -0.001556   0.003022   0.001430  -0.034117  -0.031730
    10  C   -0.004902   0.000390   0.000819  -0.006649   0.355454   0.363716
    11  C    0.000043  -0.000257  -0.000030   0.000014  -0.037139  -0.038621
    12  C    0.000487   0.000011   0.000103   0.000002   0.000000   0.000000
    13  C    0.000011   0.000000  -0.000017  -0.000000   0.000000  -0.000000
    14  O   -0.000022  -0.000000  -0.000004   0.000000  -0.000000  -0.000000
    15  H   -0.000000  -0.000000  -0.000003  -0.000160   0.000000  -0.000000
    16  H    0.000006  -0.000002   0.000061   0.000180  -0.000002   0.000001
    17  H   -0.000008   0.000038  -0.000588   0.007515   0.000045  -0.000003
    18  H   -0.000002   0.000001  -0.000362   0.000045  -0.000000  -0.000000
    19  H    0.000014  -0.000198   0.004779  -0.000162  -0.000003   0.000000
    20  H    0.007910   0.000875  -0.014048   0.001387   0.000079   0.000190
    21  H    0.000366  -0.000047   0.001327   0.000303  -0.000002   0.000001
    22  H   -0.000034  -0.000010  -0.000258  -0.000025   0.000000  -0.000000
    23  H    0.000428   0.000206   0.006770   0.000515   0.000001  -0.000000
    24  H    0.012531   0.000017   0.000422   0.000141  -0.000001   0.000002
    25  H    0.717938   0.004687   0.004248  -0.000975  -0.002506   0.011653
    26  H    0.004687   0.592978  -0.036647  -0.031244   0.001664   0.000254
    27  H    0.004248  -0.036647   0.623126  -0.031400  -0.000720   0.000007
    28  H   -0.000975  -0.031244  -0.031400   0.605063  -0.003163   0.001643
    29  H   -0.002506   0.001664  -0.000720  -0.003163   0.685754  -0.063749
    30  H    0.011653   0.000254   0.000007   0.001643  -0.063749   0.667740
    31  H    0.000060   0.000454  -0.000005   0.000088  -0.008885   0.006109
    32  H    0.000031   0.000016  -0.000000  -0.000020  -0.000778   0.000800
    33  H   -0.000022  -0.000001   0.000001  -0.000007   0.007025  -0.005601
    34  H   -0.000001   0.000001  -0.000106   0.000000   0.000000   0.000000
    35  H   -0.000000   0.000000  -0.000003  -0.000000   0.000000  -0.000000
    36  H    0.000000   0.000000   0.000001   0.000000   0.000000   0.000000
              31         32         33         34         35         36
     1  C   -0.000000   0.000000   0.000000   0.000000  -0.000000   0.000000
     2  C    0.000000   0.000000  -0.000000  -0.000027  -0.000000  -0.000000
     3  C   -0.000000  -0.000000   0.000000   0.000234  -0.000016  -0.000018
     4  C   -0.000000  -0.000000   0.000000  -0.002641   0.000000  -0.000439
     5  C    0.000000  -0.000000   0.000000  -0.000706   0.003980   0.003898
     6  O   -0.000001   0.000000  -0.000001   0.000069  -0.000073  -0.000001
     7  C    0.000416  -0.000158   0.000054  -0.000007   0.000002   0.000001
     8  C   -0.000161   0.000023   0.000035   0.000006   0.000002  -0.000000
     9  O    0.001821   0.002242   0.001282   0.000000  -0.000000  -0.000000
    10  C   -0.025710  -0.023539  -0.027995  -0.000000   0.000000   0.000000
    11  C    0.376009   0.366445   0.377459  -0.000000  -0.000000  -0.000000
    12  C    0.000000   0.000000   0.000000  -0.008234  -0.013544  -0.009688
    13  C    0.000000  -0.000000   0.000000   0.344765   0.367660   0.360763
    14  O    0.000000  -0.000000  -0.000000   0.003410  -0.001692  -0.001655
    15  H    0.000000  -0.000000  -0.000000  -0.000000   0.000000  -0.000000
    16  H    0.000000   0.000000  -0.000000   0.000000   0.000000  -0.000000
    17  H   -0.000000  -0.000000  -0.000000   0.000000  -0.000000   0.000000
    18  H   -0.000000  -0.000000  -0.000000   0.000008   0.000000   0.000000
    19  H    0.000000   0.000000  -0.000000   0.000002   0.000000   0.000000
    20  H    0.000001   0.000000   0.000000   0.000008   0.000001   0.000000
    21  H   -0.000000   0.000000  -0.000000   0.000002  -0.000000   0.000001
    22  H   -0.000000  -0.000000   0.000000   0.000091   0.000137   0.000394
    23  H   -0.000000   0.000000  -0.000000   0.005002   0.000084  -0.000002
    24  H   -0.000000  -0.000000  -0.000000   0.000059  -0.000054  -0.000313
    25  H    0.000060   0.000031  -0.000022  -0.000001  -0.000000   0.000000
    26  H    0.000454   0.000016  -0.000001   0.000001   0.000000   0.000000
    27  H   -0.000005  -0.000000   0.000001  -0.000106  -0.000003   0.000001
    28  H    0.000088  -0.000020  -0.000007   0.000000  -0.000000   0.000000
    29  H   -0.008885  -0.000778   0.007025   0.000000   0.000000   0.000000
    30  H    0.006109   0.000800  -0.005601   0.000000  -0.000000   0.000000
    31  H    0.583765  -0.029011  -0.032344   0.000000  -0.000000   0.000000
    32  H   -0.029011   0.597339  -0.027552  -0.000000   0.000000   0.000000
    33  H   -0.032344  -0.027552   0.579221  -0.000000   0.000000  -0.000000
    34  H    0.000000  -0.000000  -0.000000   0.593779  -0.030029  -0.030131
    35  H   -0.000000   0.000000   0.000000  -0.030029   0.535985  -0.018768
    36  H    0.000000   0.000000  -0.000000  -0.030131  -0.018768   0.545184
 Mulliken charges:
               1
     1  C   -0.385500
     2  C   -0.159261
     3  C   -0.210015
     4  C   -0.244322
     5  C    0.012942
     6  O   -0.318096
     7  C    0.302015
     8  C   -0.410814
     9  O   -0.296400
    10  C   -0.035190
    11  C   -0.384599
    12  C    0.388344
    13  C   -0.475768
    14  O   -0.303696
    15  H    0.112066
    16  H    0.115089
    17  H    0.124315
    18  H    0.096758
    19  H    0.102789
    20  H    0.118457
    21  H    0.091474
    22  H    0.111477
    23  H    0.127701
    24  H    0.101653
    25  H    0.067372
    26  H    0.117319
    27  H    0.117899
    28  H    0.122970
    29  H    0.100989
    30  H    0.090476
    31  H    0.127395
    32  H    0.114162
    33  H    0.128447
    34  H    0.124447
    35  H    0.156330
    36  H    0.150775
 Sum of Mulliken charges =  -0.00000
 Mulliken charges with hydrogens summed into heavy atoms:
               1
     1  C   -0.034030
     2  C    0.040286
     3  C   -0.000083
     4  C   -0.005144
     5  C    0.114595
     6  O   -0.318096
     7  C    0.369387
     8  C   -0.052626
     9  O   -0.296400
    10  C    0.156275
    11  C   -0.014596
    12  C    0.388344
    13  C   -0.044216
    14  O   -0.303696
 Electronic spatial extent (au):  <R**2>=           4062.9238
 Charge=             -0.0000 electrons
 Dipole moment (field-independent basis, Debye):
    X=              0.6592    Y=              4.8637    Z=              0.1942  Tot=              4.9121
 Quadrupole moment (field-independent basis, Debye-Ang):
   XX=            -81.2550   YY=           -100.7571   ZZ=            -85.3970
   XY=             -6.3396   XZ=             -3.0787   YZ=             -1.4733
 Traceless Quadrupole moment (field-independent basis, Debye-Ang):
   XX=              7.8814   YY=            -11.6207   ZZ=              3.7394
   XY=             -6.3396   XZ=             -3.0787   YZ=             -1.4733
 Octapole moment (field-independent basis, Debye-Ang**2):
  XXX=              6.7355  YYY=             12.8223  ZZZ=              0.0051  XYY=             17.5144
  XXY=             12.9816  XXZ=              6.6678  XZZ=             -2.9529  YZZ=             -7.7172
  YYZ=              6.0441  XYZ=              9.1710
 Hexadecapole moment (field-independent basis, Debye-Ang**3):
 XXXX=          -2973.5170 YYYY=          -2031.2985 ZZZZ=           -266.9440 XXXY=            -54.2140
 XXXZ=            -26.2578 YYYX=            -57.6725 YYYZ=             -2.7410 ZZZX=              3.2125
 ZZZY=             -1.1409 XXYY=           -930.8958 XXZZ=           -555.8263 YYZZ=           -371.8653
 XXYZ=            -20.9612 YYXZ=            -18.5275 ZZXY=              7.2326
 N-N= 9.817642148937D+02 E-N=-3.495947090952D+03  KE= 6.530487401389D+02
 PrsmSu:  requested number of processors reduced to:  13 ShMem   1 Linda.
 Calling FoFJK, ICntrl=      2127 FMM=F ISym2X=0 I1Cent= 0 IOpClX= 0 NMat=1 NMatS=1 NMatT=0.
 ***** Axes restored to original set *****
 -------------------------------------------------------------------
 Center     Atomic                   Forces (Hartrees/Bohr)
 Number     Number              X              Y              Z
 -------------------------------------------------------------------
      1        6          -0.003231425    0.002099204    0.003411140
      2        6          -0.002629879   -0.005343533    0.000493460
      3        6           0.001193660    0.004427361   -0.005233250
      4        6          -0.007754242   -0.000291077   -0.006640522
      5        6          -0.004957860   -0.000607753   -0.001674090
      6        8           0.001042555   -0.002551050   -0.006113379
      7        6          -0.003413566    0.018655528    0.002671953
      8        6          -0.009801783    0.008151579    0.016134817
      9        8           0.010924600   -0.006906068    0.000355184
     10        6           0.005742614    0.002817746    0.002207668
     11        6           0.005242192   -0.000788272   -0.009727391
     12        6           0.014554827   -0.007872497   -0.019953575
     13        6          -0.004169963    0.003789539    0.004497345
     14        8          -0.018557787    0.010812001    0.014374828
     15        1          -0.001966266   -0.001176531    0.001782040
     16        1          -0.003315132   -0.000282780    0.002743613
     17        1           0.001349286   -0.001917949    0.001174421
     18        1          -0.000445510    0.000910639    0.002903408
     19        1           0.004281632   -0.005402233    0.000983496
     20        1           0.004552954    0.000303644   -0.005688969
     21        1           0.004770917    0.001934230    0.015190315
     22        1           0.004321121   -0.005308992   -0.004493249
     23        1          -0.004181569   -0.003813446    0.002303035
     24        1          -0.001322300   -0.002941488   -0.002100886
     25        1          -0.004869062    0.003031581    0.008296645
     26        1          -0.003057345   -0.005291769   -0.021106221
     27        1           0.003771867    0.001765019    0.013284788
     28        1           0.002556653    0.007623897    0.000046051
     29        1           0.005935432   -0.003532698    0.005904428
     30        1          -0.000913357   -0.004669527   -0.001857307
     31        1          -0.000537750   -0.001547828   -0.001296527
     32        1           0.000519250   -0.001868495   -0.001898830
     33        1          -0.002363668   -0.000556575   -0.005972303
     34        1          -0.000841811    0.000129965   -0.000050672
     35        1           0.003922530   -0.004378692   -0.001814309
     36        1           0.003648188    0.000597322   -0.003137155
 -------------------------------------------------------------------
 Cartesian Forces:  Max     0.021106221 RMS     0.006378077

 GradGradGradGradGradGradGradGradGradGradGradGradGradGradGradGradGradGrad
 Berny optimization.
 FormGI is forming the generalized inverse of G from B-inverse, IUseBI=4.
 Internal  Forces:  Max     0.103403504 RMS     0.014774749
 Search for a local minimum.
 Step number   1 out of a maximum of  188
 All quantities printed in internal units (Hartrees-Bohrs-Radians)
 Mixed Optimization -- RFO/linear search
 Second derivative matrix not updated -- first step.
 ITU=  0
     Eigenvalues ---    0.00230   0.00230   0.00230   0.00230   0.00329
     Eigenvalues ---    0.00398   0.00433   0.00498   0.00755   0.00842
     Eigenvalues ---    0.01102   0.01209   0.01234   0.02931   0.03109
     Eigenvalues ---    0.03622   0.04307   0.04545   0.04587   0.04797
     Eigenvalues ---    0.04823   0.05071   0.05116   0.05482   0.05535
     Eigenvalues ---    0.05560   0.05702   0.05900   0.06111   0.06406
     Eigenvalues ---    0.06594   0.06736   0.07321   0.08044   0.08095
     Eigenvalues ---    0.08439   0.08969   0.09126   0.11043   0.11988
     Eigenvalues ---    0.12322   0.12767   0.13768   0.16000   0.16000
     Eigenvalues ---    0.16000   0.16000   0.16000   0.16000   0.16000
     Eigenvalues ---    0.16000   0.16000   0.16000   0.16000   0.16000
     Eigenvalues ---    0.17152   0.17822   0.20595   0.20802   0.21550
     Eigenvalues ---    0.21853   0.21901   0.21953   0.25000   0.25000
     Eigenvalues ---    0.25000   0.25000   0.26709   0.26728   0.27419
     Eigenvalues ---    0.28097   0.29627   0.29875   0.30339   0.32291
     Eigenvalues ---    0.33419   0.33594   0.33798   0.33984   0.34037
     Eigenvalues ---    0.34114   0.34207   0.34295   0.34309   0.34348
     Eigenvalues ---    0.34474   0.34494   0.34536   0.34536   0.34559
     Eigenvalues ---    0.34582   0.34704   0.35046   0.35150   0.35315
     Eigenvalues ---    0.35696   0.36437   0.38606   0.38958   0.40065
     Eigenvalues ---    0.40333   0.95155
 RFO step:  Lambda=-1.36133487D-01 EMin= 2.30000000D-03
 Linear search not attempted -- first point.
 Maximum step size (   0.300) exceeded in Quadratic search.
    -- Step size scaled by   0.605
 Iteration  1 RMS(Cart)=  0.30913795 RMS(Int)=  0.01816460
 Iteration  2 RMS(Cart)=  0.25534688 RMS(Int)=  0.00672297
 Iteration  3 RMS(Cart)=  0.01731356 RMS(Int)=  0.00045315
 Iteration  4 RMS(Cart)=  0.00006635 RMS(Int)=  0.00045228
 Iteration  5 RMS(Cart)=  0.00000003 RMS(Int)=  0.00045228
 Variable       Old X    -DE/DX   Delta X   Delta X   Delta X     New X
                                 (Linear)    (Quad)   (Total)
    R1        2.88714   0.00623   0.00000   0.00872   0.00872   2.89586
    R2        2.06538   0.00113   0.00000   0.00142   0.00142   2.06680
    R3        2.06397   0.00206   0.00000   0.00259   0.00259   2.06657
    R4        2.07268  -0.00204   0.00000  -0.00259  -0.00259   2.07008
    R5        2.91928   0.00002   0.00000   0.00003   0.00003   2.91931
    R6        2.06435   0.00262   0.00000   0.00329   0.00329   2.06764
    R7        2.08021  -0.00334   0.00000  -0.00428  -0.00428   2.07593
    R8        2.93428   0.00050   0.00000   0.00073   0.00073   2.93501
    R9        2.04560   0.00162   0.00000   0.00198   0.00198   2.04759
   R10        2.06358   0.00423   0.00000   0.00531   0.00531   2.06890
   R11        2.95007   0.00157   0.00000   0.00236   0.00236   2.95243
   R12        2.06981   0.00010   0.00000   0.00012   0.00012   2.06994
   R13        2.08323  -0.00493   0.00000  -0.00634  -0.00634   2.07688
   R14        2.76703   0.00080   0.00000   0.00097   0.00097   2.76801
   R15        2.95051  -0.00128   0.00000  -0.00192  -0.00192   2.94860
   R16        2.07357   0.00300   0.00000   0.00382   0.00382   2.07739
   R17        2.71464  -0.00935   0.00000  -0.01055  -0.01055   2.70410
   R18        2.87293   0.01593   0.00000   0.02195   0.02195   2.89488
   R19        2.71104   0.00189   0.00000   0.00212   0.00212   2.71315
   R20        2.07672   0.00242   0.00000   0.00309   0.00309   2.07981
   R21        2.05167   0.00593   0.00000   0.00734   0.00734   2.05900
   R22        2.00192   0.01311   0.00000   0.01520   0.01520   2.01712
   R23        2.06158  -0.00284   0.00000  -0.00356  -0.00356   2.05802
   R24        2.72994  -0.01422   0.00000  -0.01637  -0.01637   2.71357
   R25        2.83614   0.01381   0.00000   0.01821   0.01821   2.85435
   R26        2.06504  -0.00054   0.00000  -0.00068  -0.00068   2.06437
   R27        2.06812   0.00408   0.00000   0.00516   0.00516   2.07328
   R28        2.07137  -0.00145   0.00000  -0.00183  -0.00183   2.06954
   R29        2.06835  -0.00063   0.00000  -0.00080  -0.00080   2.06755
   R30        2.05601   0.00408   0.00000   0.00508   0.00508   2.06109
   R31        2.88214   0.00113   0.00000   0.00157   0.00157   2.88371
   R32        2.30644  -0.02473   0.00000  -0.01377  -0.01377   2.29268
   R33        2.05431   0.00050   0.00000   0.00062   0.00062   2.05494
   R34        2.06434   0.00053   0.00000   0.00066   0.00066   2.06500
   R35        2.06747  -0.00010   0.00000  -0.00012  -0.00012   2.06735
    A1        1.94163   0.00144   0.00000   0.00277   0.00277   1.94440
    A2        1.93192   0.00299   0.00000   0.00578   0.00578   1.93770
    A3        1.94491  -0.00162   0.00000  -0.00281  -0.00281   1.94210
    A4        1.91040  -0.00348   0.00000  -0.00806  -0.00806   1.90234
    A5        1.85651   0.00081   0.00000   0.00230   0.00231   1.85881
    A6        1.87578  -0.00037   0.00000  -0.00042  -0.00042   1.87536
    A7        1.93593   0.00988   0.00000   0.01769   0.01770   1.95363
    A8        1.94270  -0.00732   0.00000  -0.01550  -0.01546   1.92724
    A9        1.85926   0.00386   0.00000   0.01332   0.01340   1.87266
   A10        1.92207  -0.00056   0.00000  -0.00078  -0.00074   1.92133
   A11        1.94265  -0.00734   0.00000  -0.01494  -0.01511   1.92753
   A12        1.85915   0.00101   0.00000  -0.00059  -0.00059   1.85856
   A13        1.94998   0.01239   0.00000   0.01987   0.01970   1.96969
   A14        1.83923   0.00338   0.00000   0.01603   0.01601   1.85524
   A15        2.01275  -0.01305   0.00000  -0.03241  -0.03232   1.98043
   A16        1.99365  -0.00529   0.00000  -0.00598  -0.00633   1.98732
   A17        1.93396  -0.00497   0.00000  -0.01386  -0.01392   1.92004
   A18        1.72295   0.00638   0.00000   0.01600   0.01621   1.73917
[...]
 ,0.00000392,0.00000227,-0.00000075,0.00000027,-0.00000796,-0.00001183,
 -0.00001808,-0.00004929,-0.00002165,0.00002494,-0.00035374,-0.00015248
 ,0.00018445,-0.00001220,-0.00005884,-0.00002313,-0.00002811,0.00001386
 ,-0.00000065,-0.00000314,0.00003155,-0.00001965,-0.00089062,-0.0004282
 5,0.00085784,0.00254432,-0.00259235,-0.00168595,-0.08021089,-0.0888149
 2,0.10809055,-0.00000346,0.00000094,-0.00000333,0.00001014,-0.00000712
 ,0.00000151,-0.00001637,0.00001042,-0.00000763,0.00003383,-0.00003918,
 0.00001313,-0.00007577,0.00024280,-0.00008555,0.00008196,0.00000578,0.
 00072818,0.00114648,0.00051917,-0.00004696,-0.00006838,-0.00002091,0.0
 0014025,-0.00266901,0.00303509,0.00476918,0.01256618,0.00979209,0.0132
 7315,-0.11825147,-0.06910946,-0.09540924,-0.00025230,0.00016178,0.0002
 2656,0.00007512,-0.00004583,-0.00004615,0.00007688,-0.00013226,-0.0002
 2860,0.00000128,-0.00000084,-0.00000308,0.00000107,0.00000037,0.000000
 45,0.00000057,-0.00000066,0.00000015,0.00000002,0.00000015,0.00000235,
 0.,0.00000105,0.00000020,0.00000896,-0.00000809,-0.00000807,0.00000313
 ,-0.00000079,-0.00000073,0.00000529,-0.00000541,0.00002206,-0.00000207
 ,0.00000526,0.00000196,0.00001207,-0.00002195,0.00000253,-0.00006301,-
 0.00007348,0.00001570,0.00000320,-0.00000057,0.00000542,-0.00003830,0.
 00006341,-0.00001186,-0.00002137,0.00002090,-0.00001419,0.00056690,-0.
 00034160,-0.00093432,0.00066032,-0.00071344,-0.00052612,-0.00959582,-0
 .00789396,-0.01356326,0.12501498,-0.00000484,-0.00000008,-0.00000212,0
 .00000323,0.00000470,0.00000929,-0.00000307,-0.00000895,0.00000321,-0.
 00001730,0.00002829,0.00000094,0.00008268,-0.00026945,0.00012291,-0.00
 017843,-0.00000384,-0.00071098,-0.00079041,0.00042462,0.00060063,-0.00
 000092,-0.00000433,-0.00010346,0.00304385,-0.00126606,-0.00357741,-0.0
 1048196,-0.00788537,-0.00753154,-0.06743320,-0.11362276,-0.09293052,0.
 00010708,-0.00029905,-0.00012350,-0.00000612,0.00001430,0.00001731,-0.
 00002591,0.00022926,0.00018718,0.00000134,-0.00000073,-0.00000598,0.00
 000142,0.00000051,0.00000110,0.00000024,0.00000031,0.00000186,-0.00000
 125,0.00000123,-0.00000540,-0.00000034,-0.00000110,-0.00000156,-0.0000
 1056,0.00000958,0.00001282,0.00000029,0.00000105,-0.00000025,-0.000004
 84,0.00000847,-0.00002387,0.00000440,-0.00000427,0.00000046,0.00000052
 ,0.00002396,-0.00000573,0.00013801,-0.00001568,-0.00012186,-0.00000391
 ,0.00000588,0.00001480,0.00003074,-0.00004308,0.00000768,0.00001130,-0
 .00000777,0.00001956,0.00005112,-0.00001193,0.00070111,0.00020334,0.00
 054049,0.00004992,-0.00997299,-0.01079033,-0.01549821,0.07488778,0.120
 94224,-0.00001377,-0.00000231,-0.00000845,0.00002170,0.00000204,0.0000
 1498,-0.00003469,-0.00001852,-0.00000960,0.00002379,0.00001310,0.00002
 113,0.00000139,-0.00025256,0.00015186,-0.00011645,0.00002009,-0.000662
 12,-0.00111542,-0.00049093,0.00135111,0.00018580,-0.00005839,-0.000362
 71,0.00409321,-0.00285192,-0.00426277,-0.01412788,-0.00737242,-0.01260
 239,-0.09302126,-0.09301423,-0.17346824,0.00013466,0.00010246,0.000072
 06,-0.00000348,-0.00000969,0.00002766,-0.00007864,0.00000909,-0.000077
 56,0.00000476,-0.00000153,-0.00001177,0.00000444,0.00000229,0.00000157
 ,0.00000095,0.00000070,0.00000271,-0.00000358,0.00000287,-0.00000767,0
 .00000032,-0.00000035,-0.00000136,-0.00000863,0.00001021,0.00001494,0.
 00000596,0.00000461,-0.00000083,-0.00000612,0.00000880,-0.00001920,0.0
 0000362,-0.00000636,-0.00000491,-0.00000958,0.00001706,0.00000866,0.00
 014655,0.00006292,-0.00008507,-0.00001773,0.00001585,0.00000091,0.0000
 5791,-0.00014592,0.00000871,0.00001271,0.00000522,0.00002300,0.0002864
 2,-0.00011492,0.00073145,0.00004128,0.00081449,0.00021381,0.00782687,0
 .00788599,0.01162037,0.10273062,0.10401097,0.18824985,0.00000040,0.000
 00263,-0.00000094,0.00000223,-0.00000272,-0.00000156,-0.00000169,0.000
 01341,-0.00000413,0.00000629,-0.00002555,0.00000513,-0.00002166,0.0002
 4922,-0.00010061,0.00009299,-0.00009946,0.00026982,0.00001994,-0.00020
 851,-0.00020369,-0.00005487,-0.00002654,-0.00015291,0.00185008,-0.0016
 4663,-0.00027015,-0.01545267,0.01516117,-0.01227857,-0.13425714,0.0965
 7922,-0.07687248,0.00005433,0.00022040,-0.00010401,0.00008587,-0.00005
 910,0.00007579,-0.00021066,-0.00021555,-0.00003363,0.00000033,-0.00000
 031,0.00000011,-0.00000170,-0.00000021,0.00000004,0.00000074,-0.000002
 56,-0.00000031,0.00000264,-0.00000172,0.00000368,-0.00000128,-0.000000
 84,-0.00000128,0.00000493,-0.00000895,-0.00000620,-0.00000569,-0.00000
 125,0.00000177,0.00000783,-0.00000273,0.00001161,-0.00000685,-0.000006
 10,-0.00001307,-0.00006030,-0.00002521,0.00004074,0.00000303,0.0000313
 3,-0.00000896,0.00001769,0.00000509,0.00002745,0.00003550,-0.00002770,
 0.00003401,0.00007307,-0.00008502,0.00003027,-0.00178838,0.00193973,0.
 00354583,0.00056370,-0.00060024,-0.00060782,0.01204609,-0.01262663,0.0
 1032729,-0.00921100,0.01034002,-0.00706104,0.14627086,0.00001375,-0.00
 000107,0.00001018,-0.00002830,0.00000698,-0.00000792,0.00004793,-0.000
 00466,0.00001981,-0.00006851,0.00003444,-0.00002356,0.00014670,-0.0001
 3967,-0.00001620,-0.00024319,0.00013167,-0.00013679,0.00022291,0.00002
 050,-0.00006936,-0.00002518,0.00003412,0.00015756,-0.00102367,0.001251
 06,0.00090291,0.00993746,-0.01129978,0.00763160,0.09640932,-0.15690905
 ,0.08817624,0.00021728,-0.00056482,-0.00057005,-0.00008539,0.00002007,
 0.00006498,-0.00006892,0.00030682,0.00052836,-0.00000541,0.00000172,0.
 00000857,-0.00000347,-0.00000228,-0.00000060,-0.00000207,0.00000242,-0
 .00000119,0.00000095,-0.00000002,-0.00000003,-0.00000002,-0.00000159,-
 0.00000022,-0.00000636,0.00000761,0.00000096,-0.00000843,-0.00000424,0
 .00000341,-0.00000070,0.00000564,-0.00002318,0.00000100,-0.00000467,-0
 .00000157,-0.00001083,0.00001121,-0.00001422,-0.00009539,-0.00002557,0
 .00007462,-0.00000095,-0.00001583,-0.00000981,-0.00003038,0.00005254,-
 0.00002524,-0.00007386,0.00006477,-0.00003183,0.00194616,-0.00013629,-
 0.00236661,-0.00065443,0.00089493,-0.00048284,0.01278855,-0.01334700,0
 .01056015,-0.01043190,0.01200364,-0.00866805,-0.10882288,0.16777221,0.
 00001242,-0.00000164,0.00000984,-0.00002863,0.00000621,-0.00000891,0.0
 0004689,-0.00000255,0.00002188,-0.00007591,0.00003053,-0.00002148,0.00
 012261,-0.00010977,-0.00001409,-0.00018795,0.00019046,-0.00000053,0.00
 038973,0.00002085,0.00017481,0.00006298,-0.00002861,0.00005894,-0.0004
 2610,0.00153606,0.00187809,0.01416378,-0.01600358,0.01091244,-0.079772
 14,0.09002604,-0.11874968,-0.00011292,-0.00120575,-0.00046592,-0.00004
 319,0.00008664,-0.00008934,0.00010347,0.00082969,0.00049942,-0.0000050
 0,0.00000196,0.00000887,-0.00000230,-0.00000101,-0.00000113,-0.0000015
 8,0.00000133,-0.00000130,0.00000109,-0.00000114,0.00000085,0.00000109,
 0.00000042,0.00000113,-0.00000381,0.00000508,-0.00000031,-0.00000318,-
 0.00000219,0.00000086,0.00000046,0.00000503,-0.00002788,0.00000578,0.0
 0000644,0.00000911,0.00001927,0.00000463,-0.00004114,-0.00004433,-0.00
 003114,0.00002595,-0.00001399,-0.00001465,-0.00001998,-0.00005056,0.00
 001535,-0.00003729,-0.00008603,0.00008642,-0.00005825,0.00292174,-0.00
 290021,-0.00240715,-0.00086744,0.00041478,0.00112359,-0.00848567,0.007
 73500,-0.00758900,-0.01108274,0.01487946,-0.01088574,0.08336662,-0.095
 65816,0.12567690,-0.00000396,-0.00000359,-0.00000994,0.00003031,0.0000
 0104,-0.00000482,-0.00007477,-0.00009226,-0.00014668,0.00043913,-0.000
 03748,-0.00030635,-0.00114154,-0.00066494,-0.00210254,-0.00166542,0.00
 124863,-0.00016633,-0.00098318,0.00084366,0.00211996,-0.00000026,-0.00
 010388,-0.00021303,-0.00131556,-0.00003972,-0.00045205,-0.00020745,-0.
 00050521,-0.00127820,0.00006167,-0.00005885,-0.00003039,0.01315595,-0.
 00684399,0.01862743,-0.08291409,0.05138778,-0.07671428,-0.00287328,-0.
 00323271,-0.00228914,0.00000207,0.00000045,-0.00000513,0.00000052,-0.0
 0000063,0.00000106,-0.00000126,0.00000378,0.00000268,-0.00000382,0.000
 00385,-0.00000963,-0.00000097,-0.00000310,-0.00000124,-0.00001545,0.00
 002568,0.00002133,-0.00001450,0.00001494,0.00003335,-0.00000496,0.0000
 4152,-0.00004138,0.00000955,-0.00006660,-0.00004285,-0.00040056,-0.000
 04450,0.00000417,0.00024006,-0.00015169,-0.00027024,-0.00003184,0.0001
 4244,0.00003009,0.00006783,-0.00008372,-0.00001941,0.00000539,0.000047
 57,-0.00001361,0.00014401,0.00005257,0.00017700,0.00029172,0.00022565,
 0.00019580,-0.00001723,-0.00003125,-0.00003850,-0.00002018,0.00003933,
 0.00005295,-0.00001695,-0.00000934,0.00001730,0.08828447,-0.00001747,0
 .00000311,-0.00002342,0.00006790,-0.00000501,0.00000841,-0.00009930,0.
 00013684,-0.00008755,0.00061297,-0.00026237,-0.00043234,-0.00113387,-0
 .00043123,-0.00154235,-0.00056170,0.00045128,-0.00056695,0.00005439,0.
 00075286,0.00133670,0.00017505,0.00009120,-0.00020309,0.00122138,-0.00
 034624,-0.00037969,-0.00004622,-0.00036800,-0.00024888,-0.00008707,0.0
 0005013,0.00000745,0.01091764,-0.01462548,0.01898010,0.05491636,-0.107
 90121,0.10990711,-0.00497115,-0.00160167,-0.00215459,0.00000744,-0.000
 00333,-0.00000989,0.00000062,-0.00000118,0.00000158,0.00000194,-0.0000
 0083,0.00000181,-0.00000236,0.00000187,-0.00000290,-0.00000585,0.00000
 054,0.00000185,-0.00000526,-0.00000049,0.00000631,0.00004626,0.0000038
 8,-0.00001965,-0.00001498,0.00004189,-0.00001185,0.00007690,0.00011999
 ,0.00012539,-0.00016537,-0.00006606,0.00008302,0.00010270,-0.00007003,
 -0.00014767,0.00003254,-0.00012702,0.00001825,-0.00000547,-0.00010851,
 -0.00000280,-0.00005263,0.00000845,0.00000016,0.00015510,0.00003985,0.
 00012074,0.00010199,0.00005944,-0.00000525,-0.00004779,0.00009136,-0.0
 0012954,0.00010265,-0.00001620,0.00001567,-0.00005469,-0.00018154,0.00
 005443,-0.05704037,0.11946860,-0.00000202,0.00000485,0.00000197,-0.000
 00999,-0.00001373,0.00000247,0.00004505,0.00016289,0.00012983,-0.00020
 499,-0.00017356,-0.00003486,0.00046003,0.00119960,0.00015135,-0.000748
 59,-0.00088215,0.00072128,0.00107910,0.00029355,0.00040865,0.00004563,
 0.00005135,-0.00002707,-0.00167843,-0.00072441,-0.00136169,-0.00016232
 ,0.00036433,0.00026263,-0.00009510,-0.00008164,0.00008527,-0.00343006,
 0.00476556,-0.00787482,-0.07971600,0.10701280,-0.20758616,0.00057024,-
 0.00060403,-0.00007823,-0.00000020,-0.00000099,-0.00000022,0.00000132,
 -0.00000051,-0.00000048,0.00000432,-0.00000401,-0.00000182,0.00000156,
 -0.00000620,0.00001140,-0.00000312,0.00000806,0.00000287,0.00003234,-0
 .00003118,-0.00002858,0.00004705,-0.00001985,-0.00004311,0.00000296,-0
 .00001304,0.00003043,0.00004452,0.00018082,0.00013031,0.00013443,-0.00
 014139,-0.00001386,-0.00010621,-0.00011025,-0.00011201,0.00002499,-0.0
 0011037,0.00007205,-0.00001431,-0.00000724,0.00000203,-0.00006324,-0.0
 0000884,-0.00000362,-0.00006883,-0.00006543,-0.00008224,-0.00002357,-0
 .00004177,-0.00002747,-0.00001704,0.00003272,-0.00014988,0.00006818,0.
 00001042,-0.00003291,-0.00001110,-0.00007054,-0.00000045,0.08852565,-0
 .11675752,0.22504895,0.00004118,-0.00000215,0.00004541,-0.00012888,0.0
 0003672,-0.00002560,0.00022478,0.00001702,0.00027985,-0.00060961,0.000
 07414,-0.00025855,-0.00084430,-0.00327408,0.00064934,0.00050038,-0.000
 40114,-0.00016975,0.00036186,-0.00006759,0.00030032,-0.00000691,0.0000
 0142,-0.00004182,-0.00034693,-0.00024664,-0.00055025,0.00001305,0.0002
 2891,0.00033698,-0.00004065,0.00004533,-0.00001602,-0.02154842,0.01314
 443,0.00725982,-0.24587162,0.10317076,0.06081230,0.00481792,0.00048456
 ,-0.00204751,-0.00001908,0.00000559,0.00002754,-0.00000348,-0.00000103
 ,-0.00000520,-0.00000291,0.00000072,-0.00000535,0.00000510,-0.00001124
 ,0.00001054,0.00000968,0.00001112,0.00001471,0.00000832,-0.00000266,-0
 .00002132,0.00004098,0.00000702,-0.00002930,0.00003226,-0.00004510,0.0
 0004008,0.00007539,0.00007704,0.00011234,-0.00073661,0.00020186,0.0005
 3833,-0.00002314,0.00001907,-0.00001197,-0.00000193,-0.00000318,0.0000
 0062,-0.00000731,-0.00000185,0.00000345,-0.00002076,0.00002370,-0.0000
 1275,-0.00003508,-0.00003769,-0.00007582,-0.00002831,-0.00003057,-0.00
 004341,-0.00000347,0.00002911,-0.00002974,0.00004136,-0.00002313,-0.00
 001114,-0.00002948,-0.00006134,0.00002014,-0.00866909,0.00366700,0.003
 78930,0.26586430,0.00001531,-0.00000124,0.00002308,-0.00006752,0.00003
 188,0.00001123,0.00013427,0.00001682,0.00019237,-0.00050429,-0.0000286
 5,-0.00015151,-0.00164891,-0.00425617,0.00121651,0.00118671,0.00036738
 ,-0.00058982,-0.00015017,0.00001220,0.00001626,-0.00004057,-0.00004265
 ,-0.00001508,0.00022949,0.00019258,0.00011635,-0.00003893,-0.00010243,
 -0.00015737,0.00000014,0.00001226,-0.00000745,-0.02384973,0.01068269,0
 .00783631,0.10693712,-0.10216486,-0.03520565,0.00281103,0.00211158,-0.
 00054458,-0.00000802,0.00000211,0.00000491,0.00000092,0.00000015,-0.00
 000198,-0.00000208,0.00000213,-0.00000005,0.00000150,-0.00000035,-0.00
 000353,0.00000727,0.00000432,0.00001293,-0.00001573,0.00001206,0.00000
 164,0.00005090,0.00001003,-0.00003388,0.00003896,0.00003017,0.00000684
 ,0.00009107,0.00006564,0.00015862,-0.00087702,0.00036947,0.00058268,0.
 00009606,0.00004288,0.00002933,-0.00000844,0.00005010,-0.00002376,0.00
 000993,-0.00000056,-0.00000502,0.00001910,0.00001934,0.00000189,0.0000
 2129,0.00000628,0.00001860,0.00003608,0.00003209,0.00001909,0.00000657
 ,-0.00001162,0.00000241,-0.00000217,0.00000426,0.00001071,0.00000413,0
 .00000916,-0.00000057,0.01170662,-0.00667587,-0.00610162,-0.11343896,0
 .10740025,-0.00000923,0.00000532,-0.00000723,0.00000770,-0.00003031,0.
 00002642,0.00003820,0.00007327,0.00001903,-0.00028935,-0.00005293,0.00
 027093,0.00132583,0.00219098,0.00081245,-0.00029771,-0.00010268,0.0006
 8756,0.00029304,-0.00001389,-0.00060217,0.00000496,0.00002248,0.000059
 00,-0.00068055,-0.00024252,-0.00028234,-0.00004759,0.00020515,0.000269
 24,-0.00000916,0.00000714,0.00000485,0.01155379,-0.00407889,-0.0053320
 7,0.06060334,-0.03400056,-0.06578565,-0.00276689,-0.00115672,-0.000275
 26,0.00000516,-0.00000238,-0.00001197,0.00000247,0.,0.00000167,-0.0000
 0084,0.00000069,0.00000188,0.00000042,0.00001157,-0.00000622,-0.000001
 11,-0.00000283,-0.00000111,-0.00000888,-0.00000772,-0.00000272,0.00000
 916,-0.00002425,-0.00003003,0.00008402,0.00010984,-0.00006624,0.000032
 55,0.00000270,0.00018499,0.00070261,-0.00019913,-0.00039005,-0.0000481
 6,-0.00002298,0.00008165,0.00000489,-0.00004001,-0.00000964,-0.0000280
 1,0.00001828,0.00000636,0.00000228,-0.00001708,0.00000793,-0.00003704,
 -0.00003149,-0.00006188,-0.00005209,-0.00005782,-0.00004011,-0.0000145
 6,0.00002895,-0.00001681,0.00001983,-0.00000850,-0.00000662,-0.0000196
 6,-0.00003038,0.00002722,-0.02172881,0.01048574,0.00890920,-0.06890606
 ,0.03534726,0.06708806,0.00000728,0.00000369,0.00001620,-0.00007139,0.
 00000292,0.00004533,0.00018716,0.00011900,0.00024984,-0.00107678,-0.00
 028689,0.00001768,0.00094089,-0.00021336,0.00188391,0.00027249,0.00045
 022,0.00027725,-0.00018144,-0.00013458,-0.00112450,-0.00005676,-0.0000
 1614,0.00012100,-0.00068009,0.00029603,0.00022474,-0.00002490,0.000082
 13,0.00006462,0.00005001,-0.00004338,0.00001301,-0.00004845,-0.0093853
 6,-0.02129763,-0.05699461,-0.03005627,-0.02896933,-0.00122508,-0.00434
 928,0.00344289,-0.00000300,-0.00000026,-0.00000865,0.00000474,-0.00000
 023,-0.00000055,-0.00000221,0.00000285,0.00000243,-0.00000038,0.000010
 38,-0.00001554,0.00000610,0.00000455,0.00001102,-0.00004138,0.00001410
 ,0.00000764,0.00007208,-0.00001744,-0.00005923,0.00009417,0.00014013,-
 0.00010258,0.00010891,0.00007884,0.00061583,0.00049780,0.00007354,-0.0
 0019584,0.00007044,0.00005792,0.00012493,-0.00000736,0.00004021,-0.000
 04949,-0.00001952,0.00004674,0.00000021,0.00004194,-0.00001066,0.00001
 427,-0.00003830,-0.00001192,-0.00004254,-0.00000757,-0.00002336,-0.000
 00268,-0.00000998,0.00000823,0.00000175,-0.00002123,0.00001246,-0.0000
 0651,-0.00001822,0.00002888,0.00003812,-0.00235637,-0.00794927,-0.0085
 2156,0.00694144,0.01724810,0.02025546,0.05358955,-0.00000806,0.0000094
 3,0.00000746,-0.00003477,-0.00000037,0.00004610,0.00016824,0.00034480,
 0.00030286,-0.00052414,-0.00040423,-0.00025091,0.00050471,0.00010752,0
 .00126320,0.00004079,0.00011944,0.00010396,0.00009973,0.00011430,-0.00
 008131,0.00002706,0.00002496,-0.00000581,0.00019780,-0.00001629,0.0000
 1263,-0.00000585,-0.00002602,-0.00002600,0.00000868,-0.00002823,0.0000
 2911,0.00059123,-0.01610306,-0.01907643,-0.03076583,-0.15962737,-0.133
 25361,-0.00437772,-0.00366514,0.00409084,0.00000078,-0.00000336,-0.000
 01229,0.00000768,-0.00000067,-0.00000011,0.00000839,-0.00000574,0.0000
 0035,-0.00000407,-0.00001002,0.00000327,-0.00000510,0.00002017,0.00000
 906,0.00002378,-0.00002873,-0.00001763,0.00014580,-0.00003525,-0.00011
 179,0.00000464,0.00000968,-0.00009948,0.00014563,0.00058491,0.00050240
 ,0.00034867,-0.00004284,-0.00002665,-0.00000324,-0.00002928,0.00004082
 ,0.00000876,-0.00002772,0.00001559,-0.00001102,-0.00000065,0.00000107,
 -0.00000827,-0.00001677,0.00000467,0.00000366,0.00001016,0.00001265,0.
 00000498,-0.00000358,0.00000551,-0.00000627,0.00001232,-0.00001633,-0.
 00000004,0.00000818,-0.00000703,0.00000476,0.00000654,0.00002415,0.003
 22832,0.01147099,0.01188330,-0.00359719,-0.00820343,-0.00838627,0.0337
 7749,0.17543535,-0.00000310,-0.00000724,-0.00000757,0.00003101,0.00001
 417,-0.00001301,-0.00005211,0.00004531,-0.00009007,0.00074337,0.000217
 21,-0.00039973,-0.00093203,-0.00136006,-0.00074676,0.00094931,0.000617
 26,0.00006505,-0.00003304,-0.00023297,-0.00067917,-0.00007830,-0.00002
 737,0.00006463,-0.00062689,0.00016672,0.00023909,0.00002219,0.00005108
 ,0.00005651,0.00003365,-0.00002548,-0.00001787,0.00091318,0.00667326,0
 .00968545,-0.02881251,-0.13152540,-0.18244982,0.00061538,0.00317551,-0
 .00191712,0.00000045,-0.00000055,0.00000265,-0.00000367,0.00000111,0.0
 0000131,-0.00000437,0.00000284,0.00000031,-0.00000076,0.00000379,-0.00
 000509,0.00000008,-0.00000866,-0.00000218,-0.00002390,0.00000971,0.000
 02077,0.00000129,0.00000907,-0.00001231,0.00001065,0.00004385,-0.00006
 099,0.00051250,0.00010116,-0.00026932,-0.00029731,0.00007730,0.0000694
 7,0.00003654,0.00005595,0.00012492,-0.00000573,0.00003937,-0.00004568,
 -0.00000611,0.00003170,0.00000473,0.00003876,0.00000800,0.00000276,-0.
 00004203,0.00000694,-0.00003064,-0.00002526,-0.00001773,0.00000214,0.0
 0001161,-0.00003083,0.00005822,-0.00004957,-0.00000077,-0.00000486,0.0
 0001198,0.00006900,-0.00001034,-0.00392423,-0.01842878,-0.01851121,-0.
 00197953,-0.00276715,-0.00553031,0.03296850,0.14301264,0.20040602\\-0.
 00000073,0.00000038,-0.00000017,0.00000056,-0.00000067,-0.00000073,-0.
 00000005,-0.00000008,-0.00000001,-0.00000083,-0.00000030,-0.00000053,-
 0.00000122,-0.00000258,0.00000115,0.00000027,0.00000020,-0.00000229,-0
 .00000066,0.00000412,0.00000949,0.00000132,-0.00000124,-0.00000344,0.0
 0000084,-0.00000190,-0.00000612,0.00000138,0.00000116,0.00000478,-0.00
 000011,-0.00000060,-0.00000112,-0.00000033,-0.00000259,-0.00000062,0.0
 0000393,0.00000377,0.00000402,-0.00000094,0.00000135,0.,0.00000002,-0.
 00000002,-0.00000031,-0.00000010,0.00000025,-0.00000016,-0.00000009,0.
 00000035,-0.00000016,-0.00000014,-0.00000009,0.00000026,-0.00000025,-0
 .00000006,0.00000016,0.00000017,0.00000058,-0.00000035,-0.00000028,-0.
 00000011,0.00000012,-0.00000022,-0.00000009,0.00000055,0.00000069,0.,-
 0.00000007,0.00000083,0.00000010,-0.00000068,0.00000058,-0.00000003,-0
 .00000200,0.00000014,0.00000011,0.00000025,-0.00000037,0.00000032,0.00
 000080,0.,0.00000121,-0.00000025,-0.00000012,0.00000017,-0.00000112,-0
 .00000102,-0.00000040,-0.00000080,0.00000054,0.00000013,0.00000019,0.0
 0000015,0.00000031,0.00000053,0.00000006,0.00000006,0.00000064,-0.0000
 0235,-0.00000158,-0.00000147,-0.00000145,-0.00000135,-0.00000019,-0.00
 000022,-0.00000088,-0.00000037\\\@


 THE WHOLE OF SCIENCE IS NOTHING MORE THAN A REFINEMENT OF EVERYDAY THINKING.
                                                              -- A. EINSTEIN
 Job cpu time:       0 days  9 hours  6 minutes 14.9 seconds.
 Elapsed time:       0 days  2 hours 16 minutes 44.3 seconds.
 File lengths (MBytes):  RWF=    662 Int=      0 D2E=      0 Chk=     22 Scr=      1
 Normal termination of Gaussian 16 at Tue May 23 17:59:43 2023.
### All Done ###
