### Starting Gaussian ###
 Entering Gaussian System, Link 0=g16
 Initial command:
 /cluster/software/gaussian/gaussian-16-A.03/avx2/g16/l1.exe "/local/scratch/cz9n3/Gau-23110.inp" -scrdir="/local/scratch/cz9n3/"
 Entering Link 1 = /cluster/software/gaussian/gaussian-16-A.03/avx2/g16/l1.exe PID=     23134.
  
 Copyright (c) 1988,1990,1992,1993,1995,1998,2003,2009,2016,
            Gaussian, Inc.  All Rights Reserved.
  
 This is part of the Gaussian(R) 16 program.  It is based on
 the Gaussian(R) 09 system (copyright 2009, Gaussian, Inc.),
 the Gaussian(R) 03 system (copyright 2003, Gaussian, Inc.),
 the Gaussian(R) 98 system (copyright 1998, Gaussian, Inc.),
 the Gaussian(R) 94 system (copyright 1995, Gaussian, Inc.),
 the Gaussian 92(TM) system (copyright 1992, Gaussian, Inc.),
 the Gaussian 90(TM) system (copyright 1990, Gaussian, Inc.),
 the Gaussian 88(TM) system (copyright 1988, Gaussian, Inc.),
 the Gaussian 86(TM) system (copyright 1986, Carnegie Mellon
 University), and the Gaussian 82(TM) system (copyright 1983,
 Carnegie Mellon University). Gaussian is a federally registered
 trademark of Gaussian, Inc.
  
 This software contains proprietary and confidential information,
 including trade secrets, belonging to Gaussian, Inc.
  
 This software is provided under written license and may be
 used, copied, transmitted, or stored only in accord with that
 written license.
  
 The following legend is applicable only to US Government
 contracts under FAR:
  
                    RESTRICTED RIGHTS LEGEND
  
 Use, reproduction and disclosure by the US Government is
 subject to restrictions as set forth in subparagraphs (a)
 and (c) of the Commercial Computer Software - Restricted
 Rights clause in FAR 52.227-19.
  
 Gaussian, Inc.
 340 Quinnipiac St., Bldg. 40, Wallingford CT 06492
  
  
 ---------------------------------------------------------------
 Warning -- This program may not be used in any manner that
 competes with the business of Gaussian, Inc. or will provide
 assistance to any competitor of Gaussian, Inc.  The licensee
 of this program is prohibited from giving any competitor of
 Gaussian, Inc. access to this program.  By using this program,
 the user acknowledges that Gaussian, Inc. is engaged in the
 business of creating and licensing software in the field of
 computational chemistry and represents and warrants to the
 licensee that it is not a competitor of Gaussian, Inc. and that
 it will not use this program in any manner prohibited above.
 ---------------------------------------------------------------
  

 Cite this work as:
 Gaussian 16, Revision A.03,
 M. J. Frisch, G. W. Trucks, H. B. Schlegel, G. E. Scuseria, 
 M. A. Robb, J. R. Cheeseman, G. Scalmani, V. Barone, 
 G. A. Petersson, H. Nakatsuji, X. Li, M. Caricato, A. V. Marenich, 
 J. Bloino, B. G. Janesko, R. Gomperts, B. Mennucci, H. P. Hratchian, 
 J. V. Ortiz, A. F. Izmaylov, J. L. Sonnenberg, D. Williams-Young, 
 F. Ding, F. Lipparini, F. Egidi, J. Goings, B. Peng, A. Petrone, 
 T. Henderson, D. Ranasinghe, V. G. Zakrzewski, J. Gao, N. Rega, 
 G. Zheng, W. Liang, M. Hada, M. Ehara, K. Toyota, R. Fukuda, 
 J. Hasegawa, M. Ishida, T. Nakajima, Y. Honda, O. Kitao, H. Nakai, 
 T. Vreven, K. Throssell, J. A. Montgomery, Jr., J. E. Peralta, 
 F. Ogliaro, M. J. Bearpark, J. J. Heyd, E. N. Brothers, K. N. Kudin, 
 V. N. Staroverov, T. A. Keith, R. Kobayashi, J. Normand, 
 K. Raghavachari, A. P. Rendell, J. C. Burant, S. S. Iyengar, 
 J. Tomasi, M. Cossi, J. M. Millam, M. Klene, C. Adamo, R. Cammi, 
 J. W. Ochterski, R. L. Martin, K. Morokuma, O. Farkas, 
 J. B. Foresman, and D. J. Fox, Gaussian, Inc., Wallingford CT, 2016.
 
 ******************************************
 Gaussian 16:  ES64L-G16RevA.03 25-Dec-2016
                22-May-2023 
 ******************************************
 %chk=CCCCCNOCNOCCC1CCCCC1.chk
 %NProcShared=20
 Will use up to   20 processors via shared memory.
 -----------------------------
 # opt freq b3lyp/6-31g(2df,p)
 -----------------------------
 1/18=20,19=15,26=3,38=1/1,3;
 2/9=110,12=2,17=6,18=5,40=1/2;
 3/5=1,6=6,7=104,11=2,25=1,30=1,71=1,74=-5/1,2,3;
 4//1;
 5/5=2,38=5/2;
 6/7=2,8=2,9=2,10=2,28=1/1;
 7//1,2,3,16;
 1/18=20,19=15,26=3/3(2);
 2/9=110/2;
 99//99;
 2/9=110/2;
 3/5=1,6=6,7=104,11=2,25=1,30=1,71=1,74=-5/1,2,3;
 4/5=5,16=3,69=1/1;
 5/5=2,38=5/2;
 7//1,2,3,16;
 1/18=20,19=15,26=3/3(-5);
 2/9=110/2;
 6/7=2,8=2,9=2,10=2,19=2,28=1/1;
 99/9=1/99;
 -------------------
 Title Card Required
 -------------------
 Symbolic Z-matrix:
 Charge =  0 Multiplicity = 1
 C                     1.02122  -0.09421   0.00626 
 C                     2.53733  -0.08594   0.016 
 C                     3.06486   0.88315   1.06688 
 C                     4.58485   0.87896   1.07071 
 C                     5.12625   1.83549   2.11878 
 N                     6.57865   1.77008   2.03821 
 O                     7.02088   2.77104   2.99156 
 C                     8.44287   2.75296   3.04039 
 N                     8.88343   3.70342   4.02929 
 O                     10.33476   3.59664   4.02544 
 C                     10.78278   4.52544   4.99614 
 C                     12.29899   4.58309   5.07519 
 C                     12.76316   5.59278   6.14549 
 C                     12.6109   7.03521   5.62896 
 C                     12.888    8.07559   6.7088 
 C                     12.04643   7.82586   7.95516 
 C                     12.3142   6.4364    8.52049 
 C                     12.00894   5.38104   7.47486 
 H                     0.65154  -0.79288  -0.7491 
 H                     0.62961   0.90166  -0.22393 
 H                     0.62924  -0.40115   0.98107 
 H                     2.90904   0.19976  -0.97523 
 H                     2.90807  -1.09701   0.22208 
 H                     2.69266   0.59962   2.05881 
 H                     2.69869   1.89617   0.85947 
 H                     4.95554   1.16717   0.07787 
 H                     4.95324  -0.13566   1.2703 
 H                     4.78221   1.54634   3.11943 
 H                     4.77698   2.85696   1.92005 
 H                     6.85621   2.19352   1.148 
 H                     8.83483   3.03517   2.05538 
 H                     8.79082   1.74408   3.29877 
 H                     8.61453   3.30571   4.93569 
 H                     10.37509   4.17193   5.94763 
 H                     10.3669   5.51424   4.771 
 H                     12.71728   4.83508   4.09187 
 H                     12.68329   3.58235   5.31009 
 H                     13.83239   5.41897   6.32737 
 H                     11.59891   7.20352   5.24446 
 H                     13.29125   7.19695   4.78338 
 H                     12.67114   9.07377   6.31277 
 H                     13.95126   8.05457   6.97332 
 H                     10.98178   7.9222    7.70169 
 H                     12.26443   8.58198   8.71502 
 H                     11.67222   6.26555   9.39273 
 H                     13.35308   6.34659   8.85239 
 H                     10.9269   5.44392   7.32086 
 H                     12.21763   4.37823   7.86565 
 

 GradGradGradGradGradGradGradGradGradGradGradGradGradGradGradGradGradGrad
 Berny optimization.
 Initialization pass.
                           ----------------------------
                           !    Initial Parameters    !
                           ! (Angstroms and Degrees)  !
 --------------------------                            --------------------------
 ! Name  Definition              Value          Derivative Info.                !
 --------------------------------------------------------------------------------
 ! R1    R(1,2)                  1.5162         estimate D2E/DX2                !
 ! R2    R(1,19)                 1.0933         estimate D2E/DX2                !
 ! R3    R(1,20)                 1.0946         estimate D2E/DX2                !
 ! R4    R(1,21)                 1.0946         estimate D2E/DX2                !
 ! R5    R(2,3)                  1.5237         estimate D2E/DX2                !
 ! R6    R(2,22)                 1.0965         estimate D2E/DX2                !
 ! R7    R(2,23)                 1.0964         estimate D2E/DX2                !
 ! R8    R(3,4)                  1.52           estimate D2E/DX2                !
 ! R9    R(3,24)                 1.0967         estimate D2E/DX2                !
 ! R10   R(3,25)                 1.097          estimate D2E/DX2                !
 ! R11   R(4,5)                  1.5187         estimate D2E/DX2                !
 ! R12   R(4,26)                 1.0983         estimate D2E/DX2                !
 ! R13   R(4,27)                 1.0977         estimate D2E/DX2                !
 ! R14   R(5,6)                  1.4561         estimate D2E/DX2                !
 ! R15   R(5,28)                 1.0969         estimate D2E/DX2                !
 ! R16   R(5,29)                 1.0977         estimate D2E/DX2                !
 ! R17   R(6,7)                  1.4513         estimate D2E/DX2                !
 ! R18   R(6,30)                 1.0241         estimate D2E/DX2                !
 ! R19   R(7,8)                  1.4229         estimate D2E/DX2                !
 ! R20   R(8,9)                  1.4406         estimate D2E/DX2                !
 ! R21   R(8,31)                 1.0971         estimate D2E/DX2                !
 ! R22   R(8,32)                 1.098          estimate D2E/DX2                !
 ! R23   R(9,10)                 1.4553         estimate D2E/DX2                !
 ! R24   R(9,33)                 1.0257         estimate D2E/DX2                !
 ! R25   R(10,11)                1.4162         estimate D2E/DX2                !
 ! R26   R(11,12)                1.5194         estimate D2E/DX2                !
 ! R27   R(11,34)                1.0939         estimate D2E/DX2                !
 ! R28   R(11,35)                1.0961         estimate D2E/DX2                !
 ! R29   R(12,13)                1.5429         estimate D2E/DX2                !
 ! R30   R(12,36)                1.0979         estimate D2E/DX2                !
 ! R31   R(12,37)                1.0974         estimate D2E/DX2                !
 ! R32   R(13,14)                1.5397         estimate D2E/DX2                !
 ! R33   R(13,18)                1.543          estimate D2E/DX2                !
 ! R34   R(13,38)                1.0984         estimate D2E/DX2                !
 ! R35   R(14,15)                1.5249         estimate D2E/DX2                !
 ! R36   R(14,39)                1.0956         estimate D2E/DX2                !
 ! R37   R(14,40)                1.0973         estimate D2E/DX2                !
 ! R38   R(15,16)                1.5245         estimate D2E/DX2                !
 ! R39   R(15,41)                1.0956         estimate D2E/DX2                !
 ! R40   R(15,42)                1.0959         estimate D2E/DX2                !
 ! R41   R(16,17)                1.5238         estimate D2E/DX2                !
 ! R42   R(16,43)                1.0986         estimate D2E/DX2                !
 ! R43   R(16,44)                1.0939         estimate D2E/DX2                !
 ! R44   R(17,18)                1.5167         estimate D2E/DX2                !
 ! R45   R(17,45)                1.0964         estimate D2E/DX2                !
 ! R46   R(17,46)                1.0943         estimate D2E/DX2                !
 ! R47   R(18,47)                1.0948         estimate D2E/DX2                !
 ! R48   R(18,48)                1.0963         estimate D2E/DX2                !
 ! A1    A(2,1,19)             110.245          estimate D2E/DX2                !
 ! A2    A(2,1,20)             110.7412         estimate D2E/DX2                !
 ! A3    A(2,1,21)             110.7263         estimate D2E/DX2                !
 ! A4    A(19,1,20)            108.3692         estimate D2E/DX2                !
 ! A5    A(19,1,21)            108.3609         estimate D2E/DX2                !
 ! A6    A(20,1,21)            108.3183         estimate D2E/DX2                !
 ! A7    A(1,2,3)              110.738          estimate D2E/DX2                !
 ! A8    A(1,2,22)             109.548          estimate D2E/DX2                !
 ! A9    A(1,2,23)             109.5298         estimate D2E/DX2                !
 ! A10   A(3,2,22)             109.9002         estimate D2E/DX2                !
 ! A11   A(3,2,23)             109.8639         estimate D2E/DX2                !
 ! A12   A(22,2,23)            107.1906         estimate D2E/DX2                !
 ! A13   A(2,3,4)              110.2545         estimate D2E/DX2                !
 ! A14   A(2,3,24)             109.9898         estimate D2E/DX2                !
 ! A15   A(2,3,25)             109.96           estimate D2E/DX2                !
 ! A16   A(4,3,24)             109.6561         estimate D2E/DX2                !
 ! A17   A(4,3,25)             109.6836         estimate D2E/DX2                !
 ! A18   A(24,3,25)            107.2453         estimate D2E/DX2                !
 ! A19   A(3,4,5)              110.8844         estimate D2E/DX2                !
 ! A20   A(3,4,26)             109.5432         estimate D2E/DX2                !
 ! A21   A(3,4,27)             109.7915         estimate D2E/DX2                !
 ! A22   A(5,4,26)             109.7703         estimate D2E/DX2                !
 ! A23   A(5,4,27)             109.6963         estimate D2E/DX2                !
 ! A24   A(26,4,27)            107.0766         estimate D2E/DX2                !
 ! A25   A(4,5,6)              106.8041         estimate D2E/DX2                !
 ! A26   A(4,5,28)             110.5912         estimate D2E/DX2                !
 ! A27   A(4,5,29)             110.3486         estimate D2E/DX2                !
 ! A28   A(6,5,28)             110.5775         estimate D2E/DX2                !
 ! A29   A(6,5,29)             110.4364         estimate D2E/DX2                !
 ! A30   A(28,5,29)            108.0988         estimate D2E/DX2                !
 ! A31   A(5,6,7)              103.6861         estimate D2E/DX2                !
 ! A32   A(5,6,30)             107.4491         estimate D2E/DX2                !
 ! A33   A(7,6,30)             101.7268         estimate D2E/DX2                !
 ! A34   A(6,7,8)              108.559          estimate D2E/DX2                !
 ! A35   A(7,8,9)              108.7101         estimate D2E/DX2                !
 ! A36   A(7,8,31)             108.8424         estimate D2E/DX2                !
 ! A37   A(7,8,32)             109.6591         estimate D2E/DX2                !
 ! A38   A(9,8,31)             109.7157         estimate D2E/DX2                !
 ! A39   A(9,8,32)             110.3501         estimate D2E/DX2                !
 ! A40   A(31,8,32)            109.5373         estimate D2E/DX2                !
 ! A41   A(8,9,10)             104.7594         estimate D2E/DX2                !
 ! A42   A(8,9,33)             105.7007         estimate D2E/DX2                !
 ! A43   A(10,9,33)            103.6119         estimate D2E/DX2                !
 ! A44   A(9,10,11)            105.4004         estimate D2E/DX2                !
 ! A45   A(10,11,12)           112.101          estimate D2E/DX2                !
 ! A46   A(10,11,34)           105.4475         estimate D2E/DX2                !
 ! A47   A(10,11,35)           109.319          estimate D2E/DX2                !
 ! A48   A(12,11,34)           109.8124         estimate D2E/DX2                !
 ! A49   A(12,11,35)           110.7994         estimate D2E/DX2                !
 ! A50   A(34,11,35)           109.1964         estimate D2E/DX2                !
 ! A51   A(11,12,13)           111.1706         estimate D2E/DX2                !
 ! A52   A(11,12,36)           110.0177         estimate D2E/DX2                !
 ! A53   A(11,12,37)           109.0257         estimate D2E/DX2                !
 ! A54   A(13,12,36)           110.8845         estimate D2E/DX2                !
 ! A55   A(13,12,37)           110.0553         estimate D2E/DX2                !
 ! A56   A(36,12,37)           105.5209         estimate D2E/DX2                !
 ! A57   A(12,13,14)           110.5248         estimate D2E/DX2                !
 ! A58   A(12,13,18)           111.1492         estimate D2E/DX2                !
 ! A59   A(12,13,38)           107.7078         estimate D2E/DX2                !
 ! A60   A(14,13,18)           111.6693         estimate D2E/DX2                !
 ! A61   A(14,13,38)           107.4608         estimate D2E/DX2                !
 ! A62   A(18,13,38)           108.1456         estimate D2E/DX2                !
 ! A63   A(13,14,15)           112.5594         estimate D2E/DX2                !
 ! A64   A(13,14,39)           110.6715         estimate D2E/DX2                !
 ! A65   A(13,14,40)           109.5907         estimate D2E/DX2                !
 ! A66   A(15,14,39)           108.1539         estimate D2E/DX2                !
 ! A67   A(15,14,40)           109.4187         estimate D2E/DX2                !
 ! A68   A(39,14,40)           106.238          estimate D2E/DX2                !
 ! A69   A(14,15,16)           111.5233         estimate D2E/DX2                !
 ! A70   A(14,15,41)           109.249          estimate D2E/DX2                !
 ! A71   A(14,15,42)           109.5214         estimate D2E/DX2                !
 ! A72   A(16,15,41)           109.6043         estimate D2E/DX2                !
 ! A73   A(16,15,42)           109.5802         estimate D2E/DX2                !
 ! A74   A(41,15,42)           107.2648         estimate D2E/DX2                !
 ! A75   A(15,16,17)           110.8356         estimate D2E/DX2                !
 ! A76   A(15,16,43)           109.3886         estimate D2E/DX2                !
 ! A77   A(15,16,44)           110.1613         estimate D2E/DX2                !
 ! A78   A(17,16,43)           109.6241         estimate D2E/DX2                !
 ! A79   A(17,16,44)           109.7277         estimate D2E/DX2                !
 ! A80   A(43,16,44)           107.0238         estimate D2E/DX2                !
 ! A81   A(16,17,18)           110.0813         estimate D2E/DX2                !
 ! A82   A(16,17,45)           109.5327         estimate D2E/DX2                !
 ! A83   A(16,17,46)           110.7438         estimate D2E/DX2                !
 ! A84   A(18,17,45)           108.795          estimate D2E/DX2                !
 ! A85   A(18,17,46)           110.0639         estimate D2E/DX2                !
 ! A86   A(45,17,46)           107.5656         estimate D2E/DX2                !
 ! A87   A(13,18,17)           113.5843         estimate D2E/DX2                !
 ! A88   A(13,18,47)           110.7349         estimate D2E/DX2                !
 ! A89   A(13,18,48)           109.8512         estimate D2E/DX2                !
 ! A90   A(17,18,47)           104.8297         estimate D2E/DX2                !
 ! A91   A(17,18,48)           110.6359         estimate D2E/DX2                !
 ! A92   A(47,18,48)           106.9076         estimate D2E/DX2                !
 ! D1    D(19,1,2,3)          -179.914          estimate D2E/DX2                !
 ! D2    D(19,1,2,22)           58.7094         estimate D2E/DX2                !
 ! D3    D(19,1,2,23)          -58.5948         estimate D2E/DX2                !
 ! D4    D(20,1,2,3)            60.163          estimate D2E/DX2                !
 ! D5    D(20,1,2,22)          -61.2136         estimate D2E/DX2                !
 ! D6    D(20,1,2,23)         -178.5178         estimate D2E/DX2                !
 ! D7    D(21,1,2,3)           -60.0109         estimate D2E/DX2                !
 ! D8    D(21,1,2,22)          178.6125         estimate D2E/DX2                !
 ! D9    D(21,1,2,23)           61.3083         estimate D2E/DX2                !
 ! D10   D(1,2,3,4)            179.7931         estimate D2E/DX2                !
 ! D11   D(1,2,3,24)            58.7445         estimate D2E/DX2                !
 ! D12   D(1,2,3,25)           -59.1435         estimate D2E/DX2                !
 ! D13   D(22,2,3,4)           -59.0382         estimate D2E/DX2                !
 ! D14   D(22,2,3,24)          179.9132         estimate D2E/DX2                !
 ! D15   D(22,2,3,25)           62.0252         estimate D2E/DX2                !
 ! D16   D(23,2,3,4)            58.6712         estimate D2E/DX2                !
 ! D17   D(23,2,3,24)          -62.3774         estimate D2E/DX2                !
 ! D18   D(23,2,3,25)          179.7346         estimate D2E/DX2                !
 ! D19   D(2,3,4,5)           -179.7068         estimate D2E/DX2                !
 ! D20   D(2,3,4,26)            58.9874         estimate D2E/DX2                !
 ! D21   D(2,3,4,27)           -58.3287         estimate D2E/DX2                !
 ! D22   D(24,3,4,5)           -58.4592         estimate D2E/DX2                !
 ! D23   D(24,3,4,26)         -179.765          estimate D2E/DX2                !
 ! D24   D(24,3,4,27)           62.9189         estimate D2E/DX2                !
 ! D25   D(25,3,4,5)            59.0649         estimate D2E/DX2                !
 ! D26   D(25,3,4,26)          -62.2409         estimate D2E/DX2                !
 ! D27   D(25,3,4,27)         -179.557          estimate D2E/DX2                !
 ! D28   D(3,4,5,6)           -179.5244         estimate D2E/DX2                !
 ! D29   D(3,4,5,28)            60.1            estimate D2E/DX2                !
 ! D30   D(3,4,5,29)           -59.4567         estimate D2E/DX2                !
 ! D31   D(26,4,5,6)           -58.3523         estimate D2E/DX2                !
 ! D32   D(26,4,5,28)         -178.728          estimate D2E/DX2                !
 ! D33   D(26,4,5,29)           61.7153         estimate D2E/DX2                !
 ! D34   D(27,4,5,6)            59.0416         estimate D2E/DX2                !
 ! D35   D(27,4,5,28)          -61.3341         estimate D2E/DX2                !
 ! D36   D(27,4,5,29)          179.1093         estimate D2E/DX2                !
 ! D37   D(4,5,6,7)            176.0554         estimate D2E/DX2                !
 ! D38   D(4,5,6,30)            68.8488         estimate D2E/DX2                !
 ! D39   D(28,5,6,7)           -63.5602         estimate D2E/DX2                !
 ! D40   D(28,5,6,30)         -170.7668         estimate D2E/DX2                !
 ! D41   D(29,5,6,7)            56.0441         estimate D2E/DX2                !
 ! D42   D(29,5,6,30)          -51.1625         estimate D2E/DX2                !
 ! D43   D(5,6,7,8)            177.4323         estimate D2E/DX2                !
 ! D44   D(30,6,7,8)           -71.114          estimate D2E/DX2                !
 ! D45   D(6,7,8,9)           -177.4605         estimate D2E/DX2                !
 ! D46   D(6,7,8,31)            63.0727         estimate D2E/DX2                !
 ! D47   D(6,7,8,32)           -56.7382         estimate D2E/DX2                !
 ! D48   D(7,8,9,10)           178.9658         estimate D2E/DX2                !
 ! D49   D(7,8,9,33)            69.8872         estimate D2E/DX2                !
 ! D50   D(31,8,9,10)          -62.1141         estimate D2E/DX2                !
 ! D51   D(31,8,9,33)         -171.1927         estimate D2E/DX2                !
 ! D52   D(32,8,9,10)           58.6705         estimate D2E/DX2                !
 ! D53   D(32,8,9,33)          -50.4081         estimate D2E/DX2                !
 ! D54   D(8,9,10,11)         -179.9089         estimate D2E/DX2                !
 ! D55   D(33,9,10,11)         -69.3159         estimate D2E/DX2                !
 ! D56   D(9,10,11,12)        -177.4855         estimate D2E/DX2                !
 ! D57   D(9,10,11,34)          63.0589         estimate D2E/DX2                !
 ! D58   D(9,10,11,35)         -54.2224         estimate D2E/DX2                !
 ! D59   D(10,11,12,13)       -179.5761         estimate D2E/DX2                !
 ! D60   D(10,11,12,36)         57.1967         estimate D2E/DX2                !
 ! D61   D(10,11,12,37)        -58.0731         estimate D2E/DX2                !
 ! D62   D(34,11,12,13)        -62.7128         estimate D2E/DX2                !
 ! D63   D(34,11,12,36)        174.0599         estimate D2E/DX2                !
 ! D64   D(34,11,12,37)         58.7902         estimate D2E/DX2                !
 ! D65   D(35,11,12,13)         57.9981         estimate D2E/DX2                !
 ! D66   D(35,11,12,36)        -65.2291         estimate D2E/DX2                !
 ! D67   D(35,11,12,37)        179.5012         estimate D2E/DX2                !
 ! D68   D(11,12,13,14)        -76.2742         estimate D2E/DX2                !
 ! D69   D(11,12,13,18)         48.3077         estimate D2E/DX2                !
 ! D70   D(11,12,13,38)        166.6053         estimate D2E/DX2                !
 ! D71   D(36,12,13,14)         46.4549         estimate D2E/DX2                !
 ! D72   D(36,12,13,18)        171.0367         estimate D2E/DX2                !
 ! D73   D(36,12,13,38)        -70.6656         estimate D2E/DX2                !
 ! D74   D(37,12,13,14)        162.8261         estimate D2E/DX2                !
 ! D75   D(37,12,13,18)        -72.592          estimate D2E/DX2                !
 ! D76   D(37,12,13,38)         45.7057         estimate D2E/DX2                !
 ! D77   D(12,13,14,15)        172.7275         estimate D2E/DX2                !
 ! D78   D(12,13,14,39)         51.5733         estimate D2E/DX2                !
 ! D79   D(12,13,14,40)        -65.2676         estimate D2E/DX2                !
 ! D80   D(18,13,14,15)         48.4432         estimate D2E/DX2                !
 ! D81   D(18,13,14,39)        -72.7111         estimate D2E/DX2                !
 ! D82   D(18,13,14,40)        170.448          estimate D2E/DX2                !
 ! D83   D(38,13,14,15)        -69.9997         estimate D2E/DX2                !
 ! D84   D(38,13,14,39)        168.8461         estimate D2E/DX2                !
 ! D85   D(38,13,14,40)         52.0051         estimate D2E/DX2                !
 ! D86   D(12,13,18,17)       -173.8484         estimate D2E/DX2                !
 ! D87   D(12,13,18,47)        -56.2105         estimate D2E/DX2                !
 ! D88   D(12,13,18,48)         61.6481         estimate D2E/DX2                !
 ! D89   D(14,13,18,17)        -49.9149         estimate D2E/DX2                !
 ! D90   D(14,13,18,47)         67.723          estimate D2E/DX2                !
 ! D91   D(14,13,18,48)       -174.4184         estimate D2E/DX2                !
 ! D92   D(38,13,18,17)         68.1185         estimate D2E/DX2                !
 ! D93   D(38,13,18,47)       -174.2436         estimate D2E/DX2                !
 ! D94   D(38,13,18,48)        -56.385          estimate D2E/DX2                !
 ! D95   D(13,14,15,16)        -53.259          estimate D2E/DX2                !
 ! D96   D(13,14,15,41)       -174.5742         estimate D2E/DX2                !
 ! D97   D(13,14,15,42)         68.2102         estimate D2E/DX2                !
 ! D98   D(39,14,15,16)         69.3225         estimate D2E/DX2                !
 ! D99   D(39,14,15,41)        -51.9927         estimate D2E/DX2                !
 ! D100  D(39,14,15,42)       -169.2082         estimate D2E/DX2                !
 ! D101  D(40,14,15,16)       -175.3611         estimate D2E/DX2                !
 ! D102  D(40,14,15,41)         63.3236         estimate D2E/DX2                !
 ! D103  D(40,14,15,42)        -53.8919         estimate D2E/DX2                !
 ! D104  D(14,15,16,17)         58.2145         estimate D2E/DX2                !
 ! D105  D(14,15,16,43)        -62.7755         estimate D2E/DX2                !
 ! D106  D(14,15,16,44)        179.8475         estimate D2E/DX2                !
 ! D107  D(41,15,16,17)        179.3229         estimate D2E/DX2                !
 ! D108  D(41,15,16,43)         58.333          estimate D2E/DX2                !
 ! D109  D(41,15,16,44)        -59.044          estimate D2E/DX2                !
 ! D110  D(42,15,16,17)        -63.2206         estimate D2E/DX2                !
 ! D111  D(42,15,16,43)        175.7894         estimate D2E/DX2                !
 ! D112  D(42,15,16,44)         58.4124         estimate D2E/DX2                !
 ! D113  D(15,16,17,18)        -58.344          estimate D2E/DX2                !
 ! D114  D(15,16,17,45)       -177.9265         estimate D2E/DX2                !
 ! D115  D(15,16,17,46)         63.5977         estimate D2E/DX2                !
 ! D116  D(43,16,17,18)         62.5067         estimate D2E/DX2                !
 ! D117  D(43,16,17,45)        -57.0759         estimate D2E/DX2                !
 ! D118  D(43,16,17,46)       -175.5517         estimate D2E/DX2                !
 ! D119  D(44,16,17,18)        179.7689         estimate D2E/DX2                !
 ! D120  D(44,16,17,45)         60.1863         estimate D2E/DX2                !
 ! D121  D(44,16,17,46)        -58.2895         estimate D2E/DX2                !
 ! D122  D(16,17,18,13)         54.7938         estimate D2E/DX2                !
 ! D123  D(16,17,18,47)        -66.2177         estimate D2E/DX2                !
 ! D124  D(16,17,18,48)        178.8729         estimate D2E/DX2                !
 ! D125  D(45,17,18,13)        174.824          estimate D2E/DX2                !
 ! D126  D(45,17,18,47)         53.8125         estimate D2E/DX2                !
 ! D127  D(45,17,18,48)        -61.0969         estimate D2E/DX2                !
 ! D128  D(46,17,18,13)        -67.5503         estimate D2E/DX2                !
 ! D129  D(46,17,18,47)        171.4382         estimate D2E/DX2                !
 ! D130  D(46,17,18,48)         56.5288         estimate D2E/DX2                !
 --------------------------------------------------------------------------------
 Trust Radius=3.00D-01 FncErr=1.00D-07 GrdErr=1.00D-06 EigMax=2.50D+02 EigMin=1.00D-04
 Number of steps in this run=    280 maximum allowed number of steps=    288.
 GradGradGradGradGradGradGradGradGradGradGradGradGradGradGradGradGradGrad

                          Input orientation:                          
 ---------------------------------------------------------------------
 Center     Atomic      Atomic             Coordinates (Angstroms)
 Number     Number       Type             X           Y           Z
 ---------------------------------------------------------------------
      1          6           0        1.021220   -0.094210    0.006260
      2          6           0        2.537330   -0.085940    0.016000
      3          6           0        3.064860    0.883150    1.066880
      4          6           0        4.584850    0.878960    1.070710
      5          6           0        5.126250    1.835490    2.118780
      6          7           0        6.578650    1.770080    2.038210
      7          8           0        7.020880    2.771040    2.991560
      8          6           0        8.442870    2.752960    3.040390
      9          7           0        8.883430    3.703420    4.029290
     10          8           0       10.334760    3.596640    4.025440
     11          6           0       10.782780    4.525440    4.996140
     12          6           0       12.298990    4.583090    5.075190
     13          6           0       12.763160    5.592780    6.145490
     14          6           0       12.610900    7.035210    5.628960
     15          6           0       12.888000    8.075590    6.708800
     16          6           0       12.046430    7.825860    7.955160
     17          6           0       12.314200    6.436400    8.520490
     18          6           0       12.008940    5.381040    7.474860
     19          1           0        0.651540   -0.792880   -0.749100
     20          1           0        0.629610    0.901660   -0.223930
     21          1           0        0.629240   -0.401150    0.981070
     22          1           0        2.909040    0.199760   -0.975230
     23          1           0        2.908070   -1.097010    0.222080
     24          1           0        2.692660    0.599620    2.058810
     25          1           0        2.698690    1.896170    0.859470
     26          1           0        4.955540    1.167170    0.077870
     27          1           0        4.953240   -0.135660    1.270300
     28          1           0        4.782210    1.546340    3.119430
     29          1           0        4.776980    2.856960    1.920050
     30          1           0        6.856210    2.193520    1.148000
     31          1           0        8.834830    3.035170    2.055380
     32          1           0        8.790820    1.744080    3.298770
     33          1           0        8.614530    3.305710    4.935690
     34          1           0       10.375090    4.171930    5.947630
     35          1           0       10.366900    5.514240    4.771000
     36          1           0       12.717280    4.835080    4.091870
     37          1           0       12.683290    3.582350    5.310090
     38          1           0       13.832390    5.418970    6.327370
     39          1           0       11.598910    7.203520    5.244460
     40          1           0       13.291250    7.196950    4.783380
     41          1           0       12.671140    9.073770    6.312770
     42          1           0       13.951260    8.054570    6.973320
     43          1           0       10.981780    7.922200    7.701690
     44          1           0       12.264430    8.581980    8.715020
     45          1           0       11.672220    6.265550    9.392730
     46          1           0       13.353080    6.346590    8.852390
     47          1           0       10.926900    5.443920    7.320860
     48          1           0       12.217630    4.378230    7.865650
 ---------------------------------------------------------------------
                    Distance matrix (angstroms):
                    1          2          3          4          5
     1  C    0.000000
     2  C    1.516164   0.000000
     3  C    2.501322   1.523736   0.000000
     4  C    3.844421   2.497155   1.520001   0.000000
     5  C    5.003774   3.849167   2.502553   1.518721   0.000000
     6  N    6.203985   4.885326   3.751912   2.388596   1.456103
     7  O    7.288182   6.092496   4.787339   3.633713   2.286181
     8  C    8.508420   7.216765   6.026103   4.719728   3.562455
     9  N    9.613590   8.410632   7.112352   5.933680   4.610381
    10  O   10.794360   9.509833   8.304670   7.012680   5.819414
    11  C   11.896559  10.679610   9.395299   8.192689   6.892849
    12  C   13.219655  11.945093  10.724983   9.447984   8.230302
    13  C   14.418917  13.205533  11.917631  10.717194   9.415626
    14  C   14.722910  13.553336  12.238762  11.094798   9.766188
    15  C   15.889938  14.783116  13.418515  12.349973  10.965942
    16  C   15.731109  14.698633  13.278487  12.301636  10.855264
    17  C   15.577945  14.507049  13.112787  12.088309  10.668500
    18  C   14.369702  13.237593  11.886538  10.788836   9.414348
    19  H    1.093331   2.154378   3.454124   4.645179   5.929257
    20  H    1.094579   2.161554   2.756261   4.161794   5.155589
    21  H    1.094584   2.161371   2.754820   4.158554   5.149761
    22  H    2.147930   1.096508   2.159054   2.730480   4.143010
    23  H    2.147647   1.096440   2.158542   2.726944   4.137312
    24  H    2.736434   2.160369   1.096744   2.152848   2.730079
    25  H    2.739249   2.160148   1.096954   2.153355   2.735433
    26  H    4.132201   2.724308   2.152552   1.098275   2.154323
    27  H    4.130411   2.722565   2.155303   1.097725   2.152971
    28  H    5.150561   4.163544   2.757186   2.163701   1.096937
    29  H    5.145652   4.159579   2.748669   2.161198   1.097672
    30  H    6.370588   5.012992   4.012229   2.625475   2.015778
    31  H    8.662818   7.318395   6.237057   4.866328   3.898310
    32  H    8.636354   7.296005   6.205574   4.837651   3.850949
    33  H    9.670424   8.522852   7.185772   6.088145   4.718541
    34  H   11.874119  10.711871   9.384948   8.255597   6.904301
    35  H   11.895343  10.736583   9.406768   8.283120   6.930504
    36  H   13.333714  12.019174  10.859905   9.534921   8.397283
    37  H   13.328600  12.017664  10.853788   9.532334   8.387183
    38  H   15.312663  14.061145  12.813513  11.565516  10.312635
    39  H   13.877432  12.750892  11.411804  10.325565   8.971117
    40  H   15.051097  13.835288  12.579964  11.379908  10.124849
    41  H   16.110387  15.041400  13.670634  12.649988  11.265328
    42  H   16.796680  15.650879  14.311848  13.193173  11.837412
    43  H   14.922977  13.946644  12.499862  11.597320  10.124434
    44  H   16.659188  15.665959  14.226669  13.294658  11.831277
    45  H   15.556226  14.550282  13.129229  12.186147  10.741764
    46  H   16.486743  15.376595  14.011096  12.935663  11.548691
    47  H   13.501731  12.422770  11.032885  10.006240   8.586614
    48  H   14.392093  13.238354  11.925270  10.801640   9.475216
                    6          7          8          9         10
     6  N    0.000000
     7  O    1.451332   0.000000
     8  C    2.333610   1.422943   0.000000
     9  N    3.607522   2.327082   1.440622   0.000000
    10  O    4.625340   3.568238   2.293767   1.455258   0.000000
    11  C    5.832330   4.609572   3.527297   2.284304   1.416210
    12  C    7.061060   5.956802   4.728578   3.678828   2.435828
    13  C    8.350506   7.133251   6.030848   4.806276   3.791611
    14  C    8.775142   7.509151   6.512360   5.249171   4.424461
    15  C   10.068851   8.739521   7.845177   6.506322   5.812095
    16  C   10.078660   8.685890   7.929371   6.512414   6.021529
    17  C    9.833160   8.486646   7.654177   6.277758   5.673438
    18  C    8.490244   7.196723   6.268029   4.945217   4.229121
    19  H    7.033384   8.201375   9.361519  10.526810  11.654564
    20  H    6.423590   7.394747   8.667764   9.698726  10.932063
    21  H    6.420846   7.413361   8.674216   9.709315  10.929210
    22  H    5.001276   6.265312   7.298446   8.544834   9.575323
    23  H    4.999169   6.288643   7.307472   8.558265   9.573485
    24  H    4.058487   4.931387   6.218142   7.200139   8.441058
    25  H    4.057021   4.898217   6.203717   7.180872   8.439463
    26  H    2.615515   3.915050   4.842801   6.121650   7.100820
    27  H    2.619826   3.960653   4.863626   6.147923   7.105042
    28  H    2.108623   2.554972   3.855206   4.722377   5.987938
    29  H    2.107436   2.488092   3.834674   4.693434   5.989049
    30  H    1.024117   1.938907   2.532114   3.832917   4.727443
    31  H    2.586715   2.058303   1.097051   2.084524   2.538932
    32  H    2.546249   2.069230   1.098029   2.093143   2.518686
    33  H    3.859839   2.570065   1.981707   1.025691   1.967838
    34  H    5.955284   4.685250   3.768155   2.474789   2.006838
    35  H    5.986461   4.678397   3.784385   2.455583   2.057689
    36  H    7.162019   6.157915   4.869437   3.997871   2.685991
    37  H    7.159340   6.172252   4.880634   4.011738   2.676962
    38  H    9.183030   8.033420   6.852647   5.719833   4.566529
    39  H    8.062588   6.758757   5.884386   4.593601   4.011691
    40  H    9.057918   7.881424   6.803958   5.674705   4.719909
    41  H   10.427569   9.092870   8.278851   6.957132   6.378832
    42  H   10.872235   9.581246   8.597521   7.299501   6.453077
    43  H    9.450457   8.025491   7.409104   5.973918   5.713486
    44  H   11.104498   9.696383   8.987949   7.562247   7.111217
    45  H   10.012126   8.649945   7.944760   6.565695   6.141635
    46  H   10.642857   9.339735   8.414492   7.087060   6.322336
    47  H    7.766001   6.414368   5.633302   4.247298   3.823986
    48  H    8.518192   7.303836   6.338253   5.127369   4.347792
                   11         12         13         14         15
    11  C    0.000000
    12  C    1.519363   0.000000
    13  C    2.526287   1.542877   0.000000
    14  C    3.168821   2.533149   1.539672   0.000000
    15  C    4.468637   3.900406   2.548970   1.524870   0.000000
    16  C    4.609271   4.344372   2.962305   2.520905   1.524473
    17  C    4.291627   3.912171   2.560056   2.967752   2.509664
    18  C    2.894749   2.545441   1.543019   2.550682   2.936017
    19  H   12.803684  14.088524  15.329819  15.651995  16.852329
    20  H   11.977803  13.334468  14.484445  14.677468  15.804940
    21  H   11.978583  13.333699  14.485525  14.847980  15.966816
    22  H   10.787240  11.999680  13.300113  13.581782  14.854382
    23  H   10.789562  12.000233  13.302739  13.766345  15.027080
    24  H    9.459916  10.828119  11.960250  12.350477  13.470616
    25  H    9.453973  10.823936  11.954099  12.141239  13.274861
    26  H    8.332112   9.516721  10.833327  11.128928  12.434606
    27  H    8.342138   9.523856  10.843309  11.360416  12.647621
    28  H    6.957292   8.339594   9.445966   9.885030  11.009928
    29  H    6.950956   8.337570   9.440240   9.622063  10.768234
    30  H    5.971933   7.124375   8.451150   8.754280  10.094738
    31  H    3.829293   4.849300   6.221105   6.559687   7.967957
    32  H    3.819023   4.850041   6.220594   6.929564   8.276666
    33  H    2.488514   3.902103   4.889319   5.510061   6.645165
    34  H    1.093853   2.152114   2.785829   3.646748   4.704536
    35  H    1.096070   2.166228   2.763594   2.843410   4.083078
    36  H    2.157747   1.097900   2.189422   2.685989   4.168738
    37  H    2.144743   1.097427   2.178555   3.468308   4.710361
    38  H    3.445387   2.148945   1.098428   2.142906   2.845170
    39  H    2.810666   2.717613   2.182159   1.095579   2.136949
    40  H    3.670784   2.811049   2.169697   1.097288   2.154498
    41  H    5.097718   4.672933   3.486222   2.151035   1.095551
    42  H    5.138411   4.287665   2.856098   2.154754   1.095872
    43  H    4.347135   4.447831   3.319830   2.781545   2.154770
    44  H    5.699199   5.407465   3.973227   3.469338   2.161062
    45  H    4.811350   4.675967   3.491037   3.954676   3.458012
    46  H    4.979327   4.299800   2.871157   3.378688   2.792977
    47  H    2.503737   2.768879   2.185293   2.868900   3.338595
    48  H    3.211628   2.799152   2.175244   3.495281   3.931688
                   16         17         18         19         20
    16  C    0.000000
    17  C    1.523778   0.000000
    18  C    2.491834   1.516677   0.000000
    19  H   16.729923  16.559149  15.321271   0.000000
    20  H   15.658411  15.608583  14.450791   1.774190   0.000000
    21  H   15.705854  15.496233  14.321334   1.774102   1.774638
    22  H   14.879555  14.748607  13.455774   2.476444   2.500583
    23  H   14.930766  14.631854  13.318926   2.475402   3.063493
    24  H   13.209031  12.976723  11.789345   3.740265   3.091651
    25  H   13.148775  13.105836  11.941041   3.742901   2.538483
    26  H   12.516812  12.377096  11.055434   4.801051   4.344565
    27  H   12.585170  12.245038  10.895570   4.797347   4.690686
    28  H   10.751072  10.479266   9.268243   6.123717   5.370080
    29  H   10.675084  10.638979   9.461931   6.120862   5.061672
    30  H   10.246905  10.106696   8.760141   7.142514   6.505509
    31  H    8.250605   8.091479   6.704390   9.459668   8.779109
    32  H    8.322801   7.854835   6.404959   9.437653   8.928854
    33  H    6.428600   6.028231   4.719788  10.607756   9.806125
    34  H    4.491632   3.937967   2.542409  12.807926  11.989879
    35  H    4.278234   4.324469   3.166212  12.831192  11.876028
    36  H    4.931512   4.726455   3.499206  14.166545  13.424220
    37  H    5.040770   4.311438   2.894177  14.164019  13.531544
    38  H    3.410641   2.854792   2.154795  16.198713  15.415545
    39  H    2.816998   3.439838   2.909337  14.822621  13.781955
    40  H    3.464866   3.936884   3.490833  15.943901  15.000699
    41  H    2.155223   3.457912   3.927495  17.078980  15.953378
    42  H    2.155156   2.773477   3.342441  17.742483  16.746071
    43  H    1.098639   2.157169   2.750273  15.939960  14.807797
    44  H    1.093905   2.154955   3.442280  17.672487  16.560833
    45  H    2.154346   1.096417   2.138683  16.556979  15.594573
    46  H    2.168086   1.094301   2.153274  17.449635  16.550333
    47  H    2.707272   2.085361   1.094751  14.477740  13.549545
    48  H    3.453038   2.161991   1.096310  15.320859  14.553695
                   21         22         23         24         25
    21  H    0.000000
    22  H    3.063607   0.000000
    23  H    2.500671   1.764983   0.000000
    24  H    2.533923   3.067916   2.509688   0.000000
    25  H    3.094364   2.507624   3.067447   1.766209   0.000000
    26  H    4.689592   2.496610   3.056050   3.060533   2.497141
    27  H    4.341787   3.055105   2.491120   2.504517   3.062697
    28  H    5.060875   4.699817   4.346762   2.527333   3.093680
    29  H    5.357304   4.351156   4.691461   3.075586   2.523338
    30  H    6.747987   4.905439   5.222329   4.550301   4.178114
    31  H    8.960700   7.234579   7.454018   6.607433   6.354505
    32  H    8.751293   7.432855   7.221119   6.327309   6.564097
    33  H    9.651150   8.782854   8.611954   7.118139   7.321170
    34  H   11.855858  10.929137  10.784250   9.322234   9.486600
    35  H   12.007391  10.811223  10.956069   9.508072   9.337663
    36  H   13.535727  11.973440  12.098990  11.070929  10.929673
    37  H   13.413009  12.103021  11.972434  10.921547  11.060898
    38  H   15.387654  14.138164  14.109335  12.866247  12.894469
    39  H   14.012179  12.776973  13.025122  11.536080  11.252112
    40  H   15.248449  13.780876  14.050112  12.778034  12.477887
    41  H   16.223701  15.071881  15.357695  13.765081  13.442700
    42  H   16.878462  15.710128  15.851899  14.369578  14.210045
    43  H   14.886906  14.145464  14.229389  12.416593  12.318222
    44  H   16.609884  15.864611  15.917109  14.129472  14.068159
    45  H   15.399621  14.868817  14.666916  12.904327  13.131346
    46  H   16.412976  15.602679  15.459226  13.886142  14.043113
    47  H   13.431291  12.673295  12.549027  10.906838  11.047150
    48  H   14.301423  13.500764  13.231414  11.778045  12.077144
                   26         27         28         29         30
    26  H    0.000000
    27  H    1.766143   0.000000
    28  H    3.070000   2.505525   0.000000
    29  H    2.506173   3.067412   1.776588   0.000000
    30  H    2.410626   3.010205   2.933744   2.315040   0.000000
    31  H    4.738023   5.073190   4.446633   4.064015   2.333806
    32  H    5.041468   4.730236   4.017489   4.387514   2.927546
    33  H    6.446703   6.219578   4.591390   4.901250   4.321487
    34  H    8.535466   8.356387   6.795053   7.020640   6.271608
    35  H    8.378861   8.572280   7.047033   6.814415   6.039723
    36  H    9.476833   9.641049   8.644466   8.466293   7.070810
    37  H    9.639883   9.481412   8.448159   8.632977   7.294293
    38  H   11.659010  11.630442  10.353449  10.391767   9.268036
    39  H   10.356908  10.668760   9.109711   8.745457   8.023359
    40  H   11.313007  11.646086  10.349004   9.976320   8.925247
    41  H   12.685377  13.030966  11.361991  10.966425  10.383935
    42  H   13.262974  13.437584  11.886169  11.692652  10.891556
    43  H   11.835059  11.942997  10.004167   9.878439   9.632702
    44  H   13.527736  13.596860  11.695917  11.619354  11.283663
    45  H   12.564788  12.332642  10.444974  10.723981  10.380316
    46  H   13.203684  13.040896  11.374051  11.566518  10.900226
    47  H   10.315456  10.169838   8.402402   8.583858   8.077117
    48  H   11.121977  10.800241   9.264539   9.645087   8.868179
                   31         32         33         34         35
    31  H    0.000000
    32  H    1.793006   0.000000
    33  H    2.901363   2.269201   0.000000
    34  H    4.337538   3.926936   2.207698   0.000000
    35  H    3.983418   4.343454   2.824098   1.785027   0.000000
    36  H    4.739239   5.059681   4.459099   3.060959   2.539047
    37  H    5.069831   4.751417   4.095304   2.466141   3.064063
    38  H    6.993426   6.935032   5.799026   3.694893   3.800130
    39  H    5.931738   6.440230   4.918820   3.344058   2.143754
    40  H    6.679976   7.224384   6.085775   4.360070   3.373943
    41  H    8.325103   8.824139   7.184911   5.425238   4.511854
    42  H    8.692432   8.941742   7.428613   5.377353   4.914380
    43  H    7.770024   7.896529   5.879337   4.184414   3.842563
    44  H    9.320947   9.389281   7.446082   5.538646   5.344805
    45  H    8.504284   8.116804   6.162412   4.234915   4.860938
    46  H    8.807919   8.534636   6.858669   4.694167   5.125214
    47  H    6.156632   5.867611   3.950700   1.951464   2.611576
    48  H    6.856120   6.287938   4.766266   2.667642   3.780553
                   36         37         38         39         40
    36  H    0.000000
    37  H    1.747726   0.000000
    38  H    2.565513   2.393421   0.000000
    39  H    2.861595   3.780616   3.057081   0.000000
    40  H    2.527065   3.703022   2.416185   1.754039   0.000000
    41  H    4.785501   5.582223   3.834876   2.405992   2.499205
    42  H    4.493393   4.937088   2.716205   3.040854   2.442737
    43  H    5.056982   5.239197   4.034959   2.633501   3.791592
    44  H    5.968069   6.063439   4.261925   3.793133   4.293071
    45  H    5.589053   4.988965   3.844407   4.253623   4.973416
    46  H    5.035023   4.542855   2.732388   4.102268   4.157376
    47  H    3.741995   3.254773   3.070752   2.803431   3.886138
    48  H    3.834029   2.716827   2.461076   3.903295   4.312567
                   41         42         43         44         45
    41  H    0.000000
    42  H    1.764597   0.000000
    43  H    2.471669   3.060369   0.000000
    44  H    2.485573   2.481346   1.762764   0.000000
    45  H    4.286035   3.774674   2.465930   2.485126   0.000000
    46  H    3.788433   2.608816   3.070785   2.490180   1.767435
    47  H    4.151437   4.010365   2.507970   3.685117   2.350154
    48  H    4.966408   4.161394   3.756851   4.288955   2.488257
                   46         47         48
    46  H    0.000000
    47  H    3.007781   0.000000
    48  H    2.477366   1.760249   0.000000
 Stoichiometry    C14H30N2O2
 Framework group  C1[X(C14H30N2O2)]
 Deg. of freedom   138
 Full point group                 C1      NOp   1
 Largest Abelian subgroup         C1      NOp   1
 Largest concise Abelian subgroup C1      NOp   1
                         Standard orientation:                         
 ---------------------------------------------------------------------
 Center     Atomic      Atomic             Coordinates (Angstroms)
 Number     Number       Type             X           Y           Z
 ---------------------------------------------------------------------
      1          6           0        9.273402    1.041396    0.123933
      2          6           0        8.150672    0.024709    0.056263
      3          6           0        6.793766    0.717878    0.066029
      4          6           0        5.676946   -0.310589   -0.007258
      5          6           0        4.317145    0.365766   -0.005673
      6          7           0        3.319995   -0.693605   -0.066165
      7          8           0        2.058217    0.016262    0.035665
      8          6           0        0.998054   -0.926570   -0.073378
      9          7           0       -0.255967   -0.218631   -0.032809
     10          8           0       -1.270160   -1.252554   -0.174912
     11          6           0       -2.510574   -0.570111   -0.138908
     12          6           0       -3.690441   -1.524335   -0.215292
     13          6           0       -5.029413   -0.758365   -0.185075
     14          6           0       -5.346991   -0.282537    1.244373
     15          6           0       -6.567633    0.629717    1.299633
     16          6           0       -6.438252    1.796628    0.327214
     17          6           0       -6.254327    1.295084   -1.099854
     18          6           0       -5.022578    0.414519   -1.187673
     19          1           0       10.242739    0.535751    0.114915
     20          1           0        9.203097    1.636135    1.040145
     21          1           0        9.231655    1.722168   -0.732176
     22          1           0        8.225338   -0.661579    0.908180
     23          1           0        8.255230   -0.576741   -0.854509
     24          1           0        6.718095    1.405903   -0.784701
     25          1           0        6.685577    1.316377    0.978938
     26          1           0        5.751959   -0.995945    0.847650
     27          1           0        5.788066   -0.915806   -0.916304
     28          1           0        4.219189    1.037118   -0.867626
     29          1           0        4.188322    0.961708    0.907092
     30          1           0        3.349622   -1.194564    0.826571
     31          1           0        1.056458   -1.624621    0.770916
     32          1           0        1.092856   -1.481660   -1.016010
     33          1           0       -0.311989    0.297649   -0.917319
     34          1           0       -2.507434    0.086375   -1.013854
     35          1           0       -2.562165    0.040667    0.769749
     36          1           0       -3.637941   -2.253241    0.604051
     37          1           0       -3.614759   -2.113689   -1.137941
     38          1           0       -5.821626   -1.458484   -0.483028
     39          1           0       -4.495575    0.260375    1.669380
     40          1           0       -5.511526   -1.151815    1.893470
     41          1           0       -6.686682    1.012380    2.319254
     42          1           0       -7.467835    0.051705    1.061993
     43          1           0       -5.577969    2.416798    0.614111
     44          1           0       -7.325444    2.434120    0.383095
     45          1           0       -6.126669    2.149424   -1.775084
     46          1           0       -7.136949    0.740250   -1.432469
     47          1           0       -4.182158    1.087864   -0.990744
     48          1           0       -4.892788    0.032243   -2.206945
 ---------------------------------------------------------------------
 Rotational constants (GHZ):           1.5029384           0.0711508           0.0700631
 Standard basis: 6-31G(2df,p) (6D, 7F)
 There are   708 symmetry adapted cartesian basis functions of A   symmetry.
 There are   654 symmetry adapted basis functions of A   symmetry.
   654 basis functions,  1002 primitive gaussians,   708 cartesian basis functions
    72 alpha electrons       72 beta electrons
       nuclear repulsion energy      1288.7719344855 Hartrees.
 NAtoms=   48 NActive=   48 NUniq=   48 SFac= 1.00D+00 NAtFMM=   60 NAOKFM=F Big=F
 Integral buffers will be    131072 words long.
 Raffenetti 2 integral format.
 Two-electron integral symmetry is turned on.
 One-electron integrals computed using PRISM.
 PrsmSu:  requested number of processors reduced to:  12 ShMem   1 Linda.
 NBasis=   654 RedAO= T EigKep=  4.18D-04  NBF=   654
 NBsUse=   654 1.00D-06 EigRej= -1.00D+00 NBFU=   654
 ExpMin= 1.61D-01 ExpMax= 5.48D+03 ExpMxC= 8.25D+02 IAcc=3 IRadAn=         5 AccDes= 0.00D+00
 Harris functional with IExCor=  402 and IRadAn=       5 diagonalized for initial guess.
 HarFok:  IExCor=  402 AccDes= 0.00D+00 IRadAn=         5 IDoV= 1 UseB2=F ITyADJ=14
 ICtDFT=  3500011 ScaDFX=  1.000000  1.000000  1.000000  1.000000
 FoFCou: FMM=F IPFlag=           0 FMFlag=      100000 FMFlg1=           0
         NFxFlg=           0 DoJE=T BraDBF=F KetDBF=T FulRan=T
         wScrn=  0.000000 ICntrl=       500 IOpCl=  0 I1Cent=   200000004 NGrid=           0
         NMat0=    1 NMatS0=      1 NMatT0=    0 NMatD0=    1 NMtDS0=    0 NMtDT0=    0
 Petite list used in FoFCou.
 Requested convergence on RMS density matrix=1.00D-08 within 128 cycles.
 Requested convergence on MAX density matrix=1.00D-06.
 Requested convergence on             energy=1.00D-06.
 No special actions if energy rises.
 Integral accuracy reduced to 1.0D-05 until final iterations.
 Initial convergence to 1.0D-05 achieved.  Increase integral accuracy.
 SCF Done:  E(RB3LYP) =  -811.443814354     A.U. after   12 cycles
            NFock= 12  Conv=0.78D-08     -V/T= 2.0077

 **********************************************************************

            Population analysis using the SCF density.

 **********************************************************************

 Orbital symmetries:
       Occupied  (A) (A) (A) (A) (A) (A) (A) (A) (A) (A) (A) (A)
                 (A) (A) (A) (A) (A) (A) (A) (A) (A) (A) (A) (A)
                 (A) (A) (A) (A) (A) (A) (A) (A) (A) (A) (A) (A)
                 (A) (A) (A) (A) (A) (A) (A) (A) (A) (A) (A) (A)
                 (A) (A) (A) (A) (A) (A) (A) (A) (A) (A) (A) (A)
                 (A) (A) (A) (A) (A) (A) (A) (A) (A) (A) (A) (A)
       Virtual   (A) (A) (A) (A) (A) (A) (A) (A) (A) (A) (A) (A)
                 (A) (A) (A) (A) (A) (A) (A) (A) (A) (A) (A) (A)
                 (A) (A) (A) (A) (A) (A) (A) (A) (A) (A) (A) (A)
                 (A) (A) (A) (A) (A) (A) (A) (A) (A) (A) (A) (A)
                 (A) (A) (A) (A) (A) (A) (A) (A) (A) (A) (A) (A)
                 (A) (A) (A) (A) (A) (A) (A) (A) (A) (A) (A) (A)
                 (A) (A) (A) (A) (A) (A) (A) (A) (A) (A) (A) (A)
                 (A) (A) (A) (A) (A) (A) (A) (A) (A) (A) (A) (A)
                 (A) (A) (A) (A) (A) (A) (A) (A) (A) (A) (A) (A)
                 (A) (A) (A) (A) (A) (A) (A) (A) (A) (A) (A) (A)
                 (A) (A) (A) (A) (A) (A) (A) (A) (A) (A) (A) (A)
                 (A) (A) (A) (A) (A) (A) (A) (A) (A) (A) (A) (A)
                 (A) (A) (A) (A) (A) (A) (A) (A) (A) (A) (A) (A)
                 (A) (A) (A) (A) (A) (A) (A) (A) (A) (A) (A) (A)
                 (A) (A) (A) (A) (A) (A) (A) (A) (A) (A) (A) (A)
                 (A) (A) (A) (A) (A) (A) (A) (A) (A) (A) (A) (A)
                 (A) (A) (A) (A) (A) (A) (A) (A) (A) (A) (A) (A)
                 (A) (A) (A) (A) (A) (A) (A) (A) (A) (A) (A) (A)
                 (A) (A) (A) (A) (A) (A) (A) (A) (A) (A) (A) (A)
                 (A) (A) (A) (A) (A) (A) (A) (A) (A) (A) (A) (A)
                 (A) (A) (A) (A) (A) (A) (A) (A) (A) (A) (A) (A)
                 (A) (A) (A) (A) (A) (A) (A) (A) (A) (A) (A) (A)
                 (A) (A) (A) (A) (A) (A) (A) (A) (A) (A) (A) (A)
                 (A) (A) (A) (A) (A) (A) (A) (A) (A) (A) (A) (A)
                 (A) (A) (A) (A) (A) (A) (A) (A) (A) (A) (A) (A)
                 (A) (A) (A) (A) (A) (A) (A) (A) (A) (A) (A) (A)
                 (A) (A) (A) (A) (A) (A) (A) (A) (A) (A) (A) (A)
                 (A) (A) (A) (A) (A) (A) (A) (A) (A) (A) (A) (A)
                 (A) (A) (A) (A) (A) (A) (A) (A) (A) (A) (A) (A)
                 (A) (A) (A) (A) (A) (A) (A) (A) (A) (A) (A) (A)
                 (A) (A) (A) (A) (A) (A) (A) (A) (A) (A) (A) (A)
                 (A) (A) (A) (A) (A) (A) (A) (A) (A) (A) (A) (A)
                 (A) (A) (A) (A) (A) (A) (A) (A) (A) (A) (A) (A)
                 (A) (A) (A) (A) (A) (A) (A) (A) (A) (A) (A) (A)
                 (A) (A) (A) (A) (A) (A) (A) (A) (A) (A) (A) (A)
                 (A) (A) (A) (A) (A) (A) (A) (A) (A) (A) (A) (A)
                 (A) (A) (A) (A) (A) (A) (A) (A) (A) (A) (A) (A)
                 (A) (A) (A) (A) (A) (A) (A) (A) (A) (A) (A) (A)
                 (A) (A) (A) (A) (A) (A) (A) (A) (A) (A) (A) (A)
                 (A) (A) (A) (A) (A) (A) (A) (A) (A) (A) (A) (A)
                 (A) (A) (A) (A) (A) (A) (A) (A) (A) (A) (A) (A)
                 (A) (A) (A) (A) (A) (A) (A) (A) (A) (A) (A) (A)
                 (A) (A) (A) (A) (A) (A) (A) (A) (A) (A) (A) (A)
                 (A) (A) (A) (A) (A) (A) (A) (A) (A) (A) (A) (A)
                 (A) (A) (A) (A) (A) (A) (A) (A) (A) (A) (A) (A)
                 (A) (A) (A) (A) (A) (A) (A) (A) (A) (A) (A) (A)
                 (A) (A) (A) (A) (A) (A) (A) (A) (A) (A) (A) (A)
                 (A) (A) (A) (A) (A) (A) (A) (A) (A) (A) (A) (A)
                 (A) (A) (A) (A) (A) (A)
 The electronic state is 1-A.
 Alpha  occ. eigenvalues --  -19.15817 -19.15576 -14.36370 -14.36206 -10.24407
 Alpha  occ. eigenvalues --  -10.21703 -10.20173 -10.18455 -10.17881 -10.17694
 Alpha  occ. eigenvalues --  -10.17683 -10.17616 -10.17247 -10.17213 -10.17190
 Alpha  occ. eigenvalues --  -10.17162 -10.17147 -10.16928  -1.06480  -1.04765
 Alpha  occ. eigenvalues --   -0.87482  -0.83760  -0.82402  -0.79571  -0.76888
 Alpha  occ. eigenvalues --   -0.74037  -0.73374  -0.69513  -0.65550  -0.63103
 Alpha  occ. eigenvalues --   -0.62458  -0.60474  -0.59421  -0.57937  -0.57473
 Alpha  occ. eigenvalues --   -0.54127  -0.51593  -0.50592  -0.48870  -0.47830
 Alpha  occ. eigenvalues --   -0.46898  -0.46272  -0.45644  -0.44761  -0.43964
 Alpha  occ. eigenvalues --   -0.43684  -0.43145  -0.42221  -0.40997  -0.39918
 Alpha  occ. eigenvalues --   -0.39751  -0.38729  -0.37905  -0.37277  -0.36408
 Alpha  occ. eigenvalues --   -0.35945  -0.35842  -0.34955  -0.34297  -0.33774
 Alpha  occ. eigenvalues --   -0.33615  -0.33473  -0.32730  -0.32657  -0.31121
 Alpha  occ. eigenvalues --   -0.30504  -0.30102  -0.29369  -0.28966  -0.28049
 Alpha  occ. eigenvalues --   -0.21934  -0.21841
 Alpha virt. eigenvalues --    0.06246   0.07912   0.08410   0.08536   0.09154
 Alpha virt. eigenvalues --    0.10158   0.11185   0.11482   0.11979   0.12221
 Alpha virt. eigenvalues --    0.12623   0.13922   0.15345   0.15514   0.15788
 Alpha virt. eigenvalues --    0.16030   0.16485   0.16648   0.16850   0.16927
 Alpha virt. eigenvalues --    0.17200   0.17683   0.17896   0.18319   0.18909
 Alpha virt. eigenvalues --    0.19053   0.19499   0.19605   0.20196   0.20546
 Alpha virt. eigenvalues --    0.20856   0.21351   0.21599   0.22424   0.23320
 Alpha virt. eigenvalues --    0.23390   0.23956   0.25281   0.25784   0.26079
 Alpha virt. eigenvalues --    0.26873   0.27497   0.28231   0.28318   0.29425
 Alpha virt. eigenvalues --    0.29677   0.30475   0.31518   0.41242   0.42863
 Alpha virt. eigenvalues --    0.46197   0.46554   0.48044   0.48276   0.48720
 Alpha virt. eigenvalues --    0.49338   0.50170   0.50362   0.51349   0.51475
 Alpha virt. eigenvalues --    0.51909   0.52025   0.52221   0.52745   0.54222
 Alpha virt. eigenvalues --    0.54584   0.54916   0.55473   0.56135   0.57158
 Alpha virt. eigenvalues --    0.57695   0.59411   0.59834   0.60283   0.60685
 Alpha virt. eigenvalues --    0.60906   0.62016   0.62212   0.62337   0.63256
 Alpha virt. eigenvalues --    0.63522   0.64574   0.65762   0.66340   0.66936
 Alpha virt. eigenvalues --    0.67577   0.68916   0.69239   0.70257   0.71424
 Alpha virt. eigenvalues --    0.71976   0.72508   0.73116   0.73369   0.73803
 Alpha virt. eigenvalues --    0.73957   0.74661   0.74768   0.74922   0.75253
 Alpha virt. eigenvalues --    0.75550   0.76187   0.76413   0.77364   0.77738
 Alpha virt. eigenvalues --    0.77878   0.78267   0.78830   0.79252   0.79686
 Alpha virt. eigenvalues --    0.80239   0.80909   0.81245   0.81905   0.82737
 Alpha virt. eigenvalues --    0.83078   0.83522   0.84959   0.85087   0.85643
 Alpha virt. eigenvalues --    0.86379   0.86545   0.86729   0.87367   0.87779
 Alpha virt. eigenvalues --    0.88202   0.88578   0.89845   0.90502   0.91857
 Alpha virt. eigenvalues --    0.93035   0.94012   0.94457   0.95042   0.96950
 Alpha virt. eigenvalues --    0.98218   0.99923   1.03559   1.04526   1.04613
 Alpha virt. eigenvalues --    1.05503   1.06682   1.09037   1.10077   1.11062
 Alpha virt. eigenvalues --    1.13024   1.15453   1.16980   1.18241   1.19425
 Alpha virt. eigenvalues --    1.20318   1.20666   1.21169   1.22262   1.22563
 Alpha virt. eigenvalues --    1.24430   1.24956   1.25824   1.25984   1.27103
 Alpha virt. eigenvalues --    1.28173   1.29971   1.31499   1.32755   1.33479
 Alpha virt. eigenvalues --    1.33688   1.34959   1.35530   1.37148   1.37494
 Alpha virt. eigenvalues --    1.38375   1.38672   1.39165   1.39197   1.39805
 Alpha virt. eigenvalues --    1.41371   1.41431   1.42927   1.43663   1.44422
 Alpha virt. eigenvalues --    1.45516   1.47187   1.48013   1.48448   1.49541
 Alpha virt. eigenvalues --    1.50683   1.51029   1.51751   1.53257   1.54411
 Alpha virt. eigenvalues --    1.55165   1.55642   1.56280   1.58615   1.60022
 Alpha virt. eigenvalues --    1.61152   1.62440   1.63488   1.63742   1.64446
 Alpha virt. eigenvalues --    1.66588   1.68005   1.68373   1.69746   1.70791
 Alpha virt. eigenvalues --    1.71833   1.72206   1.74291   1.74881   1.75286
 Alpha virt. eigenvalues --    1.78190   1.79573   1.79900   1.80919   1.81856
 Alpha virt. eigenvalues --    1.83245   1.84027   1.84319   1.86457   1.87080
 Alpha virt. eigenvalues --    1.87485   1.88320   1.88577   1.89646   1.90315
 Alpha virt. eigenvalues --    1.91518   1.91718   1.93425   1.94591   1.95023
 Alpha virt. eigenvalues --    1.95260   1.96492   1.97159   1.97905   1.98707
 Alpha virt. eigenvalues --    2.00586   2.01635   2.03731   2.04224   2.13563
 Alpha virt. eigenvalues --    2.16991   2.17657   2.19763   2.19824   2.20956
 Alpha virt. eigenvalues --    2.21261   2.21634   2.23941   2.24839   2.25018
 Alpha virt. eigenvalues --    2.25880   2.26204   2.27735   2.29456   2.30745
 Alpha virt. eigenvalues --    2.31461   2.33106   2.34595   2.34816   2.36445
 Alpha virt. eigenvalues --    2.39749   2.39803   2.40896   2.41605   2.42582
 Alpha virt. eigenvalues --    2.44734   2.46246   2.46406   2.48024   2.50025
 Alpha virt. eigenvalues --    2.50704   2.51225   2.53063   2.56241   2.58207
 Alpha virt. eigenvalues --    2.60147   2.60971   2.63294   2.65848   2.66812
 Alpha virt. eigenvalues --    2.68620   2.69656   2.72365   2.72459   2.73572
 Alpha virt. eigenvalues --    2.73839   2.74805   2.75236   2.75480   2.75962
 Alpha virt. eigenvalues --    2.76488   2.77139   2.77254   2.77965   2.79743
 Alpha virt. eigenvalues --    2.80023   2.80908   2.82019   2.82368   2.83166
 Alpha virt. eigenvalues --    2.83861   2.84102   2.85443   2.85590   2.86553
 Alpha virt. eigenvalues --    2.87846   2.88141   2.89082   2.89272   2.90108
 Alpha virt. eigenvalues --    2.90281   2.91177   2.91395   2.92034   2.92281
 Alpha virt. eigenvalues --    2.93246   2.93838   2.94092   2.94533   2.95793
 Alpha virt. eigenvalues --    2.96391   2.97529   2.98466   2.99246   3.00697
 Alpha virt. eigenvalues --    3.01010   3.01530   3.03098   3.05727   3.06476
 Alpha virt. eigenvalues --    3.06810   3.08602   3.08780   3.10552   3.12874
 Alpha virt. eigenvalues --    3.13753   3.15549   3.16619   3.18929   3.20801
 Alpha virt. eigenvalues --    3.21868   3.24380   3.24686   3.24932   3.25696
 Alpha virt. eigenvalues --    3.27197   3.30340   3.31336   3.31764   3.32319
 Alpha virt. eigenvalues --    3.33302   3.34151   3.34919   3.36976   3.37638
 Alpha virt. eigenvalues --    3.38135   3.38954   3.39339   3.40425   3.42329
 Alpha virt. eigenvalues --    3.43330   3.43989   3.45226   3.46715   3.47382
 Alpha virt. eigenvalues --    3.48563   3.50277   3.50510   3.52693   3.53512
 Alpha virt. eigenvalues --    3.54455   3.55830   3.56880   3.57996   3.58083
 Alpha virt. eigenvalues --    3.59000   3.60030   3.60542   3.61641   3.61810
 Alpha virt. eigenvalues --    3.66330   3.67312   3.67506   3.69496   3.69885
 Alpha virt. eigenvalues --    3.71489   3.72079   3.73331   3.74576   3.74800
 Alpha virt. eigenvalues --    3.75062   3.78046   3.78844   3.79969   3.80383
 Alpha virt. eigenvalues --    3.80624   3.81993   3.83501   3.83937   3.84314
 Alpha virt. eigenvalues --    3.85836   3.88047   3.89303   3.90071   3.90800
 Alpha virt. eigenvalues --    3.93347   3.94088   3.95287   3.96438   3.99023
 Alpha virt. eigenvalues --    4.01024   4.01413   4.03780   4.04501   4.07222
 Alpha virt. eigenvalues --    4.09472   4.11599   4.12981   4.14556   4.18436
 Alpha virt. eigenvalues --    4.19072   4.20892   4.21489   4.26216   4.28398
 Alpha virt. eigenvalues --    4.31811   4.33040   4.33571   4.35474   4.36597
 Alpha virt. eigenvalues --    4.37142   4.37981   4.39211   4.41081   4.41961
 Alpha virt. eigenvalues --    4.43261   4.44090   4.44459   4.44742   4.45909
 Alpha virt. eigenvalues --    4.46807   4.48530   4.48915   4.49100   4.50182
 Alpha virt. eigenvalues --    4.50632   4.52053   4.53930   4.54268   4.55440
 Alpha virt. eigenvalues --    4.55946   4.56042   4.56433   4.56857   4.57199
 Alpha virt. eigenvalues --    4.57734   4.58106   4.58421   4.59281   4.59893
 Alpha virt. eigenvalues --    4.60974   4.61566   4.62405   4.62968   4.63236
 Alpha virt. eigenvalues --    4.63436   4.64141   4.64423   4.65198   4.66608
 Alpha virt. eigenvalues --    4.66972   4.68107   4.68661   4.69478   4.69862
 Alpha virt. eigenvalues --    4.70595   4.71844   4.72228   4.72990   4.73922
 Alpha virt. eigenvalues --    4.74594   4.75445   4.75985   4.76596   4.77735
 Alpha virt. eigenvalues --    4.78706   4.79357   4.79953   4.81327   4.81627
 Alpha virt. eigenvalues --    4.82440   4.82988   4.83577   4.85034   4.85579
 Alpha virt. eigenvalues --    4.86269   4.86986   4.88440   4.89654   4.90305
 Alpha virt. eigenvalues --    4.91011   4.92124   4.92645   4.93675   4.94371
 Alpha virt. eigenvalues --    4.95146   4.95363   4.96263   4.96494   4.96774
 Alpha virt. eigenvalues --    4.98154   4.99633   5.00171   5.03002   5.03534
 Alpha virt. eigenvalues --    5.08111   5.08780   5.09966   5.13248   5.13871
 Alpha virt. eigenvalues --    5.17929   5.19958   5.24502   5.25917   5.26707
 Alpha virt. eigenvalues --    5.27640   5.31535   5.34558   5.35973   5.39404
 Alpha virt. eigenvalues --    5.39805   5.40054   5.42803   5.45060   5.45795
 Alpha virt. eigenvalues --    5.47016   5.49853   5.50163   5.51940   5.55505
 Alpha virt. eigenvalues --    5.56281   5.59450   5.60093   5.61380   5.66821
 Alpha virt. eigenvalues --    5.72174   5.79739   5.83751   5.85009   5.88210
 Alpha virt. eigenvalues --    5.96034   5.98192   5.99688   6.02467   6.09519
 Alpha virt. eigenvalues --    6.15378   6.20968   6.29439   6.33363   6.58059
 Alpha virt. eigenvalues --    7.04566   7.06104  10.29097  10.80414  11.10082
 Alpha virt. eigenvalues --   11.23258  11.41921  11.49054  11.57271  11.72766
 Alpha virt. eigenvalues --   11.88907  11.96142  12.01996  12.07571  12.29375
 Alpha virt. eigenvalues --   12.31898  12.44634  12.63229  12.86891  12.95113
 Alpha virt. eigenvalues --   13.46316  13.57353
          Condensed to atoms (all electrons):
               1          2          3          4          5          6
     1  C    4.954055   0.405968  -0.037917   0.002266  -0.000178   0.000000
     2  C    0.405968   4.764719   0.434750  -0.034772   0.001536  -0.000066
     3  C   -0.037917   0.434750   4.785774   0.420074  -0.039967   0.001891
     4  C    0.002266  -0.034772   0.420074   4.837167   0.396408  -0.042854
     5  C   -0.000178   0.001536  -0.039967   0.396408   4.816113   0.365624
     6  N    0.000000  -0.000066   0.001891  -0.042854   0.365624   6.472709
     7  O   -0.000000   0.000000  -0.000028   0.002626  -0.035608   0.190504
     8  C    0.000000  -0.000000   0.000001  -0.000435   0.001997  -0.055446
     9  N   -0.000000   0.000000   0.000000   0.000001  -0.000175   0.002257
    10  O    0.000000   0.000000   0.000000   0.000000   0.000001  -0.000006
    11  C   -0.000000   0.000000   0.000000   0.000000  -0.000000   0.000001
    12  C    0.000000  -0.000000   0.000000   0.000000   0.000000   0.000000
    13  C    0.000000   0.000000   0.000000   0.000000   0.000000   0.000000
    14  C    0.000000   0.000000  -0.000000  -0.000000  -0.000000  -0.000000
    15  C    0.000000   0.000000   0.000000   0.000000   0.000000   0.000000
    16  C    0.000000   0.000000   0.000000  -0.000000  -0.000000   0.000000
    17  C    0.000000   0.000000   0.000000   0.000000   0.000000   0.000000
    18  C    0.000000   0.000000   0.000000   0.000000  -0.000000  -0.000000
    19  H    0.371000  -0.021950   0.003574  -0.000180   0.000001  -0.000000
    20  H    0.379197  -0.029105  -0.004623   0.000212   0.000006   0.000000
    21  H    0.379396  -0.029033  -0.004804   0.000206   0.000005   0.000000
    22  H   -0.035844   0.371388  -0.033549  -0.002729   0.000172   0.000006
    23  H   -0.035857   0.371513  -0.033546  -0.002093   0.000181   0.000002
    24  H   -0.002537  -0.034770   0.367350  -0.032772  -0.002640   0.000138
    25  H   -0.002579  -0.034780   0.365020  -0.031344  -0.002302   0.000093
    26  H    0.000115  -0.003436  -0.032367   0.363666  -0.035063  -0.001938
    27  H    0.000122  -0.003239  -0.030895   0.364662  -0.030036   0.003743
    28  H    0.000005   0.000006  -0.005617  -0.019111   0.355933  -0.018883
    29  H    0.000011   0.000127   0.001585  -0.035871   0.362062  -0.040831
    30  H    0.000000   0.000013  -0.000489   0.004110  -0.054087   0.318905
    31  H    0.000000   0.000000  -0.000000   0.000051   0.000031  -0.004492
    32  H    0.000000   0.000000   0.000001   0.000040   0.000693   0.011770
    33  H    0.000000   0.000000   0.000000   0.000000   0.000027  -0.000151
    34  H    0.000000  -0.000000   0.000000  -0.000000   0.000000   0.000000
    35  H    0.000000   0.000000   0.000000   0.000000   0.000000   0.000000
    36  H    0.000000   0.000000   0.000000   0.000000   0.000000   0.000000
    37  H    0.000000   0.000000   0.000000   0.000000   0.000000   0.000000
    38  H    0.000000   0.000000   0.000000  -0.000000   0.000000  -0.000000
    39  H    0.000000   0.000000   0.000000   0.000000   0.000000  -0.000000
    40  H    0.000000   0.000000  -0.000000  -0.000000  -0.000000   0.000000
    41  H    0.000000   0.000000   0.000000   0.000000   0.000000   0.000000
    42  H    0.000000   0.000000   0.000000   0.000000   0.000000  -0.000000
    43  H    0.000000   0.000000  -0.000000  -0.000000  -0.000000  -0.000000
    44  H    0.000000   0.000000   0.000000   0.000000  -0.000000   0.000000
    45  H    0.000000   0.000000   0.000000  -0.000000   0.000000   0.000000
    46  H    0.000000   0.000000   0.000000   0.000000  -0.000000  -0.000000
    47  H    0.000000   0.000000   0.000000   0.000000   0.000000   0.000000
    48  H    0.000000   0.000000   0.000000  -0.000000   0.000000   0.000000
               7          8          9         10         11         12
     1  C   -0.000000   0.000000  -0.000000   0.000000  -0.000000   0.000000
     2  C    0.000000  -0.000000   0.000000   0.000000   0.000000  -0.000000
     3  C   -0.000028   0.000001   0.000000   0.000000   0.000000   0.000000
     4  C    0.002626  -0.000435   0.000001   0.000000   0.000000   0.000000
     5  C   -0.035608   0.001997  -0.000175   0.000001  -0.000000   0.000000
     6  N    0.190504  -0.055446   0.002257  -0.000006   0.000001   0.000000
     7  O    7.904389   0.350530  -0.026823   0.000677  -0.000093   0.000000
     8  C    0.350530   4.661062   0.371653  -0.030567   0.001487  -0.000273
     9  N   -0.026823   0.371653   6.507638   0.185024  -0.060648   0.003146
    10  O    0.000677  -0.030567   0.185024   7.883533   0.354555  -0.024767
    11  C   -0.000093   0.001487  -0.060648   0.354555   4.679950   0.425831
    12  C    0.000000  -0.000273   0.003146  -0.024767   0.425831   4.960859
    13  C    0.000000   0.000003  -0.000075   0.000553  -0.024346   0.370746
    14  C   -0.000000  -0.000000  -0.000001   0.000115  -0.006215  -0.031878
    15  C    0.000000   0.000000  -0.000000  -0.000001   0.000223   0.002768
    16  C   -0.000000   0.000000  -0.000000   0.000000  -0.000042   0.000646
    17  C    0.000000  -0.000000  -0.000000  -0.000003   0.000344   0.002941
    18  C   -0.000000   0.000000   0.000009   0.000180  -0.013224  -0.033744
    19  H    0.000000  -0.000000   0.000000   0.000000   0.000000   0.000000
    20  H    0.000000   0.000000  -0.000000  -0.000000  -0.000000   0.000000
    21  H    0.000000   0.000000   0.000000   0.000000   0.000000   0.000000
    22  H    0.000000   0.000000   0.000000  -0.000000   0.000000  -0.000000
    23  H    0.000000   0.000000  -0.000000  -0.000000  -0.000000  -0.000000
    24  H    0.000002   0.000000   0.000000  -0.000000  -0.000000  -0.000000
    25  H    0.000001   0.000000   0.000000  -0.000000  -0.000000  -0.000000
    26  H    0.000066   0.000007  -0.000000   0.000000  -0.000000  -0.000000
    27  H    0.000044   0.000023   0.000000   0.000000   0.000000  -0.000000
    28  H    0.001780   0.000242  -0.000009   0.000000  -0.000000   0.000000
    29  H    0.009264   0.000690   0.000041   0.000000   0.000000   0.000000
    30  H   -0.037262  -0.006649  -0.000256   0.000005  -0.000000   0.000000
    31  H   -0.029422   0.341201  -0.024112   0.003769   0.000125  -0.000004
    32  H   -0.038676   0.359518  -0.048468   0.012096   0.000957   0.000076
    33  H    0.006513  -0.051559   0.314134  -0.036188  -0.006053  -0.000376
    34  H    0.000008   0.000488  -0.004360  -0.038615   0.355282  -0.035270
    35  H    0.000004   0.000977   0.011029  -0.029365   0.351749  -0.037952
    36  H    0.000000   0.000021   0.000037   0.002263  -0.031898   0.355064
    37  H    0.000000   0.000027  -0.000000   0.002350  -0.030143   0.345405
    38  H    0.000000  -0.000000   0.000001  -0.000037   0.002944  -0.030013
    39  H    0.000000  -0.000000  -0.000014  -0.000059  -0.000370  -0.005219
    40  H    0.000000   0.000000  -0.000000  -0.000006  -0.000195  -0.003077
    41  H    0.000000   0.000000   0.000000  -0.000000   0.000000  -0.000147
    42  H   -0.000000  -0.000000  -0.000000   0.000000  -0.000007   0.000071
    43  H   -0.000000  -0.000000  -0.000000   0.000000  -0.000051   0.000007
    44  H   -0.000000   0.000000  -0.000000  -0.000000   0.000002   0.000000
    45  H    0.000000   0.000000   0.000000  -0.000000   0.000005  -0.000137
    46  H   -0.000000  -0.000000   0.000000   0.000000   0.000002  -0.000016
    47  H    0.000000   0.000000   0.000046   0.000014  -0.001947  -0.009405
    48  H    0.000000   0.000000   0.000001  -0.000005  -0.001520  -0.001763
              13         14         15         16         17         18
     1  C    0.000000   0.000000   0.000000   0.000000   0.000000   0.000000
     2  C    0.000000   0.000000   0.000000   0.000000   0.000000   0.000000
     3  C    0.000000  -0.000000   0.000000   0.000000   0.000000   0.000000
     4  C    0.000000  -0.000000   0.000000  -0.000000   0.000000   0.000000
     5  C    0.000000  -0.000000   0.000000  -0.000000   0.000000  -0.000000
     6  N    0.000000  -0.000000   0.000000   0.000000   0.000000  -0.000000
     7  O    0.000000  -0.000000   0.000000  -0.000000   0.000000  -0.000000
     8  C    0.000003  -0.000000   0.000000   0.000000  -0.000000   0.000000
     9  N   -0.000075  -0.000001  -0.000000  -0.000000  -0.000000   0.000009
    10  O    0.000553   0.000115  -0.000001   0.000000  -0.000003   0.000180
    11  C   -0.024346  -0.006215   0.000223  -0.000042   0.000344  -0.013224
    12  C    0.370746  -0.031878   0.002768   0.000646   0.002941  -0.033744
    13  C    4.644001   0.429852  -0.024490  -0.016834  -0.022434   0.428893
    14  C    0.429852   4.841555   0.411264  -0.026854  -0.013430  -0.031545
    15  C   -0.024490   0.411264   4.827053   0.427266  -0.029358  -0.013768
    16  C   -0.016834  -0.026854   0.427266   4.791331   0.425053  -0.024333
    17  C   -0.022434  -0.013430  -0.029358   0.425053   4.841975   0.411340
    18  C    0.428893  -0.031545  -0.013768  -0.024333   0.411340   4.835550
    19  H    0.000000   0.000000   0.000000   0.000000   0.000000   0.000000
    20  H    0.000000   0.000000   0.000000   0.000000   0.000000   0.000000
    21  H    0.000000   0.000000   0.000000   0.000000   0.000000   0.000000
    22  H    0.000000   0.000000   0.000000   0.000000   0.000000   0.000000
[...]
 .00000273,-0.00000572,-0.00000347,-0.00000509,0.00000699,0.00001356,0.
 00001457,-0.00000934,-0.00000865,0.00000517,0.00001593,-0.00005420,-0.
 00001504,-0.00005474,0.00005014,0.00000487,0.00009944,-0.00002160,-0.0
 0003695,-0.00002827,-0.00020562,0.00002175,-0.00004900,0.00035086,-0.0
 0014963,0.00000499,0.00045397,0.00026404,-0.00151667,-0.00418431,-0.00
 276516,-0.00029331,-0.00024533,-0.00055288,0.00003868,-0.00000396,-0.0
 0510993,0.00239934,-0.00865914,0.00835027,0.02628830,0.02357769,-0.069
 28095,-0.06915682,0.00755778,-0.00718504,-0.02058273,-0.00000153,-0.00
 000145,-0.00000129,-0.00000044,0.00000014,0.00000074,0.00000020,-0.000
 00019,0.00000050,-0.00000032,0.00000020,-0.00000059,-0.00000016,-0.000
 00007,-0.00000015,-0.00000005,-0.00000015,0.,-0.00000102,-0.00000013,0
 .00000045,-0.00000066,0.00000065,-0.00000124,0.00000038,0.00000042,0.0
 0000055,0.00000045,0.00000113,0.00000080,-0.00000516,-0.00000150,0.000
 00312,-0.00000469,-0.00000270,-0.00000353,-0.00000143,-0.00000301,0.00
 000086,-0.00000213,-0.00000425,-0.00001020,-0.00001806,-0.00000835,-0.
 00001935,-0.00003985,0.00000971,0.00001668,-0.00003912,0.00001774,-0.0
 0003075,-0.00030109,-0.00039495,-0.00027815,0.00006621,0.00005243,0.00
 006168,-0.00024507,0.00017374,0.00048013,0.00005150,0.00010793,-0.0000
 3988,0.00011650,0.00020099,-0.00007888,-0.00036237,0.00044435,0.001795
 00,-0.00016655,-0.00000764,-0.00007965,0.00028668,0.00117539,-0.000753
 11,-0.00008838,0.00102203,-0.00083606,-0.02285432,0.07701304,0.0000008
 6,0.00000090,-0.00000325,-0.00000047,-0.00000189,0.00000468,0.00000383
 ,0.00000330,-0.00000681,-0.00000335,-0.00000595,0.00000694,0.00001914,
 0.00001773,-0.00001129,-0.00001332,0.00000421,0.00002030,-0.00006843,-
 0.00001809,-0.00005280,0.00007135,0.00001539,0.00008275,-0.00000084,-0
 .00002503,-0.00002146,-0.00018782,-0.00001859,-0.00002247,0.00029314,-
 0.00002268,-0.00004047,0.00051819,0.00017804,-0.00066789,-0.00254047,-
 0.00149032,0.00110562,0.00022800,0.00009870,0.00076612,-0.00025200,0.0
 0480134,-0.00061938,0.00610676,-0.00602258,-0.01811056,0.06916205,-0.0
 6852169,-0.25678427,0.00341238,-0.00353462,-0.01059148,-0.00000178,-0.
 00000179,-0.00000160,-0.00000099,0.00000023,0.00000114,0.00000033,-0.0
 0000042,0.00000059,-0.00000013,0.,-0.00000067,-0.00000069,0.00000024,0
 .00000032,0.,-0.00000054,-0.00000001,-0.00000207,-0.00000001,0.0000009
 8,-0.00000031,0.00000044,-0.00000132,-0.00000021,0.00000129,0.00000151
 ,0.00000043,0.00000074,0.00000106,-0.00000793,-0.00000150,0.00000448,-
 0.00000106,-0.00000239,-0.00000539,-0.00000446,-0.00000708,0.00000684,
 -0.00000352,-0.00000475,-0.00000724,-0.00001200,-0.00001561,-0.0000203
 5,-0.00003209,-0.00000175,0.00003315,-0.00000331,-0.00001099,0.0000045
 2,-0.00018266,-0.00018560,-0.00014883,-0.00001383,-0.00003250,0.000035
 22,0.00006805,0.00002072,0.00014929,-0.00008192,0.00001316,-0.00006592
 ,0.00000698,-0.00006834,-0.00003073,0.00029647,-0.00047644,-0.00131478
 ,0.00006341,-0.00003755,0.00021231,-0.00067035,-0.00020880,0.00061902,
 0.00032399,0.00018130,0.00074458,-0.07548019,0.07436482,0.28065651,0.0
 0000021,0.00000097,-0.00000264,-0.00000107,-0.00000104,0.00000486,0.00
 000180,0.00000369,-0.00000537,-0.00000376,-0.00000354,0.00000694,0.000
 00900,0.00001590,-0.00000520,-0.00000220,0.00000304,0.00001366,-0.0000
 3776,-0.00001922,-0.00004415,0.00005155,0.00001702,0.00008264,0.000053
 94,-0.00001054,-0.00001446,0.00000467,-0.00019382,-0.00017797,-0.00016
 294,0.00031442,0.00041977,0.00038461,-0.00024583,0.00003940,0.00017010
 ,0.00114895,0.00128181,0.00016909,-0.00016985,-0.00010378,0.00022224,-
 0.00022782,-0.00005494,0.00250854,-0.00120222,0.00063677,-0.24473707,0
 .09662613,-0.02190111,-0.02218520,0.00854127,-0.00252746,-0.00000182,-
 0.00000156,-0.00000169,0.00000007,0.,0.00000056,0.00000020,-0.00000049
 ,0.00000091,-0.00000018,-0.00000015,-0.00000032,0.00000029,-0.00000028
 ,-0.00000087,-0.00000016,-0.00000073,0.00000048,0.00000006,-0.00000038
 ,-0.00000003,-0.00000024,-0.00000003,-0.00000069,0.00000089,0.00000005
 ,-0.00000083,0.00000013,0.00000011,0.00000149,-0.00000261,-0.00000213,
 0.00000194,-0.00000346,-0.00000040,-0.00000038,-0.00000293,-0.00000137
 ,0.00000028,-0.00000347,-0.00001210,-0.00001197,0.00000019,0.00001187,
 0.00000431,0.00018640,-0.00002967,-0.00018194,0.00003049,-0.00000691,-
 0.00002925,-0.00000276,-0.00006058,-0.00006696,-0.00003864,-0.00001479
 ,0.00001541,0.00094762,-0.00049346,-0.00081260,-0.00000295,-0.00004085
 ,0.00020319,-0.00000279,0.00004580,-0.00008733,0.00020827,-0.00008238,
 -0.00015453,0.00022494,-0.00011143,-0.00054049,0.00138229,-0.00070914,
 0.00073429,0.00082320,0.00057744,-0.00027443,-0.00910168,0.00428840,-0
 .00059273,0.27011539,0.00000008,-0.00000011,-0.00000044,-0.00000013,-0
 .00000058,0.00000084,0.00000049,0.00000008,-0.00000121,-0.00000062,-0.
 00000154,0.00000200,0.00000237,0.00000178,-0.00000275,-0.00000132,0.00
 000195,0.00000376,-0.00001246,-0.00000050,-0.00001675,0.00001223,-0.00
 000579,0.00003835,0.00003016,0.00000171,-0.00000972,-0.00000709,-0.000
 07890,-0.00013219,-0.00016854,0.00002528,0.00018732,-0.00001259,0.0000
 1610,0.00027781,-0.00040677,0.00104705,0.00101034,-0.00017646,-0.00009
 354,0.00005551,0.00039142,0.00078389,-0.00147135,0.02509416,-0.0146276
 1,0.00354082,0.09681086,-0.09297194,0.01017674,-0.02191203,0.00866973,
 -0.00310006,-0.00000018,-0.00000022,-0.00000012,-0.00000004,0.,0.00000
 014,-0.00000005,0.00000021,-0.00000003,-0.00000020,0.00000029,-0.00000
 030,0.,-0.00000005,0.,-0.00000010,0.00000042,-0.00000013,-0.00000014,-
 0.00000008,0.00000016,-0.00000045,0.00000057,-0.00000069,0.00000007,-0
 .00000004,0.00000006,-0.00000003,0.00000106,0.00000001,-0.00000077,-0.
 00000042,0.00000079,-0.00000280,-0.00000156,-0.00000117,0.00000090,0.0
 0000084,-0.00000270,-0.00000078,-0.00000093,-0.00000441,0.00000127,0.0
 0000237,-0.00000018,0.00016874,-0.00002120,-0.00010345,0.00001022,0.00
 001777,-0.00003594,0.00005401,-0.00000650,0.00001658,-0.00000934,-0.00
 002035,-0.00000204,0.00041177,-0.00005512,0.00003370,-0.00001786,-0.00
 013770,-0.00007722,0.00006248,0.00011456,0.00001760,-0.00036563,0.0000
 7858,-0.00024341,-0.00063214,0.00058261,0.00058820,-0.00088584,-0.0039
 2587,0.00417367,-0.00013632,0.00073064,-0.00078434,0.00859105,-0.00461
 329,0.00088041,-0.10402821,0.10573288,-0.00000007,-0.00000003,0.000000
 18,-0.00000017,0.00000018,-0.00000021,-0.00000025,-0.00000018,0.000000
 28,-0.00000004,0.00000051,-0.00000012,-0.00000149,-0.00000091,0.000000
 67,0.00000159,-0.00000038,-0.00000101,0.00000531,0.00000015,0.00000251
 ,-0.00000413,0.00000049,-0.00000116,0.00002076,0.00000927,0.00000238,0
 .00004042,-0.00004742,-0.00005502,-0.00011559,0.00007893,0.00007634,0.
 00015413,-0.00013478,0.00012524,-0.00110443,0.00098736,0.00068344,0.00
 007795,-0.00001586,-0.00027900,-0.00136577,0.00005953,0.00121597,-0.01
 829983,0.00982544,-0.00298797,-0.02118162,0.00974762,-0.05209092,-0.01
 108685,0.00484753,-0.00188352,0.00000008,0.00000011,0.00000010,0.00000
 013,-0.00000004,-0.00000012,-0.00000003,0.,0.,0.00000004,-0.00000005,0
 .00000007,0.00000013,-0.00000006,-0.00000009,-0.00000002,-0.00000003,0
 .00000005,0.00000022,-0.00000002,-0.00000011,0.00000006,-0.00000007,0.
 00000009,0.00000006,-0.00000017,-0.00000025,-0.00000007,-0.00000008,0.
 ,0.00000069,0.00000005,-0.00000038,-0.00000013,0.00000053,0.00000049,-
 0.00000005,0.00000120,-0.00000044,0.,-0.00000118,0.,0.00000463,0.00000
 309,0.00000344,0.00009769,-0.00001697,-0.00005271,0.00000843,0.0000033
 8,-0.00001023,0.00002227,-0.00000543,-0.00000261,-0.00000540,0.0000117
 3,-0.00000825,0.00027007,-0.00038787,-0.00016807,0.00020035,-0.0000708
 5,0.00007682,-0.00000339,-0.00003068,-0.00006581,0.00029852,-0.0001439
 5,0.00025008,0.00052605,-0.00013120,-0.00024499,0.00018437,0.00346756,
 -0.00194784,0.00039343,-0.00067712,0.00070930,0.02640885,-0.01273254,0
 .00310457,0.02555389,-0.01312098,0.05327319,0.00000003,0.00000080,-0.0
 0000204,-0.00000115,-0.00000073,0.00000413,0.00000100,0.00000328,-0.00
 000432,-0.00000360,-0.00000238,0.00000611,0.00000512,0.00001356,-0.000
 00320,0.00000242,0.00000160,0.00001070,-0.00002368,-0.00001643,-0.0000
 3424,0.00004975,0.00001352,0.00007768,0.00013887,0.00001794,0.00004496
 ,0.00020482,-0.00053114,-0.00049681,-0.00116685,0.00022076,0.00042043,
 0.00001472,-0.00036851,0.00016576,-0.00881905,0.00426407,0.00056682,0.
 00007764,0.00037275,-0.00077031,0.00006880,-0.00030102,0.00008882,0.00
 046063,0.00152719,0.00007492,-0.02206564,0.00842900,-0.00159707,-0.251
 78255,0.09353001,-0.00349994,-0.00000150,-0.00000124,-0.00000139,0.000
 00033,-0.00000005,0.00000032,0.00000011,-0.00000041,0.00000080,-0.0000
 0013,-0.00000014,-0.00000017,0.00000049,-0.00000039,-0.00000105,-0.000
 00020,-0.00000076,0.00000058,0.00000065,-0.00000038,-0.00000030,-0.000
 00010,-0.00000024,-0.00000033,0.00000107,-0.00000031,-0.00000143,0.000
 00001,-0.00000035,0.00000159,-0.00000076,-0.00000194,0.00000092,-0.000
 00352,0.00000065,0.00000150,-0.00000318,0.00000211,-0.00000105,-0.0000
 0470,-0.00001425,-0.00001349,0.00000668,0.00001757,0.00001144,0.000003
 21,-0.00077765,-0.00144782,0.00006390,0.00006061,0.00003222,0.00013003
 ,0.00005830,0.00011999,0.00002084,-0.00006063,-0.00002458,0.00054759,0
 .00039730,0.00187892,0.00029253,-0.00068006,0.00052138,0.00033640,-0.0
 0014438,0.00007368,-0.00003433,-0.00004466,0.00008700,0.00015908,0.000
 09551,-0.00014662,0.00042840,-0.00096056,0.00054104,0.00050860,-0.0001
 4853,-0.00011315,0.00099433,-0.00001908,-0.00029823,-0.00191413,-0.003
 51877,-0.00172491,0.28029413,-0.00000022,-0.00000086,0.00000340,0.0000
 0159,0.00000190,-0.00000646,-0.00000229,-0.00000418,0.00000754,0.00000
 551,0.00000587,-0.00001079,-0.00001176,-0.00002020,0.00000971,0.000002
 82,-0.00000717,-0.00001901,0.00005455,0.00002130,0.00007647,-0.0000764
 0,-0.00000797,-0.00016910,-0.00015534,0.00001230,0.00000678,-0.0000231
 4,0.00050354,0.00062729,0.00062162,-0.00062764,-0.00143408,0.00071221,
 0.00015000,0.00037461,0.00957777,-0.00508376,-0.00000494,-0.00083518,0
 .00026388,0.00059369,-0.00012973,-0.00009674,-0.00001111,-0.00033593,0
 .00170474,-0.00017509,-0.02176014,0.00799087,-0.00099148,0.09362004,-0
 .09043632,0.00379745,0.00000217,0.00000193,0.00000190,-0.00000020,0.00
 000005,-0.00000069,-0.00000010,0.00000021,-0.00000094,0.00000046,-0.00
 000024,0.00000072,-0.00000049,0.00000047,0.00000116,0.00000039,0.00000
 024,-0.00000047,-0.00000030,0.00000058,-0.00000002,0.00000087,-0.00000
 064,0.00000163,-0.00000135,0.00000022,0.00000134,0.,-0.00000164,-0.000
 00203,0.00000308,0.00000321,-0.00000291,0.00000903,0.00000325,0.000001
 61,0.00000045,-0.00000170,0.00000787,0.00000627,0.00001712,0.00002355,
 0.00000008,-0.00002939,-0.00001306,-0.00117618,-0.00015444,0.00009506,
 -0.00012953,0.00001414,0.00019534,-0.00028629,0.00012320,-0.00003471,0
 .00001075,0.00005436,-0.00006514,0.00009894,0.00026575,-0.00236072,-0.
 00017293,0.00057541,-0.00014623,-0.00014420,-0.00000673,-0.00005581,0.
 00003393,0.00002986,0.00006532,0.00008252,-0.00015682,-0.00002885,0.00
 037527,-0.00018413,-0.00002206,0.00031130,0.00018364,-0.00017677,0.000
 77680,0.00095997,0.00044802,-0.00370867,-0.00240738,-0.00150300,-0.101
 12301,0.09730201,-0.00000024,-0.00000025,0.00000126,0.00000066,0.00000
 072,-0.00000179,-0.00000125,-0.00000146,0.00000303,0.00000258,0.000002
 29,-0.00000345,-0.00000722,-0.00000862,0.00000549,0.00000373,-0.000002
 37,-0.00000886,0.00002542,0.00001086,0.00002443,-0.00002908,-0.0000165
 8,-0.00005205,-0.00008922,-0.00001647,-0.00001309,0.00004335,0.0002676
 8,0.00016978,-0.00041523,-0.00063524,-0.00038900,0.00005483,0.00063122
 ,0.00117008,0.02979059,-0.01329245,-0.00059233,0.00056726,-0.00102664,
 0.00205849,0.00002160,0.00001666,-0.00021855,0.00082852,0.00036419,0.0
 0010841,-0.01317846,0.00480002,-0.00132178,-0.00394551,0.00413471,-0.0
 4785562,0.00000060,0.00000055,0.00000034,0.00000023,-0.00000007,-0.000
 00024,-0.00000007,0.00000023,-0.00000022,-0.00000004,0.00000008,0.0000
 0011,0.00000008,-0.00000002,0.00000008,0.00000001,0.00000046,-0.000000
 16,0.00000052,0.00000002,-0.00000017,-0.00000011,0.00000010,0.00000025
 ,-0.00000023,-0.00000030,-0.00000013,-0.00000020,0.00000016,-0.0000007
 0,0.00000280,0.00000073,-0.00000156,0.00000070,0.00000132,0.00000118,0
 .00000229,0.00000048,-0.00000529,0.00000183,0.00000705,0.00000325,-0.0
 0000140,0.00000463,0.00001206,-0.00083789,-0.00049239,-0.00028084,-0.0
 0006521,0.00005265,-0.00006516,-0.00015848,0.00022223,0.00007911,-0.00
 007962,-0.00008693,-0.00005106,0.00213128,-0.00194956,-0.00576280,-0.0
 0052811,0.00056231,-0.00023454,-0.00045502,-0.00003979,0.00022119,0.00
 002900,0.00009874,0.00005926,-0.00016234,-0.00001521,-0.00006690,0.000
 23440,-0.00016253,0.00031092,0.00010577,0.00004393,-0.00012393,0.00015
 629,0.00059000,0.00026666,-0.00191642,-0.00237484,-0.00011718,0.005730
 46,0.00047504,0.05329853,-0.00000001,-0.00000011,0.00000038,0.00000009
 ,0.00000010,-0.00000079,-0.00000014,-0.00000044,0.00000058,0.00000049,
 0.00000041,-0.00000100,-0.00000081,-0.00000129,0.00000020,0.00000054,-
 0.00000173,-0.00000105,0.00000551,0.00000081,0.00000807,-0.00000979,-0
 .00000195,-0.00001516,0.00000694,0.00000217,0.00000764,0.00003513,-0.0
 0004162,0.00001965,0.00002150,0.00005736,-0.00002912,0.00023188,0.0001
 3165,-0.00077994,-0.00121282,-0.00748785,0.00648534,0.00002204,0.00114
 689,0.00102360,0.00017045,0.00016148,-0.00033804,-0.00276207,-0.001980
 90,-0.00288863,-0.00176280,-0.01881815,0.01380739,-0.04839316,-0.00577
 642,0.00525790,0.00000028,0.00000021,0.00000031,-0.00000007,0.00000004
 ,-0.00000010,0.,0.00000001,-0.00000019,0.00000007,0.,0.00000015,-0.000
 00006,0.00000005,0.00000023,0.00000012,-0.00000012,-0.00000012,-0.0000
 0018,0.00000018,0.00000002,0.00000014,-0.00000004,0.00000038,-0.000000
 24,-0.00000004,0.00000028,0.00000025,-0.00000069,-0.00000041,0.0000000
 3,0.00000064,-0.00000031,0.00000068,0.00000103,0.00000041,-0.00000048,
 0.00000071,0.00000417,0.00000080,0.00000126,0.00000138,-0.00000588,-0.
 00000811,-0.00001263,-0.00005860,0.00012217,0.00002727,-0.00002773,0.0
 0000876,0.00014335,-0.00015067,-0.00004118,-0.00004829,0.00021852,0.00
 011098,-0.00010328,0.00024173,-0.00047311,-0.00036470,0.00022306,-0.00
 035812,0.00028360,0.00033450,-0.00037016,0.00031424,0.00001626,0.00004
 098,0.00003621,-0.00005315,0.00003182,0.00003074,0.00022416,-0.0003496
 1,0.00007945,0.00004792,-0.00117003,0.00076796,0.00069493,0.00072098,-
 0.00011823,0.00071160,0.00065539,0.00062411,0.00101295,0.02376492,-0.0
 1786344,0.05021610,-0.00000018,-0.00000054,0.00000061,0.00000012,0.000
 00009,0.00000033,-0.00000043,-0.00000164,0.00000160,0.00000135,0.00000
 040,0.00000039,-0.00000434,-0.00000699,0.00000344,0.00000526,0.0000006
 2,-0.00000310,0.00000938,0.00000938,-0.00000082,-0.00000085,-0.0000167
 4,0.00000870,-0.00000661,-0.00000119,0.00000425,0.00003257,0.00006926,
 -0.00000804,-0.00002399,0.00001800,0.00012681,0.00013239,0.00101244,-0
 .00034603,0.00006041,0.00730047,-0.00628398,0.00028731,0.00008601,-0.0
 0215477,0.00021947,-0.00002426,-0.00041405,-0.00376294,-0.00144747,-0.
 00355842,0.00003117,-0.01782334,0.01322302,-0.00663839,-0.20865170,0.1
 2166180,0.00000003,0.00000003,-0.00000027,0.00000055,-0.00000021,-0.00
 000004,-0.00000027,0.00000083,-0.00000010,-0.00000054,0.00000074,-0.00
 000058,0.00000054,-0.00000041,-0.00000036,-0.00000048,0.00000165,-0.00
 000039,0.00000094,-0.00000031,-0.00000024,-0.00000113,0.00000135,-0.00
 000121,0.00000038,-0.00000078,-0.00000062,-0.00000089,0.00000253,-0.00
 000043,0.00000254,-0.00000031,-0.00000089,-0.00000398,-0.00000003,0.00
 000082,0.00000287,0.00000380,-0.00000954,-0.00000009,0.00000269,-0.000
 00092,0.00001061,0.00001299,0.00001930,0.00008217,-0.00009795,0.000072
 07,0.00001809,0.00000921,-0.00009752,0.00008614,0.00021980,0.00006041,
 0.00017124,0.00026978,0.00026772,-0.00040879,0.00051547,0.00056861,-0.
 00004721,0.00008718,-0.00016570,0.00005519,0.00052591,-0.00038140,0.00
 000832,0.00003281,0.00013229,-0.00004775,0.00004213,0.00009491,0.00008
 577,0.00043702,-0.00026904,-0.00040069,-0.00117300,0.00118454,0.000648
 03,0.00029618,-0.00031348,-0.00021547,0.00116087,-0.00002285,-0.000308
 48,-0.01096206,0.00783265,0.00992067,0.22808929,-0.00000003,0.00000044
 ,0.00000017,0.00000014,0.00000034,-0.00000143,-0.00000045,0.00000106,0
 .00000017,0.00000010,0.00000085,-0.00000250,-0.00000005,0.00000345,-0.
 00000012,-0.00000297,-0.00000259,-0.00000135,0.00000445,-0.00000675,0.
 00001935,-0.00001333,0.00002342,-0.00005274,-0.00001835,-0.00001244,0.
 00000670,-0.00007087,-0.00009101,0.00005370,-0.00010070,-0.00013244,-0
 .00015970,0.00009315,0.00193004,0.00093862,0.00014351,0.02519567,-0.01
 983956,0.00213126,-0.00422528,-0.00509556,-0.00044907,-0.00056079,-0.0
 0016636,-0.00196238,-0.00172654,-0.00072748,-0.00037556,-0.01127946,0.
 00820276,0.00582418,0.12126998,-0.13746660,0.00000036,0.00000034,0.000
 00052,-0.00000032,0.00000010,-0.00000015,0.00000017,-0.00000078,0.0000
 0002,0.00000065,-0.00000078,0.00000073,-0.00000043,0.00000046,0.000000
 29,0.00000040,-0.00000161,0.00000041,-0.00000058,0.00000019,0.00000014
 ,0.00000142,-0.00000144,0.00000151,-0.00000055,0.00000087,0.00000042,0
 .00000054,-0.00000310,0.00000025,-0.00000104,0.00000042,0.00000015,0.0
 0000652,0.00000127,-0.00000066,-0.00000276,-0.00000609,0.00001152,0.00
 000034,-0.00000310,0.00000534,-0.00001737,-0.00000681,-0.00001573,-0.0
 0013098,0.00010304,-0.00005448,0.00016620,-0.00005732,0.00019709,0.000
 20340,-0.00023351,0.00049622,-0.00030886,-0.00122190,0.00006669,0.0002
 3254,-0.00019327,0.00126214,-0.00014014,-0.00021933,0.00024389,0.00046
 057,0.00179297,-0.00136188,0.00004966,0.00015533,0.00016957,0.00008244
 ,0.00006711,0.00005701,0.00000512,0.00007415,-0.00010581,-0.00029941,-
 0.00069853,0.00055933,0.00062036,0.00039126,0.00069977,0.00050797,0.00
 048163,0.00039280,-0.00027967,0.00041994,-0.00062653,-0.00635959,-0.13
 122946,0.15229134\\-0.00000107,-0.00000059,0.00000046,0.00000078,0.000
 00114,-0.00000183,-0.00000153,-0.00000079,0.00000189,0.00000113,0.0000
 0134,-0.00000153,-0.00000108,-0.00000043,0.00000206,-0.00000031,0.0000
 0022,-0.00000236,0.00000321,0.00000443,0.00000289,0.00000123,0.0000004
 5,-0.00000337,-0.00000796,0.00000132,-0.00000018,0.00000205,0.00000194
 ,0.00000353,-0.00000424,-0.00000205,-0.00000476,-0.00000183,0.00000264
 ,-0.00000067,-0.00000010,-0.00000257,0.,-0.00000020,0.00000016,0.00000
 082,0.00000135,-0.00000079,-0.00000038,-0.00000048,0.00000041,0.000000
 08,0.00000076,-0.00000139,-0.00000128,-0.00000102,0.00000261,0.0000025
 5,-0.00000023,-0.00000006,-0.00000006,-0.00000017,0.00000069,-0.000000
 40,-0.00000044,0.00000035,0.00000021,0.00000012,-0.00000026,0.00000024
 ,-0.00000006,-0.00000057,0.00000060,-0.00000003,0.00000044,-0.00000044
 ,0.00000018,0.00000069,-0.00000084,0.00000052,-0.00000016,-0.00000045,
 -0.00000011,-0.00000085,0.00000044,-0.00000011,-0.00000023,-0.00000058
 ,0.00000039,0.00000054,-0.00000090,0.00000099,-0.00000156,0.00000058,0
 .00000181,-0.00000154,0.00000108,-0.00000116,-0.00000093,-0.00000046,0
 .00000209,0.00000026,0.00000038,0.00000169,-0.00000015,0.00000126,-0.0
 0000004,-0.00000163,0.00000056,0.00000023,-0.00000044,0.00000033,0.000
 00103,-0.00000123,0.00000083,-0.00000070,-0.00000063,0.00000058,0.0000
 0096,-0.00000030,-0.00000047,0.00000091,-0.00000093,-0.00000002,0.0000
 0025,-0.00000077,-0.00000034,0.00000016,-0.00000073,0.00000037,0.00000
 054,0.00000006,-0.00000053,0.00000061,-0.00000022,-0.00000027,-0.00000
 104,0.00000061,0.00000018,-0.00000020,0.00000085,0.00000080,0.00000099
 ,0.00000065,0.,0.00000015,-0.00000003,-0.00000061\\\@


 SUPPORT THE RIGHT TO ARM BEARS!
 (ADD A CLAWS TO THE BILL OF RIGHTS)
 Job cpu time:       0 days 19 hours 16 minutes 43.3 seconds.
 Elapsed time:       0 days  5 hours  8 minutes 31.0 seconds.
 File lengths (MBytes):  RWF=   1449 Int=      0 D2E=      0 Chk=     36 Scr=      1
 Normal termination of Gaussian 16 at Mon May 22 22:48:00 2023.
### All Done ###
