### Starting Gaussian ###
 Entering Gaussian System, Link 0=g16
 Initial command:
 /cluster/software/gaussian/gaussian-16-A.03/avx2/g16/l1.exe "/local/scratch/linjian/Gau-25934.inp" -scrdir="/local/scratch/linjian/"
 Entering Link 1 = /cluster/software/gaussian/gaussian-16-A.03/avx2/g16/l1.exe PID=     25935.
  
 Copyright (c) 1988,1990,1992,1993,1995,1998,2003,2009,2016,
            Gaussian, Inc.  All Rights Reserved.
  
 This is part of the Gaussian(R) 16 program.  It is based on
 the Gaussian(R) 09 system (copyright 2009, Gaussian, Inc.),
 the Gaussian(R) 03 system (copyright 2003, Gaussian, Inc.),
 the Gaussian(R) 98 system (copyright 1998, Gaussian, Inc.),
 the Gaussian(R) 94 system (copyright 1995, Gaussian, Inc.),
 the Gaussian 92(TM) system (copyright 1992, Gaussian, Inc.),
 the Gaussian 90(TM) system (copyright 1990, Gaussian, Inc.),
 the Gaussian 88(TM) system (copyright 1988, Gaussian, Inc.),
 the Gaussian 86(TM) system (copyright 1986, Carnegie Mellon
 University), and the Gaussian 82(TM) system (copyright 1983,
 Carnegie Mellon University). Gaussian is a federally registered
 trademark of Gaussian, Inc.
  
 This software contains proprietary and confidential information,
 including trade secrets, belonging to Gaussian, Inc.
  
 This software is provided under written license and may be
 used, copied, transmitted, or stored only in accord with that
 written license.
  
 The following legend is applicable only to US Government
 contracts under FAR:
  
                    RESTRICTED RIGHTS LEGEND
  
 Use, reproduction and disclosure by the US Government is
 subject to restrictions as set forth in subparagraphs (a)
 and (c) of the Commercial Computer Software - Restricted
 Rights clause in FAR 52.227-19.
  
 Gaussian, Inc.
 340 Quinnipiac St., Bldg. 40, Wallingford CT 06492
  
  
 ---------------------------------------------------------------
 Warning -- This program may not be used in any manner that
 competes with the business of Gaussian, Inc. or will provide
 assistance to any competitor of Gaussian, Inc.  The licensee
 of this program is prohibited from giving any competitor of
 Gaussian, Inc. access to this program.  By using this program,
 the user acknowledges that Gaussian, Inc. is engaged in the
 business of creating and licensing software in the field of
 computational chemistry and represents and warrants to the
 licensee that it is not a competitor of Gaussian, Inc. and that
 it will not use this program in any manner prohibited above.
 ---------------------------------------------------------------
  

 Cite this work as:
 Gaussian 16, Revision A.03,
 M. J. Frisch, G. W. Trucks, H. B. Schlegel, G. E. Scuseria, 
 M. A. Robb, J. R. Cheeseman, G. Scalmani, V. Barone, 
 G. A. Petersson, H. Nakatsuji, X. Li, M. Caricato, A. V. Marenich, 
 J. Bloino, B. G. Janesko, R. Gomperts, B. Mennucci, H. P. Hratchian, 
 J. V. Ortiz, A. F. Izmaylov, J. L. Sonnenberg, D. Williams-Young, 
 F. Ding, F. Lipparini, F. Egidi, J. Goings, B. Peng, A. Petrone, 
 T. Henderson, D. Ranasinghe, V. G. Zakrzewski, J. Gao, N. Rega, 
 G. Zheng, W. Liang, M. Hada, M. Ehara, K. Toyota, R. Fukuda, 
 J. Hasegawa, M. Ishida, T. Nakajima, Y. Honda, O. Kitao, H. Nakai, 
 T. Vreven, K. Throssell, J. A. Montgomery, Jr., J. E. Peralta, 
 F. Ogliaro, M. J. Bearpark, J. J. Heyd, E. N. Brothers, K. N. Kudin, 
 V. N. Staroverov, T. A. Keith, R. Kobayashi, J. Normand, 
 K. Raghavachari, A. P. Rendell, J. C. Burant, S. S. Iyengar, 
 J. Tomasi, M. Cossi, J. M. Millam, M. Klene, C. Adamo, R. Cammi, 
 J. W. Ochterski, R. L. Martin, K. Morokuma, O. Farkas, 
 J. B. Foresman, and D. J. Fox, Gaussian, Inc., Wallingford CT, 2016.
 
 ******************************************
 Gaussian 16:  ES64L-G16RevA.03 25-Dec-2016
                28-May-2023 
 ******************************************
 %chk=CCCCC1CC2CC1C2.chk
 %NProcShared=20
 Will use up to   20 processors via shared memory.
 -----------------------------
 # opt freq b3lyp/6-31g(2df,p)
 -----------------------------
 1/18=20,19=15,26=3,38=1/1,3;
 2/9=110,12=2,17=6,18=5,40=1/2;
 3/5=1,6=6,7=104,11=2,25=1,30=1,71=1,74=-5/1,2,3;
 4//1;
 5/5=2,38=5/2;
 6/7=2,8=2,9=2,10=2,28=1/1;
 7//1,2,3,16;
 1/18=20,19=15,26=3/3(2);
 2/9=110/2;
 99//99;
 2/9=110/2;
 3/5=1,6=6,7=104,11=2,25=1,30=1,71=1,74=-5/1,2,3;
 4/5=5,16=3,69=1/1;
 5/5=2,38=5/2;
 7//1,2,3,16;
 1/18=20,19=15,26=3/3(-5);
 2/9=110/2;
 6/7=2,8=2,9=2,10=2,19=2,28=1/1;
 99/9=1/99;
 -------------------
 Title Card Required
 -------------------
 Symbolic Z-matrix:
 Charge =  0 Multiplicity = 1
 C                     0.89707  -0.06525   0.01929 
 C                     2.41438  -0.11543   0.02997 
 C                     2.92931  -1.53542   0.3046 
 C                     4.45329  -1.5353    0.34678 
 C                     5.1801   -2.8588    0.54361 
 C                     5.19524  -3.79447  -0.67166 
 C                     4.88862  -5.11836   0.03079 
 C                     5.66448  -5.04034   1.3851 
 C                     4.66036  -3.84415   1.59852 
 C                     3.64344  -4.83675   0.92792 
 H                     0.55025   0.95406  -0.17822 
 H                     0.49186  -0.38169   0.98529 
 H                     0.49193  -0.72017  -0.75805 
 H                     2.79117   0.57625   0.7936 
 H                     2.79308   0.24015  -0.93646 
 H                     2.56498  -2.20911  -0.47786 
 H                     2.53108  -1.88578   1.26356 
 H                     4.76807  -0.85152   1.1456 
 H                     4.82633  -1.09426  -0.58841 
 H                     6.21469  -2.59141   0.80003 
 H                     6.18218  -3.80371  -1.14482 
 H                     4.43979  -3.5492   -1.42361 
 H                     4.92184  -6.04046  -0.54314 
 H                     6.72868  -4.79219   1.31959 
 H                     5.55597  -5.90469   2.05056 
 H                     4.47769  -3.51718   2.61906 
 H                     2.76413  -4.41661   0.43846 
 H                     3.31657  -5.6815    1.55103 
 

 GradGradGradGradGradGradGradGradGradGradGradGradGradGradGradGradGradGrad
 Berny optimization.
 Initialization pass.
                           ----------------------------
                           !    Initial Parameters    !
                           ! (Angstroms and Degrees)  !
 --------------------------                            --------------------------
 ! Name  Definition              Value          Derivative Info.                !
 --------------------------------------------------------------------------------
 ! R1    R(1,2)                  1.5182         estimate D2E/DX2                !
 ! R2    R(1,11)                 1.0947         estimate D2E/DX2                !
 ! R3    R(1,12)                 1.0943         estimate D2E/DX2                !
 ! R4    R(1,13)                 1.0942         estimate D2E/DX2                !
 ! R5    R(2,3)                  1.5352         estimate D2E/DX2                !
 ! R6    R(2,14)                 1.0971         estimate D2E/DX2                !
 ! R7    R(2,15)                 1.0972         estimate D2E/DX2                !
 ! R8    R(3,4)                  1.5246         estimate D2E/DX2                !
 ! R9    R(3,16)                 1.0949         estimate D2E/DX2                !
 ! R10   R(3,17)                 1.0959         estimate D2E/DX2                !
 ! R11   R(4,5)                  1.5227         estimate D2E/DX2                !
 ! R12   R(4,18)                 1.0976         estimate D2E/DX2                !
 ! R13   R(4,19)                 1.0992         estimate D2E/DX2                !
 ! R14   R(5,6)                  1.5338         estimate D2E/DX2                !
 ! R15   R(5,9)                  1.5342         estimate D2E/DX2                !
 ! R16   R(5,20)                 1.0989         estimate D2E/DX2                !
 ! R17   R(6,7)                  1.5298         estimate D2E/DX2                !
 ! R18   R(6,21)                 1.0945         estimate D2E/DX2                !
 ! R19   R(6,22)                 1.0938         estimate D2E/DX2                !
 ! R20   R(7,8)                  1.5628         estimate D2E/DX2                !
 ! R21   R(7,10)                 1.5603         estimate D2E/DX2                !
 ! R22   R(7,23)                 1.0866         estimate D2E/DX2                !
 ! R23   R(8,9)                  1.5763         estimate D2E/DX2                !
 ! R24   R(8,24)                 1.0947         estimate D2E/DX2                !
 ! R25   R(8,25)                 1.0962         estimate D2E/DX2                !
 ! R26   R(9,10)                 1.5713         estimate D2E/DX2                !
 ! R27   R(9,26)                 1.0871         estimate D2E/DX2                !
 ! R28   R(10,27)                1.0905         estimate D2E/DX2                !
 ! R29   R(10,28)                1.0994         estimate D2E/DX2                !
 ! A1    A(2,1,11)             110.4075         estimate D2E/DX2                !
 ! A2    A(2,1,12)             110.7514         estimate D2E/DX2                !
 ! A3    A(2,1,13)             110.8092         estimate D2E/DX2                !
 ! A4    A(11,1,12)            108.133          estimate D2E/DX2                !
 ! A5    A(11,1,13)            108.1702         estimate D2E/DX2                !
 ! A6    A(12,1,13)            108.4778         estimate D2E/DX2                !
 ! A7    A(1,2,3)              111.5336         estimate D2E/DX2                !
 ! A8    A(1,2,14)             109.1061         estimate D2E/DX2                !
 ! A9    A(1,2,15)             109.1503         estimate D2E/DX2                !
 ! A10   A(3,2,14)             110.087          estimate D2E/DX2                !
 ! A11   A(3,2,15)             109.9714         estimate D2E/DX2                !
 ! A12   A(14,2,15)            106.8724         estimate D2E/DX2                !
 ! A13   A(2,3,4)              109.8864         estimate D2E/DX2                !
 ! A14   A(2,3,16)             109.2481         estimate D2E/DX2                !
 ! A15   A(2,3,17)             109.2906         estimate D2E/DX2                !
 ! A16   A(4,3,16)             110.6366         estimate D2E/DX2                !
 ! A17   A(4,3,17)             109.8199         estimate D2E/DX2                !
 ! A18   A(16,3,17)            107.9217         estimate D2E/DX2                !
 ! A19   A(3,4,5)              118.7271         estimate D2E/DX2                !
 ! A20   A(3,4,18)             107.8701         estimate D2E/DX2                !
 ! A21   A(3,4,19)             108.4052         estimate D2E/DX2                !
 ! A22   A(5,4,18)             108.0898         estimate D2E/DX2                !
 ! A23   A(5,4,19)             107.2614         estimate D2E/DX2                !
 ! A24   A(18,4,19)            105.7774         estimate D2E/DX2                !
 ! A25   A(4,5,6)              115.6272         estimate D2E/DX2                !
 ! A26   A(4,5,9)              119.0389         estimate D2E/DX2                !
 ! A27   A(4,5,20)             105.548          estimate D2E/DX2                !
 ! A28   A(6,5,9)               98.9946         estimate D2E/DX2                !
 ! A29   A(6,5,20)             108.9061         estimate D2E/DX2                !
 ! A30   A(9,5,20)             108.3465         estimate D2E/DX2                !
 ! A31   A(5,6,7)               99.3306         estimate D2E/DX2                !
 ! A32   A(5,6,21)             110.8893         estimate D2E/DX2                !
 ! A33   A(5,6,22)             113.6471         estimate D2E/DX2                !
 ! A34   A(7,6,21)             111.8349         estimate D2E/DX2                !
 ! A35   A(7,6,22)             111.7971         estimate D2E/DX2                !
 ! A36   A(21,6,22)            109.1166         estimate D2E/DX2                !
 ! A37   A(6,7,8)              104.787          estimate D2E/DX2                !
 ! A38   A(6,7,10)             105.5322         estimate D2E/DX2                !
 ! A39   A(6,7,23)             119.0603         estimate D2E/DX2                !
 ! A40   A(8,7,10)              83.622          estimate D2E/DX2                !
 ! A41   A(8,7,23)             119.0067         estimate D2E/DX2                !
 ! A42   A(10,7,23)            118.7658         estimate D2E/DX2                !
 ! A43   A(7,8,9)               80.7328         estimate D2E/DX2                !
 ! A44   A(7,8,24)             116.2372         estimate D2E/DX2                !
 ! A45   A(7,8,25)             115.9489         estimate D2E/DX2                !
 ! A46   A(9,8,24)             117.0871         estimate D2E/DX2                !
 ! A47   A(9,8,25)             116.943          estimate D2E/DX2                !
 ! A48   A(24,8,25)            108.1368         estimate D2E/DX2                !
 ! A49   A(5,9,8)              100.2815         estimate D2E/DX2                !
 ! A50   A(5,9,10)             109.3596         estimate D2E/DX2                !
 ! A51   A(5,9,26)             120.6131         estimate D2E/DX2                !
 ! A52   A(8,9,10)              82.8253         estimate D2E/DX2                !
 ! A53   A(8,9,26)             117.5416         estimate D2E/DX2                !
 ! A54   A(10,9,26)            118.8091         estimate D2E/DX2                !
 ! A55   A(7,10,9)              80.963          estimate D2E/DX2                !
 ! A56   A(7,10,27)            117.0604         estimate D2E/DX2                !
 ! A57   A(7,10,28)            115.1163         estimate D2E/DX2                !
 ! A58   A(9,10,27)            118.0342         estimate D2E/DX2                !
 ! A59   A(9,10,28)            115.8427         estimate D2E/DX2                !
 ! A60   A(27,10,28)           108.0997         estimate D2E/DX2                !
 ! D1    D(11,1,2,3)          -179.9788         estimate D2E/DX2                !
 ! D2    D(11,1,2,14)           58.1896         estimate D2E/DX2                !
 ! D3    D(11,1,2,15)          -58.2624         estimate D2E/DX2                !
 ! D4    D(12,1,2,3)            60.2811         estimate D2E/DX2                !
 ! D5    D(12,1,2,14)          -61.5505         estimate D2E/DX2                !
 ! D6    D(12,1,2,15)         -178.0025         estimate D2E/DX2                !
 ! D7    D(13,1,2,3)           -60.1547         estimate D2E/DX2                !
 ! D8    D(13,1,2,14)          178.0136         estimate D2E/DX2                !
 ! D9    D(13,1,2,15)           61.5617         estimate D2E/DX2                !
 ! D10   D(1,2,3,4)           -178.3826         estimate D2E/DX2                !
 ! D11   D(1,2,3,16)            60.0643         estimate D2E/DX2                !
 ! D12   D(1,2,3,17)           -57.8105         estimate D2E/DX2                !
 ! D13   D(14,2,3,4)           -57.1198         estimate D2E/DX2                !
 ! D14   D(14,2,3,16)         -178.6728         estimate D2E/DX2                !
 ! D15   D(14,2,3,17)           63.4523         estimate D2E/DX2                !
 ! D16   D(15,2,3,4)            60.3775         estimate D2E/DX2                !
 ! D17   D(15,2,3,16)          -61.1756         estimate D2E/DX2                !
 ! D18   D(15,2,3,17)         -179.0504         estimate D2E/DX2                !
 ! D19   D(2,3,4,5)           -177.2155         estimate D2E/DX2                !
 ! D20   D(2,3,4,18)            59.503          estimate D2E/DX2                !
 ! D21   D(2,3,4,19)           -54.5995         estimate D2E/DX2                !
 ! D22   D(16,3,4,5)           -56.4964         estimate D2E/DX2                !
 ! D23   D(16,3,4,18)         -179.778          estimate D2E/DX2                !
 ! D24   D(16,3,4,19)           66.1195         estimate D2E/DX2                !
 ! D25   D(17,3,4,5)            62.5327         estimate D2E/DX2                !
 ! D26   D(17,3,4,18)          -60.7489         estimate D2E/DX2                !
 ! D27   D(17,3,4,19)         -174.8514         estimate D2E/DX2                !
 ! D28   D(3,4,5,6)             73.8453         estimate D2E/DX2                !
 ! D29   D(3,4,5,9)            -43.843          estimate D2E/DX2                !
 ! D30   D(3,4,5,20)          -165.7246         estimate D2E/DX2                !
 ! D31   D(18,4,5,6)          -162.982          estimate D2E/DX2                !
 ! D32   D(18,4,5,9)            79.3298         estimate D2E/DX2                !
 ! D33   D(18,4,5,20)          -42.5519         estimate D2E/DX2                !
 ! D34   D(19,4,5,6)           -49.3394         estimate D2E/DX2                !
 ! D35   D(19,4,5,9)          -167.0277         estimate D2E/DX2                !
 ! D36   D(19,4,5,20)           71.0907         estimate D2E/DX2                !
 ! D37   D(4,5,6,7)           -136.5379         estimate D2E/DX2                !
 ! D38   D(4,5,6,21)           105.6778         estimate D2E/DX2                !
 ! D39   D(4,5,6,22)           -17.6736         estimate D2E/DX2                !
 ! D40   D(9,5,6,7)             -8.1489         estimate D2E/DX2                !
 ! D41   D(9,5,6,21)          -125.9332         estimate D2E/DX2                !
 ! D42   D(9,5,6,22)           110.7153         estimate D2E/DX2                !
 ! D43   D(20,5,6,7)           104.872          estimate D2E/DX2                !
 ! D44   D(20,5,6,21)          -12.9123         estimate D2E/DX2                !
 ! D45   D(20,5,6,22)         -136.2638         estimate D2E/DX2                !
 ! D46   D(4,5,9,8)            177.6122         estimate D2E/DX2                !
 ! D47   D(4,5,9,10)            91.6724         estimate D2E/DX2                !
 ! D48   D(4,5,9,26)           -51.5911         estimate D2E/DX2                !
 ! D49   D(6,5,9,8)             51.5444         estimate D2E/DX2                !
 ! D50   D(6,5,9,10)           -34.3955         estimate D2E/DX2                !
 ! D51   D(6,5,9,26)          -177.6589         estimate D2E/DX2                !
 ! D52   D(20,5,9,8)           -61.9157         estimate D2E/DX2                !
 ! D53   D(20,5,9,10)         -147.8556         estimate D2E/DX2                !
 ! D54   D(20,5,9,26)           68.881          estimate D2E/DX2                !
 ! D55   D(5,6,7,8)            -37.83           estimate D2E/DX2                !
 ! D56   D(5,6,7,10)            49.5402         estimate D2E/DX2                !
 ! D57   D(5,6,7,23)          -173.9204         estimate D2E/DX2                !
 ! D58   D(21,6,7,8)            79.2416         estimate D2E/DX2                !
 ! D59   D(21,6,7,10)          166.6117         estimate D2E/DX2                !
 ! D60   D(21,6,7,23)          -56.8489         estimate D2E/DX2                !
 ! D61   D(22,6,7,8)          -158.0609         estimate D2E/DX2                !
 ! D62   D(22,6,7,10)          -70.6908         estimate D2E/DX2                !
 ! D63   D(22,6,7,23)           65.8486         estimate D2E/DX2                !
 ! D64   D(6,7,8,9)             63.5            estimate D2E/DX2                !
 ! D65   D(6,7,8,24)           -52.2178         estimate D2E/DX2                !
 ! D66   D(6,7,8,25)           179.0416         estimate D2E/DX2                !
 ! D67   D(10,7,8,9)           -40.9284         estimate D2E/DX2                !
 ! D68   D(10,7,8,24)         -156.6462         estimate D2E/DX2                !
 ! D69   D(10,7,8,25)           74.6132         estimate D2E/DX2                !
 ! D70   D(23,7,8,9)          -160.3809         estimate D2E/DX2                !
 ! D71   D(23,7,8,24)           83.9013         estimate D2E/DX2                !
 ! D72   D(23,7,8,25)          -44.8393         estimate D2E/DX2                !
 ! D73   D(6,7,10,9)           -62.5673         estimate D2E/DX2                !
 ! D74   D(6,7,10,27)           54.3793         estimate D2E/DX2                !
 ! D75   D(6,7,10,28)         -176.9554         estimate D2E/DX2                !
 ! D76   D(8,7,10,9)            41.0529         estimate D2E/DX2                !
 ! D77   D(8,7,10,27)          157.9994         estimate D2E/DX2                !
 ! D78   D(8,7,10,28)          -73.3352         estimate D2E/DX2                !
 ! D79   D(23,7,10,9)          160.7396         estimate D2E/DX2                !
 ! D80   D(23,7,10,27)         -82.3138         estimate D2E/DX2                !
 ! D81   D(23,7,10,28)          46.3515         estimate D2E/DX2                !
 ! D82   D(7,8,9,5)            -67.8028         estimate D2E/DX2                !
 ! D83   D(7,8,9,10)            40.6625         estimate D2E/DX2                !
 ! D84   D(7,8,9,26)           159.4869         estimate D2E/DX2                !
 ! D85   D(24,8,9,5)            47.0109         estimate D2E/DX2                !
 ! D86   D(24,8,9,10)          155.4762         estimate D2E/DX2                !
 ! D87   D(24,8,9,26)          -85.6994         estimate D2E/DX2                !
 ! D88   D(25,8,9,5)           177.7154         estimate D2E/DX2                !
 ! D89   D(25,8,9,10)          -73.8193         estimate D2E/DX2                !
 ! D90   D(25,8,9,26)           45.0051         estimate D2E/DX2                !
 ! D91   D(5,9,10,7)            57.7137         estimate D2E/DX2                !
 ! D92   D(5,9,10,27)          -58.2112         estimate D2E/DX2                !
 ! D93   D(5,9,10,28)          171.3242         estimate D2E/DX2                !
 ! D94   D(8,9,10,7)           -40.7072         estimate D2E/DX2                !
 ! D95   D(8,9,10,27)         -156.6321         estimate D2E/DX2                !
 ! D96   D(8,9,10,28)           72.9033         estimate D2E/DX2                !
 ! D97   D(26,9,10,7)         -158.2649         estimate D2E/DX2                !
 ! D98   D(26,9,10,27)          85.8102         estimate D2E/DX2                !
 ! D99   D(26,9,10,28)         -44.6544         estimate D2E/DX2                !
 --------------------------------------------------------------------------------
 Trust Radius=3.00D-01 FncErr=1.00D-07 GrdErr=1.00D-06 EigMax=2.50D+02 EigMin=1.00D-04
 Number of steps in this run=    168 maximum allowed number of steps=    168.
 GradGradGradGradGradGradGradGradGradGradGradGradGradGradGradGradGradGrad

                          Input orientation:                          
 ---------------------------------------------------------------------
 Center     Atomic      Atomic             Coordinates (Angstroms)
 Number     Number       Type             X           Y           Z
 ---------------------------------------------------------------------
      1          6           0        0.897070   -0.065250    0.019290
      2          6           0        2.414380   -0.115430    0.029970
      3          6           0        2.929310   -1.535420    0.304600
      4          6           0        4.453290   -1.535300    0.346780
      5          6           0        5.180100   -2.858800    0.543610
      6          6           0        5.195240   -3.794470   -0.671660
      7          6           0        4.888620   -5.118360    0.030790
      8          6           0        5.664480   -5.040340    1.385100
      9          6           0        4.660360   -3.844150    1.598520
     10          6           0        3.643440   -4.836750    0.927920
     11          1           0        0.550250    0.954060   -0.178220
     12          1           0        0.491860   -0.381690    0.985290
     13          1           0        0.491930   -0.720170   -0.758050
     14          1           0        2.791170    0.576250    0.793600
     15          1           0        2.793080    0.240150   -0.936460
     16          1           0        2.564980   -2.209110   -0.477860
     17          1           0        2.531080   -1.885780    1.263560
     18          1           0        4.768070   -0.851520    1.145600
     19          1           0        4.826330   -1.094260   -0.588410
     20          1           0        6.214690   -2.591410    0.800030
     21          1           0        6.182180   -3.803710   -1.144820
     22          1           0        4.439790   -3.549200   -1.423610
     23          1           0        4.921840   -6.040460   -0.543140
     24          1           0        6.728680   -4.792190    1.319590
     25          1           0        5.555970   -5.904690    2.050560
     26          1           0        4.477690   -3.517180    2.619060
     27          1           0        2.764130   -4.416610    0.438460
     28          1           0        3.316570   -5.681500    1.551030
 ---------------------------------------------------------------------
                    Distance matrix (angstroms):
                    1          2          3          4          5
     1  C    0.000000
     2  C    1.518177   0.000000
     3  C    2.524441   1.535235   0.000000
     4  C    3.861994   2.504706   1.524564   0.000000
     5  C    5.140348   3.929264   2.621930   1.522710   0.000000
     6  C    5.732256   4.664848   3.345270   2.586805   1.533815
     7  C    6.439451   5.581324   4.092838   3.623214   2.335285
     8  C    7.024611   6.054277   4.575270   3.851025   2.387854
     9  C    5.562050   4.626892   3.162435   2.634487   1.534236
    10  C    5.579908   4.960621   3.434718   3.448645   2.534029
    11  H    1.094663   2.159197   3.477147   4.658998   6.041064
    12  H    1.094297   2.163242   2.781294   4.175097   5.320785
    13  H    1.094219   2.163908   2.781129   4.192548   5.314790
    14  H    2.144456   1.097052   2.171947   2.724139   4.191545
    15  H    2.145130   1.097195   2.170585   2.748677   4.182339
    16  H    2.761380   2.159645   1.094915   2.167894   2.881727
    17  H    2.744545   2.160903   1.095876   2.158289   2.912457
    18  H    4.107485   2.706717   2.134488   1.097613   2.135728
    19  H    4.106975   2.675445   2.142609   1.099207   2.126082
    20  H    5.938697   4.600633   3.486300   2.103172   1.098920
    21  H    6.577509   5.401838   4.222218   3.218636   2.178948
    22  H    5.174044   4.243343   3.053452   2.681465   2.212389
    23  H    7.226219   6.459241   4.998422   4.616055   3.372045
    24  H    7.618557   6.492179   5.106072   4.090366   2.595812
    25  H    7.741477   6.889695   5.388714   4.817711   3.419009
    26  H    5.612082   4.746845   3.417832   3.015245   2.287867
    27  H    4.753520   4.334667   2.889024   3.341199   2.876585
    28  H    6.304163   5.840266   4.346670   4.464675   3.529203
                    6          7          8          9         10
     6  C    0.000000
     7  C    1.529750   0.000000
     8  C    2.450029   1.562754   0.000000
     9  C    2.332870   2.033099   1.576285   0.000000
    10  C    2.460302   1.560327   2.082082   1.571332   0.000000
    11  H    6.660927   7.465884   8.033190   6.562974   6.657691
    12  H    6.042709   6.532887   6.972723   5.453538   5.457408
    13  H    5.619600   6.268750   7.071933   5.717384   5.451673
    14  H    5.199013   6.116352   6.336550   4.866385   5.481330
    15  H    4.703047   5.834423   6.443458   5.156972   5.474846
    16  H    3.077205   3.757893   4.592753   3.372733   3.169193
    17  H    3.806038   4.186561   4.447945   2.912258   3.171470
    18  H    3.485092   4.411718   4.290352   3.028625   4.146593
    19  H    2.726565   4.071937   4.490967   3.517400   4.207697
    20  H    2.156966   2.955616   2.577265   2.150090   3.416026
    21  H    1.094539   2.187158   2.863173   3.137433   3.436368
    22  H    1.093751   2.186090   3.407670   3.044490   2.796722
    23  H    2.266216   1.086631   2.295618   3.078775   2.290686
    24  H    2.704064   2.270069   1.094711   2.292276   3.110321
    25  H    3.463183   2.267850   1.096226   2.291786   2.461420
    26  H    3.379439   3.071121   2.291538   1.087097   2.301563
    27  H    2.744034   2.274226   3.114032   2.295460   1.090539
    28  H    3.468520   2.258229   2.439529   2.276814   1.099415
                   11         12         13         14         15
    11  H    0.000000
    12  H    1.772398   0.000000
    13  H    1.772752   1.775895   0.000000
    14  H    2.471618   2.498243   3.061834   0.000000
    15  H    2.472829   3.061931   2.499867   1.762406   0.000000
    16  H    3.762255   3.126995   2.567681   3.070180   2.502243
    17  H    3.750614   2.549145   3.098982   2.519941   3.070555
    18  H    4.775209   4.304929   4.682575   2.463852   3.070391
    19  H    4.759068   4.666039   4.353820   2.973623   2.456806
    20  H    6.753755   6.137423   6.219255   4.664183   4.768705
    21  H    7.435679   6.973330   6.483576   5.868600   5.280361
    22  H    6.079381   5.605539   4.902242   4.965210   4.160306
    23  H    8.256348   7.347278   6.926455   7.078664   6.643221
    24  H    8.569470   7.646057   7.732722   6.678383   6.775187
    25  H    8.778789   7.568589   7.772518   7.157280   7.369865
    26  H    6.575831   5.327977   5.925742   4.788823   5.440327
    27  H    5.841717   4.662919   4.500911   5.005548   4.855580
    28  H    7.394152   6.032167   6.158347   6.325281   6.444190
                   16         17         18         19         20
    16  H    0.000000
    17  H    1.771506   0.000000
    18  H    3.054878   2.467333   0.000000
    19  H    2.523651   3.053599   1.751887   0.000000
    20  H    3.885813   3.779121   2.288962   2.469163   0.000000
    21  H    4.008955   4.775906   3.995142   3.080429   2.291979
    22  H    2.491023   3.692021   3.739797   2.621775   3.002034
    23  H    4.498699   5.122623   5.458991   4.947329   3.920652
    24  H    5.219150   5.105899   4.404900   4.575378   2.318957
    25  H    5.384816   5.091264   5.193676   5.535050   3.602161
    26  H    3.867870   2.878912   3.059599   4.034843   2.680129
    27  H    2.398408   2.672116   4.150384   4.042912   3.920262
    28  H    4.091305   3.886788   5.059638   5.281983   4.302529
                   21         22         23         24         25
    21  H    0.000000
    22  H    1.782813   0.000000
    23  H    2.636954   2.685885   0.000000
    24  H    2.710917   3.782749   2.879690   0.000000
    25  H    3.875140   4.343276   2.673543   1.774041   0.000000
    26  H    4.141760   4.042974   4.069855   2.895035   2.680687
    27  H    3.816476   2.650951   2.873350   4.078616   3.550721
    28  H    4.359521   3.828421   2.662948   3.533685   2.305267
                   26         27         28
    26  H    0.000000
    27  H    2.915524   0.000000
    28  H    2.678277   1.772836   0.000000
 Stoichiometry    C10H18
 Framework group  C1[X(C10H18)]
 Deg. of freedom    78
 Full point group                 C1      NOp   1
 Largest Abelian subgroup         C1      NOp   1
 Largest concise Abelian subgroup C1      NOp   1
                         Standard orientation:                         
 ---------------------------------------------------------------------
 Center     Atomic      Atomic             Coordinates (Angstroms)
 Number     Number       Type             X           Y           Z
 ---------------------------------------------------------------------
      1          6           0       -4.011662    0.818967    0.154871
      2          6           0       -3.081283   -0.360737   -0.063200
      3          6           0       -1.608502    0.072336   -0.045547
      4          6           0       -0.710728   -1.131726   -0.307327
      5          6           0        0.799465   -0.940468   -0.270125
      6          6           0        1.411626   -0.763867    1.125103
      7          6           0        2.377704    0.384554    0.828527
      8          6           0        2.933033    0.079761   -0.600079
      9          6           0        1.411891    0.286666   -0.957842
     10          6           0        1.530761    1.460323    0.080177
     11          1           0       -5.055548    0.489809    0.139243
     12          1           0       -3.878939    1.568018   -0.631762
     13          1           0       -3.817892    1.293326    1.121697
     14          1           0       -3.322774   -0.836068   -1.021983
     15          1           0       -3.260955   -1.110027    0.717902
     16          1           0       -1.376400    0.523007    0.924949
     17          1           0       -1.445355    0.832397   -0.817968
     18          1           0       -0.977971   -1.544069   -1.288810
     19          1           0       -0.958437   -1.914713    0.423308
     20          1           0        1.222188   -1.843179   -0.732773
     21          1           0        1.940138   -1.670194    1.436973
     22          1           0        0.681813   -0.492548    1.893250
     23          1           0        3.066930    0.708046    1.603826
     24          1           0        3.349694   -0.920777   -0.754053
     25          1           0        3.642426    0.810854   -1.005019
     26          1           0        1.165924    0.523097   -1.990015
     27          1           0        0.619903    1.804438    0.571295
     28          1           0        2.091418    2.343732   -0.257410
 ---------------------------------------------------------------------
 Rotational constants (GHZ):           3.0675655           0.6391520           0.6087936
 Standard basis: 6-31G(2df,p) (6D, 7F)
 There are   400 symmetry adapted cartesian basis functions of A   symmetry.
 There are   370 symmetry adapted basis functions of A   symmetry.
   370 basis functions,   566 primitive gaussians,   400 cartesian basis functions
    39 alpha electrons       39 beta electrons
       nuclear repulsion energy       555.6164461065 Hartrees.
 NAtoms=   28 NActive=   28 NUniq=   28 SFac= 1.00D+00 NAtFMM=   60 NAOKFM=F Big=F
 Integral buffers will be    131072 words long.
 Raffenetti 2 integral format.
 Two-electron integral symmetry is turned on.
 One-electron integrals computed using PRISM.
 PrsmSu:  requested number of processors reduced to:  13 ShMem   1 Linda.
 NBasis=   370 RedAO= T EigKep=  3.76D-04  NBF=   370
 NBsUse=   370 1.00D-06 EigRej= -1.00D+00 NBFU=   370
 ExpMin= 1.61D-01 ExpMax= 3.05D+03 ExpMxC= 4.57D+02 IAcc=3 IRadAn=         5 AccDes= 0.00D+00
 Harris functional with IExCor=  402 and IRadAn=       5 diagonalized for initial guess.
 HarFok:  IExCor=  402 AccDes= 0.00D+00 IRadAn=         5 IDoV= 1 UseB2=F ITyADJ=14
 ICtDFT=  3500011 ScaDFX=  1.000000  1.000000  1.000000  1.000000
 FoFCou: FMM=F IPFlag=           0 FMFlag=      100000 FMFlg1=           0
         NFxFlg=           0 DoJE=T BraDBF=F KetDBF=T FulRan=T
         wScrn=  0.000000 ICntrl=       500 IOpCl=  0 I1Cent=   200000004 NGrid=           0
         NMat0=    1 NMatS0=      1 NMatT0=    0 NMatD0=    1 NMtDS0=    0 NMtDT0=    0
 Petite list used in FoFCou.
 Requested convergence on RMS density matrix=1.00D-08 within 128 cycles.
 Requested convergence on MAX density matrix=1.00D-06.
 Requested convergence on             energy=1.00D-06.
 No special actions if energy rises.
 Integral accuracy reduced to 1.0D-05 until final iterations.
 Initial convergence to 1.0D-05 achieved.  Increase integral accuracy.
 SCF Done:  E(RB3LYP) =  -391.891780043     A.U. after   12 cycles
            NFock= 12  Conv=0.51D-08     -V/T= 2.0088

 **********************************************************************

            Population analysis using the SCF density.

 **********************************************************************

 Orbital symmetries:
       Occupied  (A) (A) (A) (A) (A) (A) (A) (A) (A) (A) (A) (A)
                 (A) (A) (A) (A) (A) (A) (A) (A) (A) (A) (A) (A)
                 (A) (A) (A) (A) (A) (A) (A) (A) (A) (A) (A) (A)
                 (A) (A) (A)
       Virtual   (A) (A) (A) (A) (A) (A) (A) (A) (A) (A) (A) (A)
                 (A) (A) (A) (A) (A) (A) (A) (A) (A) (A) (A) (A)
                 (A) (A) (A) (A) (A) (A) (A) (A) (A) (A) (A) (A)
                 (A) (A) (A) (A) (A) (A) (A) (A) (A) (A) (A) (A)
                 (A) (A) (A) (A) (A) (A) (A) (A) (A) (A) (A) (A)
                 (A) (A) (A) (A) (A) (A) (A) (A) (A) (A) (A) (A)
                 (A) (A) (A) (A) (A) (A) (A) (A) (A) (A) (A) (A)
                 (A) (A) (A) (A) (A) (A) (A) (A) (A) (A) (A) (A)
                 (A) (A) (A) (A) (A) (A) (A) (A) (A) (A) (A) (A)
                 (A) (A) (A) (A) (A) (A) (A) (A) (A) (A) (A) (A)
                 (A) (A) (A) (A) (A) (A) (A) (A) (A) (A) (A) (A)
                 (A) (A) (A) (A) (A) (A) (A) (A) (A) (A) (A) (A)
                 (A) (A) (A) (A) (A) (A) (A) (A) (A) (A) (A) (A)
                 (A) (A) (A) (A) (A) (A) (A) (A) (A) (A) (A) (A)
                 (A) (A) (A) (A) (A) (A) (A) (A) (A) (A) (A) (A)
                 (A) (A) (A) (A) (A) (A) (A) (A) (A) (A) (A) (A)
                 (A) (A) (A) (A) (A) (A) (A) (A) (A) (A) (A) (A)
                 (A) (A) (A) (A) (A) (A) (A) (A) (A) (A) (A) (A)
                 (A) (A) (A) (A) (A) (A) (A) (A) (A) (A) (A) (A)
                 (A) (A) (A) (A) (A) (A) (A) (A) (A) (A) (A) (A)
                 (A) (A) (A) (A) (A) (A) (A) (A) (A) (A) (A) (A)
                 (A) (A) (A) (A) (A) (A) (A) (A) (A) (A) (A) (A)
                 (A) (A) (A) (A) (A) (A) (A) (A) (A) (A) (A) (A)
                 (A) (A) (A) (A) (A) (A) (A) (A) (A) (A) (A) (A)
                 (A) (A) (A) (A) (A) (A) (A) (A) (A) (A) (A) (A)
                 (A) (A) (A) (A) (A) (A) (A) (A) (A) (A) (A) (A)
                 (A) (A) (A) (A) (A) (A) (A) (A) (A) (A) (A) (A)
                 (A) (A) (A) (A) (A) (A) (A)
 The electronic state is 1-A.
 Alpha  occ. eigenvalues --  -10.18266 -10.18116 -10.17667 -10.17483 -10.17316
 Alpha  occ. eigenvalues --  -10.17270 -10.17084 -10.17065 -10.16870 -10.16637
 Alpha  occ. eigenvalues --   -0.88158  -0.79620  -0.74999  -0.70311  -0.67406
 Alpha  occ. eigenvalues --   -0.64442  -0.61380  -0.57624  -0.54012  -0.52248
 Alpha  occ. eigenvalues --   -0.49280  -0.46724  -0.45503  -0.44671  -0.41631
 Alpha  occ. eigenvalues --   -0.40899  -0.38618  -0.37887  -0.36232  -0.35573
 Alpha  occ. eigenvalues --   -0.34684  -0.33385  -0.32469  -0.31740  -0.31401
 Alpha  occ. eigenvalues --   -0.30031  -0.29284  -0.28746  -0.28003
 Alpha virt. eigenvalues --    0.08418   0.09978   0.10787   0.12162   0.12560
 Alpha virt. eigenvalues --    0.13028   0.14058   0.14758   0.15794   0.16489
 Alpha virt. eigenvalues --    0.17014   0.17529   0.18170   0.19018   0.19059
 Alpha virt. eigenvalues --    0.19683   0.20249   0.20639   0.22199   0.22588
 Alpha virt. eigenvalues --    0.23533   0.23901   0.24599   0.25834   0.26658
 Alpha virt. eigenvalues --    0.27326   0.28307   0.30247   0.33839   0.44929
 Alpha virt. eigenvalues --    0.45809   0.46950   0.48386   0.49203   0.49892
 Alpha virt. eigenvalues --    0.51697   0.52070   0.52813   0.54009   0.54836
 Alpha virt. eigenvalues --    0.56460   0.57469   0.58092   0.58549   0.58911
 Alpha virt. eigenvalues --    0.60863   0.61066   0.62521   0.63206   0.65162
 Alpha virt. eigenvalues --    0.66984   0.67562   0.68994   0.70314   0.72250
 Alpha virt. eigenvalues --    0.73045   0.73434   0.75153   0.75473   0.75673
 Alpha virt. eigenvalues --    0.76381   0.76980   0.77835   0.78561   0.79253
 Alpha virt. eigenvalues --    0.80028   0.80352   0.81397   0.82413   0.83197
 Alpha virt. eigenvalues --    0.83969   0.85303   0.85780   0.86940   0.87622
 Alpha virt. eigenvalues --    0.89913   0.93163   0.96762   0.98707   1.01905
 Alpha virt. eigenvalues --    1.03661   1.05199   1.09028   1.10767   1.13417
 Alpha virt. eigenvalues --    1.16372   1.19048   1.21030   1.21560   1.24012
 Alpha virt. eigenvalues --    1.24753   1.30277   1.31141   1.32447   1.33388
 Alpha virt. eigenvalues --    1.36271   1.36895   1.38279   1.39902   1.40725
 Alpha virt. eigenvalues --    1.42322   1.43442   1.46149   1.47950   1.49207
 Alpha virt. eigenvalues --    1.50259   1.51173   1.54169   1.54529   1.55561
 Alpha virt. eigenvalues --    1.56002   1.58362   1.59303   1.61295   1.62305
 Alpha virt. eigenvalues --    1.64857   1.65701   1.67582   1.68521   1.69760
 Alpha virt. eigenvalues --    1.71113   1.75235   1.77978   1.80616   1.82994
 Alpha virt. eigenvalues --    1.84457   1.84789   1.85460   1.88274   1.91955
 Alpha virt. eigenvalues --    1.92470   1.94033   1.95518   1.97200   1.99258
 Alpha virt. eigenvalues --    2.02031   2.02300   2.15182   2.18956   2.20195
 Alpha virt. eigenvalues --    2.21616   2.23583   2.24896   2.27724   2.29775
 Alpha virt. eigenvalues --    2.31291   2.33184   2.34334   2.35728   2.36065
 Alpha virt. eigenvalues --    2.37430   2.38737   2.41332   2.44104   2.44865
 Alpha virt. eigenvalues --    2.50864   2.51199   2.52518   2.55098   2.57512
 Alpha virt. eigenvalues --    2.60004   2.61878   2.65050   2.67629   2.69591
 Alpha virt. eigenvalues --    2.74404   2.75262   2.76323   2.77185   2.77869
 Alpha virt. eigenvalues --    2.80107   2.80739   2.81759   2.83077   2.83724
 Alpha virt. eigenvalues --    2.85339   2.87963   2.88228   2.88699   2.90030
 Alpha virt. eigenvalues --    2.91461   2.91998   2.93638   2.93898   2.95208
 Alpha virt. eigenvalues --    2.97182   2.97946   3.01468   3.02240   3.02886
 Alpha virt. eigenvalues --    3.05258   3.06817   3.08166   3.09920   3.10885
 Alpha virt. eigenvalues --    3.12303   3.12965   3.17789   3.19015   3.20700
 Alpha virt. eigenvalues --    3.23027   3.25394   3.27179   3.28301   3.29014
 Alpha virt. eigenvalues --    3.31588   3.32699   3.34782   3.36870   3.37638
 Alpha virt. eigenvalues --    3.39353   3.41689   3.44731   3.47069   3.48284
 Alpha virt. eigenvalues --    3.48821   3.49930   3.51792   3.56119   3.58212
 Alpha virt. eigenvalues --    3.59102   3.60205   3.61436   3.63652   3.63961
 Alpha virt. eigenvalues --    3.66014   3.68252   3.71677   3.73025   3.75223
 Alpha virt. eigenvalues --    3.77485   3.80436   3.81260   3.83545   3.84535
 Alpha virt. eigenvalues --    3.88262   3.89715   3.91217   3.93316   3.97397
 Alpha virt. eigenvalues --    4.01774   4.04592   4.07898   4.11910   4.13713
 Alpha virt. eigenvalues --    4.14740   4.21044   4.28200   4.29654   4.33960
 Alpha virt. eigenvalues --    4.38470   4.39049   4.40175   4.41965   4.44175
 Alpha virt. eigenvalues --    4.44781   4.45737   4.47546   4.48388   4.52570
 Alpha virt. eigenvalues --    4.53368   4.54438   4.54724   4.57083   4.59462
 Alpha virt. eigenvalues --    4.60384   4.61946   4.62389   4.64167   4.64908
 Alpha virt. eigenvalues --    4.66382   4.66931   4.68809   4.70444   4.71756
 Alpha virt. eigenvalues --    4.72815   4.73694   4.74000   4.75987   4.76845
 Alpha virt. eigenvalues --    4.78346   4.78565   4.80646   4.81382   4.83917
 Alpha virt. eigenvalues --    4.84116   4.84892   4.86433   4.88321   4.89178
 Alpha virt. eigenvalues --    4.90782   4.91789   4.93718   4.95602   4.98279
 Alpha virt. eigenvalues --    4.99670   5.01292   5.02883   5.11169   5.11665
 Alpha virt. eigenvalues --    5.17567   5.19263   5.22984   5.25002   5.29457
 Alpha virt. eigenvalues --    5.32367   5.33510   5.38342   5.40410   5.46856
 Alpha virt. eigenvalues --    5.49012   5.52957   5.55886   5.58383   5.64403
 Alpha virt. eigenvalues --    5.65875   5.74359   5.89381   6.26289   6.36751
 Alpha virt. eigenvalues --    7.45847  11.12514  11.23685  11.69975  11.87061
 Alpha virt. eigenvalues --   11.96545  12.02792  12.22568  12.54479  12.68588
 Alpha virt. eigenvalues --   13.06553
          Condensed to atoms (all electrons):
               1          2          3          4          5          6
     1  C    4.957043   0.407497  -0.036624   0.001934  -0.000163   0.000000
     2  C    0.407497   4.769325   0.427195  -0.031066   0.002647   0.000166
     3  C   -0.036624   0.427195   4.787920   0.430104  -0.028091  -0.005712
     4  C    0.001934  -0.031066   0.430104   4.891457   0.407025  -0.025512
     5  C   -0.000163   0.002647  -0.028091   0.407025   4.654103   0.347504
     6  C    0.000000   0.000166  -0.005712  -0.025512   0.347504   4.976405
     7  C   -0.000000  -0.000002   0.000053   0.003256  -0.047337   0.409342
     8  C    0.000000  -0.000005   0.000163   0.002999  -0.015798  -0.024440
     9  C    0.000002   0.000158  -0.008547  -0.033551   0.427169  -0.054046
    10  C    0.000003   0.000099   0.001022  -0.004053  -0.014990  -0.032331
    11  H    0.370637  -0.021582   0.003527  -0.000159   0.000002   0.000000
    12  H    0.378586  -0.028796  -0.004534   0.000198   0.000007   0.000000
    13  H    0.378398  -0.028714  -0.004442   0.000197   0.000007  -0.000002
    14  H   -0.036988   0.370125  -0.033073  -0.002293   0.000227  -0.000001
    15  H   -0.036869   0.369073  -0.031929  -0.002330   0.000151  -0.000005
    16  H   -0.001892  -0.034416   0.366139  -0.034317  -0.001375   0.002110
    17  H   -0.002406  -0.036887   0.367585  -0.030325  -0.003687  -0.000313
    18  H    0.000106  -0.004930  -0.038592   0.351567  -0.020919   0.005340
    19  H    0.000159  -0.005925  -0.037645   0.351986  -0.023686  -0.009490
    20  H    0.000002  -0.000153   0.005165  -0.040555   0.363053  -0.040664
    21  H   -0.000000   0.000001   0.000012   0.002793  -0.022226   0.358188
    22  H    0.000008  -0.000151   0.001317  -0.008926  -0.028592   0.365268
    23  H    0.000000   0.000000   0.000007  -0.000092   0.009191  -0.051640
    24  H    0.000000   0.000000   0.000009   0.000384  -0.003816  -0.006027
    25  H    0.000000  -0.000000   0.000004  -0.000181   0.002182   0.004185
    26  H   -0.000000  -0.000008  -0.000998   0.000813  -0.055062   0.011282
    27  H   -0.000001  -0.000047   0.000387  -0.000018  -0.005279  -0.002668
    28  H    0.000000  -0.000002  -0.000053   0.000002   0.003195   0.003542
               7          8          9         10         11         12
     1  C   -0.000000   0.000000   0.000002   0.000003   0.370637   0.378586
     2  C   -0.000002  -0.000005   0.000158   0.000099  -0.021582  -0.028796
     3  C    0.000053   0.000163  -0.008547   0.001022   0.003527  -0.004534
     4  C    0.003256   0.002999  -0.033551  -0.004053  -0.000159   0.000198
     5  C   -0.047337  -0.015798   0.427169  -0.014990   0.000002   0.000007
     6  C    0.409342  -0.024440  -0.054046  -0.032331   0.000000   0.000000
     7  C    4.707745   0.377131  -0.037539   0.371117   0.000000  -0.000000
     8  C    0.377131   4.987260   0.348246  -0.081881  -0.000000   0.000000
     9  C   -0.037539   0.348246   4.786592   0.362169  -0.000000  -0.000002
    10  C    0.371117  -0.081881   0.362169   4.984036  -0.000000  -0.000001
    11  H    0.000000  -0.000000  -0.000000  -0.000000   0.610825  -0.032111
    12  H   -0.000000   0.000000  -0.000002  -0.000001  -0.032111   0.602677
    13  H    0.000000   0.000000   0.000001  -0.000002  -0.032130  -0.033257
    14  H   -0.000000   0.000000   0.000005  -0.000002  -0.002415  -0.004489
    15  H    0.000000   0.000000   0.000007  -0.000003  -0.002484   0.005783
    16  H   -0.000596   0.000003  -0.000664  -0.001225  -0.000058  -0.000429
    17  H    0.000159  -0.000040   0.004420  -0.000451  -0.000047   0.005017
    18  H   -0.000262  -0.000028  -0.001082  -0.000134   0.000003   0.000005
    19  H    0.000135  -0.000151   0.004952  -0.000014   0.000003   0.000013
    20  H    0.000770  -0.007335  -0.049732   0.005668  -0.000000  -0.000000
    21  H   -0.025554  -0.005913   0.005585   0.004581   0.000000  -0.000000
    22  H   -0.028491   0.004714  -0.001033  -0.005240  -0.000000   0.000000
    23  H    0.365429  -0.042904   0.008614  -0.042166   0.000000   0.000000
    24  H   -0.027369   0.348800  -0.029324   0.010209  -0.000000  -0.000000
    25  H   -0.025405   0.370213  -0.022777  -0.003735  -0.000000  -0.000000
    26  H    0.006669  -0.038063   0.363742  -0.046945  -0.000000   0.000000
    27  H   -0.027963   0.010196  -0.025037   0.350170  -0.000000   0.000004
    28  H   -0.023692  -0.006990  -0.023175   0.374983  -0.000000   0.000000
              13         14         15         16         17         18
     1  C    0.378398  -0.036988  -0.036869  -0.001892  -0.002406   0.000106
     2  C   -0.028714   0.370125   0.369073  -0.034416  -0.036887  -0.004930
     3  C   -0.004442  -0.033073  -0.031929   0.366139   0.367585  -0.038592
     4  C    0.000197  -0.002293  -0.002330  -0.034317  -0.030325   0.351567
     5  C    0.000007   0.000227   0.000151  -0.001375  -0.003687  -0.020919
     6  C   -0.000002  -0.000001  -0.000005   0.002110  -0.000313   0.005340
     7  C    0.000000  -0.000000   0.000000  -0.000596   0.000159  -0.000262
     8  C    0.000000   0.000000   0.000000   0.000003  -0.000040  -0.000028
     9  C    0.000001   0.000005   0.000007  -0.000664   0.004420  -0.001082
    10  C   -0.000002  -0.000002  -0.000003  -0.001225  -0.000451  -0.000134
    11  H   -0.032130  -0.002415  -0.002484  -0.000058  -0.000047   0.000003
    12  H   -0.033257  -0.004489   0.005783  -0.000429   0.005017   0.000005
    13  H    0.603399   0.005781  -0.004464   0.004768  -0.000397   0.000011
    14  H    0.005781   0.645666  -0.041472   0.005976  -0.005196   0.005774
    15  H   -0.004464  -0.041472   0.646373  -0.005801   0.006016  -0.000427
    16  H    0.004768   0.005976  -0.005801   0.641926  -0.043342   0.006652
    17  H   -0.000397  -0.005196   0.006016  -0.043342   0.641194  -0.005874
    18  H    0.000011   0.005774  -0.000427   0.006652  -0.005874   0.663293
    19  H    0.000006  -0.000408   0.005972  -0.005159   0.006563  -0.040159
    20  H    0.000000  -0.000003   0.000001  -0.000033   0.000083  -0.008117
    21  H    0.000000   0.000000  -0.000001  -0.000054  -0.000011  -0.000195
    22  H   -0.000001   0.000001   0.000012   0.003471   0.000070   0.000137
    23  H   -0.000000   0.000000   0.000000   0.000007  -0.000002   0.000004
    24  H    0.000000   0.000000  -0.000000  -0.000001  -0.000001   0.000002
    25  H    0.000000   0.000000   0.000000  -0.000000   0.000002  -0.000000
    26  H   -0.000000   0.000000  -0.000000   0.000090   0.000835   0.001373
    27  H    0.000002   0.000003   0.000004   0.003772   0.000885   0.000047
    28  H    0.000000   0.000000   0.000000   0.000018   0.000061   0.000002
              19         20         21         22         23         24
     1  C    0.000159   0.000002  -0.000000   0.000008   0.000000   0.000000
     2  C   -0.005925  -0.000153   0.000001  -0.000151   0.000000   0.000000
     3  C   -0.037645   0.005165   0.000012   0.001317   0.000007   0.000009
     4  C    0.351986  -0.040555   0.002793  -0.008926  -0.000092   0.000384
     5  C   -0.023686   0.363053  -0.022226  -0.028592   0.009191  -0.003816
     6  C   -0.009490  -0.040664   0.358188   0.365268  -0.051640  -0.006027
     7  C    0.000135   0.000770  -0.025554  -0.028491   0.365429  -0.027369
     8  C   -0.000151  -0.007335  -0.005913   0.004714  -0.042904   0.348800
     9  C    0.004952  -0.049732   0.005585  -0.001033   0.008614  -0.029324
    10  C   -0.000014   0.005668   0.004581  -0.005240  -0.042166   0.010209
    11  H    0.000003  -0.000000   0.000000  -0.000000   0.000000  -0.000000
    12  H    0.000013  -0.000000  -0.000000   0.000000   0.000000  -0.000000
    13  H    0.000006   0.000000   0.000000  -0.000001  -0.000000   0.000000
    14  H   -0.000408  -0.000003   0.000000   0.000001   0.000000   0.000000
    15  H    0.005972   0.000001  -0.000001   0.000012   0.000000  -0.000000
    16  H   -0.005159  -0.000033  -0.000054   0.003471   0.000007  -0.000001
    17  H    0.006563   0.000083  -0.000011   0.000070  -0.000002  -0.000001
    18  H   -0.040159  -0.008117  -0.000195   0.000137   0.000004   0.000002
    19  H    0.661763   0.000155   0.000990   0.001946  -0.000004  -0.000004
    20  H    0.000155   0.704819  -0.012175   0.005474  -0.000200   0.005682
    21  H    0.000990  -0.012175   0.642615  -0.042247  -0.000522   0.002957
    22  H    0.001946   0.005474  -0.042247   0.635501  -0.000026  -0.000123
    23  H   -0.000004  -0.000200  -0.000522  -0.000026   0.709683   0.001123
    24  H   -0.000004   0.005682   0.002957  -0.000123   0.001123   0.666764
    25  H    0.000003   0.000214  -0.000024  -0.000126  -0.002128  -0.044139
    26  H   -0.000088  -0.001044  -0.000161  -0.000150  -0.000721   0.001085
    27  H   -0.000057  -0.000162  -0.000121   0.002595   0.001063  -0.000750
    28  H    0.000004  -0.000125  -0.000144   0.000019  -0.001806   0.000146
              25         26         27         28
     1  C    0.000000  -0.000000  -0.000001   0.000000
     2  C   -0.000000  -0.000008  -0.000047  -0.000002
     3  C    0.000004  -0.000998   0.000387  -0.000053
     4  C   -0.000181   0.000813  -0.000018   0.000002
     5  C    0.002182  -0.055062  -0.005279   0.003195
     6  C    0.004185   0.011282  -0.002668   0.003542
     7  C   -0.025405   0.006669  -0.027963  -0.023692
     8  C    0.370213  -0.038063   0.010196  -0.006990
     9  C   -0.022777   0.363742  -0.025037  -0.023175
    10  C   -0.003735  -0.046945   0.350170   0.374983
    11  H   -0.000000  -0.000000  -0.000000  -0.000000
    12  H   -0.000000   0.000000   0.000004   0.000000
    13  H    0.000000  -0.000000   0.000002   0.000000
    14  H    0.000000   0.000000   0.000003   0.000000
    15  H    0.000000  -0.000000   0.000004   0.000000
    16  H   -0.000000   0.000090   0.003772   0.000018
    17  H    0.000002   0.000835   0.000885   0.000061
    18  H   -0.000000   0.001373   0.000047   0.000002
    19  H    0.000003  -0.000088  -0.000057   0.000004
    20  H    0.000214  -0.001044  -0.000162  -0.000125
    21  H   -0.000024  -0.000161  -0.000121  -0.000144
    22  H   -0.000126  -0.000150   0.002595   0.000019
    23  H   -0.002128  -0.000721   0.001063  -0.001806
    24  H   -0.044139   0.001085  -0.000750   0.000146
    25  H    0.625196  -0.001515   0.000054   0.003655
    26  H   -0.001515   0.709914   0.001359  -0.001751
    27  H    0.000054   0.001359   0.654451  -0.043636
    28  H    0.003655  -0.001751  -0.043636   0.614985
 Mulliken charges:
               1
     1  C   -0.379433
     2  C   -0.153599
     3  C   -0.160369
     4  C   -0.231335
     5  C    0.054556
     6  C   -0.230481
     7  C    0.002404
     8  C   -0.226176
     9  C   -0.025152
    10  C   -0.230884
    11  H    0.105991
    12  H    0.111330
    13  H    0.110839
    14  H    0.092781
    15  H    0.092391
    16  H    0.094430
    17  H    0.096090
    18  H    0.086404
    19  H    0.088141
    20  H    0.069212
    21  H    0.091625
    22  H    0.094575
    23  H    0.047089
    24  H    0.074393
    25  H    0.094323
    26  H    0.049345
    27  H    0.080748
    28  H    0.100763
 Sum of Mulliken charges =  -0.00000
 Mulliken charges with hydrogens summed into heavy atoms:
               1
     1  C   -0.051274
     2  C    0.031572
     3  C    0.030151
     4  C   -0.056790
     5  C    0.123768
     6  C   -0.044280
     7  C    0.049493
     8  C   -0.057460
     9  C    0.024193
    10  C   -0.049373
 Electronic spatial extent (au):  <R**2>=           2059.0096
 Charge=             -0.0000 electrons
 Dipole moment (field-independent basis, Debye):
    X=             -0.0129    Y=             -0.0971    Z=             -0.0449  Tot=              0.1077
 Quadrupole moment (field-independent basis, Debye-Ang):
   XX=            -65.5544   YY=            -64.4884   ZZ=            -64.4358
   XY=              0.7499   XZ=             -0.2315   YZ=             -0.4030
 Traceless Quadrupole moment (field-independent basis, Debye-Ang):
   XX=             -0.7282   YY=              0.3378   ZZ=              0.3904
   XY=              0.7499   XZ=             -0.2315   YZ=             -0.4030
 Octapole moment (field-independent basis, Debye-Ang**2):
  XXX=              2.2163  YYY=             -0.3605  ZZZ=             -0.2839  XYY=              3.6115
  XXY=             -0.7585  XXZ=             -1.5539  XZZ=             -2.7096  YZZ=              0.2943
  YYZ=             -0.7381  XYZ=             -0.5369
 Hexadecapole moment (field-independent basis, Debye-Ang**3):
 XXXX=          -2213.4957 YYYY=           -390.0764 ZZZZ=           -269.6890 XXXY=             24.8184
 XXXZ=             -0.1693 YYYX=              2.2528 YYYZ=             -3.2286 ZZZX=              0.7432
 ZZZY=              0.6745 XXYY=           -429.8803 XXZZ=           -409.5714 YYZZ=           -109.1600
 XXYZ=             -5.1311 YYXZ=             -1.4844 ZZXY=              0.5752
 N-N= 5.556164461065D+02 E-N=-2.017133770284D+03  KE= 3.884904716927D+02
 PrsmSu:  requested number of processors reduced to:  13 ShMem   1 Linda.
 Calling FoFJK, ICntrl=      2127 FMM=F ISym2X=0 I1Cent= 0 IOpClX= 0 NMat=1 NMatS=1 NMatT=0.
 ***** Axes restored to original set *****
 -------------------------------------------------------------------
 Center     Atomic                   Forces (Hartrees/Bohr)
 Number     Number              X              Y              Z
 -------------------------------------------------------------------
      1        6          -0.003729195    0.005200056   -0.000939188
      2        6          -0.003143781   -0.005025410    0.000636348
      3        6           0.005402454    0.007596890   -0.001158785
      4        6           0.002403700    0.003616802    0.001450227
      5        6          -0.005967717    0.008238028    0.005277161
      6        6           0.004751642   -0.011480499   -0.002990853
      7        6          -0.005447406   -0.030672586    0.010851931
      8        6           0.013720670    0.012410121   -0.010091837
      9        6           0.003028313   -0.026881194    0.027255189
     10        6          -0.003935098    0.022695811   -0.018896820
     11        1          -0.002772648   -0.000482315    0.000039034
     12        1          -0.001824448   -0.000438706   -0.000114072
     13        1          -0.001829072   -0.000382024    0.000204306
     14        1           0.002106805   -0.000528451   -0.000152088
     15        1           0.002031134   -0.000275165    0.000455325
     16        1          -0.001845483   -0.001252383    0.000149270
     17        1          -0.001521186   -0.001755417   -0.000606626
     18        1          -0.000423364    0.001330676    0.000172291
     19        1           0.000686995    0.001276796    0.000421902
     20        1          -0.001532611   -0.002060436    0.001261975
     21        1          -0.001934049   -0.000966829   -0.003604564
     22        1           0.000220359    0.000795577   -0.000611965
     23        1           0.001058216   -0.000943363   -0.006169905
     24        1           0.001981892    0.001680802    0.001228531
     25        1          -0.006414410    0.003454624   -0.003368403
     26        1          -0.000154715    0.007988154    0.001289301
     27        1          -0.003038286    0.001803883   -0.001507615
     28        1           0.008121289    0.005056559   -0.000480072
 -------------------------------------------------------------------
 Cartesian Forces:  Max     0.030672586 RMS     0.007501366

 GradGradGradGradGradGradGradGradGradGradGradGradGradGradGradGradGradGrad
 Berny optimization.
 FormGI is forming the generalized inverse of G from B-inverse, IUseBI=4.
 Internal  Forces:  Max     0.016120163 RMS     0.003391301
 Search for a local minimum.
 Step number   1 out of a maximum of  168
 All quantities printed in internal units (Hartrees-Bohrs-Radians)
 Mixed Optimization -- RFO/linear search
 Second derivative matrix not updated -- first step.
 ITU=  0
     Eigenvalues ---    0.00300   0.00441   0.00466   0.00525   0.00582
     Eigenvalues ---    0.01882   0.02001   0.02221   0.02751   0.02908
     Eigenvalues ---    0.03066   0.03083   0.03522   0.03679   0.03809
     Eigenvalues ---    0.03831   0.03838   0.03970   0.04695   0.04774
     Eigenvalues ---    0.04891   0.04934   0.05238   0.05302   0.05663
     Eigenvalues ---    0.05722   0.05797   0.06210   0.06299   0.06613
     Eigenvalues ---    0.06777   0.07219   0.07848   0.08005   0.08176
     Eigenvalues ---    0.08917   0.09393   0.11833   0.12020   0.12075
     Eigenvalues ---    0.12473   0.12867   0.12927   0.16000   0.16000
     Eigenvalues ---    0.16000   0.19423   0.21035   0.21892   0.21894
     Eigenvalues ---    0.22013   0.22090   0.24569   0.25686   0.27586
     Eigenvalues ---    0.28945   0.29194   0.29931   0.30107   0.30543
     Eigenvalues ---    0.33747   0.33770   0.33802   0.33947   0.33994
     Eigenvalues ---    0.34010   0.34103   0.34142   0.34251   0.34274
     Eigenvalues ---    0.34279   0.34293   0.34321   0.34330   0.34383
     Eigenvalues ---    0.34750   0.35150   0.35205
 RFO step:  Lambda=-1.73303370D-02 EMin= 2.99857591D-03
 Linear search not attempted -- first point.
 Iteration  1 RMS(Cart)=  0.07182905 RMS(Int)=  0.00292834
 Iteration  2 RMS(Cart)=  0.00394979 RMS(Int)=  0.00092470
 Iteration  3 RMS(Cart)=  0.00000907 RMS(Int)=  0.00092467
 Iteration  4 RMS(Cart)=  0.00000001 RMS(Int)=  0.00092467
 Variable       Old X    -DE/DX   Delta X   Delta X   Delta X     New X
                                 (Linear)    (Quad)   (Total)
    R1        2.86894   0.01028   0.00000   0.03186   0.03186   2.90080
    R2        2.06861   0.00042   0.00000   0.00117   0.00117   2.06979
    R3        2.06792   0.00070   0.00000   0.00195   0.00195   2.06987
    R4        2.06777   0.00076   0.00000   0.00211   0.00211   2.06988
    R5        2.90117   0.00126   0.00000   0.00412   0.00412   2.90529
    R6        2.07313   0.00029   0.00000   0.00080   0.00080   2.07392
    R7        2.07340   0.00021   0.00000   0.00059   0.00059   2.07399
    R8        2.88101   0.00716   0.00000   0.02262   0.02262   2.90363
    R9        2.06909   0.00128   0.00000   0.00355   0.00355   2.07264
   R10        2.07090   0.00058   0.00000   0.00163   0.00163   2.07253
   R11        2.87751   0.00978   0.00000   0.03070   0.03070   2.90821
   R12        2.07419   0.00083   0.00000   0.00233   0.00233   2.07652
   R13        2.07720   0.00039   0.00000   0.00109   0.00109   2.07829
   R14        2.89849   0.01612   0.00000   0.06910   0.06830   2.96679
   R15        2.89929   0.00059   0.00000   0.00449   0.00383   2.90312
   R16        2.07666  -0.00165   0.00000  -0.00464  -0.00464   2.07201
   R17        2.89081  -0.00016   0.00000   0.00227   0.00259   2.89340
   R18        2.06838  -0.00018   0.00000  -0.00049  -0.00049   2.06789
   R19        2.06689   0.00045   0.00000   0.00124   0.00124   2.06813
   R20        2.95318   0.00209   0.00000  -0.00036  -0.00074   2.95244
   R21        2.94859  -0.00133   0.00000  -0.00401  -0.00219   2.94640
   R22        2.05344   0.00409   0.00000   0.01108   0.01108   2.06451
   R23        2.97875   0.00065   0.00000  -0.00650  -0.00697   2.97178
   R24        2.06870   0.00223   0.00000   0.00620   0.00620   2.07491
   R25        2.07157  -0.00413   0.00000  -0.01154  -0.01154   2.06003
   R26        2.96939  -0.00169   0.00000  -0.01422  -0.01404   2.95535
   R27        2.05432   0.00364   0.00000   0.00987   0.00987   2.06418
   R28        2.06082   0.00382   0.00000   0.01047   0.01047   2.07129
   R29        2.07759  -0.00657   0.00000  -0.01852  -0.01852   2.05907
    A1        1.92697   0.00349   0.00000   0.02165   0.02153   1.94850
    A2        1.93298   0.00131   0.00000   0.00646   0.00640   1.93938
    A3        1.93399   0.00125   0.00000   0.00601   0.00596   1.93995
    A4        1.88728  -0.00216   0.00000  -0.01015  -0.01027   1.87701
    A5        1.88793  -0.00219   0.00000  -0.01062  -0.01072   1.87720
    A6        1.89329  -0.00195   0.00000  -0.01472  -0.01471   1.87858
    A7        1.94663   0.00654   0.00000   0.03152   0.03150   1.97812
    A8        1.90426  -0.00067   0.00000   0.00615   0.00631   1.91057
    A9        1.90503  -0.00081   0.00000   0.00533   0.00547   1.91050
   A10        1.92138  -0.00302   0.00000  -0.01805  -0.01836   1.90302
   A11        1.91936  -0.00284   0.00000  -0.01658  -0.01690   1.90247
   A12        1.86527   0.00056   0.00000  -0.00986  -0.01017   1.85511
   A13        1.91788   0.00923   0.00000   0.04555   0.04538   1.96326
   A14        1.90674  -0.00297   0.00000  -0.01168  -0.01190   1.89483
   A15        1.90748  -0.00266   0.00000  -0.00855  -0.00885   1.89863
   A16        1.93097  -0.00212   0.00000  -0.00432  -0.00435   1.92662
   A17        1.91672  -0.00207   0.00000  -0.00290  -0.00302   1.91370
   A18        1.88359   0.00037   0.00000  -0.01950  -0.01970   1.86389
   A19        2.07218  -0.00434   0.00000  -0.01796  -0.01793   2.05425
   A20        1.88269   0.00113   0.00000   0.00406   0.00411   1.88680
   A21        1.89203   0.00101   0.00000   0.00209   0.00211   1.89414
   A22        1.88652   0.00182   0.00000   0.01017   0.01017   1.89669
   A23        1.87206   0.00174   0.00000   0.00838   0.00835   1.88041
   A24        1.84616  -0.00112   0.00000  -0.00594  -0.00599   1.84018
   A25        2.01808   0.00276   0.00000   0.01839   0.01797   2.03605
   A26        2.07762  -0.00063   0.00000  -0.00514  -0.00365   2.07397
   A27        1.84216   0.00089   0.00000   0.01489   0.01423   1.85639
   A28        1.72778  -0.00142   0.00000  -0.00647  -0.00802   1.71976
   A29        1.90077  -0.00085   0.00000  -0.00180  -0.00097   1.89980
   A30        1.89100  -0.00107   0.00000  -0.02345  -0.02362   1.86738
   A31        1.73365   0.00061   0.00000   0.01042   0.00885   1.74250
   A32        1.93538   0.00226   0.00000   0.03279   0.03343   1.96881
   A33        1.98352  -0.00130   0.00000  -0.02052  -0.02061   1.96290
   A34        1.95189   0.00035   0.00000   0.01094   0.01125   1.96313
   A35        1.95123  -0.00056   0.00000  -0.01353  -0.01371   1.93752
   A36        1.90444  -0.00114   0.00000  -0.01676  -0.01675   1.88770
   A37        1.82888  -0.00390   0.00000  -0.04496  -0.04322   1.78566
   A38        1.84188  -0.00735   0.00000  -0.07867  -0.07832   1.76357
   A39        2.07799   0.00051   0.00000  -0.00070  -0.00039   2.07760
   A40        1.45948   0.00143   0.00000   0.04790   0.04425   1.50373
   A41        2.07706   0.00346   0.00000   0.03499   0.03316   2.11022
   A42        2.07285   0.00494   0.00000   0.04277   0.04129   2.11415
   A43        1.40905   0.00506   0.00000   0.03132   0.02854   1.43759
   A44        2.02872   0.00237   0.00000   0.02770   0.02827   2.05699
   A45        2.02369  -0.00620   0.00000  -0.04386  -0.04326   1.98042
   A46        2.04355   0.00133   0.00000   0.00870   0.00873   2.05228
   A47        2.04104  -0.00633   0.00000  -0.04759  -0.04724   1.99380
   A48        1.88734   0.00329   0.00000   0.02083   0.02065   1.90800
   A49        1.75024  -0.00186   0.00000  -0.01004  -0.00723   1.74301
   A50        1.90869  -0.00707   0.00000  -0.08848  -0.08983   1.81885
   A51        2.10510  -0.00111   0.00000  -0.01713  -0.01803   2.08707
   A52        1.44557   0.00195   0.00000   0.05207   0.04924   1.49481
   A53        2.05149   0.00361   0.00000   0.04704   0.04529   2.09677
   A54        2.07361   0.00503   0.00000   0.03965   0.03621   2.10982
   A55        1.41307   0.00674   0.00000   0.03474   0.03120   1.44427
   A56        2.04309   0.00234   0.00000   0.02506   0.02544   2.06853
   A57        2.00916  -0.00729   0.00000  -0.04184  -0.04108   1.96807
   A58        2.06009   0.00203   0.00000   0.01926   0.01958   2.07966
   A59        2.02184  -0.00819   0.00000  -0.06060  -0.06029   1.96154
   A60        1.88670   0.00377   0.00000   0.01996   0.01979   1.90648
    D1       -3.14122  -0.00002   0.00000   0.00007   0.00008  -3.14114
    D2        1.01560  -0.00003   0.00000  -0.00198  -0.00208   1.01352
    D3       -1.01687   0.00013   0.00000   0.00339   0.00349  -1.01338
    D4        1.05210  -0.00043   0.00000  -0.00547  -0.00549   1.04661
    D5       -1.07426  -0.00044   0.00000  -0.00752  -0.00765  -1.08191
    D6       -3.10673  -0.00028   0.00000  -0.00215  -0.00209  -3.10882
    D7       -1.04990   0.00033   0.00000   0.00479   0.00483  -1.04507
    D8        3.10692   0.00032   0.00000   0.00273   0.00267   3.10959
    D9        1.07445   0.00047   0.00000   0.00811   0.00823   1.08269
   D10       -3.11336  -0.00011   0.00000  -0.00271  -0.00273  -3.11609
   D11        1.04832  -0.00143   0.00000  -0.01869  -0.01861   1.02971
   D12       -1.00898   0.00139   0.00000   0.01661   0.01657  -0.99242
   D13       -0.99693   0.00134   0.00000   0.01377   0.01357  -0.98336
   D14       -3.11843   0.00002   0.00000  -0.00221  -0.00232  -3.12075
   D15        1.10745   0.00284   0.00000   0.03309   0.03286   1.14031
   D16        1.05379  -0.00150   0.00000  -0.01908  -0.01893   1.03486
   D17       -1.06772  -0.00282   0.00000  -0.03506  -0.03481  -1.10253
   D18       -3.12502   0.00000   0.00000   0.00024   0.00037  -3.12465
   D19       -3.09299  -0.00002   0.00000  -0.00544  -0.00543  -3.09843
   D20        1.03852  -0.00024   0.00000  -0.00943  -0.00943   1.02909
   D21       -0.95294  -0.00002   0.00000  -0.00561  -0.00559  -0.95854
   D22       -0.98605   0.00094   0.00000   0.00694   0.00698  -0.97907
   D23       -3.13772   0.00072   0.00000   0.00295   0.00298  -3.13473
   D24        1.15400   0.00094   0.00000   0.00677   0.00682   1.16082
   D25        1.09140  -0.00123   0.00000  -0.02167  -0.02173   1.06968
   D26       -1.06027  -0.00145   0.00000  -0.02567  -0.02572  -1.08599
   D27       -3.05173  -0.00122   0.00000  -0.02185  -0.02189  -3.07362
   D28        1.28884  -0.00111   0.00000  -0.03455  -0.03536   1.25348
   D29       -0.76520  -0.00100   0.00000  -0.03727  -0.03675  -0.80195
   D30       -2.89244   0.00011   0.00000  -0.01500  -0.01470  -2.90714
   D31       -2.84457  -0.00124   0.00000  -0.03362  -0.03446  -2.87903
   D32        1.38457  -0.00113   0.00000  -0.03634  -0.03585   1.34872
   D33       -0.74267  -0.00001   0.00000  -0.01406  -0.01380  -0.75647
   D34       -0.86114  -0.00081   0.00000  -0.03146  -0.03225  -0.89338
   D35       -2.91518  -0.00069   0.00000  -0.03418  -0.03363  -2.94882
   D36        1.24077   0.00042   0.00000  -0.01190  -0.01158   1.22919
   D37       -2.38304   0.00214   0.00000   0.04916   0.05011  -2.33293
   D38        1.84443   0.00056   0.00000   0.01863   0.01850   1.86293
   D39       -0.30846   0.00128   0.00000   0.03064   0.03054  -0.27792
   D40       -0.14223   0.00190   0.00000   0.04865   0.05005  -0.09218
   D41       -2.19795   0.00032   0.00000   0.01812   0.01844  -2.17951
   D42        1.93235   0.00105   0.00000   0.03013   0.03048   1.96282
   D43        1.83036  -0.00018   0.00000   0.01936   0.02030   1.85066
   D44       -0.22536  -0.00176   0.00000  -0.01118  -0.01131  -0.23667
   D45       -2.37825  -0.00103   0.00000   0.00083   0.00073  -2.37752
   D46        3.09992  -0.00095   0.00000  -0.03104  -0.03143   3.06849
   D47        1.59999  -0.00130   0.00000  -0.06954  -0.06685   1.53313
   D48       -0.90043   0.00147   0.00000   0.01175   0.01073  -0.88971
   D49        0.89962  -0.00299   0.00000  -0.04652  -0.04601   0.85361
   D50       -0.60031  -0.00334   0.00000  -0.08502  -0.08144  -0.68175
   D51       -3.10073  -0.00057   0.00000  -0.00373  -0.00386  -3.10459
   D52       -1.08063  -0.00110   0.00000  -0.03433  -0.03448  -1.11511
   D53       -2.58057  -0.00145   0.00000  -0.07283  -0.06990  -2.65047
   D54        1.20220   0.00132   0.00000   0.00846   0.00768   1.20988
   D55       -0.66026  -0.00049   0.00000  -0.03986  -0.04065  -0.70091
   D56        0.86464  -0.00184   0.00000  -0.02045  -0.02205   0.84259
   D57       -3.03548  -0.00194   0.00000  -0.04304  -0.04359  -3.07907
   D58        1.38303   0.00256   0.00000   0.00753   0.00754   1.39057
   D59        2.90792   0.00120   0.00000   0.02693   0.02615   2.93407
   D60       -0.99220   0.00110   0.00000   0.00435   0.00461  -0.98759
   D61       -2.75868   0.00092   0.00000  -0.01621  -0.01604  -2.77472
   D62       -1.23379  -0.00044   0.00000   0.00320   0.00256  -1.23122
   D63        1.14928  -0.00054   0.00000  -0.01939  -0.01898   1.13030
   D64        1.10828   0.00217   0.00000   0.03124   0.03140   1.13969
   D65       -0.91137  -0.00182   0.00000   0.00530   0.00490  -0.90647
   D66        3.12487  -0.00287   0.00000  -0.00956  -0.01011   3.11475
   D67       -0.71434   0.00924   0.00000   0.09888   0.10034  -0.61400
   D68       -2.73399   0.00525   0.00000   0.07293   0.07383  -2.66016
   D69        1.30225   0.00421   0.00000   0.05807   0.05882   1.36107
   D70       -2.79918   0.00206   0.00000   0.01539   0.01551  -2.78367
   D71        1.46435  -0.00193   0.00000  -0.01055  -0.01100   1.45336
   D72       -0.78259  -0.00298   0.00000  -0.02541  -0.02601  -0.80861
   D73       -1.09200  -0.00548   0.00000  -0.06683  -0.06756  -1.15957
   D74        0.94910   0.00031   0.00000  -0.02602  -0.02599   0.92310
   D75       -3.08845   0.00086   0.00000  -0.01366  -0.01340  -3.10185
   D76        0.71651  -0.00881   0.00000  -0.09740  -0.09920   0.61730
   D77        2.75761  -0.00302   0.00000  -0.05659  -0.05764   2.69997
   D78       -1.27994  -0.00247   0.00000  -0.04423  -0.04504  -1.32498
   D79        2.80544  -0.00309   0.00000  -0.02187  -0.02194   2.78350
   D80       -1.43665   0.00270   0.00000   0.01895   0.01963  -1.41702
   D81        0.80899   0.00325   0.00000   0.03130   0.03223   0.84121
   D82       -1.18338  -0.00235   0.00000  -0.01438  -0.01405  -1.19743
   D83        0.70970  -0.00912   0.00000  -0.09604  -0.09738   0.61231
   D84        2.78357  -0.00186   0.00000  -0.01684  -0.01684   2.76673
   D85        0.82050   0.00286   0.00000   0.03254   0.03301   0.85350
   D86        2.71357  -0.00392   0.00000  -0.04911  -0.05032   2.66325
   D87       -1.49574   0.00335   0.00000   0.03009   0.03022  -1.46552
   D88        3.10172   0.00250   0.00000   0.02218   0.02307   3.12479
   D89       -1.28839  -0.00428   0.00000  -0.05947  -0.06026  -1.34865
   D90        0.78549   0.00299   0.00000   0.01973   0.02028   0.80576
   D91        1.00729   0.00757   0.00000   0.10899   0.10903   1.11633
   D92       -1.01598   0.00127   0.00000   0.06107   0.06069  -0.95528
   D93        2.99017   0.00224   0.00000   0.07611   0.07534   3.06551
   D94       -0.71048   0.00835   0.00000   0.09548   0.09734  -0.61314
   D95       -2.73375   0.00206   0.00000   0.04756   0.04899  -2.68475
   D96        1.27240   0.00302   0.00000   0.06260   0.06364   1.33605
   D97       -2.76224   0.00239   0.00000   0.00674   0.00648  -2.75576
   D98        1.49767  -0.00391   0.00000  -0.04119  -0.04186   1.45581
   D99       -0.77937  -0.00294   0.00000  -0.02614  -0.02721  -0.80657
         Item               Value     Threshold  Converged?
 Maximum Force            0.016120     0.000450     NO 
 RMS     Force            0.003391     0.000300     NO 
 Maximum Displacement     0.478405     0.001800     NO 
 RMS     Displacement     0.072665     0.001200     NO 
 Predicted change in Energy=-1.065791D-02
 GradGradGradGradGradGradGradGradGradGradGradGradGradGradGradGradGradGrad

                          Input orientation:                          
 ---------------------------------------------------------------------
 Center     Atomic      Atomic             Coordinates (Angstroms)
 Number     Number       Type             X           Y           Z
 ---------------------------------------------------------------------
      1          6           0        0.845660   -0.125203    0.019067
      2          6           0        2.380370   -0.138452    0.047866
      3          6           0        2.972721   -1.534039    0.303008
      4          6           0        4.507984   -1.518720    0.363562
      5          6           0        5.229772   -2.864209    0.556090
      6          6           0        5.227636   -3.846266   -0.668789
      7          6           0        4.846171   -5.148421    0.040580
      8          6           0        5.666876   -5.057983    1.366943
      9          6           0        4.712606   -3.835583    1.628039
     10          6           0        3.624045   -4.680020    0.887935
     11          1           0        0.453780    0.880925   -0.164735
     12          1           0        0.430074   -0.472602    0.971088
     13          1           0        0.459511   -0.779424   -0.770010
     14          1           0        2.737567    0.549505    0.824766
     15          1           0        2.767333    0.245324   -0.904761
     16          1           0        2.628313   -2.209773   -0.489282
     17          1           0        2.570307   -1.921315    1.246889
     18          1           0        4.811104   -0.838141    1.171275
     19          1           0        4.889666   -1.063096   -0.561775
     20          1           0        6.267596   -2.623674    0.815505
     21          1           0        6.201598   -3.909201   -1.163645
     22          1           0        4.479945   -3.575419   -1.420670
     23          1           0        4.811668   -6.075842   -0.535825
     24          1           0        6.743407   -4.855595    1.291369
     25          1           0        5.504887   -5.903090    2.036211
     26          1           0        4.547313   -3.476608    2.646358
     27          1           0        2.801855   -4.163449    0.379454
     28          1           0        3.216815   -5.472918    1.514618
 ---------------------------------------------------------------------
                    Distance matrix (angstroms):
                    1          2          3          4          5
     1  C    0.000000
     2  C    1.535037   0.000000
     3  C    2.567066   1.537413   0.000000
     4  C    3.933596   2.555688   1.536533   0.000000
     5  C    5.197210   3.975819   2.632050   1.538957   0.000000
     6  C    5.789746   4.729524   3.372747   2.645963   1.569958
     7  C    6.421625   5.583907   4.079515   3.659702   2.372872
     8  C    7.028030   6.061589   4.561645   3.856966   2.379324
     9  C    5.595443   4.648123   3.174904   2.647381   1.536263
    10  C    5.405618   4.783125   3.265511   3.324174   2.446559
    11  H    1.095284   2.189995   3.520780   4.740671   6.111932
    12  H    1.095327   2.183495   2.835143   4.253563   5.378580
    13  H    1.095335   2.183911   2.834966   4.268685   5.372175
    14  H    2.164184   1.097474   2.160714   2.761275   4.235177
    15  H    2.164157   1.097507   2.160329   2.783947   4.226924
    16  H    2.789570   2.154153   1.096794   2.176709   2.879007
    17  H    2.776323   2.156926   1.096736   2.167242   2.904997
    18  H    4.190538   2.767685   2.148910   1.098849   2.158399
    19  H    4.191778   2.742844   2.155067   1.099783   2.146928
    20  H    6.022795   4.677192   3.508014   2.126361   1.096463
    21  H    6.663596   5.503461   4.268268   3.303799   2.234712
    22  H    5.213910   4.286905   3.067576   2.722918   2.230614
    23  H    7.172672   6.442399   4.971251   4.654942   3.417846
    24  H    7.666732   6.544756   5.121295   4.122218   2.607171
    25  H    7.691634   6.851800   5.338957   4.797319   3.391348
    26  H    5.642411   4.753008   3.426981   3.007661   2.282543
    27  H    4.501556   4.060566   2.636064   3.147335   2.759349
    28  H    6.037972   5.595313   4.128238   4.315985   3.431637
                    6          7          8          9         10
     6  C    0.000000
     7  C    1.531120   0.000000
     8  C    2.409439   1.562362   0.000000
     9  C    2.353889   2.064319   1.572598   0.000000
    10  C    2.385380   1.559167   2.132009   1.563904   0.000000
    11  H    6.737217   7.462457   8.049411   6.602808   6.487126
    12  H    6.089943   6.498542   6.971838   5.484643   5.283062
    13  H    5.670166   6.244035   7.070310   5.760170   5.289396
    14  H    5.268202   6.125971   6.349703   4.875964   5.304504
    15  H    4.780155   5.857279   6.457015   5.181985   5.311001
    16  H    3.076818   3.719583   4.559686   3.386826   2.998388
[...]
 04913,0.00005746,0.00010190,0.00017375,-0.00050810,0.00006267,0.000019
 58,-0.00012998,0.00023254,-0.00006942,-0.00009097,0.00124367,-0.119209
 72,0.00739849,0.11745714,0.00001637,-0.00007493,0.00000415,0.00019614,
 0.00011057,-0.00002763,-0.00007638,-0.00001217,0.00030672,0.00042986,0
 .00090466,-0.00024031,-0.00135248,-0.00109622,0.00013662,-0.18306567,0
 .04660921,-0.12048499,0.00501820,-0.00147417,0.00577937,0.00012371,-0.
 00110297,0.00172275,-0.00022842,0.00007707,0.00054032,0.00166238,-0.00
 045452,0.00010846,0.00002306,-0.00000054,0.00000568,-0.00001126,0.0000
 0144,0.00000832,0.00000994,0.00000667,0.00000293,-0.00003613,0.0000469
 9,-0.00000949,-0.00000804,-0.00003130,0.00001276,-0.00018373,0.0006081
 5,0.00041930,-0.00004102,0.00002542,0.00011661,-0.00000542,-0.00018367
 ,0.00011603,-0.00011490,-0.00032589,-0.00000835,0.00075374,-0.00034990
 ,-0.00074160,-0.02045749,0.00740664,-0.01846732,0.19609449,0.00002367,
 0.00000892,0.00000736,0.00005854,-0.00000086,0.00012681,0.00033812,-0.
 00029637,-0.00018264,-0.00010020,0.00144105,0.00047435,-0.01673621,0.0
 0476209,-0.01348407,0.04534454,-0.06054196,0.04101641,0.02124248,-0.00
 549835,0.02011058,-0.00199732,-0.00591389,0.00290443,-0.00036353,-0.00
 197346,-0.00122229,0.00149253,0.00113837,-0.00162572,-0.00001353,0.000
 00328,-0.00000589,-0.00000575,-0.00000200,0.00000578,0.00000047,-0.000
 00372,-0.00000733,-0.00003366,0.00003636,0.00000264,-0.00000629,-0.000
 02068,-0.00000089,0.00069390,-0.00019864,-0.00019598,-0.00006557,0.000
 06449,0.00005227,-0.00012832,0.00029989,0.00025911,-0.00016699,-0.0001
 3331,0.00029413,-0.00014522,-0.00178493,-0.00345522,0.00118539,-0.0002
 8248,0.00091121,-0.05107650,0.06698024,0.00005332,-0.00002452,-0.00002
 722,0.00028034,0.00002943,0.00040523,-0.00032715,-0.00051017,-0.000523
 04,-0.00080661,0.00123786,0.00112555,-0.01483339,0.00549282,-0.0127568
 4,-0.11886697,0.04044736,-0.15491714,-0.00822442,0.00270418,-0.0097138
 9,0.00125382,0.00282592,-0.00084647,-0.00092347,-0.00139637,-0.0010787
 8,-0.00170254,0.00051138,0.00087037,-0.00001470,0.00002306,0.00000222,
 -0.00000238,-0.00000822,0.00000740,0.00002021,-0.00001698,0.00001704,-
 0.00009015,0.00020861,-0.00000612,-0.00000850,0.00000156,-0.00003943,0
 .00097655,-0.00003900,0.00049713,-0.00003707,0.00016332,0.00021805,0.0
 0002518,0.00024335,0.00026667,0.00008308,-0.00057456,0.00024814,0.0001
 1195,-0.00106653,-0.00263116,0.01115487,-0.00419877,0.01042491,0.13075
 686,-0.04625435,0.16948262,0.00000172,-0.00001091,0.00000995,0.0000717
 6,0.00002055,-0.00002216,-0.00012484,0.00001084,0.00010598,-0.00026267
 ,-0.00012542,-0.00047687,0.00092577,-0.00143389,0.00111697,-0.00110200
 ,-0.00482069,-0.00462001,-0.05385821,-0.01355645,-0.01033091,0.0013867
 4,-0.01509857,-0.00316573,-0.00235329,0.00081772,0.00065705,0.00685946
 ,0.01777626,0.00733813,0.00000485,0.00000076,-0.00000157,0.00000612,-0
 .00000226,-0.00000462,0.00000146,-0.00000106,0.00000052,-0.00000791,0.
 00001626,0.00000471,-0.00000546,0.00002774,-0.00000923,0.00001088,-0.0
 0000387,0.00003377,0.00008412,-0.00002679,-0.00010199,0.00011272,-0.00
 019501,0.00002209,0.00002350,0.00001971,0.00000239,0.00008531,0.000010
 09,-0.00007894,0.00002355,0.00032675,-0.00017348,0.00013729,0.00009259
 ,0.00023461,0.04485800,-0.00002200,-0.00005769,-0.00000238,0.00005582,
 0.00009002,-0.00001433,-0.00016872,-0.00007699,-0.00000853,-0.00055071
 ,-0.00032902,-0.00111480,-0.00057740,-0.00263007,0.00192108,-0.0000768
 4,-0.01385940,-0.01486728,-0.01365504,-0.23781921,-0.12033961,0.000292
 66,0.00371326,0.00322216,0.00030812,-0.00111775,-0.00097203,-0.0021641
 4,-0.00181288,0.00122844,0.00003888,-0.00001869,0.00000675,0.00000521,
 0.00000783,-0.00000525,0.00001117,0.00001072,0.00001234,-0.00000110,0.
 00000572,0.00000771,-0.00000287,-0.00000814,0.00000319,0.00002441,0.00
 002023,0.00003859,0.00002190,0.00001115,-0.00001059,0.00031354,-0.0004
 5434,0.00003657,-0.00000729,0.00003576,0.00000961,-0.00005908,-0.00054
 398,-0.00045173,-0.00053595,0.00057616,0.00026734,0.00056398,0.0002997
 9,0.00031821,0.01633344,0.25307746,-0.00000353,0.00000035,-0.00001484,
 -0.00005342,0.00000493,0.00003161,0.00010688,0.00003093,-0.00010121,0.
 00027966,0.00030797,0.00094801,0.00097717,0.00380889,-0.00225151,0.000
 69639,0.01389436,0.01161731,-0.01035250,-0.12088558,-0.12527419,0.0036
 5345,-0.01511083,-0.00616156,0.00033933,-0.00270040,-0.00779326,-0.004
 46005,-0.00845450,-0.00609433,0.00000180,-0.00000582,0.00000261,-0.000
 00800,0.00000249,0.00000425,-0.00000070,0.00000388,0.00000342,0.000005
 98,-0.00000675,-0.00000691,0.00000669,-0.00002927,0.00001137,0.0000030
 0,-0.00001259,-0.00001421,-0.00010242,0.00001765,0.00006560,-0.0002304
 0,0.00041313,0.00007567,0.00003938,-0.00015347,0.00007283,0.00006221,0
 .00024187,0.00045802,-0.00000258,-0.00095391,0.00031485,-0.00040763,-0
 .00082950,0.00022378,0.00942241,0.13218958,0.13298417,0.00000571,-0.00
 002276,0.00000580,0.00014233,0.00001461,-0.00000425,-0.00013430,-0.000
 22303,0.00004453,0.00052363,0.00021351,0.00006315,0.00016626,-0.001520
 64,0.00079492,0.00054536,-0.00078523,0.00061241,-0.00956012,-0.0001662
 8,0.00498395,-0.29029998,-0.04721950,0.03412237,-0.01023254,-0.0052266
 9,-0.00089629,-0.00595438,0.00399008,-0.00356778,0.00000048,0.00001783
 ,-0.00000256,0.00001004,-0.00000912,-0.00001160,0.00000471,-0.00000715
 ,0.00001121,-0.00000985,0.00003600,0.00001237,-0.00000771,0.00004472,-
 0.00002131,0.00003334,0.00002679,0.00011355,0.00009758,-0.00005563,-0.
 00011726,-0.00001158,0.00001599,0.00002029,-0.00001943,0.00008844,-0.0
 0004199,0.00092156,0.00098591,-0.00035890,0.00031549,0.00054434,-0.000
 70913,0.00024041,-0.00004183,-0.00006353,-0.00033192,-0.00002426,-0.00
 037432,0.31815409,-0.00000140,0.00001718,-0.00000204,-0.00005261,-0.00
 000589,0.00001833,0.00000618,0.00016939,-0.00003651,-0.00022460,0.0000
 5835,-0.00023300,0.00186328,0.00197589,-0.00134358,0.00076948,0.000301
 98,0.00043576,-0.00268483,-0.00304680,0.00337731,-0.04871720,-0.059818
 40,0.00679232,0.01904946,0.00602810,-0.00071044,0.00250977,-0.00184548
 ,0.00054184,-0.00000851,0.00000119,-0.00000076,-0.00000470,0.00000024,
 0.00000301,-0.00000103,-0.00000065,-0.00000149,0.00000216,0.00000010,-
 0.00000198,0.00000177,-0.00001313,0.00000690,0.00000337,-0.00000164,0.
 00000840,-0.00007276,0.00002104,0.00001683,0.00000306,0.00002230,0.000
 00307,-0.00003209,0.00000649,0.00003505,-0.00059399,-0.00042844,-0.000
 04644,0.00005648,0.00026025,-0.00002853,-0.00006429,-0.00007376,-0.000
 13590,-0.00055222,-0.00002153,-0.00017492,0.04966646,0.05831206,-0.000
 00162,-0.00000493,0.00000004,0.00000788,0.00001065,0.00000157,0.000047
 93,0.00004628,-0.00002203,-0.00012478,-0.00000350,-0.00012176,-0.00063
 849,0.00125192,0.00010235,-0.00022732,-0.00166527,0.00213260,-0.020842
 55,-0.00353161,0.00733964,0.03480026,0.00677732,-0.05568994,0.00680320
 ,0.00517031,-0.00250378,-0.00228996,0.00034405,-0.00209003,0.00000368,
 -0.00000011,0.00000074,0.00000010,-0.00000012,-0.00000174,0.00000059,-
 0.00000021,0.00000257,0.00000116,0.00000333,-0.00000123,-0.00000124,0.
 00000285,0.00000057,-0.00002262,-0.00001998,0.00002647,-0.00002878,-0.
 00000710,-0.00003585,0.00002245,-0.00001756,-0.00001912,0.00001061,-0.
 00001620,-0.00000603,-0.00047745,0.00010439,0.00032932,0.00055881,0.00
 009349,-0.00028299,0.00023033,-0.00027817,0.00001316,-0.00057161,-0.00
 011230,-0.00032661,-0.03525334,-0.01100710,0.05128826,0.00000555,-0.00
 000556,0.00000236,0.00001062,0.00000734,-0.00001253,0.00013366,-0.0001
 6281,0.00003407,0.00070930,0.00051323,-0.00066768,-0.00256680,0.000831
 76,-0.00051954,-0.00233527,0.00095852,-0.00133088,0.00102243,0.0111798
 8,-0.00569987,-0.05766818,-0.03305638,0.02699858,0.00099490,0.00812560
 ,-0.01029467,0.00065532,0.00224701,-0.00178247,-0.00000105,0.00000044,
 0.00000028,-0.00000473,0.00000047,0.00000301,-0.00000113,0.00000018,-0
 .00000190,0.00000151,-0.00000287,-0.00000168,-0.00000514,-0.00000733,0
 .00001110,0.00000454,-0.00000562,-0.00002231,-0.00000886,0.00000488,0.
 00002449,-0.00001303,0.00000141,0.00002597,-0.00014280,0.00029752,0.00
 003374,0.00051945,0.00033664,0.00012696,0.00016377,-0.00008959,-0.0002
 5276,0.00050497,0.00076589,-0.00049586,0.00075236,-0.00029104,0.000345
 78,-0.00313694,-0.02295744,0.01879781,0.06021177,-0.00001790,-0.000074
 19,-0.00000196,0.00014068,0.00010205,0.00001301,-0.00023834,-0.0002142
 7,0.00000541,-0.00076628,-0.00008730,0.00172534,0.00427590,-0.00404680
 ,-0.00090498,-0.00095578,0.00002635,-0.00190217,0.00034948,0.00598194,
 -0.00563222,-0.03037155,-0.19945308,0.13055722,-0.00413589,-0.01714836
 ,0.01718889,-0.00160152,-0.00053868,-0.00101775,0.00004479,-0.00001829
 ,0.00000589,0.00001435,0.00000873,-0.00000964,0.00000629,0.00000836,0.
 00000701,-0.00000829,0.00000040,-0.00000317,-0.00000052,0.00001556,-0.
 00001783,0.00005673,0.00000147,0.00004081,0.00004388,0.00002490,-0.000
 04649,-0.00002880,0.00002665,-0.00006127,0.00029278,-0.00065768,0.0000
 7307,0.00024141,0.00019315,-0.00030174,-0.00005772,-0.00004615,0.00003
 285,0.00005025,0.00064790,-0.00025501,0.00068065,0.00028840,0.00057403
 ,-0.00011086,-0.00345387,0.00278808,0.03194582,0.21645995,0.00000757,0
 .00000540,-0.00001072,0.00001693,-0.00001123,0.00005074,-0.00013791,-0
 .00004635,-0.00007982,-0.00007733,-0.00038989,0.00091023,0.00151799,-0
 .00267778,-0.00090675,-0.00501127,-0.00008518,-0.00396454,0.00415267,0
 .02249965,-0.01531840,0.02492823,0.13041658,-0.14587948,-0.00117175,-0
 .01030601,0.00812260,0.00135915,-0.00096309,-0.00092657,-0.00000693,0.
 00000546,0.00000018,-0.00000067,-0.00000170,0.00000507,0.00000415,-0.0
 0000184,0.00000091,-0.00000781,0.00001852,0.00000415,0.00000312,-0.000
 00755,-0.00000886,0.00008567,0.00002007,0.00003699,-0.00001249,0.00002
 571,0.00003445,-0.00006963,0.00013354,0.00002217,0.00008052,-0.0003137
 5,0.00009814,0.00017432,-0.00009573,-0.00012590,0.00001520,-0.00027559
 ,0.00015961,0.00038275,0.00192778,-0.00081519,0.00085569,-0.00071389,0
 .00086987,0.00010884,0.00237084,-0.00204635,-0.02573667,-0.14166790,0.
 15868706,0.00000094,-0.00001445,-0.00000932,0.00003213,0.00002692,0.00
 005119,0.00006740,-0.00004151,-0.00015456,0.00012729,0.00020071,-0.000
 18492,-0.00083617,0.00429685,0.00578996,0.00064506,-0.00086794,0.00130
 099,-0.00243786,-0.00073736,-0.00065267,0.00120632,-0.00006376,0.01537
 873,-0.05466779,0.00819583,0.02026583,0.00690662,-0.00335615,-0.018269
 51,0.00001011,-0.00000353,0.00000473,-0.00000622,0.00000065,-0.0000015
 8,0.00000211,0.00000009,0.00000938,0.00000212,0.00002162,-0.00000448,0
 .00000341,-0.00001124,0.00000779,-0.00001971,-0.00002980,0.00010653,-0
 .00009325,-0.00000158,-0.00005578,0.00006822,-0.00016033,-0.00012056,-
 0.00005976,-0.00004898,-0.00001896,-0.00003200,0.00023603,-0.00032363,
 0.00015121,0.00020292,0.00021095,-0.00001454,0.00016137,0.00032650,0.0
 0212145,-0.00030198,-0.00010314,-0.00033425,0.00039287,0.00061863,0.00
 075443,-0.00063897,-0.00080977,0.04582662,0.00000217,-0.00002236,-0.00
 000542,0.00007998,0.00003880,-0.00000067,0.00010769,-0.00005651,-0.000
 07650,0.00013497,0.00143319,-0.00041147,-0.00011714,0.00992490,0.01835
 722,-0.00164579,-0.00259754,0.00371171,-0.00029916,-0.00682298,-0.0037
 9900,-0.00302793,-0.00351655,-0.01671812,0.00847108,-0.08228196,-0.088
 73461,0.00426232,-0.00441966,-0.00880827,0.00000839,0.00000128,0.00000
 223,-0.00000138,-0.00000201,-0.00000183,0.00000097,-0.00000007,0.00000
 675,-0.00000140,0.00000612,0.00000159,-0.00001635,0.00000863,0.0000010
 6,-0.00004506,-0.00000155,0.00003674,0.00005834,-0.00004301,0.00005662
 ,-0.00000624,-0.00022575,-0.00035901,-0.00013208,0.00000496,-0.0002795
 0,-0.00011052,0.00030448,-0.00082594,0.00012636,0.00066490,0.00080288,
 -0.00004616,0.00054038,0.00054393,0.00010968,0.00042982,-0.00254536,0.
 00040431,-0.00024227,-0.00021701,-0.00043346,0.00089158,0.00071970,-0.
 00778182,0.08555634,-0.00000719,0.00003449,-0.00002318,-0.00013479,-0.
 00003873,0.00007476,0.00006124,0.00034825,-0.00021682,-0.00002753,-0.0
 0078761,0.00020584,-0.00040427,-0.01007685,-0.01336878,0.00141573,0.00
 110019,-0.00178421,-0.00031601,-0.00181329,-0.00218892,-0.00103636,0.0
 0195301,0.00146734,0.02042390,-0.08871004,-0.27810406,0.00328851,0.000
 87267,-0.00353948,-0.00000975,0.00000011,0.00000326,-0.00002061,-0.000
 00365,0.00000545,0.00001174,0.00000158,0.00001789,0.00000459,0.0000613
 9,0.00000773,0.00002404,-0.00005674,0.00002700,0.00011200,-0.00004364,
 0.00020649,-0.00034674,-0.00006480,-0.00000291,-0.00006423,0.00085163,
 0.00021489,0.00001188,0.00016435,0.00027923,0.00055106,0.00022019,0.00
 027502,-0.00017946,-0.00045044,-0.00082077,0.00010708,-0.00030603,-0.0
 0055198,0.00036767,-0.00011318,-0.00009586,0.00010701,-0.00013928,-0.0
 0007192,0.00024900,-0.00060960,0.00025171,-0.02371540,0.09817653,0.297
 59046,0.00009033,-0.00000137,-0.00000140,0.00057285,0.00013014,0.00003
 985,-0.00084497,0.00115850,-0.00013022,-0.00054299,-0.00043875,0.00019
 961,0.00076591,0.00065791,-0.00090032,0.00083547,0.00118258,-0.0011007
 5,-0.01090863,0.00445058,-0.00939006,-0.00843474,-0.00162429,0.0011396
 1,-0.00965309,0.00939009,-0.00221392,-0.20603844,0.09544140,-0.0857945
 6,-0.00004116,0.00002434,-0.00000451,0.00000017,-0.00001743,0.00001070
 ,0.00000393,-0.00001760,-0.00000205,-0.00006212,0.00019534,0.00002728,
 -0.00003982,0.00018520,-0.00007678,0.00023766,0.00018139,0.00061290,0.
 00035854,0.00045188,-0.00066365,0.00009046,0.00006211,0.00002937,0.000
 19644,-0.00007499,0.00002543,0.00013829,0.00005414,0.00000400,0.000378
 73,0.00000106,0.00014680,0.00016964,-0.00054831,0.00086647,-0.00034357
 ,0.00018041,0.00029654,-0.00164684,0.00131147,-0.00115002,0.00036004,0
 .00022964,-0.00016497,-0.00028928,-0.00022829,-0.00020988,0.22604946,0
 .00005638,0.00005045,0.00000961,0.00012988,-0.00035599,0.00003814,0.00
 021572,-0.00241375,0.00018768,-0.00029291,0.00011152,0.00004738,0.0011
 4720,0.00139600,-0.00049648,-0.00120143,0.00032549,0.00064131,0.003496
 81,-0.00486532,0.00653113,-0.00058325,-0.00045574,-0.00112272,-0.01134
 562,0.01101625,-0.00622422,0.09836832,-0.11042922,0.05412198,-0.000038
 81,0.00001715,-0.00000719,0.00000215,-0.00000845,0.00001285,0.00000218
 ,-0.00000956,-0.00001426,-0.00003055,0.00006113,0.00000701,-0.00003536
 ,0.00006276,-0.00001974,0.00013431,-0.00085867,0.00028024,0.00019394,-
 0.00143455,-0.00010608,0.00009104,0.00005063,0.00005284,0.00010224,-0.
 00001023,0.00002110,0.00013281,0.00005334,-0.00013664,-0.00003453,-0.0
 0017650,-0.00011057,-0.00014992,0.00062543,-0.00017288,0.00060128,-0.0
 0027161,-0.00004069,-0.00050573,0.00154235,0.00068480,-0.00029071,0.00
 030961,-0.00042696,-0.00041180,-0.00004376,-0.00026246,-0.10721539,0.1
 1558925,0.00001741,-0.00001478,0.00005753,0.00029578,0.00010036,-0.000
 25959,-0.00040266,0.00096220,0.00099710,-0.00036900,-0.00017077,0.0001
 0792,0.00101835,0.00058504,0.00016407,-0.00050508,-0.00139224,0.001866
 00,0.01273687,-0.00819402,0.01051280,0.00045255,-0.00098504,-0.0006573
 9,-0.00516675,0.00940030,-0.00477650,-0.08702511,0.05337089,-0.0989703
 3,-0.00000263,0.00001916,-0.00001758,0.00002473,-0.00002018,-0.0000255
 9,-0.00000761,-0.00000652,-0.00000279,-0.00000836,0.00002609,0.0000296
 8,-0.00003886,0.00016496,-0.00004039,-0.00011929,0.00057525,-0.0000792
 8,0.00027724,-0.00037157,-0.00059825,-0.00003965,0.00003039,-0.0000274
 5,0.00018409,-0.00012047,-0.00001472,-0.00005200,-0.00002522,-0.000104
 81,-0.00023128,-0.00017430,0.00001453,-0.00031047,0.00011043,-0.000173
 20,0.00031110,-0.00022419,-0.00004823,0.00027768,0.00059644,0.00189380
 ,0.00027125,-0.00039223,0.00014418,-0.00080410,-0.00003586,-0.00034379
 ,0.09390669,-0.06211538,0.09766326,0.00002633,-0.00002451,-0.00000658,
 0.00025386,0.00007277,0.00008629,-0.00030651,0.00016986,-0.00026491,-0
 .00027176,0.00007027,-0.00001886,-0.00358280,-0.00025698,-0.00049432,-
 0.00370434,0.00037746,0.00047588,-0.00569537,-0.01429323,0.00745797,0.
 00011698,-0.00230174,0.00204589,-0.00534471,-0.00960145,0.01187228,-0.
 07338867,-0.05520808,0.04553912,0.00000031,0.00000725,0.00000307,0.000
 00436,-0.00000625,-0.00000063,0.00000673,-0.00000902,0.00000777,-0.000
 02917,0.00009439,0.00001054,-0.00001568,0.00006745,-0.00003327,0.00006
 092,0.00005730,0.00035794,0.00010454,-0.00004118,-0.00022822,0.0000904
 6,-0.00003524,-0.00000505,0.00012983,-0.00002836,-0.00002081,-0.000333
 80,-0.00087223,0.00093258,-0.00011042,-0.00110284,0.00059735,0.0002152
 8,0.00002974,0.00025295,0.00092280,0.00028888,-0.00013799,0.00051884,0
 .00033186,-0.00027365,-0.00092068,0.00055976,-0.00048560,0.00086539,0.
 00012650,-0.00026321,0.00859774,0.01746175,-0.01469087,0.08178954,-0.0
 0004896,-0.00005184,0.00002487,-0.00011744,0.00007965,-0.00003186,0.00
 013281,-0.00026132,0.00002049,0.00002520,0.00038905,0.00007881,-0.0034
 8520,-0.00083778,-0.00253551,0.00252907,-0.00055149,-0.00191140,0.0052
 9443,0.00991382,-0.00773251,0.00174176,-0.00035033,-0.00119425,-0.0066
 3929,-0.01434385,0.01325927,-0.05784702,-0.18703279,0.12293205,0.00004
 347,-0.00001939,0.00000027,0.00001483,0.00001168,-0.00001713,0.0000015
 4,0.00001360,0.00000092,0.00001376,-0.00007099,-0.00000614,0.00000975,
 -0.00004811,0.00001450,0.00001429,0.00000991,-0.00020500,-0.00000662,-
 0.00002901,0.00020022,-0.00004860,-0.00003550,-0.00001243,0.00008029,-
 0.00013315,0.00005796,-0.00056920,-0.00087971,0.00113288,0.00021085,0.
 00098732,-0.00040899,0.00003209,-0.00012376,-0.00009772,-0.00101718,0.
 00045495,0.00041351,-0.00013026,0.00023496,-0.00039630,0.00008619,0.00
 075166,-0.00015882,0.00073534,0.00047061,-0.00030802,-0.00512176,-0.00
 987801,0.00830130,0.06406588,0.20132979,0.00002179,0.00000152,-0.00000
 664,0.00012474,-0.00001124,0.00006041,-0.00013284,0.00000167,-0.000153
 56,-0.00008650,0.00018312,0.00000567,-0.00366628,-0.00200254,-0.001844
 78,0.00459359,-0.00185357,-0.00253577,0.00697619,0.01757111,-0.0127850
 6,-0.00148467,-0.00124128,-0.00079330,-0.00680007,-0.01260731,0.011056
 00,0.04804447,0.12260777,-0.14062028,-0.00001256,0.00001019,0.00000030
 ,-0.00000281,-0.00000538,0.00000839,0.00000474,-0.00000685,-0.00000044
 ,-0.00001808,0.00005542,0.00000517,-0.00001152,0.00002460,-0.00001251,
 0.00008759,0.00002081,0.00018439,0.00004582,0.00001443,-0.00009897,-0.
 00001595,0.00007088,0.00003807,0.00008434,-0.00007108,0.00003632,-0.00
 036864,-0.00083171,0.00109019,0.00062392,0.00166702,-0.00052894,-0.000
 05924,-0.00035520,0.00027819,-0.00092591,-0.00031148,0.00049938,0.0001
 4414,-0.00034413,0.00008829,-0.00010559,-0.00018762,0.00068450,0.00115
 716,0.00040162,0.00048560,0.00449785,0.00862019,-0.00731101,-0.0527156
 8,-0.13142097,0.15217039\\0.00000138,-0.00000048,-0.00000378,-0.000001
 85,-0.00000216,-0.00000108,0.00001193,-0.00000682,0.00000302,-0.000003
 83,-0.00002589,0.00000233,-0.00001085,0.00000444,-0.00001720,-0.000004
 83,0.00003577,-0.00000633,0.00000094,-0.00000182,-0.00000159,-0.000014
 76,0.00001445,-0.00000938,-0.00000159,0.00000211,0.00000422,0.00000921
 ,-0.00002100,0.00001243,-0.00000067,-0.00000018,0.00000223,-0.00000007
 ,0.00000007,0.00000040,-0.00000105,0.00000178,-0.00000134,0.00000221,0
 .00000084,0.00000276,-0.00000039,0.00000158,0.00000071,-0.00000163,0.0
 0000060,0.00000136,-0.00000309,0.00000193,0.00000271,-0.00000172,0.000
 00952,0.00000051,0.00000476,0.00000713,-0.00000224,-0.00000173,-0.0000
 0566,0.00000206,0.00000715,-0.00000915,0.00000431,0.00000543,-0.000008
 61,0.00000980,0.00000100,-0.00000646,-0.00000708,0.00000543,-0.0000080
 3,0.00000585,0.00000666,-0.00000309,-0.00000133,0.00000403,0.00000500,
 0.00000396,-0.00000546,0.00000600,-0.00000203,-0.00000659,0.00000812,-
 0.00000529\\\@


 "I COULD HAVE DONE IT IN A MUCH MORE COMPLICATED WAY"
 SAID THE RED QUEEN, IMMENSELY PROUD.

                                      -- LEWIS CARROLL
 Job cpu time:       0 days  3 hours 41 minutes  1.4 seconds.
 Elapsed time:       0 days  0 hours 55 minutes 16.6 seconds.
 File lengths (MBytes):  RWF=    272 Int=      0 D2E=      0 Chk=     13 Scr=      1
 Normal termination of Gaussian 16 at Sun May 28 12:44:10 2023.
### All Done ###
