### Starting Gaussian ###
 Entering Gaussian System, Link 0=g16
 Initial command:
 /cluster/software/gaussian/gaussian-16-A.03/avx2/g16/l1.exe "/local/scratch/linjian/Gau-939.inp" -scrdir="/local/scratch/linjian/"
 Entering Link 1 = /cluster/software/gaussian/gaussian-16-A.03/avx2/g16/l1.exe PID=       940.
  
 Copyright (c) 1988,1990,1992,1993,1995,1998,2003,2009,2016,
            Gaussian, Inc.  All Rights Reserved.
  
 This is part of the Gaussian(R) 16 program.  It is based on
 the Gaussian(R) 09 system (copyright 2009, Gaussian, Inc.),
 the Gaussian(R) 03 system (copyright 2003, Gaussian, Inc.),
 the Gaussian(R) 98 system (copyright 1998, Gaussian, Inc.),
 the Gaussian(R) 94 system (copyright 1995, Gaussian, Inc.),
 the Gaussian 92(TM) system (copyright 1992, Gaussian, Inc.),
 the Gaussian 90(TM) system (copyright 1990, Gaussian, Inc.),
 the Gaussian 88(TM) system (copyright 1988, Gaussian, Inc.),
 the Gaussian 86(TM) system (copyright 1986, Carnegie Mellon
 University), and the Gaussian 82(TM) system (copyright 1983,
 Carnegie Mellon University). Gaussian is a federally registered
 trademark of Gaussian, Inc.
  
 This software contains proprietary and confidential information,
 including trade secrets, belonging to Gaussian, Inc.
  
 This software is provided under written license and may be
 used, copied, transmitted, or stored only in accord with that
 written license.
  
 The following legend is applicable only to US Government
 contracts under FAR:
  
                    RESTRICTED RIGHTS LEGEND
  
 Use, reproduction and disclosure by the US Government is
 subject to restrictions as set forth in subparagraphs (a)
 and (c) of the Commercial Computer Software - Restricted
 Rights clause in FAR 52.227-19.
  
 Gaussian, Inc.
 340 Quinnipiac St., Bldg. 40, Wallingford CT 06492
  
  
 ---------------------------------------------------------------
 Warning -- This program may not be used in any manner that
 competes with the business of Gaussian, Inc. or will provide
 assistance to any competitor of Gaussian, Inc.  The licensee
 of this program is prohibited from giving any competitor of
 Gaussian, Inc. access to this program.  By using this program,
 the user acknowledges that Gaussian, Inc. is engaged in the
 business of creating and licensing software in the field of
 computational chemistry and represents and warrants to the
 licensee that it is not a competitor of Gaussian, Inc. and that
 it will not use this program in any manner prohibited above.
 ---------------------------------------------------------------
  

 Cite this work as:
 Gaussian 16, Revision A.03,
 M. J. Frisch, G. W. Trucks, H. B. Schlegel, G. E. Scuseria, 
 M. A. Robb, J. R. Cheeseman, G. Scalmani, V. Barone, 
 G. A. Petersson, H. Nakatsuji, X. Li, M. Caricato, A. V. Marenich, 
 J. Bloino, B. G. Janesko, R. Gomperts, B. Mennucci, H. P. Hratchian, 
 J. V. Ortiz, A. F. Izmaylov, J. L. Sonnenberg, D. Williams-Young, 
 F. Ding, F. Lipparini, F. Egidi, J. Goings, B. Peng, A. Petrone, 
 T. Henderson, D. Ranasinghe, V. G. Zakrzewski, J. Gao, N. Rega, 
 G. Zheng, W. Liang, M. Hada, M. Ehara, K. Toyota, R. Fukuda, 
 J. Hasegawa, M. Ishida, T. Nakajima, Y. Honda, O. Kitao, H. Nakai, 
 T. Vreven, K. Throssell, J. A. Montgomery, Jr., J. E. Peralta, 
 F. Ogliaro, M. J. Bearpark, J. J. Heyd, E. N. Brothers, K. N. Kudin, 
 V. N. Staroverov, T. A. Keith, R. Kobayashi, J. Normand, 
 K. Raghavachari, A. P. Rendell, J. C. Burant, S. S. Iyengar, 
 J. Tomasi, M. Cossi, J. M. Millam, M. Klene, C. Adamo, R. Cammi, 
 J. W. Ochterski, R. L. Martin, K. Morokuma, O. Farkas, 
 J. B. Foresman, and D. J. Fox, Gaussian, Inc., Wallingford CT, 2016.
 
 ******************************************
 Gaussian 16:  ES64L-G16RevA.03 25-Dec-2016
                28-May-2023 
 ******************************************
 %chk=CCCC1C2CC1qCrC2.chk
 %NProcShared=20
 Will use up to   20 processors via shared memory.
 -----------------------------
 # opt freq b3lyp/6-31g(2df,p)
 -----------------------------
 1/18=20,19=15,26=3,38=1/1,3;
 2/9=110,12=2,17=6,18=5,40=1/2;
 3/5=1,6=6,7=104,11=2,25=1,30=1,71=1,74=-5/1,2,3;
 4//1;
 5/5=2,38=5/2;
 6/7=2,8=2,9=2,10=2,28=1/1;
 7//1,2,3,16;
 1/18=20,19=15,26=3/3(2);
 2/9=110/2;
 99//99;
 2/9=110/2;
 3/5=1,6=6,7=104,11=2,25=1,30=1,71=1,74=-5/1,2,3;
 4/5=5,16=3,69=1/1;
 5/5=2,38=5/2;
 7//1,2,3,16;
 1/18=20,19=15,26=3/3(-5);
 2/9=110/2;
 6/7=2,8=2,9=2,10=2,19=2,28=1/1;
 99/9=1/99;
 -------------------
 Title Card Required
 -------------------
 Symbolic Z-matrix:
 Charge =  0 Multiplicity = 1
 C                     1.05132   0.02337  -0.12238 
 C                     2.57877   0.0442   -0.13134 
 C                     3.10117   0.43932   1.23923 
 C                     4.65108   0.56509   1.32417 
 C                     5.39348   1.64383   2.22803 
 C                     6.56392   0.57794   2.41235 
 C                     5.2546   -0.29646   2.51653 
 C                     5.50039  -1.65701   1.91655 
 C                     4.50794   1.04261   3.40868 
 H                     0.66345  -0.20818  -1.11815 
 H                     0.6458    0.99559   0.18081 
 H                     0.66832  -0.72891   0.57666 
 H                     2.92801   0.76765  -0.87365 
 H                     2.95888  -0.94178  -0.41729 
 H                     2.73476  -0.30444   1.96648 
 H                     2.63622   1.39693   1.50128 
 H                     5.12112   0.42123   0.3429 
 H                     5.54388   2.64985   1.92216 
 H                     7.07852   0.6137    3.38207 
 H                     7.26879   0.36219   1.61075 
 H                     5.07298  -2.5022    2.45477 
 H                     6.5852   -1.84068   1.84352 
 H                     5.17189  -1.72805   0.86626 
 H                     4.92192   1.33783   4.37655 
 H                     3.47168   1.39418   3.36108 
 

 GradGradGradGradGradGradGradGradGradGradGradGradGradGradGradGradGradGrad
 Berny optimization.
 Initialization pass.
                           ----------------------------
                           !    Initial Parameters    !
                           ! (Angstroms and Degrees)  !
 --------------------------                            --------------------------
 ! Name  Definition              Value          Derivative Info.                !
 --------------------------------------------------------------------------------
 ! R1    R(1,2)                  1.5276         estimate D2E/DX2                !
 ! R2    R(1,10)                 1.0934         estimate D2E/DX2                !
 ! R3    R(1,11)                 1.0962         estimate D2E/DX2                !
 ! R4    R(1,12)                 1.096          estimate D2E/DX2                !
 ! R5    R(2,3)                  1.519          estimate D2E/DX2                !
 ! R6    R(2,13)                 1.0938         estimate D2E/DX2                !
 ! R7    R(2,14)                 1.0947         estimate D2E/DX2                !
 ! R8    R(3,4)                  1.5573         estimate D2E/DX2                !
 ! R9    R(3,15)                 1.1029         estimate D2E/DX2                !
 ! R10   R(3,16)                 1.0963         estimate D2E/DX2                !
 ! R11   R(4,5)                  1.5912         estimate D2E/DX2                !
 ! R12   R(4,7)                  1.59           estimate D2E/DX2                !
 ! R13   R(4,17)                 1.0975         estimate D2E/DX2                !
 ! R14   R(5,6)                  1.5937         estimate D2E/DX2                !
 ! R15   R(5,9)                  1.5936         estimate D2E/DX2                !
 ! R16   R(5,18)                 1.0622         estimate D2E/DX2                !
 ! R17   R(6,7)                  1.5779         estimate D2E/DX2                !
 ! R18   R(6,19)                 1.0984         estimate D2E/DX2                !
 ! R19   R(6,20)                 1.089          estimate D2E/DX2                !
 ! R20   R(7,8)                  1.5071         estimate D2E/DX2                !
 ! R21   R(7,9)                  1.7738         estimate D2E/DX2                !
 ! R22   R(8,21)                 1.0894         estimate D2E/DX2                !
 ! R23   R(8,22)                 1.1027         estimate D2E/DX2                !
 ! R24   R(8,23)                 1.1028         estimate D2E/DX2                !
 ! R25   R(9,24)                 1.0933         estimate D2E/DX2                !
 ! R26   R(9,25)                 1.0953         estimate D2E/DX2                !
 ! A1    A(2,1,10)             110.6238         estimate D2E/DX2                !
 ! A2    A(2,1,11)             111.0653         estimate D2E/DX2                !
 ! A3    A(2,1,12)             111.2542         estimate D2E/DX2                !
 ! A4    A(10,1,11)            107.9673         estimate D2E/DX2                !
 ! A5    A(10,1,12)            108.1509         estimate D2E/DX2                !
 ! A6    A(11,1,12)            107.6425         estimate D2E/DX2                !
 ! A7    A(1,2,3)              110.006          estimate D2E/DX2                !
 ! A8    A(1,2,13)             109.4059         estimate D2E/DX2                !
 ! A9    A(1,2,14)             109.6598         estimate D2E/DX2                !
 ! A10   A(3,2,13)             109.2979         estimate D2E/DX2                !
 ! A11   A(3,2,14)             110.5205         estimate D2E/DX2                !
 ! A12   A(13,2,14)            107.9135         estimate D2E/DX2                !
 ! A13   A(2,3,4)              114.3609         estimate D2E/DX2                !
 ! A14   A(2,3,15)             107.7758         estimate D2E/DX2                !
 ! A15   A(2,3,16)             107.2789         estimate D2E/DX2                !
 ! A16   A(4,3,15)             110.4352         estimate D2E/DX2                !
 ! A17   A(4,3,16)             109.7861         estimate D2E/DX2                !
 ! A18   A(15,3,16)            106.8907         estimate D2E/DX2                !
 ! A19   A(3,4,5)              123.3732         estimate D2E/DX2                !
 ! A20   A(3,4,7)              112.018          estimate D2E/DX2                !
 ! A21   A(3,4,17)             111.5239         estimate D2E/DX2                !
 ! A22   A(5,4,7)               76.3655         estimate D2E/DX2                !
 ! A23   A(5,4,17)             113.3862         estimate D2E/DX2                !
 ! A24   A(7,4,17)             115.9055         estimate D2E/DX2                !
 ! A25   A(4,5,6)               87.417          estimate D2E/DX2                !
 ! A26   A(4,5,9)               84.5952         estimate D2E/DX2                !
 ! A27   A(4,5,18)             122.9968         estimate D2E/DX2                !
 ! A28   A(6,5,9)               94.0193         estimate D2E/DX2                !
 ! A29   A(6,5,18)             124.2458         estimate D2E/DX2                !
 ! A30   A(9,5,18)             130.4919         estimate D2E/DX2                !
 ! A31   A(5,6,7)               76.6358         estimate D2E/DX2                !
 ! A32   A(5,6,19)             115.1127         estimate D2E/DX2                !
 ! A33   A(5,6,20)             121.5143         estimate D2E/DX2                !
 ! A34   A(7,6,19)             110.3964         estimate D2E/DX2                !
 ! A35   A(7,6,20)             118.4179         estimate D2E/DX2                !
 ! A36   A(19,6,20)            110.6747         estimate D2E/DX2                !
 ! A37   A(4,7,6)               88.0046         estimate D2E/DX2                !
 ! A38   A(4,7,8)              104.6263         estimate D2E/DX2                !
 ! A39   A(4,7,9)               78.9511         estimate D2E/DX2                !
 ! A40   A(6,7,8)              109.7945         estimate D2E/DX2                !
 ! A41   A(6,7,9)               87.9459         estimate D2E/DX2                !
 ! A42   A(8,7,9)              161.8663         estimate D2E/DX2                !
 ! A43   A(7,8,21)             116.0863         estimate D2E/DX2                !
 ! A44   A(7,8,22)             109.7048         estimate D2E/DX2                !
 ! A45   A(7,8,23)             112.8752         estimate D2E/DX2                !
 ! A46   A(21,8,22)            106.827          estimate D2E/DX2                !
 ! A47   A(21,8,23)            107.6803         estimate D2E/DX2                !
 ! A48   A(22,8,23)            102.6653         estimate D2E/DX2                !
 ! A49   A(5,9,7)               71.2331         estimate D2E/DX2                !
 ! A50   A(5,9,24)             110.0955         estimate D2E/DX2                !
 ! A51   A(5,9,25)             111.8658         estimate D2E/DX2                !
 ! A52   A(7,9,24)             119.321          estimate D2E/DX2                !
 ! A53   A(7,9,25)             128.2199         estimate D2E/DX2                !
 ! A54   A(24,9,25)            108.0615         estimate D2E/DX2                !
 ! D1    D(10,1,2,3)           177.0007         estimate D2E/DX2                !
 ! D2    D(10,1,2,13)           56.925          estimate D2E/DX2                !
 ! D3    D(10,1,2,14)          -61.2488         estimate D2E/DX2                !
 ! D4    D(11,1,2,3)            57.1224         estimate D2E/DX2                !
 ! D5    D(11,1,2,13)          -62.9534         estimate D2E/DX2                !
 ! D6    D(11,1,2,14)          178.8729         estimate D2E/DX2                !
 ! D7    D(12,1,2,3)           -62.7654         estimate D2E/DX2                !
 ! D8    D(12,1,2,13)          177.1588         estimate D2E/DX2                !
 ! D9    D(12,1,2,14)           58.9851         estimate D2E/DX2                !
 ! D10   D(1,2,3,4)           -176.9645         estimate D2E/DX2                !
 ! D11   D(1,2,3,15)            59.8293         estimate D2E/DX2                !
 ! D12   D(1,2,3,16)           -54.9587         estimate D2E/DX2                !
 ! D13   D(13,2,3,4)           -56.8233         estimate D2E/DX2                !
 ! D14   D(13,2,3,15)          179.9704         estimate D2E/DX2                !
 ! D15   D(13,2,3,16)           65.1825         estimate D2E/DX2                !
 ! D16   D(14,2,3,4)            61.7989         estimate D2E/DX2                !
 ! D17   D(14,2,3,15)          -61.4074         estimate D2E/DX2                !
 ! D18   D(14,2,3,16)         -176.1953         estimate D2E/DX2                !
 ! D19   D(2,3,4,5)            144.9024         estimate D2E/DX2                !
 ! D20   D(2,3,4,7)           -127.2813         estimate D2E/DX2                !
 ! D21   D(2,3,4,17)             4.4836         estimate D2E/DX2                !
 ! D22   D(15,3,4,5)           -93.3385         estimate D2E/DX2                !
 ! D23   D(15,3,4,7)            -5.5221         estimate D2E/DX2                !
 ! D24   D(15,3,4,17)          126.2427         estimate D2E/DX2                !
 ! D25   D(16,3,4,5)            24.2783         estimate D2E/DX2                !
 ! D26   D(16,3,4,7)           112.0946         estimate D2E/DX2                !
 ! D27   D(16,3,4,17)         -116.1405         estimate D2E/DX2                !
 ! D28   D(3,4,5,6)            148.0645         estimate D2E/DX2                !
 ! D29   D(3,4,5,9)             53.7779         estimate D2E/DX2                !
 ! D30   D(3,4,5,18)           -81.9674         estimate D2E/DX2                !
 ! D31   D(7,4,5,6)             40.4769         estimate D2E/DX2                !
 ! D32   D(7,4,5,9)            -53.8097         estimate D2E/DX2                !
 ! D33   D(7,4,5,18)           170.445          estimate D2E/DX2                !
 ! D34   D(17,4,5,6)           -72.1604         estimate D2E/DX2                !
 ! D35   D(17,4,5,9)          -166.447          estimate D2E/DX2                !
 ! D36   D(17,4,5,18)           57.8077         estimate D2E/DX2                !
 ! D37   D(3,4,7,6)           -161.779          estimate D2E/DX2                !
 ! D38   D(3,4,7,8)             88.2766         estimate D2E/DX2                !
 ! D39   D(3,4,7,9)            -73.4831         estimate D2E/DX2                !
 ! D40   D(5,4,7,6)            -40.9495         estimate D2E/DX2                !
 ! D41   D(5,4,7,8)           -150.894          estimate D2E/DX2                !
 ! D42   D(5,4,7,9)             47.3463         estimate D2E/DX2                !
 ! D43   D(17,4,7,6)            68.6992         estimate D2E/DX2                !
 ! D44   D(17,4,7,8)           -41.2452         estimate D2E/DX2                !
 ! D45   D(17,4,7,9)           156.9951         estimate D2E/DX2                !
 ! D46   D(4,5,6,7)            -40.7983         estimate D2E/DX2                !
 ! D47   D(4,5,6,19)          -147.3127         estimate D2E/DX2                !
 ! D48   D(4,5,6,20)            74.5489         estimate D2E/DX2                !
 ! D49   D(9,5,6,7)             43.5955         estimate D2E/DX2                !
 ! D50   D(9,5,6,19)           -62.9189         estimate D2E/DX2                !
 ! D51   D(9,5,6,20)           158.9427         estimate D2E/DX2                !
 ! D52   D(18,5,6,7)          -169.7577         estimate D2E/DX2                !
 ! D53   D(18,5,6,19)           83.728          estimate D2E/DX2                !
 ! D54   D(18,5,6,20)          -54.4105         estimate D2E/DX2                !
 ! D55   D(4,5,9,7)             47.9465         estimate D2E/DX2                !
 ! D56   D(4,5,9,24)           163.1867         estimate D2E/DX2                !
 ! D57   D(4,5,9,25)           -76.6446         estimate D2E/DX2                !
 ! D58   D(6,5,9,7)            -39.0712         estimate D2E/DX2                !
 ! D59   D(6,5,9,24)            76.1689         estimate D2E/DX2                !
 ! D60   D(6,5,9,25)          -163.6623         estimate D2E/DX2                !
 ! D61   D(18,5,9,7)           177.6276         estimate D2E/DX2                !
 ! D62   D(18,5,9,24)          -67.1322         estimate D2E/DX2                !
 ! D63   D(18,5,9,25)           53.0365         estimate D2E/DX2                !
 ! D64   D(5,6,7,4)             40.813          estimate D2E/DX2                !
 ! D65   D(5,6,7,8)            145.6455         estimate D2E/DX2                !
 ! D66   D(5,6,7,9)            -38.1971         estimate D2E/DX2                !
 ! D67   D(19,6,7,4)           152.9643         estimate D2E/DX2                !
 ! D68   D(19,6,7,8)          -102.2032         estimate D2E/DX2                !
 ! D69   D(19,6,7,9)            73.9542         estimate D2E/DX2                !
 ! D70   D(20,6,7,4)           -78.0239         estimate D2E/DX2                !
 ! D71   D(20,6,7,8)            26.8086         estimate D2E/DX2                !
 ! D72   D(20,6,7,9)          -157.034          estimate D2E/DX2                !
 ! D73   D(4,7,8,21)          -127.6584         estimate D2E/DX2                !
 ! D74   D(4,7,8,22)           111.1626         estimate D2E/DX2                !
 ! D75   D(4,7,8,23)            -2.6581         estimate D2E/DX2                !
 ! D76   D(6,7,8,21)           139.1496         estimate D2E/DX2                !
 ! D77   D(6,7,8,22)            17.9707         estimate D2E/DX2                !
 ! D78   D(6,7,8,23)           -95.8501         estimate D2E/DX2                !
 ! D79   D(9,7,8,21)           -28.4241         estimate D2E/DX2                !
 ! D80   D(9,7,8,22)          -149.603          estimate D2E/DX2                !
 ! D81   D(9,7,8,23)            96.5762         estimate D2E/DX2                !
 ! D82   D(4,7,9,5)            -48.9129         estimate D2E/DX2                !
 ! D83   D(4,7,9,24)          -151.9368         estimate D2E/DX2                !
 ! D84   D(4,7,9,25)            54.5664         estimate D2E/DX2                !
 ! D85   D(6,7,9,5)             39.4541         estimate D2E/DX2                !
 ! D86   D(6,7,9,24)           -63.5698         estimate D2E/DX2                !
 ! D87   D(6,7,9,25)           142.9334         estimate D2E/DX2                !
 ! D88   D(8,7,9,5)           -152.2349         estimate D2E/DX2                !
 ! D89   D(8,7,9,24)           104.7413         estimate D2E/DX2                !
 ! D90   D(8,7,9,25)           -48.7555         estimate D2E/DX2                !
 --------------------------------------------------------------------------------
 Trust Radius=3.00D-01 FncErr=1.00D-07 GrdErr=1.00D-06 EigMax=2.50D+02 EigMin=1.00D-04
 Number of steps in this run=    150 maximum allowed number of steps=    150.
 GradGradGradGradGradGradGradGradGradGradGradGradGradGradGradGradGradGrad

                          Input orientation:                          
 ---------------------------------------------------------------------
 Center     Atomic      Atomic             Coordinates (Angstroms)
 Number     Number       Type             X           Y           Z
 ---------------------------------------------------------------------
      1          6           0        1.051320    0.023370   -0.122380
      2          6           0        2.578770    0.044200   -0.131340
      3          6           0        3.101170    0.439320    1.239230
      4          6           0        4.651080    0.565090    1.324170
      5          6           0        5.393480    1.643830    2.228030
      6          6           0        6.563920    0.577940    2.412350
      7          6           0        5.254600   -0.296460    2.516530
      8          6           0        5.500390   -1.657010    1.916550
      9          6           0        4.507940    1.042610    3.408680
     10          1           0        0.663450   -0.208180   -1.118150
     11          1           0        0.645800    0.995590    0.180810
     12          1           0        0.668320   -0.728910    0.576660
     13          1           0        2.928010    0.767650   -0.873650
     14          1           0        2.958880   -0.941780   -0.417290
     15          1           0        2.734760   -0.304440    1.966480
     16          1           0        2.636220    1.396930    1.501280
     17          1           0        5.121120    0.421230    0.342900
     18          1           0        5.543880    2.649850    1.922160
     19          1           0        7.078520    0.613700    3.382070
     20          1           0        7.268790    0.362190    1.610750
     21          1           0        5.072980   -2.502200    2.454770
     22          1           0        6.585200   -1.840680    1.843520
     23          1           0        5.171890   -1.728050    0.866260
     24          1           0        4.921920    1.337830    4.376550
     25          1           0        3.471680    1.394180    3.361080
 ---------------------------------------------------------------------
                    Distance matrix (angstroms):
                    1          2          3          4          5
     1  C    0.000000
     2  C    1.527618   0.000000
     3  C    2.495773   1.519040   0.000000
     4  C    3.917172   2.585402   1.557323   0.000000
     5  C    5.196602   4.006000   2.771868   1.591163   0.000000
     6  C    6.092714   4.757800   3.658697   2.200740   1.593746
     7  C    4.973299   3.779859   2.609622   1.590040   1.966531
     8  C    5.174470   3.952699   3.257241   2.451524   3.317227
     9  C    5.045340   4.153343   2.655085   2.143291   1.593606
    10  H    1.093442   2.169318   3.452387   4.739627   6.082766
    11  H    1.096167   2.176914   2.731031   4.187466   5.210738
    12  H    1.096025   2.179170   2.778942   4.253891   5.539319
    13  H    2.154141   1.093788   2.145238   2.800074   4.057912
    14  H    2.158071   1.094718   2.161421   2.857776   4.428360
    15  H    2.702733   2.132307   1.102873   2.200211   3.306502
    16  H    2.652329   2.120997   1.096296   2.187004   2.862099
    17  H    4.115586   2.613541   2.209962   1.097508   2.263326
    18  H    5.591211   4.449511   3.364471   2.345401   1.062192
    19  H    6.996914   5.737258   4.521226   3.182732   2.287430
    20  H    6.463395   5.013211   4.184858   2.641155   2.353810
    21  H    5.403143   4.403771   3.744077   3.296138   4.164576
    22  H    6.161434   4.848126   4.207378   3.130219   3.702682
    23  H    4.585191   3.295504   3.020676   2.395708   3.643226
    24  H    6.078628   5.242605   3.737008   3.160301   2.220843
    25  H    4.457775   3.849251   2.356116   2.495471   2.244870
                    6          7          8          9         10
     6  C    0.000000
     7  C    1.577893   0.000000
     8  C    2.524265   1.507145   0.000000
     9  C    2.331447   1.773849   3.240271   0.000000
    10  H    6.920835   5.856394   5.891053   6.069330   0.000000
    11  H    6.338639   5.325976   5.797941   5.033635   1.771065
    12  H    6.311554   4.998407   5.099566   5.089332   1.773010
    13  H    4.904450   4.247196   4.503480   4.572760   2.477954
    14  H    4.828325   3.780750   3.523867   4.579895   2.509656
    15  H    3.954726   2.579188   3.079066   2.653046   3.716791
    16  H    4.114319   3.279362   4.207430   2.695747   3.650974
    17  H    2.527618   2.292938   2.634255   3.187650   4.733038
    18  H    2.360843   3.019553   4.307083   2.422010   6.421092
    19  H    1.098385   2.214551   3.129595   2.606253   7.879124
    20  H    1.089014   2.304608   2.701466   3.364196   7.169570
    21  H    3.422275   2.214066   1.089360   3.714148   6.121457
    22  H    2.484702   2.146638   1.102670   3.883052   6.819360
    23  H    3.105758   2.186248   1.102755   3.818545   5.154990
    24  H    2.670520   2.498250   3.918583   1.093301   7.121548
    25  H    3.335908   2.598140   3.938539   1.095309   5.524239
                   11         12         13         14         15
    11  H    0.000000
    12  H    1.769493   0.000000
    13  H    2.524346   3.073970   0.000000
    14  H    3.075949   2.505976   1.769567   0.000000
    15  H    3.040140   2.526252   3.041884   2.477658   0.000000
    16  H    2.422083   3.040847   2.474152   3.042135   1.766573
    17  H    4.514937   4.604877   2.531745   2.666640   2.976126
    18  H    5.455279   6.082555   4.266381   5.005503   4.076880
    19  H    7.195401   7.124857   5.946561   5.816020   4.659949
    20  H    6.805139   6.769494   5.017869   4.938482   4.596560
    21  H    6.083202   5.106161   5.135289   3.892693   3.245897
    22  H    6.788631   6.152271   5.249899   4.366862   4.147414
    23  H    5.326683   4.622152   3.780318   2.676403   3.029315
    24  H    6.000547   6.066605   5.644943   5.659598   3.645430
    25  H    4.273007   4.485458   4.315212   4.471661   2.318032
                   16         17         18         19         20
    16  H    0.000000
    17  H    2.910080   0.000000
    18  H    3.193969   2.763971   0.000000
    19  H    4.887213   3.620085   2.938088   0.000000
    20  H    4.747986   2.494677   2.881957   1.799176   0.000000
    21  H    4.695759   3.606765   5.200869   3.819805   3.706573
    22  H    5.117977   3.084093   4.610357   2.938449   2.318213
    23  H    4.074110   2.212665   4.518773   3.930436   3.052926
    24  H    3.673567   4.141276   2.851712   2.482796   3.756238
    25  H    2.038837   3.574450   2.818015   3.690377   4.306588
                   21         22         23         24         25
    21  H    0.000000
    22  H    1.760126   0.000000
    23  H    1.769874   1.721966   0.000000
    24  H    4.296730   4.391545   4.667359   0.000000
    25  H    4.308983   4.739337   4.343174   1.771313   0.000000
 Stoichiometry    C9H16
 Framework group  C1[X(C9H16)]
 Deg. of freedom    69
 Full point group                 C1      NOp   1
 Largest Abelian subgroup         C1      NOp   1
 Largest concise Abelian subgroup C1      NOp   1
                         Standard orientation:                         
 ---------------------------------------------------------------------
 Center     Atomic      Atomic             Coordinates (Angstroms)
 Number     Number       Type             X           Y           Z
 ---------------------------------------------------------------------
      1          6           0        3.593846   -0.066715    0.195859
      2          6           0        2.298201    0.297934   -0.526603
      3          6           0        1.116064   -0.363750    0.160573
      4          6           0       -0.253312   -0.119102   -0.539578
      5          6           0       -1.414204   -1.205832   -0.595664
      6          6           0       -2.450379    0.004786   -0.567937
      7          6           0       -1.345382    0.446692    0.468136
      8          6           0       -1.169270    1.942722    0.419522
      9          6           0       -1.247196   -1.246223    0.988652
     10          1           0        4.456887    0.361081   -0.321604
     11          1           0        3.729223   -1.153691    0.237539
     12          1           0        3.593289    0.307704    1.225947
     13          1           0        2.351623   -0.044916   -1.563894
     14          1           0        2.176139    1.385772   -0.537393
     15          1           0        1.086190   -0.001850    1.201948
     16          1           0        1.324281   -1.439256    0.202971
     17          1           0       -0.132185    0.437754   -1.477535
     18          1           0       -1.434799   -1.994071   -1.307358
     19          1           0       -3.397331   -0.203853   -0.051991
     20          1           0       -2.619237    0.629705   -1.443675
     21          1           0       -1.043043    2.441639    1.379655
     22          1           0       -2.044174    2.404443   -0.067549
     23          1           0       -0.336611    2.255370   -0.232397
     24          1           0       -2.121184   -1.717088    1.446624
     25          1           0       -0.359270   -1.811821    1.290955
 ---------------------------------------------------------------------
 Rotational constants (GHZ):           2.9731416           0.9577729           0.8451798
 Standard basis: 6-31G(2df,p) (6D, 7F)
 There are   359 symmetry adapted cartesian basis functions of A   symmetry.
 There are   332 symmetry adapted basis functions of A   symmetry.
   332 basis functions,   508 primitive gaussians,   359 cartesian basis functions
    35 alpha electrons       35 beta electrons
       nuclear repulsion energy       465.4148196196 Hartrees.
 NAtoms=   25 NActive=   25 NUniq=   25 SFac= 1.00D+00 NAtFMM=   60 NAOKFM=F Big=F
 Integral buffers will be    131072 words long.
 Raffenetti 2 integral format.
 Two-electron integral symmetry is turned on.
 One-electron integrals computed using PRISM.
 PrsmSu:  requested number of processors reduced to:  13 ShMem   1 Linda.
 NBasis=   332 RedAO= T EigKep=  3.77D-04  NBF=   332
 NBsUse=   332 1.00D-06 EigRej= -1.00D+00 NBFU=   332
 ExpMin= 1.61D-01 ExpMax= 3.05D+03 ExpMxC= 4.57D+02 IAcc=3 IRadAn=         5 AccDes= 0.00D+00
 Harris functional with IExCor=  402 and IRadAn=       5 diagonalized for initial guess.
 HarFok:  IExCor=  402 AccDes= 0.00D+00 IRadAn=         5 IDoV= 1 UseB2=F ITyADJ=14
 ICtDFT=  3500011 ScaDFX=  1.000000  1.000000  1.000000  1.000000
 FoFCou: FMM=F IPFlag=           0 FMFlag=      100000 FMFlg1=           0
         NFxFlg=           0 DoJE=T BraDBF=F KetDBF=T FulRan=T
         wScrn=  0.000000 ICntrl=       500 IOpCl=  0 I1Cent=   200000004 NGrid=           0
         NMat0=    1 NMatS0=      1 NMatT0=    0 NMatD0=    1 NMtDS0=    0 NMtDT0=    0
 Petite list used in FoFCou.
 Requested convergence on RMS density matrix=1.00D-08 within 128 cycles.
 Requested convergence on MAX density matrix=1.00D-06.
 Requested convergence on             energy=1.00D-06.
 No special actions if energy rises.
 Integral accuracy reduced to 1.0D-05 until final iterations.
 Initial convergence to 1.0D-05 achieved.  Increase integral accuracy.
 SCF Done:  E(RB3LYP) =  -352.460417437     A.U. after   12 cycles
            NFock= 12  Conv=0.44D-08     -V/T= 2.0095

 **********************************************************************

            Population analysis using the SCF density.

 **********************************************************************

 Orbital symmetries:
       Occupied  (A) (A) (A) (A) (A) (A) (A) (A) (A) (A) (A) (A)
                 (A) (A) (A) (A) (A) (A) (A) (A) (A) (A) (A) (A)
                 (A) (A) (A) (A) (A) (A) (A) (A) (A) (A) (A)
       Virtual   (A) (A) (A) (A) (A) (A) (A) (A) (A) (A) (A) (A)
                 (A) (A) (A) (A) (A) (A) (A) (A) (A) (A) (A) (A)
                 (A) (A) (A) (A) (A) (A) (A) (A) (A) (A) (A) (A)
                 (A) (A) (A) (A) (A) (A) (A) (A) (A) (A) (A) (A)
                 (A) (A) (A) (A) (A) (A) (A) (A) (A) (A) (A) (A)
                 (A) (A) (A) (A) (A) (A) (A) (A) (A) (A) (A) (A)
                 (A) (A) (A) (A) (A) (A) (A) (A) (A) (A) (A) (A)
                 (A) (A) (A) (A) (A) (A) (A) (A) (A) (A) (A) (A)
                 (A) (A) (A) (A) (A) (A) (A) (A) (A) (A) (A) (A)
                 (A) (A) (A) (A) (A) (A) (A) (A) (A) (A) (A) (A)
                 (A) (A) (A) (A) (A) (A) (A) (A) (A) (A) (A) (A)
                 (A) (A) (A) (A) (A) (A) (A) (A) (A) (A) (A) (A)
                 (A) (A) (A) (A) (A) (A) (A) (A) (A) (A) (A) (A)
                 (A) (A) (A) (A) (A) (A) (A) (A) (A) (A) (A) (A)
                 (A) (A) (A) (A) (A) (A) (A) (A) (A) (A) (A) (A)
                 (A) (A) (A) (A) (A) (A) (A) (A) (A) (A) (A) (A)
                 (A) (A) (A) (A) (A) (A) (A) (A) (A) (A) (A) (A)
                 (A) (A) (A) (A) (A) (A) (A) (A) (A) (A) (A) (A)
                 (A) (A) (A) (A) (A) (A) (A) (A) (A) (A) (A) (A)
                 (A) (A) (A) (A) (A) (A) (A) (A) (A) (A) (A) (A)
                 (A) (A) (A) (A) (A) (A) (A) (A) (A) (A) (A) (A)
                 (A) (A) (A) (A) (A) (A) (A) (A) (A) (A) (A) (A)
                 (A) (A) (A) (A) (A) (A) (A) (A) (A) (A) (A) (A)
                 (A) (A) (A) (A) (A) (A) (A) (A) (A) (A) (A) (A)
                 (A) (A) (A) (A) (A) (A) (A) (A) (A)
 The electronic state is 1-A.
 Alpha  occ. eigenvalues --  -10.20814 -10.20684 -10.19041 -10.17498 -10.17389
 Alpha  occ. eigenvalues --  -10.17383 -10.17227 -10.16936 -10.16785  -0.87387
 Alpha  occ. eigenvalues --   -0.78205  -0.72576  -0.69538  -0.65313  -0.61699
 Alpha  occ. eigenvalues --   -0.58319  -0.57157  -0.51651  -0.46141  -0.45638
 Alpha  occ. eigenvalues --   -0.44525  -0.43734  -0.40718  -0.39939  -0.38597
 Alpha  occ. eigenvalues --   -0.37472  -0.36326  -0.35208  -0.33003  -0.32825
 Alpha  occ. eigenvalues --   -0.30885  -0.30195  -0.28122  -0.27362  -0.24491
 Alpha virt. eigenvalues --    0.03394   0.09193   0.09965   0.11142   0.11958
 Alpha virt. eigenvalues --    0.12180   0.13698   0.14116   0.15108   0.16000
 Alpha virt. eigenvalues --    0.16328   0.17823   0.18186   0.18697   0.19692
 Alpha virt. eigenvalues --    0.20042   0.21343   0.21810   0.22614   0.23674
 Alpha virt. eigenvalues --    0.24863   0.26782   0.27738   0.28720   0.29019
 Alpha virt. eigenvalues --    0.30253   0.45372   0.45889   0.46766   0.47643
 Alpha virt. eigenvalues --    0.48290   0.48979   0.51580   0.52063   0.53142
 Alpha virt. eigenvalues --    0.54275   0.54819   0.55837   0.56667   0.59191
 Alpha virt. eigenvalues --    0.60565   0.61095   0.62407   0.62792   0.64956
 Alpha virt. eigenvalues --    0.66278   0.67046   0.69658   0.71532   0.72774
 Alpha virt. eigenvalues --    0.73530   0.74172   0.74606   0.75868   0.76011
 Alpha virt. eigenvalues --    0.76308   0.77587   0.78055   0.79258   0.79771
 Alpha virt. eigenvalues --    0.81012   0.81312   0.81334   0.82742   0.83608
 Alpha virt. eigenvalues --    0.85788   0.87312   0.89552   0.90330   0.91923
 Alpha virt. eigenvalues --    0.92389   0.98196   1.02314   1.06427   1.06813
 Alpha virt. eigenvalues --    1.11147   1.13107   1.16811   1.19788   1.20848
 Alpha virt. eigenvalues --    1.22179   1.22962   1.24358   1.29213   1.30026
 Alpha virt. eigenvalues --    1.31636   1.32270   1.34084   1.36051   1.39377
 Alpha virt. eigenvalues --    1.40688   1.43092   1.45741   1.47681   1.49850
 Alpha virt. eigenvalues --    1.51474   1.52557   1.53555   1.54820   1.56508
 Alpha virt. eigenvalues --    1.57819   1.58690   1.59984   1.61011   1.63078
 Alpha virt. eigenvalues --    1.66795   1.68624   1.70733   1.72208   1.75309
 Alpha virt. eigenvalues --    1.78677   1.82904   1.83950   1.86703   1.88100
 Alpha virt. eigenvalues --    1.89358   1.90509   1.90679   1.95717   1.97977
 Alpha virt. eigenvalues --    1.98807   2.00344   2.03669   2.08907   2.11594
 Alpha virt. eigenvalues --    2.16634   2.19069   2.22298   2.23730   2.25506
 Alpha virt. eigenvalues --    2.26765   2.29371   2.31451   2.33299   2.35259
 Alpha virt. eigenvalues --    2.36529   2.38222   2.41580   2.43576   2.45267
 Alpha virt. eigenvalues --    2.47643   2.51005   2.52780   2.55129   2.58989
 Alpha virt. eigenvalues --    2.64950   2.65293   2.67156   2.68160   2.69300
 Alpha virt. eigenvalues --    2.72640   2.73867   2.75481   2.76429   2.77161
 Alpha virt. eigenvalues --    2.80461   2.83290   2.84487   2.85129   2.85827
 Alpha virt. eigenvalues --    2.86744   2.89193   2.90187   2.91967   2.92947
 Alpha virt. eigenvalues --    2.93420   2.95007   2.97274   2.97672   3.00112
 Alpha virt. eigenvalues --    3.00190   3.05174   3.05842   3.07602   3.09803
 Alpha virt. eigenvalues --    3.10742   3.12814   3.14480   3.16194   3.18893
 Alpha virt. eigenvalues --    3.19572   3.20064   3.22275   3.26441   3.28423
 Alpha virt. eigenvalues --    3.29623   3.30713   3.33732   3.36320   3.37705
 Alpha virt. eigenvalues --    3.39879   3.41395   3.44559   3.46128   3.50100
 Alpha virt. eigenvalues --    3.50945   3.53695   3.55840   3.57112   3.59083
 Alpha virt. eigenvalues --    3.59473   3.61774   3.64327   3.67346   3.68191
 Alpha virt. eigenvalues --    3.69690   3.70522   3.74078   3.78108   3.78789
 Alpha virt. eigenvalues --    3.80713   3.84467   3.85456   3.89341   3.89924
 Alpha virt. eigenvalues --    3.93242   3.94763   3.96567   4.06235   4.06793
 Alpha virt. eigenvalues --    4.11094   4.13183   4.16986   4.18291   4.23124
 Alpha virt. eigenvalues --    4.26004   4.29159   4.32373   4.40939   4.41272
 Alpha virt. eigenvalues --    4.42878   4.44916   4.47121   4.49065   4.49695
 Alpha virt. eigenvalues --    4.50426   4.52760   4.53597   4.55090   4.56343
 Alpha virt. eigenvalues --    4.57338   4.58407   4.60365   4.61928   4.64013
 Alpha virt. eigenvalues --    4.65400   4.66491   4.70230   4.70697   4.72340
 Alpha virt. eigenvalues --    4.73255   4.74275   4.76104   4.76820   4.79029
 Alpha virt. eigenvalues --    4.82206   4.82880   4.83420   4.84938   4.86012
 Alpha virt. eigenvalues --    4.87192   4.88464   4.89580   4.91451   4.93853
 Alpha virt. eigenvalues --    4.94578   4.98832   5.01338   5.04254   5.07339
 Alpha virt. eigenvalues --    5.09630   5.14279   5.15810   5.24789   5.32802
 Alpha virt. eigenvalues --    5.35378   5.40027   5.43628   5.46395   5.50172
 Alpha virt. eigenvalues --    5.55934   5.59764   5.62416   5.69052   5.74918
 Alpha virt. eigenvalues --    5.85486   6.35096   7.00038  11.06162  11.32716
 Alpha virt. eigenvalues --   11.46651  11.81741  11.88121  12.11962  12.19817
 Alpha virt. eigenvalues --   12.48375  12.97800
          Condensed to atoms (all electrons):
               1          2          3          4          5          6
     1  C    4.962545   0.399095  -0.036917   0.002053  -0.000126   0.000003
     2  C    0.399095   4.815118   0.430872  -0.025066   0.001426  -0.000191
     3  C   -0.036917   0.430872   4.831644   0.409194  -0.011990   0.005202
     4  C    0.002053  -0.025066   0.409194   4.790858   0.336709  -0.063094
     5  C   -0.000126   0.001426  -0.011990   0.336709   4.920309   0.343197
     6  C    0.000003  -0.000191   0.005202  -0.063094   0.343197   5.053032
     7  C   -0.000124   0.001736  -0.023700   0.350087  -0.066415   0.338742
     8  C   -0.000001  -0.000325   0.000269  -0.066132   0.010114  -0.061331
     9  C    0.000049   0.000868  -0.017559  -0.047919   0.342700  -0.025311
    10  H    0.370426  -0.020928   0.002984  -0.000129   0.000001  -0.000000
    11  H    0.378512  -0.029695  -0.004825   0.000201  -0.000003   0.000000
    12  H    0.378217  -0.028933  -0.003051   0.000215   0.000001   0.000000
    13  H   -0.035083   0.365718  -0.030899  -0.001417   0.000322   0.000012
    14  H   -0.035083   0.368959  -0.031229  -0.001699  -0.000066   0.000002
    15  H   -0.002718  -0.042609   0.364504  -0.024426   0.002541   0.000444
    16  H   -0.005499  -0.038286   0.356155  -0.022902  -0.010638  -0.000206
    17  H    0.000329  -0.003038  -0.065327   0.371081  -0.052081  -0.001725
    18  H   -0.000001   0.000047   0.000295  -0.036189   0.353211  -0.044083
    19  H   -0.000000   0.000001  -0.000349   0.006393  -0.013719   0.340219
    20  H    0.000000  -0.000003   0.000146  -0.006400  -0.022628   0.372296
    21  H    0.000001  -0.000054  -0.000010   0.005807  -0.000558   0.004710
    22  H   -0.000000   0.000027  -0.000126   0.005737   0.000140  -0.021282
    23  H    0.000000   0.000161  -0.000013  -0.023976   0.000367   0.005877
    24  H   -0.000001  -0.000045   0.000049   0.007252  -0.029097  -0.007986
    25  H    0.000025   0.000149   0.004565  -0.015051  -0.025853   0.004998
               7          8          9         10         11         12
     1  C   -0.000124  -0.000001   0.000049   0.370426   0.378512   0.378217
     2  C    0.001736  -0.000325   0.000868  -0.020928  -0.029695  -0.028933
     3  C   -0.023700   0.000269  -0.017559   0.002984  -0.004825  -0.003051
     4  C    0.350087  -0.066132  -0.047919  -0.000129   0.000201   0.000215
     5  C   -0.066415   0.010114   0.342700   0.000001  -0.000003   0.000001
     6  C    0.338742  -0.061331  -0.025311  -0.000000   0.000000   0.000000
     7  C    4.701133   0.363704   0.275009   0.000002   0.000000   0.000001
     8  C    0.363704   5.177970  -0.023529   0.000000  -0.000001   0.000002
     9  C    0.275009  -0.023529   5.124488  -0.000000  -0.000005  -0.000007
    10  H    0.000002   0.000000  -0.000000   0.610098  -0.032032  -0.032305
    11  H    0.000000  -0.000001  -0.000005  -0.032032   0.602474  -0.033789
    12  H    0.000001   0.000002  -0.000007  -0.032305  -0.033789   0.601584
    13  H   -0.000053   0.000031   0.000008  -0.002840  -0.003921   0.005554
    14  H    0.000080  -0.000236   0.000010  -0.001513   0.005471  -0.004588
    15  H   -0.013157   0.002028   0.002475  -0.000089  -0.000481   0.005174
    16  H    0.003059  -0.000164  -0.004353   0.000041   0.006664  -0.000518
    17  H   -0.048600  -0.006480   0.012913   0.000002   0.000018   0.000015
    18  H    0.015972  -0.001041  -0.042727   0.000000   0.000000  -0.000000
    19  H   -0.018183   0.001025  -0.014464   0.000000   0.000000   0.000000
    20  H   -0.028128  -0.002360   0.006988   0.000000  -0.000000  -0.000000
    21  H   -0.017454   0.343249  -0.001660   0.000000   0.000000   0.000000
    22  H   -0.015154   0.365628   0.001285   0.000000   0.000000  -0.000000
    23  H   -0.017833   0.377478   0.001803  -0.000002   0.000001  -0.000004
    24  H   -0.015885   0.000330   0.344844  -0.000000   0.000000   0.000000
    25  H   -0.010046  -0.000171   0.372429  -0.000000  -0.000004   0.000002
              13         14         15         16         17         18
     1  C   -0.035083  -0.035083  -0.002718  -0.005499   0.000329  -0.000001
     2  C    0.365718   0.368959  -0.042609  -0.038286  -0.003038   0.000047
     3  C   -0.030899  -0.031229   0.364504   0.356155  -0.065327   0.000295
     4  C   -0.001417  -0.001699  -0.024426  -0.022902   0.371081  -0.036189
     5  C    0.000322  -0.000066   0.002541  -0.010638  -0.052081   0.353211
     6  C    0.000012   0.000002   0.000444  -0.000206  -0.001725  -0.044083
     7  C   -0.000053   0.000080  -0.013157   0.003059  -0.048600   0.015972
     8  C    0.000031  -0.000236   0.002028  -0.000164  -0.006480  -0.001041
     9  C    0.000008   0.000010   0.002475  -0.004353   0.012913  -0.042727
    10  H   -0.002840  -0.001513  -0.000089   0.000041   0.000002   0.000000
    11  H   -0.003921   0.005471  -0.000481   0.006664   0.000018   0.000000
    12  H    0.005554  -0.004588   0.005174  -0.000518   0.000015  -0.000000
    13  H    0.645640  -0.041303   0.006623  -0.006170   0.003755  -0.000029
    14  H   -0.041303   0.641075  -0.006106   0.006567   0.001887   0.000002
    15  H    0.006623  -0.006106   0.647613  -0.045542   0.005166  -0.000201
    16  H   -0.006170   0.006567  -0.045542   0.659186   0.004313   0.001346
    17  H    0.003755   0.001887   0.005166   0.004313   0.718078  -0.000935
    18  H   -0.000029   0.000002  -0.000201   0.001346  -0.000935   0.687757
    19  H    0.000000   0.000000   0.000006   0.000016  -0.000375   0.001442
    20  H    0.000000   0.000002   0.000015   0.000009   0.007559   0.000045
    21  H   -0.000001   0.000051  -0.000429   0.000034   0.000126   0.000017
    22  H   -0.000002  -0.000013  -0.000069   0.000001   0.000716   0.000042
    23  H    0.000016   0.002661   0.001050  -0.000071   0.005240   0.000010
    24  H    0.000001   0.000001  -0.000006   0.000153  -0.000542   0.001080
    25  H   -0.000001   0.000017  -0.000548   0.003421   0.000368   0.001047
              19         20         21         22         23         24
     1  C   -0.000000   0.000000   0.000001  -0.000000   0.000000  -0.000001
     2  C    0.000001  -0.000003  -0.000054   0.000027   0.000161  -0.000045
     3  C   -0.000349   0.000146  -0.000010  -0.000126  -0.000013   0.000049
     4  C    0.006393  -0.006400   0.005807   0.005737  -0.023976   0.007252
     5  C   -0.013719  -0.022628  -0.000558   0.000140   0.000367  -0.029097
     6  C    0.340219   0.372296   0.004710  -0.021282   0.005877  -0.007986
     7  C   -0.018183  -0.028128  -0.017454  -0.015154  -0.017833  -0.015885
     8  C    0.001025  -0.002360   0.343249   0.365628   0.377478   0.000330
     9  C   -0.014464   0.006988  -0.001660   0.001285   0.001803   0.344844
    10  H    0.000000   0.000000   0.000000   0.000000  -0.000002  -0.000000
    11  H    0.000000  -0.000000   0.000000   0.000000   0.000001   0.000000
    12  H    0.000000  -0.000000   0.000000  -0.000000  -0.000004   0.000000
    13  H    0.000000   0.000000  -0.000001  -0.000002   0.000016   0.000001
    14  H    0.000000   0.000002   0.000051  -0.000013   0.002661   0.000001
    15  H    0.000006   0.000015  -0.000429  -0.000069   0.001050  -0.000006
    16  H    0.000016   0.000009   0.000034   0.000001  -0.000071   0.000153
    17  H   -0.000375   0.007559   0.000126   0.000716   0.005240  -0.000542
    18  H    0.001442   0.000045   0.000017   0.000042   0.000010   0.001080
    19  H    0.654335  -0.047047  -0.000165   0.002219  -0.000220   0.007699
    20  H   -0.047047   0.620166   0.000018   0.002741   0.000884  -0.000299
    21  H   -0.000165   0.000018   0.618308  -0.027119  -0.033054   0.000022
    22  H    0.002219   0.002741  -0.027119   0.602672  -0.042116  -0.000006
    23  H   -0.000220   0.000884  -0.033054  -0.042116   0.593161  -0.000043
    24  H    0.007699  -0.000299   0.000022  -0.000006  -0.000043   0.642956
    25  H   -0.000085  -0.000279   0.000045  -0.000023   0.000001  -0.045633
              25
     1  C    0.000025
     2  C    0.000149
     3  C    0.004565
     4  C   -0.015051
     5  C   -0.025853
     6  C    0.004998
     7  C   -0.010046
     8  C   -0.000171
     9  C    0.372429
    10  H   -0.000000
    11  H   -0.000004
    12  H    0.000002
    13  H   -0.000001
    14  H    0.000017
    15  H   -0.000548
    16  H    0.003421
    17  H    0.000368
    18  H    0.001047
    19  H   -0.000085
    20  H   -0.000279
    21  H    0.000045
    22  H   -0.000023
    23  H    0.000001
    24  H   -0.045633
    25  H    0.580163
 Mulliken charges:
               1
     1  C   -0.375703
     2  C   -0.195002
     3  C   -0.179883
     4  C    0.048814
     5  C   -0.077866
     6  C   -0.243528
     7  C    0.225206
     8  C   -0.480058
     9  C   -0.308334
    10  H    0.106284
    11  H    0.111415
    12  H    0.112428
    13  H    0.094037
    14  H    0.095052
    15  H    0.098742
    16  H    0.093383
    17  H    0.047534
    18  H    0.062892
    19  H    0.081250
    20  H    0.096276
    21  H    0.108118
    22  H    0.124703
    23  H    0.128621
    24  H    0.095158
    25  H    0.130464
 Sum of Mulliken charges =  -0.00000
 Mulliken charges with hydrogens summed into heavy atoms:
               1
     1  C   -0.045576
     2  C   -0.005914
     3  C    0.012241
     4  C    0.096348
     5  C   -0.014974
     6  C   -0.066002
     7  C    0.225206
     8  C   -0.118616
     9  C   -0.082713
 Electronic spatial extent (au):  <R**2>=           1537.6097
 Charge=             -0.0000 electrons
 Dipole moment (field-independent basis, Debye):
    X=              0.1798    Y=             -0.0393    Z=             -0.1926  Tot=              0.2664
 Quadrupole moment (field-independent basis, Debye-Ang):
   XX=            -59.8369   YY=            -56.9951   ZZ=            -58.5862
   XY=             -0.4447   XZ=              0.2998   YZ=             -0.8507
 Traceless Quadrupole moment (field-independent basis, Debye-Ang):
   XX=             -1.3642   YY=              1.4776   ZZ=             -0.1135
   XY=             -0.4447   XZ=              0.2998   YZ=             -0.8507
 Octapole moment (field-independent basis, Debye-Ang**2):
  XXX=             -0.9827  YYY=             -2.1408  ZZZ=             -1.9651  XYY=              0.6545
  XXY=              1.9156  XXZ=             -1.7263  XZZ=              1.2751  YZZ=              0.1188
  YYZ=              0.0566  XYZ=              2.0351
 Hexadecapole moment (field-independent basis, Debye-Ang**3):
 XXXX=          -1504.6970 YYYY=           -435.6237 ZZZZ=           -225.9202 XXXY=             -0.7954
 XXXZ=             -9.9318 YYYX=             -2.0879 YYYZ=             -3.5929 ZZZX=              4.4766
 ZZZY=              2.3657 XXYY=           -315.5730 XXZZ=           -283.4939 YYZZ=           -106.2183
 XXYZ=             -5.0364 YYXZ=              1.0391 ZZXY=              0.1774
 N-N= 4.654148196196D+02 E-N=-1.745411908733D+03  KE= 3.491596282031D+02
 PrsmSu:  requested number of processors reduced to:  13 ShMem   1 Linda.
 Calling FoFJK, ICntrl=      2127 FMM=F ISym2X=0 I1Cent= 0 IOpClX= 0 NMat=1 NMatS=1 NMatT=0.
 ***** Axes restored to original set *****
 -------------------------------------------------------------------
 Center     Atomic                   Forces (Hartrees/Bohr)
 Number     Number              X              Y              Z
 -------------------------------------------------------------------
      1        6          -0.001801499   -0.001815737   -0.005133835
      2        6          -0.005075060    0.002284095    0.001174388
      3        6           0.010001272    0.006850008   -0.005632921
      4        6           0.001804292    0.011898739    0.015324097
      5        6          -0.014739218   -0.047178278   -0.005261202
      6        6          -0.040723492    0.021156506    0.037043630
      7        6           0.007809311    0.051887107   -0.060812711
      8        6          -0.003505162   -0.045252577    0.019173405
      9        6           0.056171784    0.010354900   -0.007391890
     10        1          -0.002631262   -0.000565433   -0.000070916
     11        1           0.000051863   -0.000350225   -0.000387557
     12        1          -0.000156666    0.000215505   -0.000307183
     13        1           0.001633108   -0.000449901   -0.003171979
     14        1           0.001730344   -0.000403281   -0.001908277
     15        1           0.002824294    0.004352552   -0.001127496
     16        1          -0.002250735   -0.000084736    0.000646904
     17        1           0.001212251   -0.003866888    0.001740309
     18        1          -0.002117406    0.023411585    0.003729188
     19        1           0.004751555    0.005757652   -0.003413496
     20        1          -0.005974197    0.000980132   -0.005940090
     21        1          -0.001229482   -0.007083971    0.000671034
     22        1          -0.004425618   -0.000330672    0.007998095
     23        1          -0.006188507    0.002549460    0.008885313
     24        1           0.001580347   -0.014323937    0.005854884
     25        1           0.001247884   -0.019992604   -0.001681691
 -------------------------------------------------------------------
 Cartesian Forces:  Max     0.060812711 RMS     0.016516971

 GradGradGradGradGradGradGradGradGradGradGradGradGradGradGradGradGradGrad
 Berny optimization.
 FormGI is forming the generalized inverse of G from B-inverse, IUseBI=4.
 Internal  Forces:  Max     0.031659677 RMS     0.007611859
 Search for a local minimum.
 Step number   1 out of a maximum of  150
 All quantities printed in internal units (Hartrees-Bohrs-Radians)
 Mixed Optimization -- RFO/linear search
 Second derivative matrix not updated -- first step.
 ITU=  0
     Eigenvalues ---    0.00230   0.00401   0.00514   0.00671   0.00726
     Eigenvalues ---    0.01863   0.02074   0.02116   0.02481   0.02723
     Eigenvalues ---    0.02812   0.03322   0.03399   0.03580   0.03892
     Eigenvalues ---    0.03961   0.04284   0.04785   0.04935   0.04997
     Eigenvalues ---    0.05100   0.05526   0.05574   0.05796   0.06717
     Eigenvalues ---    0.07116   0.07813   0.07912   0.07931   0.08623
     Eigenvalues ---    0.09210   0.10843   0.11873   0.12394   0.13758
     Eigenvalues ---    0.15549   0.16000   0.16000   0.16000   0.16000
     Eigenvalues ---    0.16000   0.16000   0.17980   0.19293   0.20158
     Eigenvalues ---    0.21530   0.21897   0.21958   0.23907   0.27038
     Eigenvalues ---    0.29644   0.30459   0.31639   0.33366   0.33379
     Eigenvalues ---    0.33389   0.33861   0.33959   0.34095   0.34110
     Eigenvalues ---    0.34126   0.34206   0.34273   0.34379   0.34418
     Eigenvalues ---    0.34434   0.34887   0.34927   0.38235
 RFO step:  Lambda=-5.70166836D-02 EMin= 2.30000000D-03
 Linear search not attempted -- first point.
 Maximum step size (   0.300) exceeded in Quadratic search.
    -- Step size scaled by   0.799
 Iteration  1 RMS(Cart)=  0.09072541 RMS(Int)=  0.00752713
 Iteration  2 RMS(Cart)=  0.00758858 RMS(Int)=  0.00175687
 Iteration  3 RMS(Cart)=  0.00012802 RMS(Int)=  0.00175564
 Iteration  4 RMS(Cart)=  0.00000057 RMS(Int)=  0.00175564
 Variable       Old X    -DE/DX   Delta X   Delta X   Delta X     New X
                                 (Linear)    (Quad)   (Total)
    R1        2.88678   0.00454   0.00000   0.01025   0.01025   2.89703
    R2        2.06631   0.00112   0.00000   0.00223   0.00223   2.06853
    R3        2.07146  -0.00044   0.00000  -0.00088  -0.00088   2.07058
    R4        2.07119  -0.00029   0.00000  -0.00058  -0.00058   2.07061
    R5        2.87057   0.01128   0.00000   0.02492   0.02492   2.89549
    R6        2.06696   0.00238   0.00000   0.00474   0.00474   2.07170
    R7        2.06872   0.00146   0.00000   0.00292   0.00292   2.07164
    R8        2.94291  -0.00425   0.00000  -0.01036  -0.01036   2.93255
    R9        2.08413  -0.00462   0.00000  -0.00944  -0.00944   2.07469
   R10        2.07170   0.00103   0.00000   0.00208   0.00208   2.07378
   R11        3.00686  -0.01229   0.00000  -0.03935  -0.03916   2.96771
   R12        3.00474   0.00658   0.00000   0.02373   0.02364   3.02838
   R13        2.07399  -0.00053   0.00000  -0.00107  -0.00107   2.07292
   R14        3.01174  -0.02608   0.00000  -0.06189  -0.06517   2.94657
   R15        3.01148  -0.02155   0.00000  -0.06766  -0.06408   2.94739
   R16        2.00725   0.02080   0.00000   0.03781   0.03781   2.04506
   R17        2.98179  -0.01154   0.00000  -0.02187  -0.02155   2.96024
   R18        2.07565  -0.00060   0.00000  -0.00121  -0.00121   2.07443
   R19        2.05794   0.00031   0.00000   0.00061   0.00061   2.05855
   R20        2.84809   0.02812   0.00000   0.06014   0.06014   2.90823
   R21        3.35209  -0.02677   0.00000  -0.11038  -0.11105   3.24104
   R22        2.05859   0.00631   0.00000   0.01242   0.01242   2.07101
   R23        2.08374  -0.00483   0.00000  -0.00986  -0.00986   2.07388
   R24        2.08390  -0.00678   0.00000  -0.01386  -0.01386   2.07004
   R25        2.06604   0.00191   0.00000   0.00381   0.00381   2.06985
   R26        2.06983  -0.00752   0.00000  -0.01506  -0.01506   2.05478
    A1        1.93075   0.00345   0.00000   0.01326   0.01326   1.94401
    A2        1.93845  -0.00044   0.00000  -0.00175  -0.00176   1.93670
    A3        1.94175  -0.00028   0.00000  -0.00147  -0.00148   1.94027
    A4        1.88439  -0.00127   0.00000  -0.00383  -0.00384   1.88055
    A5        1.88759  -0.00159   0.00000  -0.00558  -0.00558   1.88201
    A6        1.87872  -0.00003   0.00000  -0.00121  -0.00121   1.87750
    A7        1.91997   0.00911   0.00000   0.02936   0.02931   1.94927
    A8        1.90949  -0.00234   0.00000  -0.00400  -0.00415   1.90534
    A9        1.91392  -0.00250   0.00000  -0.00696  -0.00694   1.90699
   A10        1.90761  -0.00161   0.00000  -0.00056  -0.00067   1.90694
   A11        1.92895  -0.00299   0.00000  -0.00921  -0.00921   1.91974
   A12        1.88345   0.00013   0.00000  -0.00940  -0.00948   1.87397
   A13        1.99597  -0.00454   0.00000  -0.01274  -0.01274   1.98324
   A14        1.88104   0.00336   0.00000   0.01157   0.01151   1.89255
   A15        1.87237   0.00043   0.00000   0.00119   0.00122   1.87359
   A16        1.92746  -0.00086   0.00000  -0.00732  -0.00728   1.92018
   A17        1.91613   0.00317   0.00000   0.01289   0.01292   1.92905
   A18        1.86560  -0.00137   0.00000  -0.00508  -0.00507   1.86052
   A19        2.15327  -0.00328   0.00000  -0.00635  -0.00626   2.14701
   A20        1.95508   0.00655   0.00000   0.05007   0.05017   2.00525
   A21        1.94646  -0.00614   0.00000  -0.03340  -0.03372   1.91274
   A22        1.33283  -0.00090   0.00000   0.00075  -0.00013   1.33270
   A23        1.97896   0.00645   0.00000   0.01894   0.01888   1.99784
   A24        2.02293  -0.00015   0.00000  -0.01510  -0.01407   2.00886
   A25        1.52571   0.00361   0.00000   0.00517   0.00536   1.53107
   A26        1.47646   0.00394   0.00000   0.03073   0.03153   1.50799
   A27        2.14670  -0.00372   0.00000  -0.00115  -0.00146   2.14524
   A28        1.64095  -0.01007   0.00000  -0.05543  -0.05673   1.58421
   A29        2.16850   0.00236   0.00000   0.01689   0.01635   2.18485
   A30        2.27751   0.00401   0.00000   0.00576   0.00584   2.28336
   A31        1.33755   0.00755   0.00000   0.01881   0.01916   1.35671
   A32        2.00910  -0.00042   0.00000  -0.00044  -0.00308   2.00601
   A33        2.12082  -0.00592   0.00000  -0.02861  -0.02689   2.09394
   A34        1.92678   0.00158   0.00000   0.02717   0.02649   1.95327
   A35        2.06678  -0.00428   0.00000  -0.01713  -0.01672   2.05006
   A36        1.93164   0.00263   0.00000   0.00687   0.00687   1.93851
   A37        1.53597  -0.00710   0.00000  -0.02793  -0.02875   1.50722
   A38        1.82607   0.00632   0.00000   0.02713   0.03364   1.85971
   A39        1.37796   0.00021   0.00000   0.02384   0.02502   1.40297
   A40        1.91627   0.03166   0.00000   0.14312   0.13923   2.05550
   A41        1.53495  -0.01248   0.00000  -0.04988  -0.05102   1.48392
   A42        2.82510  -0.02007   0.00000  -0.10172  -0.10016   2.72494
   A43        2.02609   0.00510   0.00000   0.01399   0.01400   2.04008
   A44        1.91471  -0.00208   0.00000  -0.00430  -0.00425   1.91046
   A45        1.97004  -0.00653   0.00000  -0.02276  -0.02274   1.94731
   A46        1.86448  -0.00273   0.00000  -0.01285  -0.01283   1.85166
   A47        1.87938  -0.00106   0.00000  -0.00928  -0.00929   1.87009
   A48        1.79185   0.00781   0.00000   0.03870   0.03877   1.83062
   A49        1.24325   0.00884   0.00000   0.03813   0.03813   1.28138
   A50        1.92153   0.00190   0.00000   0.03284   0.03530   1.95683
   A51        1.95243  -0.00190   0.00000   0.02229   0.02278   1.97520
   A52        2.08254  -0.00419   0.00000  -0.02637  -0.02712   2.05542
   A53        2.23786  -0.00799   0.00000  -0.05344  -0.05691   2.18095
   A54        1.88603   0.00707   0.00000   0.03210   0.02774   1.91377
    D1        3.08925   0.00079   0.00000   0.00657   0.00658   3.09583
    D2        0.99353  -0.00139   0.00000  -0.00838  -0.00837   0.98515
    D3       -1.06899   0.00132   0.00000   0.00954   0.00953  -1.05946
    D4        0.99697   0.00039   0.00000   0.00376   0.00377   1.00074
    D5       -1.09874  -0.00179   0.00000  -0.01118  -0.01118  -1.10993
    D6        3.12192   0.00092   0.00000   0.00673   0.00672   3.12864
    D7       -1.09546   0.00091   0.00000   0.00745   0.00745  -1.08801
    D8        3.09200  -0.00127   0.00000  -0.00750  -0.00750   3.08451
    D9        1.02948   0.00144   0.00000   0.01042   0.01040   1.03989
   D10       -3.08861  -0.00148   0.00000  -0.01129  -0.01135  -3.09997
   D11        1.04422   0.00019   0.00000  -0.00187  -0.00189   1.04233
   D12       -0.95921  -0.00008   0.00000  -0.00226  -0.00230  -0.96151
   D13       -0.99175   0.00024   0.00000   0.00153   0.00153  -0.99023
   D14        3.14108   0.00191   0.00000   0.01095   0.01099  -3.13111
   D15        1.13765   0.00164   0.00000   0.01056   0.01058   1.14823
   D16        1.07859  -0.00239   0.00000  -0.01591  -0.01591   1.06268
   D17       -1.07176  -0.00072   0.00000  -0.00649  -0.00644  -1.07820
   D18       -3.07519  -0.00099   0.00000  -0.00687  -0.00686  -3.08204
   D19        2.52902  -0.00136   0.00000  -0.01581  -0.01515   2.51387
   D20       -2.22148   0.00048   0.00000   0.01495   0.01439  -2.20709
   D21        0.07825   0.00060   0.00000   0.00852   0.00831   0.08656
   D22       -1.62906  -0.00087   0.00000  -0.01537  -0.01465  -1.64371
   D23       -0.09638   0.00097   0.00000   0.01539   0.01490  -0.08148
   D24        2.20335   0.00109   0.00000   0.00896   0.00881   2.21216
   D25        0.42374  -0.00114   0.00000  -0.01814  -0.01744   0.40630
   D26        1.95642   0.00070   0.00000   0.01262   0.01211   1.96853
   D27       -2.02703   0.00082   0.00000   0.00619   0.00602  -2.02101
   D28        2.58421   0.00598   0.00000   0.06440   0.06460   2.64881
   D29        0.93860   0.01667   0.00000   0.12228   0.12346   1.06206
   D30       -1.43060   0.01012   0.00000   0.08977   0.08938  -1.34122
   D31        0.70646  -0.00146   0.00000   0.00365   0.00454   0.71099
   D32       -0.93916   0.00923   0.00000   0.06153   0.06340  -0.87576
   D33        2.97483   0.00268   0.00000   0.02902   0.02932   3.00415
   D34       -1.25944  -0.00044   0.00000   0.02145   0.02156  -1.23788
   D35       -2.90505   0.01026   0.00000   0.07932   0.08042  -2.82463
   D36        1.00893   0.00371   0.00000   0.04681   0.04635   1.05528
   D37       -2.82358   0.00938   0.00000   0.01537   0.01477  -2.80881
   D38        1.54072  -0.02187   0.00000  -0.12693  -0.12434   1.41638
   D39       -1.28252  -0.00197   0.00000  -0.03073  -0.03296  -1.31548
   D40       -0.71470   0.00529   0.00000   0.00670   0.00663  -0.70808
   D41       -2.63360  -0.02597   0.00000  -0.13560  -0.13248  -2.76608
   D42        0.82635  -0.00607   0.00000  -0.03940  -0.04110   0.78525
   D43        1.19903   0.01210   0.00000   0.02941   0.02870   1.22773
   D44       -0.71987  -0.01915   0.00000  -0.11289  -0.11041  -0.83027
   D45        2.74008   0.00075   0.00000  -0.01670  -0.01903   2.72106
   D46       -0.71206  -0.00202   0.00000  -0.01314  -0.01400  -0.72606
   D47       -2.57109  -0.00697   0.00000  -0.05121  -0.05162  -2.62271
   D48        1.30112  -0.00293   0.00000  -0.02339  -0.02364   1.27748
   D49        0.76088   0.00274   0.00000   0.02098   0.02045   0.78134
   D50       -1.09814  -0.00222   0.00000  -0.01709  -0.01716  -1.11530
   D51        2.77407   0.00182   0.00000   0.01074   0.01081   2.78488
   D52       -2.96283  -0.00134   0.00000  -0.02429  -0.02504  -2.98787
   D53        1.46133  -0.00630   0.00000  -0.06236  -0.06266   1.39867
   D54       -0.94964  -0.00226   0.00000  -0.03454  -0.03469  -0.98433
   D55        0.83682   0.00023   0.00000  -0.01881  -0.02193   0.81489
   D56        2.84814  -0.00255   0.00000  -0.04474  -0.04691   2.80123
   D57       -1.33770   0.00641   0.00000   0.03262   0.03159  -1.30611
   D58       -0.68192  -0.00469   0.00000  -0.03178  -0.03333  -0.71525
   D59        1.32940  -0.00747   0.00000  -0.05772  -0.05831   1.27109
   D60       -2.85645   0.00149   0.00000   0.01964   0.02019  -2.83625
   D61        3.10019   0.00129   0.00000   0.01458   0.01322   3.11341
   D62       -1.17168  -0.00149   0.00000  -0.01136  -0.01176  -1.18344
   D63        0.92566   0.00747   0.00000   0.06600   0.06674   0.99240
   D64        0.71232  -0.00305   0.00000  -0.00393  -0.00285   0.70947
   D65        2.54199   0.00298   0.00000   0.02329   0.03160   2.57359
   D66       -0.66667  -0.00383   0.00000  -0.03005  -0.03147  -0.69814
   D67        2.66973  -0.00137   0.00000  -0.00152  -0.00227   2.66747
   D68       -1.78378   0.00466   0.00000   0.02569   0.03218  -1.75160
   D69        1.29074  -0.00215   0.00000  -0.02764  -0.03089   1.25986
   D70       -1.36177   0.00013   0.00000   0.01991   0.01884  -1.34293
   D71        0.46790   0.00615   0.00000   0.04713   0.05329   0.52119
   D72       -2.74076  -0.00065   0.00000  -0.00620  -0.00978  -2.75054
   D73       -2.22806  -0.00010   0.00000  -0.01809  -0.01463  -2.24269
   D74        1.94015   0.00150   0.00000  -0.00769  -0.00424   1.93592
   D75       -0.04639  -0.00304   0.00000  -0.03946  -0.03598  -0.08237
   D76        2.42862  -0.00358   0.00000  -0.03783  -0.04063   2.38798
   D77        0.31365  -0.00198   0.00000  -0.02743  -0.03023   0.28341
   D78       -1.67290  -0.00652   0.00000  -0.05920  -0.06198  -1.73488
   D79       -0.49609   0.00513   0.00000   0.06830   0.06763  -0.42847
   D80       -2.61107   0.00674   0.00000   0.07870   0.07803  -2.53304
   D81        1.68557   0.00219   0.00000   0.04693   0.04628   1.73186
   D82       -0.85369   0.00658   0.00000   0.04552   0.04728  -0.80641
   D83       -2.65180  -0.00095   0.00000  -0.01757  -0.01671  -2.66850
   D84        0.95236   0.01187   0.00000   0.11048   0.10912   1.06148
   D85        0.68860   0.00177   0.00000   0.02602   0.02583   0.71444
   D86       -1.10950  -0.00577   0.00000  -0.03708  -0.03815  -1.14766
   D87        2.49466   0.00705   0.00000   0.09098   0.08767   2.58233
   D88       -2.65700  -0.00415   0.00000  -0.06334  -0.05782  -2.71482
   D89        1.82808  -0.01168   0.00000  -0.12644  -0.12181   1.70627
   D90       -0.85094   0.00114   0.00000   0.00162   0.00401  -0.84693
         Item               Value     Threshold  Converged?
 Maximum Force            0.031660     0.000450     NO 
 RMS     Force            0.007612     0.000300     NO 
 Maximum Displacement     0.386999     0.001800     NO 
 RMS     Displacement     0.091047     0.001200     NO 
 Predicted change in Energy=-3.514604D-02
 GradGradGradGradGradGradGradGradGradGradGradGradGradGradGradGradGradGrad

                          Input orientation:                          
 ---------------------------------------------------------------------
 Center     Atomic      Atomic             Coordinates (Angstroms)
 Number     Number       Type             X           Y           Z
 ---------------------------------------------------------------------
      1          6           0        1.063639    0.015008   -0.203966
      2          6           0        2.594609    0.067790   -0.144251
      3          6           0        3.093595    0.461130    1.250027
      4          6           0        4.637463    0.585496    1.346016
      5          6           0        5.355500    1.662581    2.235173
      6          6           0        6.550548    0.669318    2.363935
      7          6           0        5.312389   -0.278335    2.514963
      8          6           0        5.440064   -1.715732    1.980157
      9          6           0        4.641234    0.993494    3.449584
     10          1           0        0.711497   -0.221117   -1.213141
     11          1           0        0.626608    0.977121    0.085694
     12          1           0        0.667126   -0.746744    0.476558
     13          1           0        2.958515    0.796946   -0.877575
     14          1           0        3.001458   -0.910480   -0.425780
     15          1           0        2.730929   -0.282934    1.971261
     16          1           0        2.613841    1.412433    1.512962
     17          1           0        5.080016    0.448903    0.351645
     18          1           0        5.437375    2.702686    1.947706
     19          1           0        7.120960    0.750198    3.298349
     20          1           0        7.211768    0.500437    1.514862
     21          1           0        5.040297   -2.516990    2.612009
     22          1           0        6.499464   -1.953839    1.820869
     23          1           0        4.976500   -1.820937    0.993253
     24          1           0        5.126711    1.239255    4.400179
     25          1           0        3.581983    1.232113    3.507529
 ---------------------------------------------------------------------
                    Distance matrix (angstroms):
                    1          2          3          4          5
     1  C    0.000000
     2  C    1.533043   0.000000
     3  C    2.536502   1.532225   0.000000
     4  C    3.937019   2.581117   1.551840   0.000000
     5  C    5.204225   3.978383   2.744123   1.570442   0.000000
     6  C    6.093308   4.722530   3.637947   2.168659   1.559260
     7  C    5.052771   3.818055   2.658931   1.602550   1.961453
     8  C    5.188348   3.973749   3.282946   2.518323   3.388979
     9  C    5.206251   4.238072   2.741651   2.142773   1.559694
    10  H    1.094620   2.184515   3.493859   4.755325   6.083252
    11  H    1.095702   2.180089   2.776319   4.222410   5.239517
    12  H    1.095719   2.182672   2.818681   4.277194   5.556835
    13  H    2.157715   1.096294   2.158173   2.794268   4.022941
    14  H    2.158905   1.096265   2.167517   2.837907   4.386664
    15  H    2.756852   2.148716   1.097878   2.186315   3.277659
    16  H    2.702548   2.134195   1.097395   2.192428   2.846200
    17  H    4.077775   2.562891   2.180162   1.096943   2.257561
    18  H    5.566226   4.404575   3.317324   2.341877   1.082202
    19  H    7.035471   5.727568   4.527566   3.163304   2.253805
    20  H    6.402304   4.925241   4.126867   2.581238   2.305463
    21  H    5.491314   4.501049   3.809703   3.374971   4.208345
    22  H    6.125725   4.816282   4.214010   3.184455   3.815599
    23  H    4.484920   3.245706   2.969695   2.455668   3.717647
    24  H    6.261428   5.332515   3.829164   3.161436   2.217837
    25  H    4.647429   3.958036   2.435005   2.490841   2.224759
                    6          7          8          9         10
     6  C    0.000000
     7  C    1.566491   0.000000
     8  C    2.658744   1.538969   0.000000
     9  C    2.220181   1.715085   3.183905   0.000000
    10  H    6.905278   5.922013   5.898337   6.217646   0.000000
    11  H    6.354384   5.425317   5.831794   5.237676   1.769168
    12  H    6.338933   5.094405   5.097125   5.259358   1.770123
    13  H    4.840080   4.266880   4.542936   4.646986   2.489608
    14  H    4.782709   3.793148   3.519057   4.618704   2.517753
    15  H    3.956067   2.638099   3.064703   2.732028   3.771252
    16  H    4.095612   3.338392   4.241606   2.834844   3.703922
    17  H    2.502071   2.294083   2.732642   3.175899   4.688437
    18  H    2.355205   3.037086   4.418538   2.410563   6.393239
    19  H    1.097744   2.223175   3.262491   2.496219   7.897988
    20  H    1.089338   2.283490   2.875211   3.254827   7.086336
    21  H    3.534820   2.257216   1.095931   3.631017   6.216214
    22  H    2.679269   2.167540   1.097450   3.846103   6.760777
    23  H    3.249272   2.192725   1.095418   3.750599   5.061408
    24  H    2.549202   2.427261   3.832316   1.095316   7.289456
    25  H    3.230623   2.502188   3.804618   1.087340   5.712818
                   11         12         13         14         15
    11  H    0.000000
    12  H    1.768086   0.000000
    13  H    2.529455   3.076868   0.000000
    14  H    3.076452   2.508013   1.766711   0.000000
    15  H    3.093747   2.590084   3.055127   2.492549   0.000000
    16  H    2.485093   3.086402   2.492446   3.050391   1.760119
    17  H    4.492504   4.573704   2.476465   2.602444   2.945667
    18  H    5.439499   6.067794   4.214120   4.962066   4.029806
    19  H    7.249087   7.201063   5.896310   5.796316   4.701160
    20  H    6.755301   6.742838   4.888950   4.845976   4.571640
    21  H    6.170230   5.178662   5.243394   3.995735   3.276392
    22  H    6.789095   6.105769   5.233234   4.286266   4.125094
    23  H    5.251129   4.471193   3.798101   2.596801   2.892152
    24  H    6.239746   6.263137   5.722884   5.694553   3.735837
    25  H    4.528600   4.647477   4.450530   4.516484   2.319435
                   16         17         18         19         20
    16  H    0.000000
    17  H    2.891204   0.000000
    18  H    3.134661   2.784718   0.000000
    19  H    4.892881   3.597123   2.910482   0.000000
    20  H    4.687501   2.429011   2.861071   1.803178   0.000000
    21  H    4.747205   3.729255   5.276740   3.933794   3.876065
    22  H    5.150210   3.153827   4.777798   3.143409   2.573808
    23  H    4.038185   2.361048   4.646133   4.064839   3.264548
    24  H    3.831518   4.125223   2.872763   2.330287   3.635707
    25  H    2.224435   3.580101   2.835156   3.577759   4.204926
                   21         22         23         24         25
    21  H    0.000000
    22  H    1.752772   0.000000
    23  H    1.763216   1.738399   0.000000
    24  H    4.161057   4.328180   4.581974   0.000000
    25  H    4.121214   4.637543   4.193730   1.784113   0.000000
 Stoichiometry    C9H16
 Framework group  C1[X(C9H16)]
 Deg. of freedom    69
 Full point group                 C1      NOp   1
 Largest Abelian subgroup         C1      NOp   1
 Largest concise Abelian subgroup C1      NOp   1
                         Standard orientation:                         
 ---------------------------------------------------------------------
 Center     Atomic      Atomic             Coordinates (Angstroms)
 Number     Number       Type             X           Y           Z
 ---------------------------------------------------------------------
      1          6           0        3.628841   -0.068098    0.192678
      2          6           0        2.307700    0.208939   -0.533997
      3          6           0        1.112518   -0.386442    0.217519
      4          6           0       -0.243386   -0.182874   -0.509318
      5          6           0       -1.391705   -1.254051   -0.494050
      6          6           0       -2.404235   -0.080207   -0.661870
      7          6           0       -1.388145    0.502837    0.378089
      8          6           0       -1.119257    2.017798    0.346162
      9          6           0       -1.406214   -1.072902    1.055021
     10          1           0        4.483373    0.318958   -0.371375
     11          1           0        3.780963   -1.144083    0.332960
     12          1           0        3.641142    0.399697    1.183444
     13          1           0        2.353252   -0.222642   -1.540735
     14          1           0        2.177523    1.291506   -0.647573
     15          1           0        1.073355    0.062406    1.218687
     16          1           0        1.315595   -1.455314    0.360863
     17          1           0       -0.070293    0.283727   -1.486870
     18          1           0       -1.368777   -2.149395   -1.101499
     19          1           0       -3.392278   -0.253978   -0.216207
     20          1           0       -2.491193    0.430730   -1.620013
     21          1           0       -1.075558    2.533886    1.311982
     22          1           0       -1.908500    2.517165   -0.230139
     23          1           0       -0.191145    2.250978   -0.186921
     24          1           0       -2.341707   -1.425267    1.502693
     25          1           0       -0.562456   -1.548370    1.549299
 ---------------------------------------------------------------------
 Rotational constants (GHZ):           2.9509353           0.9455595           0.8369554
 Standard basis: 6-31G(2df,p) (6D, 7F)
 There are   359 symmetry adapted cartesian basis functions of A   symmetry.
 There are   332 symmetry adapted basis functions of A   symmetry.
   332 basis functions,   508 primitive gaussians,   359 cartesian basis functions
    35 alpha electrons       35 beta electrons
       nuclear repulsion energy       464.7830325582 Hartrees.
 NAtoms=   25 NActive=   25 NUniq=   25 SFac= 1.00D+00 NAtFMM=   60 NAOKFM=F Big=F
 Integral buffers will be    131072 words long.
 Raffenetti 2 integral format.
 Two-electron integral symmetry is turned on.
 One-electron integrals computed using PRISM.
 PrsmSu:  requested number of processors reduced to:  13 ShMem   1 Linda.
 NBasis=   332 RedAO= T EigKep=  3.61D-04  NBF=   332
 NBsUse=   332 1.00D-06 EigRej= -1.00D+00 NBFU=   332
 Initial guess from the checkpoint file:  "CCCC1C2CC1qCrC2.chk"
 B after Tr=    -0.000000    0.000000   -0.000000
         Rot=    0.999124    0.040593    0.007126    0.007201 Ang=   4.80 deg.
 ExpMin= 1.61D-01 ExpMax= 3.05D+03 ExpMxC= 4.57D+02 IAcc=2 IRadAn=         4 AccDes= 0.00D+00
 Harris functional with IExCor=  402 and IRadAn=       4 diagonalized for initial guess.
 HarFok:  IExCor=  402 AccDes= 0.00D+00 IRadAn=         4 IDoV= 1 UseB2=F ITyADJ=14
 ICtDFT=  3500011 ScaDFX=  1.000000  1.000000  1.000000  1.000000
 FoFCou: FMM=F IPFlag=           0 FMFlag=      100000 FMFlg1=           0
         NFxFlg=           0 DoJE=T BraDBF=F KetDBF=T FulRan=T
         wScrn=  0.000000 ICntrl=       500 IOpCl=  0 I1Cent=   200000004 NGrid=           0
         NMat0=    1 NMatS0=      1 NMatT0=    0 NMatD0=    1 NMtDS0=    0 NMtDT0=    0
 Petite list used in FoFCou.
 Requested convergence on RMS density matrix=1.00D-08 within 128 cycles.
 Requested convergence on MAX density matrix=1.00D-06.
 Requested convergence on             energy=1.00D-06.
 No special actions if energy rises.
 Integral accuracy reduced to 1.0D-05 until final iterations.
 Initial convergence to 1.0D-05 achieved.  Increase integral accuracy.
 SCF Done:  E(RB3LYP) =  -352.496411472     A.U. after   11 cycles
            NFock= 11  Conv=0.42D-08     -V/T= 2.0095
 PrsmSu:  requested number of processors reduced to:  13 ShMem   1 Linda.
 Calling FoFJK, ICntrl=      2127 FMM=F ISym2X=0 I1Cent= 0 IOpClX= 0 NMat=1 NMatS=1 NMatT=0.
 ***** Axes restored to original set *****
 -------------------------------------------------------------------
 Center     Atomic                   Forces (Hartrees/Bohr)
 Number     Number              X              Y              Z
 -------------------------------------------------------------------
      1        6           0.000665511   -0.000821808   -0.001842172
      2        6          -0.004329261    0.001379901    0.002105324
      3        6           0.005567726    0.005364283   -0.005759742
      4        6           0.000058593    0.004721660    0.009900805
      5        6          -0.007462551   -0.025917077   -0.010819730
      6        6          -0.014021435    0.003164453    0.022511138
[...]
 0000576,-0.00043798,0.00014733,-0.00029393,0.01949569,0.04930135,-0.00
 013336,0.00002120,0.00049913,-0.00069371,-0.00004589,0.00082632,-0.002
 42521,-0.00060826,0.00153267,0.10103184,0.03286730,-0.22788936,0.00582
 127,0.00773884,-0.01551107,0.00268217,-0.00027587,-0.00059765,0.003822
 82,-0.00302455,-0.01121415,-0.00017270,-0.00022127,0.00021582,-0.00448
 430,0.00072374,-0.00675044,0.00009928,0.00001532,0.00000843,-0.0000075
 0,0.00000725,-0.00002238,-0.00018730,-0.00002773,-0.00015988,0.0001581
 7,0.00029959,0.00060827,0.00006361,-0.00003144,-0.00000270,-0.00112825
 ,-0.00058204,0.00082205,0.00066383,-0.00022447,0.00028331,-0.10396470,
 -0.03736951,0.25726298,0.00000373,-0.00003832,-0.00007430,-0.00030651,
 0.00016460,-0.00009282,0.00114904,-0.00063702,0.00066039,0.00097189,-0
 .00990647,0.00300461,-0.05200740,0.00912861,0.00121236,0.00731792,0.01
 753131,0.00202556,-0.00273621,0.00038163,0.00016803,0.00334260,0.00013
 783,-0.00001950,-0.00019627,-0.00644274,-0.00458407,-0.00003879,-0.000
 00094,-0.00001887,-0.00001734,0.00000814,-0.00001105,-0.00000576,-0.00
 000414,0.00000602,0.00001039,0.00000136,0.00002737,0.00001448,0.000083
 88,0.00005625,-0.00010698,-0.00004661,-0.00001825,-0.00016271,0.000429
 57,-0.00008137,0.00015495,0.00039053,-0.00011261,0.04182497,0.00002127
 ,-0.00002352,-0.00003346,-0.00013456,0.00003956,0.00003710,-0.00015942
 ,0.00014962,-0.00012293,0.00266547,-0.00307658,0.00310931,0.01001785,-
 0.30889341,-0.03947490,-0.00406717,-0.00310479,0.00003643,0.00014668,-
 0.00996387,-0.00125248,0.00012249,0.00053326,-0.00042432,0.00267221,-0
 .00558143,-0.00622808,-0.00002939,-0.00000410,-0.00001287,-0.00003217,
 0.00002353,-0.00001845,-0.00000481,-0.00000751,0.00000539,0.00000835,0
 .00000603,0.00000837,0.00005158,0.00010373,0.00006881,-0.00000364,-0.0
 0006834,0.00002282,-0.00055081,0.00002130,-0.00030740,-0.00000993,0.00
 009757,-0.00036050,-0.01107703,0.33053105,0.00001616,-0.00006481,-0.00
 011838,-0.00039662,0.00019135,0.00001528,0.00127808,-0.00007612,0.0004
 5495,0.00565090,-0.01519392,0.00337257,0.00126251,-0.04007828,-0.05875
 784,-0.00144082,-0.00141506,-0.00237020,0.00007870,-0.00116591,-0.0033
 2905,0.00000629,-0.00046701,0.00337496,-0.00393920,0.01346612,0.007397
 80,-0.00006470,-0.00001057,-0.00003043,-0.00002823,0.00001103,-0.00000
 410,-0.00001881,0.00000010,0.00001010,0.00003188,0.00000068,0.00004716
 ,0.00004832,0.00008485,0.00005151,-0.00033946,-0.00001179,0.00005299,-
 0.00047818,0.00040663,-0.00006587,0.00041281,-0.00004857,0.00008134,-0
 .00193412,0.04471267,0.04908066,0.00003769,-0.00022239,-0.00023465,-0.
 00058116,0.00033810,0.00024919,0.00054498,0.00013334,-0.00229892,-0.00
 962953,-0.00031190,0.00035136,-0.01031014,-0.00442910,-0.01273701,-0.1
 4313276,0.01434791,-0.12045549,-0.00991680,0.00703383,-0.00986602,0.00
 028932,0.00032789,0.00026583,0.00010721,0.00075592,-0.00392163,-0.0001
 3705,-0.00003501,-0.00005187,0.00001556,0.00001197,0.00001520,-0.00000
 233,0.00000469,0.00002240,0.00001420,0.00001020,-0.00005039,0.00000753
 ,-0.00006652,-0.00000901,0.00006269,-0.00005987,0.00014751,-0.00037993
 ,0.00013151,-0.00008546,0.00037058,0.00002553,-0.00033355,0.00028309,0
 .00021420,0.00024676,0.16162165,-0.00000929,0.00011105,0.00009992,0.00
 049620,-0.00006015,0.00001719,-0.00019073,0.00254153,0.00025563,0.0001
 5411,-0.00197671,-0.00023306,0.01095155,0.00055587,0.01645383,0.014456
 26,-0.04696227,0.02059294,-0.01248731,0.00470782,-0.01677289,-0.000056
 34,0.00115054,-0.00038682,-0.00046600,-0.00251308,-0.00094132,0.000051
 42,-0.00000925,0.00001568,0.00000117,-0.00001439,0.00000436,-0.0000014
 6,0.00000015,-0.00000489,-0.00001343,-0.00000877,-0.00000665,0.0000225
 6,0.00002769,0.00000615,0.00011095,-0.00001514,-0.00000570,-0.00064247
 ,-0.00000732,-0.00018699,0.00000516,-0.00011727,-0.00019389,-0.0000405
 5,-0.00005824,0.00029441,-0.01576371,0.04339973,0.00002749,-0.00003167
 ,-0.00001158,0.00007170,0.00003650,0.00008167,0.00057289,0.00033533,0.
 00105818,-0.00162408,-0.00039985,-0.00098919,0.00412264,-0.00008553,0.
 00281396,-0.12329584,0.02100395,-0.21312658,0.00015501,0.00139207,-0.0
 0251812,-0.00018609,-0.00007622,-0.00002324,0.00288883,-0.00071892,0.0
 0255481,-0.00001930,-0.00001082,-0.00002457,-0.00000017,0.00000819,0.0
 0000480,-0.00000732,0.00000602,0.00000809,0.00001541,-0.00000913,0.000
 02206,0.00000043,-0.00001578,-0.00001335,-0.00037359,-0.00001863,0.000
 00296,-0.00014348,0.00000605,-0.00001255,0.00011136,-0.00017396,0.0008
 5955,-0.00039808,0.00014981,0.00015676,0.13451268,-0.02278433,0.225923
 44,0.00000428,0.00000504,-0.00002257,-0.00003383,-0.00002333,0.0000304
 9,0.00046847,0.00012815,-0.00050362,0.00026439,-0.00063449,0.00493525,
 -0.00819826,-0.00833668,0.01196908,-0.10782881,-0.01831730,0.10262535,
 -0.00812351,0.00379788,0.01260984,0.00029797,0.00047675,-0.00019747,-0
 .00902672,-0.00050813,0.00085915,-0.00000801,-0.00000208,-0.00000255,-
 0.00000354,0.00000338,0.00000111,0.00002141,0.00000326,-0.00000020,-0.
 00001721,-0.00000653,-0.00008521,-0.00000073,0.00001307,0.00001552,0.0
 0038728,0.00001269,0.00009380,-0.00006429,0.00000235,-0.00001984,-0.00
 020084,0.00022582,-0.00174982,0.00028660,0.00026441,-0.00020834,0.0098
 0462,0.00291665,-0.01619172,0.12225847,-0.00000353,0.00001157,-0.00000
 167,0.00003784,0.00000097,0.00001872,-0.00003226,-0.00001661,-0.000077
 42,0.00049690,-0.00274102,-0.00066544,0.00808876,0.00534715,-0.0164057
 3,-0.01899897,-0.05150080,0.03493517,-0.00854258,-0.00002505,0.0190325
 2,0.00002977,0.00098269,0.00065856,-0.00060027,-0.00125996,-0.00000647
 ,0.00000050,-0.00000156,-0.00000122,0.00000225,-0.00000288,-0.00000026
 ,0.00000737,-0.00000089,-0.00000187,-0.00000309,0.00001073,-0.00001853
 ,-0.00000446,0.00000099,0.00001430,0.00004840,-0.00001864,-0.00001898,
 -0.00003177,0.00000318,-0.00001989,-0.00007365,0.00047068,-0.00008720,
 -0.00016044,0.00010009,-0.00032475,-0.00144349,-0.00054355,0.00194704,
 0.02117264,0.04750459,-0.00000936,0.00002921,0.00002845,0.00007245,-0.
 00006741,-0.00004026,0.00025605,-0.00002794,0.00055307,-0.00308200,-0.
 00085209,0.00219186,0.00040846,0.00243480,-0.00392792,0.10525220,0.034
 51404,-0.24307016,-0.00171654,-0.00147947,0.00067970,0.00014977,0.0002
 8638,0.00021764,0.00330430,0.00026137,-0.00078760,0.00002617,0.0000098
 7,0.00001290,0.00000213,-0.00000599,-0.00000290,-0.00000687,-0.0000036
 6,-0.00000077,-0.00000652,-0.00000109,0.00004125,0.00000057,0.00000425
 ,-0.00000917,-0.00026691,-0.00004672,0.00019582,0.00005624,-0.00002116
 ,0.00003763,0.00013326,-0.00003713,0.00082647,0.00032121,-0.00020878,0
 .00001826,0.01205519,0.00329437,-0.01786121,-0.11687809,-0.03859628,0.
 26005189,0.00006524,0.00012993,-0.00002685,0.00008351,-0.00050151,-0.0
 0000142,0.00005121,-0.00013296,-0.00001475,0.00109604,-0.00110554,0.00
 049107,0.00036240,0.00011292,0.00008114,0.00062454,0.00036792,0.000611
 12,-0.00191891,0.00098474,-0.00076439,-0.12965272,0.06168215,-0.104285
 77,-0.00011581,-0.00008520,-0.00020364,-0.00001126,-0.00001351,-0.0000
 1147,-0.00006627,0.00002643,-0.00001196,0.00000146,-0.00001158,0.00001
 058,-0.00002548,0.00012306,-0.00006660,-0.00002919,0.00033018,0.000058
 88,0.00001812,-0.00007366,0.00000515,0.00000192,0.00006019,0.00005424,
 -0.00001567,0.00021364,-0.00005543,0.00000767,0.00008049,0.00012989,0.
 00017140,0.00031628,-0.00005563,0.00002139,-0.00003117,0.00000453,0.13
 786272,-0.00000738,0.00016268,0.00004705,-0.00002298,-0.00029659,-0.00
 016405,-0.00041441,-0.00060465,-0.00001743,-0.00160718,-0.00241083,-0.
 00313144,0.00058204,-0.00018496,0.00084626,-0.00028437,0.00127435,0.00
 047937,0.02105553,-0.01640026,0.02684777,0.06165123,-0.09127417,0.0768
 8234,0.00017824,0.00114773,-0.00014103,0.00005319,0.00001200,0.0000305
 8,-0.00005583,0.00000724,-0.00002441,0.00000721,-0.00001333,-0.0000056
 9,-0.00000690,0.00002860,-0.00002047,0.00008719,0.00020221,0.00007827,
 0.00015326,0.00005918,-0.00004639,0.00042345,0.00004067,0.00008919,-0.
 00003478,-0.00021019,0.00011137,-0.00053047,-0.00017184,-0.00080823,-0
 .00053088,-0.00029304,-0.00038299,-0.00009333,-0.00002919,-0.00008400,
 -0.06883193,0.10127434,0.00003057,0.00008242,0.00001754,0.00000092,-0.
 00023253,0.00002786,-0.00006453,0.00007966,-0.00005214,0.00032387,-0.0
 0205356,0.00095002,0.00014027,0.00019814,0.00064310,0.00001015,0.00028
 051,0.00011287,0.00371182,-0.00177985,0.00341662,-0.10419106,0.0768220
 4,-0.17655205,0.00025772,0.00064376,0.00064544,0.00000245,-0.00000850,
 -0.00000520,-0.00004092,0.00001564,-0.00000643,-0.00002484,-0.00000177
 ,0.00001003,0.00000833,-0.00003896,0.00003468,0.00003609,0.00016831,-0
 .00009597,-0.00000114,0.00003593,0.00002500,-0.00000283,0.00003692,0.0
 0002118,0.00002939,-0.00022682,0.00002005,0.00000061,0.00010269,-0.000
 03422,0.00008873,0.00025821,0.00006229,-0.00001291,-0.00000613,-0.0000
 2204,0.11529925,-0.08505605,0.18942292,-0.00004470,-0.00015192,-0.0000
 1229,0.00007003,0.00036458,-0.00003005,-0.00007155,0.00002791,0.000126
 92,0.00002501,-0.00026056,0.00033815,0.00033245,0.00012242,0.00004109,
 0.00038303,0.00053738,-0.00050245,-0.00207822,0.00073526,0.00133864,-0
 .08863943,0.02091823,0.09342139,0.00113008,-0.00038444,-0.00062000,-0.
 00002426,0.00000553,-0.00001260,0.00007125,-0.00001994,0.00000468,0.00
 005521,0.00000200,-0.00001667,-0.00002536,0.00007760,-0.00008736,-0.00
 015401,-0.00022667,0.00022070,0.00009373,-0.00003853,-0.00008663,0.000
 00413,-0.00003313,-0.00008901,0.00004126,0.00014416,-0.00013335,-0.000
 01432,0.00009842,-0.00010410,0.00002089,-0.00001549,-0.00000799,0.0001
 3708,0.00018291,0.00010476,0.00778031,-0.00452268,-0.01711520,0.092306
 08,0.00001637,0.00005073,0.00005201,0.00004491,-0.00011910,-0.00004183
 ,0.00003870,-0.00009923,0.00009954,0.00036221,0.00125178,0.00021029,0.
 00046343,0.00025732,-0.00102655,-0.00030528,0.00126072,-0.00002985,0.0
 1516697,-0.00716405,-0.03342387,0.02091839,-0.05687685,-0.04650182,-0.
 00074580,-0.00411351,0.00146947,0.00001014,0.00000101,0.00000071,-0.00
 002392,0.00001073,-0.00001063,-0.00001945,-0.00000701,0.00000247,0.000
 00820,-0.00001624,0.00006964,0.00004885,0.00008598,0.00001492,-0.00014
 503,-0.00000436,0.00001091,0.00001272,0.00002559,0.00001618,-0.0000555
 3,-0.00028898,0.00057515,-0.00037527,-0.00037275,0.00081096,-0.0000632
 5,-0.00004747,0.00007977,-0.00043269,-0.00029364,0.00033663,-0.0065231
 9,0.00233974,0.01187970,-0.02397501,0.06230011,0.00000551,0.00005174,0
 .00002282,-0.00000711,-0.00014515,-0.00000702,-0.00002462,0.00001944,-
 0.00002868,-0.00015773,-0.00045342,0.00054082,0.00004100,-0.00032813,0
 .00030488,-0.00010603,-0.00006045,0.00003392,0.00160653,-0.00136267,-0
 .00498286,0.09349193,-0.04657196,-0.25294463,-0.00059104,0.00070811,0.
 00223022,0.00002127,0.00000512,0.00001465,-0.00001708,0.00000569,-0.00
 000350,-0.00001592,-0.00000418,0.00000242,-0.00000382,-0.00002142,0.00
 003807,0.00004226,0.00007433,-0.00004521,-0.00003663,0.00002293,0.0000
 2337,0.00002618,0.00001328,0.00003416,0.00016333,-0.00043954,0.0002002
 2,-0.00010666,-0.00021652,0.00018428,-0.00000768,0.00000590,0.00001583
 ,-0.00022772,-0.00037581,0.00009234,0.00986360,-0.00452966,-0.01971313
 ,-0.10358508,0.05314074,0.27454545,0.00004557,0.00020825,-0.00002399,-
 0.00014815,-0.00046910,-0.00022032,0.00000096,-0.00026785,0.00007892,0
 .00006737,-0.00035863,-0.00025125,0.00036118,-0.00041141,-0.00009318,0
 .00180852,0.00167009,0.00019428,0.00251209,0.00067382,-0.00018174,-0.2
 6168553,-0.09705014,0.00956922,0.00039042,-0.00045385,-0.00012519,0.00
 002414,-0.00000041,0.00001498,-0.00008254,0.00002958,-0.00001386,-0.00
 000329,-0.00001388,0.00000472,-0.00000005,0.00005625,-0.00004385,-0.00
 010216,0.00049886,-0.00019257,0.00002426,-0.00001388,-0.00001673,0.000
 08213,0.00004323,0.00009898,0.00001223,0.00000670,0.00001947,0.0000725
 6,-0.00013085,-0.00001270,0.00004891,0.00015252,0.00001626,-0.00001702
 ,0.00000186,0.00001468,-0.01636649,-0.00716158,0.00168780,-0.01142319,
 -0.00448277,-0.00041365,0.28429753,0.00007780,0.00021835,0.00003770,0.
 00028312,-0.00064371,-0.00001193,0.00000533,-0.00031925,0.00026133,-0.
 00003286,0.00071075,0.00035445,-0.00100657,-0.00015693,0.00009590,0.00
 290941,-0.00320797,-0.00071332,-0.03414636,-0.01466553,0.00163966,-0.0
 9681670,-0.08996681,0.00403232,0.00013555,0.00120245,-0.00018829,0.000
 01347,-0.00000815,-0.00001060,-0.00010415,0.00003318,-0.00003016,0.000
 01528,-0.00001919,0.00000888,-0.00006642,0.00016982,-0.00010875,0.0001
 2647,0.00043211,0.00037551,0.00017457,-0.00010989,-0.00010587,0.000104
 51,0.00012813,-0.00002975,0.00007152,-0.00002573,0.00000532,0.00093662
 ,-0.00023764,-0.00014899,-0.00007907,-0.00024029,-0.00013546,-0.000050
 70,-0.00019863,0.00006546,0.01270434,0.00555762,-0.00141938,0.00641358
 ,0.00225930,0.00046186,0.10775312,0.09932699,-0.00005989,-0.00019745,0
 .00003926,-0.00012916,0.00063032,-0.00014366,-0.00001693,-0.00002803,0
 .00026066,0.00059066,-0.00002346,0.00011542,-0.00025649,-0.00004427,0.
 00038171,0.00028497,-0.00089838,0.00065597,-0.00502685,-0.00197702,-0.
 00124638,0.00948501,0.00405430,-0.04659403,-0.00059885,0.00053651,0.00
 020907,-0.00000865,0.00001623,-0.00001150,0.00009753,-0.00002287,0.000
 01350,0.00002517,0.00001782,-0.00001358,0.00003268,-0.00011171,0.00004
 020,-0.00026615,-0.00014067,-0.00023409,0.00004363,-0.00000329,-0.0000
 2972,0.00000752,-0.00006829,-0.00007173,-0.00000316,-0.00001485,0.0000
 2235,0.00012542,0.00000761,-0.00005876,0.00007849,0.00027275,0.0000635
 2,-0.00007713,-0.00033229,0.00000542,-0.02130576,-0.01023233,0.0009662
 9,0.02672938,0.01250467,-0.00051834,-0.00989740,-0.00395265,0.04608497
 ,0.00005210,-0.00003076,-0.00000769,0.00026300,0.00026033,-0.00015988,
 -0.00049230,-0.00017132,0.00015879,-0.00177169,-0.00060122,0.00327357,
 0.00198700,0.00076609,0.00583256,0.00266889,-0.00043833,0.00413042,0.0
 0290085,-0.00241336,0.00657200,0.00012274,-0.00033752,-0.00031369,-0.1
 2982317,0.01492661,-0.11872792,-0.00002858,-0.00001346,-0.00003331,0.0
 0000086,0.00001071,0.00000531,0.00002441,0.00002093,0.00001728,-0.0000
 8069,-0.00013634,-0.00020186,-0.00002281,-0.00004014,0.00001288,0.0008
 3932,0.00017024,-0.00028574,0.00008947,0.00007286,-0.00022543,0.001008
 42,-0.00016973,0.00105046,0.00011016,0.00014231,-0.00040513,0.00004436
 ,-0.00002389,-0.00012341,0.00038800,0.00004781,-0.00021063,0.00006292,
 -0.00006494,-0.00016058,-0.00001190,-0.00004031,-0.00002579,-0.0000095
 3,0.00009660,-0.00000510,0.13651539,0.00000009,0.00004806,0.00000880,0
 .00014568,-0.00001652,0.00002111,-0.00015970,0.00036258,-0.00000613,-0
 .00077653,-0.00170317,0.00116380,0.01251911,0.00136538,0.01894859,0.00
 075908,-0.00275666,-0.00036945,-0.01052319,0.00318425,-0.01383943,-0.0
 0057813,0.00094065,-0.00013335,0.01423649,-0.04790533,0.02235197,0.000
 01647,0.00000110,0.00000553,-0.00000404,-0.00000500,-0.00000163,0.0000
 1171,0.00000154,-0.00000184,0.00001501,0.00000040,-0.00004181,-0.00000
 340,0.00003798,0.00001722,0.00011343,-0.00007160,-0.00000178,-0.000109
 15,0.00001392,-0.00001384,0.00020963,0.00198093,0.00068372,0.00030201,
 -0.00003183,0.00002084,-0.00029818,0.00048206,-0.00002356,-0.00005796,
 -0.00013900,-0.00011294,0.00017352,-0.00021864,0.00025181,0.00024584,-
 0.00020111,0.00013688,0.00002824,-0.00001329,-0.00002447,-0.01516523,0
 .04435952,0.00002479,-0.00006690,-0.00002447,-0.00011961,0.00002491,0.
 00005339,0.00109300,0.00009125,0.00013071,0.00349401,0.00098439,-0.007
 57340,-0.00500848,-0.00386659,-0.00989607,-0.00307377,-0.00054222,-0.0
 0013767,-0.00924401,0.00795266,-0.01368765,-0.00004126,0.00045326,0.00
 029485,-0.11604159,0.02301445,-0.22397531,-0.00004696,-0.00001597,-0.0
 0002738,-0.00000538,0.00001057,0.00000094,-0.00003755,-0.00000241,0.00
 001099,-0.00001537,0.00002189,0.00011992,-0.00000453,-0.00001612,-0.00
 000187,-0.00030092,-0.00011875,0.00026738,-0.00010218,-0.00000108,0.00
 003936,-0.00136286,0.00065466,-0.00212012,0.00020722,0.00027833,0.0002
 3313,0.00159545,0.00003053,0.00050678,0.00031247,-0.00011047,0.0006857
 4,0.00020946,-0.00065719,0.00011200,0.00015122,-0.00013695,0.00004049,
 0.00000416,-0.00004531,0.00000841,0.12480849,-0.02727467,0.24988950,0.
 00003518,0.00002774,0.00007675,0.00045617,0.00020982,-0.00021995,-0.00
 113862,0.00001614,-0.00138189,-0.00082517,0.00028782,-0.00065615,-0.00
 356121,0.00270458,0.00060572,-0.00277758,-0.00060225,0.00508275,-0.005
 49544,-0.00387304,-0.00003490,0.00009976,-0.00003577,0.00007606,-0.303
 70889,-0.01766052,0.04300048,0.00001539,-0.00000289,-0.00001224,0.0000
 0542,0.00000461,0.00000207,0.00003103,0.00001634,-0.00000335,-0.000035
 56,-0.00014823,-0.00024107,-0.00004278,-0.00004153,0.00001958,0.000118
 39,0.00048239,-0.00261797,0.00021877,0.00006928,-0.00013410,0.00016143
 ,-0.00003889,0.00016886,0.00004225,-0.00030596,0.00020813,0.00064501,0
 .00007585,-0.00006797,-0.00081720,-0.00019131,0.00001497,-0.00000904,-
 0.00002170,-0.00001394,0.00003641,0.00009662,0.00006494,0.00009005,0.0
 0048154,0.00015106,-0.01483722,-0.00110078,0.00350419,0.33129345,0.000
 01720,0.00001858,0.00000850,0.00020859,0.00013380,-0.00010847,-0.00005
 466,0.00003841,0.00016665,-0.00026570,-0.00216596,-0.00090335,-0.02172
 425,0.00277454,0.00196407,-0.00060587,-0.00125956,0.00130405,0.0169170
 4,0.00258882,0.00013450,0.00049126,0.00102640,0.00029810,-0.01647283,-
 0.04765554,0.00344662,0.00000311,-0.00000729,0.00000094,0.00000435,-0.
 00000928,0.00001653,-0.00001319,0.00001403,0.00000375,-0.00003104,-0.0
 0007179,-0.00006014,0.00001050,-0.00005682,-0.00003809,0.00025731,0.00
 063132,0.00016208,-0.00006808,-0.00004995,0.00012998,0.00002181,0.0000
 9052,0.00000382,-0.00023604,-0.00000991,-0.00018562,-0.00003174,-0.000
 10952,-0.00009789,-0.00055885,0.00233876,0.00030826,0.00000447,0.00000
 132,-0.00003218,-0.00024743,-0.00023873,-0.00013708,-0.00030815,-0.000
 22569,0.00003182,0.00313207,0.00028376,-0.00066228,0.01955014,0.041919
 80,-0.00004201,0.00003844,-0.00002052,-0.00030002,-0.00033215,0.000202
 54,0.00010742,0.00052382,-0.00178199,0.00232097,-0.00054219,0.00215465
 ,0.01102127,-0.00395635,-0.00324461,0.00314854,0.00102511,-0.00675271,
 0.01651783,0.00688928,-0.00170861,-0.00024745,0.00062952,0.00033149,0.
 04016819,0.00332402,-0.05761171,0.00002747,0.00001308,0.00002772,-0.00
 000605,-0.00001171,-0.00000131,-0.00003479,-0.00002107,-0.00001108,0.0
 0007562,0.00011250,0.00020889,0.00004120,0.00004261,-0.00002458,-0.002
 36020,0.00010188,-0.00170091,-0.00018783,-0.00010836,0.00035895,-0.000
 16074,-0.00003757,0.00019879,-0.00036334,0.00012135,0.00023709,0.00042
 289,-0.00008535,0.00044569,0.00272513,0.00044410,0.00008357,-0.0000152
 6,-0.00011082,-0.00000670,-0.00007417,-0.00010226,-0.00008057,-0.00021
 703,-0.00043796,0.00005503,-0.02497560,-0.00176534,0.00505037,-0.04759
 203,-0.00575457,0.06359054\\0.00000422,-0.00000306,-0.00000097,0.00000
 237,0.00000945,-0.00000044,-0.00000836,0.00000442,-0.00000390,0.000008
 86,0.00000055,-0.00000077,-0.00000621,0.00001453,-0.00002096,0.0000166
 6,-0.00000422,-0.00000876,0.00000044,-0.00001879,-0.00000527,-0.000001
 60,0.00001252,0.00000947,-0.00000554,-0.00000534,0.00002363,-0.0000000
 5,0.00000154,-0.00000106,0.00000047,0.00000243,-0.00000095,0.00000096,
 0.00000010,-0.00000170,-0.00000217,-0.00000539,0.00000004,0.00000195,-
 0.00000267,0.00000345,0.00000024,-0.00000132,0.00000113,-0.00000181,-0
 .00000385,0.00000262,0.00000676,-0.00000138,0.00000428,0.00000104,-0.0
 0000541,0.00000463,-0.00000098,0.00000089,-0.00000131,0.00000294,0.000
 00002,0.00000090,-0.00000205,-0.00000031,0.00000047,-0.00000341,-0.000
 00050,-0.00000311,-0.00000183,0.00000051,0.00000070,-0.00000685,0.0000
 0269,-0.00000117,-0.00000605,0.00000260,-0.00000099\\\@


 EDUCATION WITHOUT COMMON SENSE IS A LOAD OF BOOKS ON THE BACK OF AN ASS.
 Job cpu time:       0 days  2 hours 42 minutes 48.4 seconds.
 Elapsed time:       0 days  0 hours 40 minutes 43.0 seconds.
 File lengths (MBytes):  RWF=    199 Int=      0 D2E=      0 Chk=     10 Scr=      1
 Normal termination of Gaussian 16 at Sun May 28 14:21:54 2023.
### All Done ###
