### Starting Gaussian ###
 Entering Gaussian System, Link 0=g16
 Initial command:
 /cluster/software/gaussian/gaussian-16-A.03/avx2/g16/l1.exe "/local/scratch/cz9n3/Gau-26554.inp" -scrdir="/local/scratch/cz9n3/"
 Entering Link 1 = /cluster/software/gaussian/gaussian-16-A.03/avx2/g16/l1.exe PID=     26557.
  
 Copyright (c) 1988,1990,1992,1993,1995,1998,2003,2009,2016,
            Gaussian, Inc.  All Rights Reserved.
  
 This is part of the Gaussian(R) 16 program.  It is based on
 the Gaussian(R) 09 system (copyright 2009, Gaussian, Inc.),
 the Gaussian(R) 03 system (copyright 2003, Gaussian, Inc.),
 the Gaussian(R) 98 system (copyright 1998, Gaussian, Inc.),
 the Gaussian(R) 94 system (copyright 1995, Gaussian, Inc.),
 the Gaussian 92(TM) system (copyright 1992, Gaussian, Inc.),
 the Gaussian 90(TM) system (copyright 1990, Gaussian, Inc.),
 the Gaussian 88(TM) system (copyright 1988, Gaussian, Inc.),
 the Gaussian 86(TM) system (copyright 1986, Carnegie Mellon
 University), and the Gaussian 82(TM) system (copyright 1983,
 Carnegie Mellon University). Gaussian is a federally registered
 trademark of Gaussian, Inc.
  
 This software contains proprietary and confidential information,
 including trade secrets, belonging to Gaussian, Inc.
  
 This software is provided under written license and may be
 used, copied, transmitted, or stored only in accord with that
 written license.
  
 The following legend is applicable only to US Government
 contracts under FAR:
  
                    RESTRICTED RIGHTS LEGEND
  
 Use, reproduction and disclosure by the US Government is
 subject to restrictions as set forth in subparagraphs (a)
 and (c) of the Commercial Computer Software - Restricted
 Rights clause in FAR 52.227-19.
  
 Gaussian, Inc.
 340 Quinnipiac St., Bldg. 40, Wallingford CT 06492
  
  
 ---------------------------------------------------------------
 Warning -- This program may not be used in any manner that
 competes with the business of Gaussian, Inc. or will provide
 assistance to any competitor of Gaussian, Inc.  The licensee
 of this program is prohibited from giving any competitor of
 Gaussian, Inc. access to this program.  By using this program,
 the user acknowledges that Gaussian, Inc. is engaged in the
 business of creating and licensing software in the field of
 computational chemistry and represents and warrants to the
 licensee that it is not a competitor of Gaussian, Inc. and that
 it will not use this program in any manner prohibited above.
 ---------------------------------------------------------------
  

 Cite this work as:
 Gaussian 16, Revision A.03,
 M. J. Frisch, G. W. Trucks, H. B. Schlegel, G. E. Scuseria, 
 M. A. Robb, J. R. Cheeseman, G. Scalmani, V. Barone, 
 G. A. Petersson, H. Nakatsuji, X. Li, M. Caricato, A. V. Marenich, 
 J. Bloino, B. G. Janesko, R. Gomperts, B. Mennucci, H. P. Hratchian, 
 J. V. Ortiz, A. F. Izmaylov, J. L. Sonnenberg, D. Williams-Young, 
 F. Ding, F. Lipparini, F. Egidi, J. Goings, B. Peng, A. Petrone, 
 T. Henderson, D. Ranasinghe, V. G. Zakrzewski, J. Gao, N. Rega, 
 G. Zheng, W. Liang, M. Hada, M. Ehara, K. Toyota, R. Fukuda, 
 J. Hasegawa, M. Ishida, T. Nakajima, Y. Honda, O. Kitao, H. Nakai, 
 T. Vreven, K. Throssell, J. A. Montgomery, Jr., J. E. Peralta, 
 F. Ogliaro, M. J. Bearpark, J. J. Heyd, E. N. Brothers, K. N. Kudin, 
 V. N. Staroverov, T. A. Keith, R. Kobayashi, J. Normand, 
 K. Raghavachari, A. P. Rendell, J. C. Burant, S. S. Iyengar, 
 J. Tomasi, M. Cossi, J. M. Millam, M. Klene, C. Adamo, R. Cammi, 
 J. W. Ochterski, R. L. Martin, K. Morokuma, O. Farkas, 
 J. B. Foresman, and D. J. Fox, Gaussian, Inc., Wallingford CT, 2016.
 
 ******************************************
 Gaussian 16:  ES64L-G16RevA.03 25-Dec-2016
                23-May-2023 
 ******************************************
 %chk=CCCCCCCqCCOrCC1CCC1.chk
 %NProcShared=20
 Will use up to   20 processors via shared memory.
 -----------------------------
 # opt freq b3lyp/6-31g(2df,p)
 -----------------------------
 1/18=20,19=15,26=3,38=1/1,3;
 2/9=110,12=2,17=6,18=5,40=1/2;
 3/5=1,6=6,7=104,11=2,25=1,30=1,71=1,74=-5/1,2,3;
 4//1;
 5/5=2,38=5/2;
 6/7=2,8=2,9=2,10=2,28=1/1;
 7//1,2,3,16;
 1/18=20,19=15,26=3/3(2);
 2/9=110/2;
 99//99;
 2/9=110/2;
 3/5=1,6=6,7=104,11=2,25=1,30=1,71=1,74=-5/1,2,3;
 4/5=5,16=3,69=1/1;
 5/5=2,38=5/2;
 7//1,2,3,16;
 1/18=20,19=15,26=3/3(-5);
 2/9=110/2;
 6/7=2,8=2,9=2,10=2,19=2,28=1/1;
 99/9=1/99;
 -------------------
 Title Card Required
 -------------------
 Symbolic Z-matrix:
 Charge =  0 Multiplicity = 1
 C                     0.98987  -0.03009  -0.107 
 C                     2.50152   0.00826  -0.14607 
 C                     3.08887  -0.4651    1.16445 
 C                     4.61179  -0.35043   1.10241 
 C                     5.14634  -0.88585   2.39695 
 C                     6.64487  -1.04071   2.47818 
 C                     7.03     -1.67432   3.82528 
 C                     6.42135  -3.0852    4.05358 
 C                     4.92575  -3.30809   4.25037 
 O                     4.73566  -4.67346   4.63219 
 C                     8.58171  -1.6983    3.92612 
 C                     9.12787  -2.20652   5.26393 
 C                     8.28965  -1.95214   6.54361 
 C                     8.606    -3.38265   7.00115 
 C                     9.10492  -3.72604   5.58304 
 H                     0.5889    0.34117  -1.05291 
 H                     0.60695   0.59734   0.70401 
 H                     0.62812  -1.05157   0.04818 
 H                     2.84335   1.02924  -0.34395 
 H                     2.86853  -0.62921  -0.95861 
 H                     2.78742  -1.5074    1.35014 
 H                     2.6995    0.1219    2.00677 
 H                     4.9375    0.67872   0.93867 
 H                     4.98878  -0.97212   0.281 
 H                     4.73438  -1.8759    2.39195 
 H                     4.75028  -0.34479   3.26553 
 H                     7.11646  -0.05618   2.37072 
 H                     7.00562  -1.66792   1.65482 
 H                     6.65488  -0.99689   4.60231 
 H                     6.77646  -3.43518   5.0154 
 H                     6.82145  -3.78216   3.30841 
 H                     4.30854  -3.22403   3.36431 
 H                     4.53409  -2.65257   5.03031 
 H                     4.90904  -5.19396   3.83916 
 H                     8.95148  -0.67205   3.78245 
 H                     9.01234  -2.28616   3.10503 
 H                     10.15852  -1.83703   5.38649 
 H                     7.21348  -1.79739   6.4177 
 H                     8.64742  -1.13896   7.18001 
 H                     7.72762  -3.9445    7.3354 
 H                     9.38346  -3.43212   7.76595 
 H                     8.43257  -4.35043   4.98827 
 H                     10.07054  -4.23601   5.53694 
 

 GradGradGradGradGradGradGradGradGradGradGradGradGradGradGradGradGradGrad
 Berny optimization.
 Initialization pass.
                           ----------------------------
                           !    Initial Parameters    !
                           ! (Angstroms and Degrees)  !
 --------------------------                            --------------------------
 ! Name  Definition              Value          Derivative Info.                !
 --------------------------------------------------------------------------------
 ! R1    R(1,2)                  1.5126         estimate D2E/DX2                !
 ! R2    R(1,16)                 1.0924         estimate D2E/DX2                !
 ! R3    R(1,17)                 1.0945         estimate D2E/DX2                !
 ! R4    R(1,18)                 1.0947         estimate D2E/DX2                !
 ! R5    R(2,3)                  1.5121         estimate D2E/DX2                !
 ! R6    R(2,19)                 1.0947         estimate D2E/DX2                !
 ! R7    R(2,20)                 1.096          estimate D2E/DX2                !
 ! R8    R(3,4)                  1.5285         estimate D2E/DX2                !
 ! R9    R(3,21)                 1.1008         estimate D2E/DX2                !
 ! R10   R(3,22)                 1.098          estimate D2E/DX2                !
 ! R11   R(4,5)                  1.4994         estimate D2E/DX2                !
 ! R12   R(4,23)                 1.0918         estimate D2E/DX2                !
 ! R13   R(4,24)                 1.097          estimate D2E/DX2                !
 ! R14   R(5,6)                  1.5087         estimate D2E/DX2                !
 ! R15   R(5,25)                 1.0724         estimate D2E/DX2                !
 ! R16   R(5,26)                 1.0973         estimate D2E/DX2                !
 ! R17   R(6,7)                  1.5377         estimate D2E/DX2                !
 ! R18   R(6,27)                 1.0969         estimate D2E/DX2                !
 ! R19   R(6,28)                 1.0961         estimate D2E/DX2                !
 ! R20   R(7,8)                  1.5534         estimate D2E/DX2                !
 ! R21   R(7,11)                 1.5552         estimate D2E/DX2                !
 ! R22   R(7,29)                 1.097          estimate D2E/DX2                !
 ! R23   R(8,9)                  1.5249         estimate D2E/DX2                !
 ! R24   R(8,30)                 1.0834         estimate D2E/DX2                !
 ! R25   R(8,31)                 1.096          estimate D2E/DX2                !
 ! R26   R(9,10)                 1.4304         estimate D2E/DX2                !
 ! R27   R(9,32)                 1.0831         estimate D2E/DX2                !
 ! R28   R(9,33)                 1.0915         estimate D2E/DX2                !
 ! R29   R(10,34)                0.9643         estimate D2E/DX2                !
 ! R30   R(11,12)                1.5318         estimate D2E/DX2                !
 ! R31   R(11,35)                1.1003         estimate D2E/DX2                !
 ! R32   R(11,36)                1.0978         estimate D2E/DX2                !
 ! R33   R(12,13)                1.5508         estimate D2E/DX2                !
 ! R34   R(12,15)                1.5528         estimate D2E/DX2                !
 ! R35   R(12,37)                1.1017         estimate D2E/DX2                !
 ! R36   R(13,14)                1.5349         estimate D2E/DX2                !
 ! R37   R(13,38)                1.0945         estimate D2E/DX2                !
 ! R38   R(13,39)                1.0928         estimate D2E/DX2                !
 ! R39   R(14,15)                1.542          estimate D2E/DX2                !
 ! R40   R(14,40)                1.095          estimate D2E/DX2                !
 ! R41   R(14,41)                1.0917         estimate D2E/DX2                !
 ! R42   R(15,42)                1.0935         estimate D2E/DX2                !
 ! R43   R(15,43)                1.093          estimate D2E/DX2                !
 ! A1    A(2,1,16)             109.623          estimate D2E/DX2                !
 ! A2    A(2,1,17)             110.7456         estimate D2E/DX2                !
 ! A3    A(2,1,18)             110.9503         estimate D2E/DX2                !
 ! A4    A(16,1,17)            108.5639         estimate D2E/DX2                !
 ! A5    A(16,1,18)            108.5767         estimate D2E/DX2                !
 ! A6    A(17,1,18)            108.3155         estimate D2E/DX2                !
 ! A7    A(1,2,3)              110.9683         estimate D2E/DX2                !
 ! A8    A(1,2,19)             109.899          estimate D2E/DX2                !
 ! A9    A(1,2,20)             109.8182         estimate D2E/DX2                !
 ! A10   A(3,2,19)             109.1068         estimate D2E/DX2                !
 ! A11   A(3,2,20)             109.2913         estimate D2E/DX2                !
 ! A12   A(19,2,20)            107.6905         estimate D2E/DX2                !
 ! A13   A(2,3,4)              109.1686         estimate D2E/DX2                !
 ! A14   A(2,3,21)             109.6478         estimate D2E/DX2                !
 ! A15   A(2,3,22)             111.085          estimate D2E/DX2                !
 ! A16   A(4,3,21)             110.5321         estimate D2E/DX2                !
 ! A17   A(4,3,22)             110.1418         estimate D2E/DX2                !
 ! A18   A(21,3,22)            106.2407         estimate D2E/DX2                !
 ! A19   A(3,4,5)              107.06           estimate D2E/DX2                !
 ! A20   A(3,4,23)             111.9648         estimate D2E/DX2                !
 ! A21   A(3,4,24)             109.2863         estimate D2E/DX2                !
 ! A22   A(5,4,23)             111.0829         estimate D2E/DX2                !
 ! A23   A(5,4,24)             108.7594         estimate D2E/DX2                !
 ! A24   A(23,4,24)            108.626          estimate D2E/DX2                !
 ! A25   A(4,5,6)              115.9279         estimate D2E/DX2                !
 ! A26   A(4,5,25)             100.8768         estimate D2E/DX2                !
 ! A27   A(4,5,26)             112.2506         estimate D2E/DX2                !
 ! A28   A(6,5,25)             106.682          estimate D2E/DX2                !
 ! A29   A(6,5,26)             111.5003         estimate D2E/DX2                !
 ! A30   A(25,5,26)            108.6795         estimate D2E/DX2                !
 ! A31   A(5,6,7)              109.7695         estimate D2E/DX2                !
 ! A32   A(5,6,27)             109.2457         estimate D2E/DX2                !
 ! A33   A(5,6,28)             110.1935         estimate D2E/DX2                !
 ! A34   A(7,6,27)             110.3638         estimate D2E/DX2                !
 ! A35   A(7,6,28)             109.8677         estimate D2E/DX2                !
 ! A36   A(27,6,28)            107.3676         estimate D2E/DX2                !
 ! A37   A(6,7,8)              113.8823         estimate D2E/DX2                !
 ! A38   A(6,7,11)             108.244          estimate D2E/DX2                !
 ! A39   A(6,7,29)             106.286          estimate D2E/DX2                !
 ! A40   A(8,7,11)             111.5556         estimate D2E/DX2                !
 ! A41   A(8,7,29)             108.8314         estimate D2E/DX2                !
 ! A42   A(11,7,29)            107.7452         estimate D2E/DX2                !
 ! A43   A(7,8,9)              122.4125         estimate D2E/DX2                !
 ! A44   A(7,8,30)             107.1845         estimate D2E/DX2                !
 ! A45   A(7,8,31)             109.5493         estimate D2E/DX2                !
 ! A46   A(9,8,30)              99.1893         estimate D2E/DX2                !
 ! A47   A(9,8,31)             110.6621         estimate D2E/DX2                !
 ! A48   A(30,8,31)            106.1732         estimate D2E/DX2                !
 ! A49   A(8,9,10)             107.7165         estimate D2E/DX2                !
 ! A50   A(8,9,32)             116.2312         estimate D2E/DX2                !
 ! A51   A(8,9,33)             110.8772         estimate D2E/DX2                !
 ! A52   A(10,9,32)            102.5163         estimate D2E/DX2                !
 ! A53   A(10,9,33)            109.5619         estimate D2E/DX2                !
 ! A54   A(32,9,33)            109.4793         estimate D2E/DX2                !
 ! A55   A(9,10,34)            105.7718         estimate D2E/DX2                !
 ! A56   A(7,11,12)            114.6775         estimate D2E/DX2                !
 ! A57   A(7,11,35)            108.2088         estimate D2E/DX2                !
 ! A58   A(7,11,36)            110.5575         estimate D2E/DX2                !
 ! A59   A(12,11,35)           107.679          estimate D2E/DX2                !
 ! A60   A(12,11,36)           109.6148         estimate D2E/DX2                !
 ! A61   A(35,11,36)           105.6624         estimate D2E/DX2                !
 ! A62   A(11,12,13)           118.265          estimate D2E/DX2                !
 ! A63   A(11,12,15)           119.9258         estimate D2E/DX2                !
 ! A64   A(11,12,37)           108.6291         estimate D2E/DX2                !
 ! A65   A(13,12,15)            89.023          estimate D2E/DX2                !
 ! A66   A(13,12,37)           111.0289         estimate D2E/DX2                !
 ! A67   A(15,12,37)           108.6113         estimate D2E/DX2                !
 ! A68   A(12,13,14)            88.9514         estimate D2E/DX2                !
 ! A69   A(12,13,38)           117.3694         estimate D2E/DX2                !
 ! A70   A(12,13,39)           115.1916         estimate D2E/DX2                !
 ! A71   A(14,13,38)           111.6371         estimate D2E/DX2                !
 ! A72   A(14,13,39)           116.9008         estimate D2E/DX2                !
 ! A73   A(38,13,39)           106.48           estimate D2E/DX2                !
 ! A74   A(13,14,15)            90.0052         estimate D2E/DX2                !
 ! A75   A(13,14,40)           113.8218         estimate D2E/DX2                !
 ! A76   A(13,14,41)           113.444          estimate D2E/DX2                !
 ! A77   A(15,14,40)           115.2147         estimate D2E/DX2                !
 ! A78   A(15,14,41)           113.8129         estimate D2E/DX2                !
 ! A79   A(40,14,41)           109.523          estimate D2E/DX2                !
 ! A80   A(12,15,14)            88.6167         estimate D2E/DX2                !
 ! A81   A(12,15,42)           117.1342         estimate D2E/DX2                !
 ! A82   A(12,15,43)           115.7757         estimate D2E/DX2                !
 ! A83   A(14,15,42)           115.3682         estimate D2E/DX2                !
 ! A84   A(14,15,43)           115.3746         estimate D2E/DX2                !
 ! A85   A(42,15,43)           104.7059         estimate D2E/DX2                !
 ! D1    D(16,1,2,3)           178.4725         estimate D2E/DX2                !
 ! D2    D(16,1,2,19)           57.7073         estimate D2E/DX2                !
 ! D3    D(16,1,2,20)          -60.5847         estimate D2E/DX2                !
 ! D4    D(17,1,2,3)            58.7055         estimate D2E/DX2                !
 ! D5    D(17,1,2,19)          -62.0597         estimate D2E/DX2                !
 ! D6    D(17,1,2,20)          179.6483         estimate D2E/DX2                !
 ! D7    D(18,1,2,3)           -61.6157         estimate D2E/DX2                !
 ! D8    D(18,1,2,19)          177.6191         estimate D2E/DX2                !
 ! D9    D(18,1,2,20)           59.3271         estimate D2E/DX2                !
 ! D10   D(1,2,3,4)           -177.479          estimate D2E/DX2                !
 ! D11   D(1,2,3,21)            61.297          estimate D2E/DX2                !
 ! D12   D(1,2,3,22)           -55.8278         estimate D2E/DX2                !
 ! D13   D(19,2,3,4)           -56.2468         estimate D2E/DX2                !
 ! D14   D(19,2,3,21)         -177.4708         estimate D2E/DX2                !
 ! D15   D(19,2,3,22)           65.4045         estimate D2E/DX2                !
 ! D16   D(20,2,3,4)            61.2679         estimate D2E/DX2                !
 ! D17   D(20,2,3,21)          -59.9561         estimate D2E/DX2                !
 ! D18   D(20,2,3,22)         -177.0808         estimate D2E/DX2                !
 ! D19   D(2,3,4,5)           -177.5764         estimate D2E/DX2                !
 ! D20   D(2,3,4,23)            60.4524         estimate D2E/DX2                !
 ! D21   D(2,3,4,24)           -59.9449         estimate D2E/DX2                !
 ! D22   D(21,3,4,5)           -56.8917         estimate D2E/DX2                !
 ! D23   D(21,3,4,23)         -178.8629         estimate D2E/DX2                !
 ! D24   D(21,3,4,24)           60.7398         estimate D2E/DX2                !
 ! D25   D(22,3,4,5)            60.2032         estimate D2E/DX2                !
 ! D26   D(22,3,4,23)          -61.768          estimate D2E/DX2                !
 ! D27   D(22,3,4,24)          177.8347         estimate D2E/DX2                !
 ! D28   D(3,4,5,6)            172.0359         estimate D2E/DX2                !
 ! D29   D(3,4,5,25)            57.2994         estimate D2E/DX2                !
 ! D30   D(3,4,5,26)           -58.2306         estimate D2E/DX2                !
 ! D31   D(23,4,5,6)           -65.4416         estimate D2E/DX2                !
 ! D32   D(23,4,5,25)          179.8219         estimate D2E/DX2                !
 ! D33   D(23,4,5,26)           64.2919         estimate D2E/DX2                !
 ! D34   D(24,4,5,6)            54.0598         estimate D2E/DX2                !
 ! D35   D(24,4,5,25)          -60.6766         estimate D2E/DX2                !
 ! D36   D(24,4,5,26)         -176.2066         estimate D2E/DX2                !
 ! D37   D(4,5,6,7)           -176.6535         estimate D2E/DX2                !
 ! D38   D(4,5,6,27)            62.2054         estimate D2E/DX2                !
 ! D39   D(4,5,6,28)           -55.5235         estimate D2E/DX2                !
 ! D40   D(25,5,6,7)           -65.2626         estimate D2E/DX2                !
 ! D41   D(25,5,6,27)          173.5963         estimate D2E/DX2                !
 ! D42   D(25,5,6,28)           55.8674         estimate D2E/DX2                !
 ! D43   D(26,5,6,7)            53.2528         estimate D2E/DX2                !
 ! D44   D(26,5,6,27)          -67.8882         estimate D2E/DX2                !
 ! D45   D(26,5,6,28)          174.3829         estimate D2E/DX2                !
 ! D46   D(5,6,7,8)             60.4047         estimate D2E/DX2                !
 ! D47   D(5,6,7,11)          -174.9129         estimate D2E/DX2                !
 ! D48   D(5,6,7,29)           -59.4051         estimate D2E/DX2                !
 ! D49   D(27,6,7,8)          -179.1295         estimate D2E/DX2                !
 ! D50   D(27,6,7,11)          -54.4472         estimate D2E/DX2                !
 ! D51   D(27,6,7,29)           61.0607         estimate D2E/DX2                !
 ! D52   D(28,6,7,8)           -60.9212         estimate D2E/DX2                !
 ! D53   D(28,6,7,11)           63.7612         estimate D2E/DX2                !
 ! D54   D(28,6,7,29)          179.269          estimate D2E/DX2                !
 ! D55   D(6,7,8,9)            -67.9836         estimate D2E/DX2                !
 ! D56   D(6,7,8,30)           178.7902         estimate D2E/DX2                !
 ! D57   D(6,7,8,31)            64.0058         estimate D2E/DX2                !
 ! D58   D(11,7,8,9)           169.1261         estimate D2E/DX2                !
 ! D59   D(11,7,8,30)           55.8999         estimate D2E/DX2                !
 ! D60   D(11,7,8,31)          -58.8845         estimate D2E/DX2                !
 ! D61   D(29,7,8,9)            50.3781         estimate D2E/DX2                !
 ! D62   D(29,7,8,30)          -62.8481         estimate D2E/DX2                !
 ! D63   D(29,7,8,31)         -177.6325         estimate D2E/DX2                !
 ! D64   D(6,7,11,12)          175.5895         estimate D2E/DX2                !
 ! D65   D(6,7,11,35)           55.3928         estimate D2E/DX2                !
 ! D66   D(6,7,11,36)          -59.8779         estimate D2E/DX2                !
 ! D67   D(8,7,11,12)          -58.3557         estimate D2E/DX2                !
 ! D68   D(8,7,11,35)         -178.5524         estimate D2E/DX2                !
 ! D69   D(8,7,11,36)           66.1769         estimate D2E/DX2                !
 ! D70   D(29,7,11,12)          61.038          estimate D2E/DX2                !
 ! D71   D(29,7,11,35)         -59.1587         estimate D2E/DX2                !
 ! D72   D(29,7,11,36)        -174.4294         estimate D2E/DX2                !
 ! D73   D(7,8,9,10)          -171.3861         estimate D2E/DX2                !
 ! D74   D(7,8,9,32)            74.3441         estimate D2E/DX2                !
 ! D75   D(7,8,9,33)           -51.5158         estimate D2E/DX2                !
 ! D76   D(30,8,9,10)          -54.1771         estimate D2E/DX2                !
 ! D77   D(30,8,9,32)         -168.447          estimate D2E/DX2                !
 ! D78   D(30,8,9,33)           65.6931         estimate D2E/DX2                !
 ! D79   D(31,8,9,10)           57.0807         estimate D2E/DX2                !
 ! D80   D(31,8,9,32)          -57.1891         estimate D2E/DX2                !
 ! D81   D(31,8,9,33)          176.951          estimate D2E/DX2                !
 ! D82   D(8,9,10,34)          -71.8018         estimate D2E/DX2                !
 ! D83   D(32,9,10,34)          51.3058         estimate D2E/DX2                !
 ! D84   D(33,9,10,34)         167.4985         estimate D2E/DX2                !
 ! D85   D(7,11,12,13)         -30.9952         estimate D2E/DX2                !
 ! D86   D(7,11,12,15)          75.6923         estimate D2E/DX2                !
 ! D87   D(7,11,12,37)        -158.6707         estimate D2E/DX2                !
 ! D88   D(35,11,12,13)         89.4945         estimate D2E/DX2                !
 ! D89   D(35,11,12,15)       -163.818          estimate D2E/DX2                !
 ! D90   D(35,11,12,37)        -38.181          estimate D2E/DX2                !
 ! D91   D(36,11,12,13)       -156.0241         estimate D2E/DX2                !
 ! D92   D(36,11,12,15)        -49.3366         estimate D2E/DX2                !
 ! D93   D(36,11,12,37)         76.3004         estimate D2E/DX2                !
 ! D94   D(11,12,13,14)        137.7393         estimate D2E/DX2                !
 ! D95   D(11,12,13,38)         23.7982         estimate D2E/DX2                !
 ! D96   D(11,12,13,39)       -102.8229         estimate D2E/DX2                !
 ! D97   D(15,12,13,14)         13.8682         estimate D2E/DX2                !
 ! D98   D(15,12,13,38)       -100.073          estimate D2E/DX2                !
 ! D99   D(15,12,13,39)        133.3059         estimate D2E/DX2                !
 ! D100  D(37,12,13,14)        -95.7294         estimate D2E/DX2                !
 ! D101  D(37,12,13,38)        150.3294         estimate D2E/DX2                !
 ! D102  D(37,12,13,39)         23.7083         estimate D2E/DX2                !
 ! D103  D(11,12,15,14)       -136.2609         estimate D2E/DX2                !
 ! D104  D(11,12,15,42)        -18.2796         estimate D2E/DX2                !
 ! D105  D(11,12,15,43)        106.0702         estimate D2E/DX2                !
 ! D106  D(13,12,15,14)        -13.804          estimate D2E/DX2                !
 ! D107  D(13,12,15,42)        104.1773         estimate D2E/DX2                !
 ! D108  D(13,12,15,43)       -131.4729         estimate D2E/DX2                !
 ! D109  D(37,12,15,14)         98.0938         estimate D2E/DX2                !
 ! D110  D(37,12,15,42)       -143.9249         estimate D2E/DX2                !
 ! D111  D(37,12,15,43)        -19.5751         estimate D2E/DX2                !
 ! D112  D(12,13,14,15)        -13.9652         estimate D2E/DX2                !
 ! D113  D(12,13,14,40)       -131.7224         estimate D2E/DX2                !
 ! D114  D(12,13,14,41)        102.1464         estimate D2E/DX2                !
 ! D115  D(38,13,14,15)        105.2045         estimate D2E/DX2                !
 ! D116  D(38,13,14,40)        -12.5527         estimate D2E/DX2                !
 ! D117  D(38,13,14,41)       -138.684          estimate D2E/DX2                !
 ! D118  D(39,13,14,15)       -131.8755         estimate D2E/DX2                !
 ! D119  D(39,13,14,40)        110.3673         estimate D2E/DX2                !
 ! D120  D(39,13,14,41)        -15.7639         estimate D2E/DX2                !
 ! D121  D(13,14,15,12)         13.948          estimate D2E/DX2                !
 ! D122  D(13,14,15,42)       -105.6193         estimate D2E/DX2                !
 ! D123  D(13,14,15,43)        131.9802         estimate D2E/DX2                !
 ! D124  D(40,14,15,12)        130.4657         estimate D2E/DX2                !
 ! D125  D(40,14,15,42)         10.8984         estimate D2E/DX2                !
 ! D126  D(40,14,15,43)       -111.5021         estimate D2E/DX2                !
 ! D127  D(41,14,15,12)       -101.8318         estimate D2E/DX2                !
 ! D128  D(41,14,15,42)        138.6009         estimate D2E/DX2                !
 ! D129  D(41,14,15,43)         16.2004         estimate D2E/DX2                !
 --------------------------------------------------------------------------------
 Trust Radius=3.00D-01 FncErr=1.00D-07 GrdErr=1.00D-06 EigMax=2.50D+02 EigMin=1.00D-04
 Number of steps in this run=    258 maximum allowed number of steps=    258.
 GradGradGradGradGradGradGradGradGradGradGradGradGradGradGradGradGradGrad

                          Input orientation:                          
 ---------------------------------------------------------------------
 Center     Atomic      Atomic             Coordinates (Angstroms)
 Number     Number       Type             X           Y           Z
 ---------------------------------------------------------------------
      1          6           0        0.989870   -0.030090   -0.107000
      2          6           0        2.501520    0.008260   -0.146070
      3          6           0        3.088870   -0.465100    1.164450
      4          6           0        4.611790   -0.350430    1.102410
      5          6           0        5.146340   -0.885850    2.396950
      6          6           0        6.644870   -1.040710    2.478180
      7          6           0        7.030000   -1.674320    3.825280
      8          6           0        6.421350   -3.085200    4.053580
      9          6           0        4.925750   -3.308090    4.250370
     10          8           0        4.735660   -4.673460    4.632190
     11          6           0        8.581710   -1.698300    3.926120
     12          6           0        9.127870   -2.206520    5.263930
     13          6           0        8.289650   -1.952140    6.543610
     14          6           0        8.606000   -3.382650    7.001150
     15          6           0        9.104920   -3.726040    5.583040
     16          1           0        0.588900    0.341170   -1.052910
     17          1           0        0.606950    0.597340    0.704010
     18          1           0        0.628120   -1.051570    0.048180
     19          1           0        2.843350    1.029240   -0.343950
     20          1           0        2.868530   -0.629210   -0.958610
     21          1           0        2.787420   -1.507400    1.350140
     22          1           0        2.699500    0.121900    2.006770
     23          1           0        4.937500    0.678720    0.938670
     24          1           0        4.988780   -0.972120    0.281000
     25          1           0        4.734380   -1.875900    2.391950
     26          1           0        4.750280   -0.344790    3.265530
     27          1           0        7.116460   -0.056180    2.370720
     28          1           0        7.005620   -1.667920    1.654820
     29          1           0        6.654880   -0.996890    4.602310
     30          1           0        6.776460   -3.435180    5.015400
     31          1           0        6.821450   -3.782160    3.308410
     32          1           0        4.308540   -3.224030    3.364310
     33          1           0        4.534090   -2.652570    5.030310
     34          1           0        4.909040   -5.193960    3.839160
     35          1           0        8.951480   -0.672050    3.782450
     36          1           0        9.012340   -2.286160    3.105030
     37          1           0       10.158520   -1.837030    5.386490
     38          1           0        7.213480   -1.797390    6.417700
     39          1           0        8.647420   -1.138960    7.180010
     40          1           0        7.727620   -3.944500    7.335400
     41          1           0        9.383460   -3.432120    7.765950
     42          1           0        8.432570   -4.350430    4.988270
     43          1           0       10.070540   -4.236010    5.536940
 ---------------------------------------------------------------------
                    Distance matrix (angstroms):
                    1          2          3          4          5
     1  C    0.000000
     2  C    1.512641   0.000000
     3  C    2.492312   1.512122   0.000000
     4  C    3.831918   2.478023   1.528491   0.000000
     5  C    4.927305   3.776434   2.435009   1.499417   0.000000
     6  C    6.299487   5.015414   3.834364   2.550028   1.508699
     7  C    7.392529   6.253785   4.906601   3.874848   2.491984
     8  C    7.493003   6.524693   5.130051   4.411675   3.034339
     9  C    6.724813   6.016955   4.580352   4.330817   3.057952
    10  O    7.619170   7.052776   5.696265   5.582408   4.417120
    11  C    8.756998   7.514239   6.270478   5.054736   3.847103
    12  C    9.990535   8.836394   7.503852   6.415473   5.080977
    13  C   10.060401   9.060764   7.628549   6.760088   5.311512
    14  C   10.943989   9.992282   8.545051   7.742300   6.277094
    15  C   10.577837   9.506450   8.145583   7.187420   5.821358
    16  H    1.092409   2.142733   3.437529   4.615989   5.846142
    17  H    1.094547   2.158483   2.738743   4.134699   5.066750
    18  H    1.094699   2.161157   2.765013   4.180027   5.094948
    19  H    2.147956   1.094717   2.137429   2.668862   4.060033
    20  H    2.147917   1.096032   2.140763   2.713757   4.063750
    21  H    2.745339   2.148862   1.100792   2.174460   2.654551
    22  H    2.722859   2.164909   1.098035   2.167445   2.674851
    23  H    4.144831   2.749577   2.185574   1.091809   2.148970
    24  H    4.126651   2.707397   2.155739   1.096966   2.123561
    25  H    4.865503   3.870048   2.490947   2.001250   1.072350
    26  H    5.060996   4.101290   2.681286   2.167556   1.097288
    27  H    6.608697   5.257001   4.224190   2.822865   2.137852
    28  H    6.478869   5.132222   4.126520   2.787716   2.149259
    29  H    7.429983   6.388101   4.981778   4.103831   2.674254
    30  H    8.445013   7.534797   6.103238   5.432584   4.001582
    31  H    7.729837   6.705409   5.434299   4.639591   3.467761
    32  H    5.767566   5.102528   3.733453   3.669568   2.665479
    33  H    6.769849   6.164922   4.671034   4.553491   3.229665
    34  H    7.589310   6.981497   5.729678   5.571171   4.549296
    35  H    8.884096   7.582749   6.423936   5.110671   4.055171
    36  H    8.931238   7.630517   6.493813   5.207915   4.172314
    37  H   10.840093   9.625173   8.347920   7.164463   5.913040
    38  H    9.188492   8.279252   6.810583   6.092191   4.611985
    39  H   10.628649   9.631181   8.218183   7.337936   5.932899
    40  H   10.775398   9.945292   8.467872   7.840657   6.356621
    41  H   12.000396  11.036185   9.591917   8.756050   7.298139
    42  H   10.001045   8.974240   7.633644   6.760049   5.433007
    43  H   11.489229  10.373066   9.059920   8.034970   6.732819
                    6          7          8          9         10
     6  C    0.000000
     7  C    1.537682   0.000000
     8  C    2.590711   1.553434   0.000000
     9  C    3.352170   2.697735   1.524869   0.000000
    10  O    4.634837   3.861339   2.387239   1.430439   0.000000
    11  C    2.506053   1.555168   2.570388   4.007818   4.913473
    12  C    3.909579   2.598848   3.092293   4.460782   5.077046
    13  C    4.479255   3.008857   3.312796   4.291081   4.867233
    14  C    5.457836   3.935520   3.680943   4.595279   4.717806
    15  C    4.785708   3.406548   3.154595   4.406376   4.570794
    16  H    7.145136   8.327467   8.475478   7.762097   8.640746
    17  H    6.502874   7.493887   7.654278   6.817704   7.762614
    18  H    6.488937   7.459113   7.330784   6.420273   7.141647
    19  H    5.167269   6.497673   7.004925   6.652563   7.801512
    20  H    5.122656   6.426172   6.616379   6.208222   7.148369
    21  H    4.046010   4.914638   4.796195   4.028185   4.958974
    22  H    4.140028   5.028580   5.322320   4.664200   5.833889
    23  H    2.870826   4.271753   5.106033   5.182871   6.506048
    24  H    2.752261   4.149890   4.555186   4.606151   5.718115
    25  H    2.086852   2.713842   2.658813   2.354042   3.583995
    26  H    2.166494   2.697794   3.305048   3.127594   4.539312
    27  H    1.096925   2.177521   3.534142   4.348243   5.665839
    28  H    1.096109   2.170606   2.846771   3.708490   4.801117
    29  H    2.124606   1.096997   2.171792   2.907817   4.147465
    30  H    3.491173   2.140396   1.083368   2.006627   2.417654
    31  H    2.869845   2.180284   1.095952   2.169265   2.626277
    32  H    3.318215   3.165508   2.226731   1.083105   1.972511
    33  H    3.683321   2.939156   2.168622   1.091517   2.069572
    34  H    4.702644   4.109322   2.603829   1.930253   0.964302
    35  H    2.675347   2.167594   3.506902   4.834683   5.874222
    36  H    2.747545   2.196083   2.872532   4.365359   5.130440
    37  H    4.630133   3.500213   4.159449   5.553077   6.166175
    38  H    4.051629   2.601817   2.806241   3.494745   4.195166
    39  H    5.111464   3.762562   4.303232   5.209486   5.855420
    40  H    5.761678   4.238081   3.635255   4.215792   4.097628
    41  H    6.417104   4.915029   4.761947   5.678544   5.741378
    42  H    4.522242   3.237486   2.553323   3.732125   3.728040
    43  H    5.594745   4.328616   4.103816   5.383787   5.428709
                   11         12         13         14         15
    11  C    0.000000
    12  C    1.531768   0.000000
    13  C    2.645938   1.550775   0.000000
    14  C    3.506199   2.161843   1.534855   0.000000
    15  C    2.670367   1.552836   2.175794   1.542036   0.000000
    16  H    9.635102  10.922784  11.057483  11.958621  11.536924
    17  H    8.902177  10.062832   9.981215  10.930649  10.710371
    18  H    8.872219  10.039109  10.084675  10.836249  10.471084
    19  H    7.655178   9.022951   9.273041  10.325861   9.846276
    20  H    7.592362   8.965894   9.349973  10.191063   9.553853
    21  H    6.343967   7.483838   7.579212   8.325044   7.921528
    22  H    6.449607   7.573280   7.492285   8.491905   8.284066
    23  H    5.277817   6.677701   7.040858   8.167391   7.638028
    24  H    5.169466   6.594346   7.146780   8.003459   7.255227
    25  H    4.145741   5.259309   5.466447   6.205196   5.719064
    26  H    4.116822   5.159742   5.084931   6.168470   5.980518
    27  H    2.694955   4.128002   4.731179   5.892793   5.266958
    28  H    2.764740   4.221340   5.062586   5.838215   4.906509
    29  H    2.159139   2.831365   2.711756   3.905529   3.796418
    30  H    2.731705   2.664677   2.612389   2.700589   2.414237
    31  H    2.796883   3.409732   3.996386   4.120747   3.223558
    32  H    4.572031   5.279188   5.251180   5.632045   5.308487
    33  H    4.302685   4.621293   4.109125   4.582322   4.727614
    34  H    5.071066   5.362210   5.408509   5.191005   4.775072
    35  H    1.100255   2.140209   3.114587   4.222172   3.548595
    36  H    1.097821   2.163455   3.529544   4.067819   2.867466
    37  H    2.153661   1.101718   2.201102   2.721468   2.171880
    38  H    2.844265   2.272325   1.094506   2.189195   2.827347
    39  H    3.302269   2.245413   1.092825   2.251189   3.074508
    40  H    4.171100   3.045039   2.216373   1.094966   2.239519
    41  H    4.288733   2.797772   2.209271   1.091701   2.220151
    42  H    2.860804   2.270634   2.862045   2.240170   1.093466
    43  H    3.354300   2.254327   3.066108   2.239869   1.092985
                   16         17         18         19         20
    16  H    0.000000
    17  H    1.775589   0.000000
    18  H    1.775855   1.774673   0.000000
    19  H    2.461424   2.507238   3.064438   0.000000
    20  H    2.479363   3.063246   2.492278   1.768869   0.000000
    21  H    3.745043   3.098687   2.562315   3.050838   2.471462
    22  H    3.723487   2.510377   3.082811   2.523855   3.063693
    23  H    4.794857   4.337667   4.728386   2.480613   3.096932
    24  H    4.781526   4.673604   4.367594   2.999812   2.479855
    25  H    5.828161   5.099190   4.799390   4.415992   4.032603
    26  H    6.036269   4.961469   5.276654   4.307283   4.633059
    27  H    7.381610   6.751202   6.963013   5.177551   5.427496
    28  H    7.248623   6.854081   6.605580   5.347359   5.002444
    29  H    8.400478   7.369923   7.554133   6.564941   6.737616
    30  H    9.453629   8.538861   8.255723   8.007686   7.670344
    31  H    8.652609   8.036351   7.512826   7.232882   6.616202
    32  H    6.786620   5.948263   5.409417   5.829947   5.243506
    33  H    7.844270   6.685897   6.530040   6.730304   6.537219
    34  H    8.557665   7.866149   7.060963   7.777770   6.929590
    35  H    9.712881   8.984393   9.130560   7.565105   7.712442
    36  H    9.754264   9.204893   9.009089   7.806650   7.550169
    37  H   11.738316  10.912574  10.951850   9.724462   9.739768
    38  H   10.211195   9.056888   9.192062   8.532748   8.640207
    39  H   11.615141  10.469120  10.732186   9.746707   9.994626
    40  H   11.819139  10.738137  10.577122  10.371432  10.168211
    41  H   13.013620  11.963890  11.911632  11.333457  11.243601
    42  H   10.955826  10.201747   9.807977   9.413437   8.953848
    43  H   12.420877  11.673818  11.376574  10.702336  10.347469
                   21         22         23         24         25
    21  H    0.000000
    22  H    1.758838   0.000000
    23  H    3.093747   2.541561   0.000000
    24  H    2.505109   3.068544   1.777760   0.000000
    25  H    2.238708   2.877552   2.946076   2.310335   0.000000
    26  H    2.978792   2.451117   2.548902   3.059059   1.762865
    27  H    4.678484   4.435505   2.709006   3.119759   2.997689
    28  H    4.232234   4.676537   3.208849   2.537551   2.396904
    29  H    5.078826   4.861435   4.379420   4.631439   3.057232
    30  H    5.750035   6.190822   6.076650   5.628233   3.672048
    31  H    5.028196   5.824639   5.391140   4.518873   2.971462
    32  H    3.052459   3.953122   4.637971   3.878225   1.715890
    33  H    4.231539   4.495019   5.291668   5.058320   2.757585
    34  H    4.928206   6.041365   6.549964   5.521847   3.624147
    35  H    6.679040   6.547568   5.101343   5.296526   4.600726
    36  H    6.514272   6.845208   5.485248   5.088308   4.356345
    37  H    8.410344   8.420029   7.305556   7.317124   6.195973
    38  H    6.734558   6.596665   6.428917   6.579472   4.728505
    39  H    8.274221   7.983103   7.484771   7.810878   6.227398
    40  H    8.134394   8.379254   8.371206   8.130243   6.138101
    41  H    9.400793   9.511810   9.125641   9.021601   7.274314
    42  H    7.292909   7.858700   7.342147   6.740257   5.151775
    43  H    8.832805   9.262058   8.464441   8.006383   6.628400
                   26         27         28         29         30
    26  H    0.000000
    27  H    2.546132   0.000000
    28  H    3.071094   1.767061   0.000000
    29  H    2.416551   2.465357   3.043189   0.000000
    30  H    4.088760   4.304367   3.803843   2.476022   0.000000
    31  H    4.013365   3.853469   2.690407   3.075655   1.742479
    32  H    2.914604   4.348208   3.552193   3.463829   2.976796
    33  H    2.913252   4.525847   4.297898   2.724373   2.375063
    34  H    4.885561   5.781505   4.647574   4.609311   2.822075
    35  H    4.245514   2.395741   3.050400   2.460094   3.726361
    36  H    4.686132   3.017678   2.551912   3.075985   3.157360
    37  H    5.997859   4.639011   4.888224   3.687312   3.759005
    38  H    4.256005   4.406730   4.769171   2.061183   2.199952
    39  H    5.580462   5.161930   5.788180   3.261125   3.668604
    40  H    6.195668   6.335661   6.162231   4.160403   2.558615
    41  H    7.159032   6.756091   6.790614   4.835712   3.789721
    42  H    5.707210   5.198490   4.510425   3.815151   1.892384
    43  H    6.971805   6.018514   5.573121   4.799184   3.429912
                   31         32         33         34         35
    31  H    0.000000
    32  H    2.574753   0.000000
    33  H    3.077812   1.775668   0.000000
    34  H    2.435608   2.113459   2.831623   0.000000
    35  H    3.799280   5.314540   4.999295   6.065658   0.000000
    36  H    2.660710   4.803391   4.888321   5.082452   1.751557
    37  H    4.386113   6.343126   5.694399   6.420300   2.321006
    38  H    3.709540   4.449401   3.136131   4.847267   3.351354
    39  H    5.030900   6.142716   4.881773   6.448239   3.442945
    40  H    4.130877   5.289493   4.145016   4.661463   4.982993
    41  H    5.153260   6.721053   5.622083   6.208397   4.865477
    42  H    2.395948   4.573144   4.252369   3.800955   3.905605
    43  H    3.965969   6.240598   5.780678   5.517355   4.127026
                   36         37         38         39         40
    36  H    0.000000
    37  H    2.592394   0.000000
    38  H    3.801128   3.120613   0.000000
    39  H    4.249082   2.446924   1.752379   0.000000
    40  H    4.721930   3.761510   2.390940   2.956558   0.000000
    41  H    4.814055   2.967635   3.032974   2.478641   1.785977
    42  H    2.853758   3.074843   3.169773   3.894024   2.484100
    43  H    3.291791   2.405303   3.858160   3.783737   2.967947
                   41         42         43
    41  H    0.000000
    42  H    3.076198   0.000000
    43  H    2.467145   1.731207   0.000000
 Stoichiometry    C14H28O
 Framework group  C1[X(C14H28O)]
 Deg. of freedom   123
 Full point group                 C1      NOp   1
 Largest Abelian subgroup         C1      NOp   1
 Largest concise Abelian subgroup C1      NOp   1
                         Standard orientation:                         
 ---------------------------------------------------------------------
 Center     Atomic      Atomic             Coordinates (Angstroms)
 Number     Number       Type             X           Y           Z
 ---------------------------------------------------------------------
      1          6           0        6.295176    0.544190    0.415834
      2          6           0        5.268290   -0.418742   -0.137654
      3          6           0        3.872431   -0.027372    0.292369
      4          6           0        2.876656   -1.059939   -0.235380
      5          6           0        1.508178   -0.596008    0.164981
      6          6           0        0.352297   -1.372869   -0.415190
      7          6           0       -0.975826   -0.729871    0.017368
      8          6           0       -1.144756    0.741188   -0.452319
      9          6           0       -0.288332    1.877617    0.095669
     10          8           0       -0.834559    3.107358   -0.389644
     11          6           0       -2.139579   -1.628594   -0.489115
     12          6           0       -3.534926   -1.178225   -0.045848
     13          6           0       -3.674408   -0.456777    1.319788
     14          6           0       -4.645974    0.534662    0.664894
     15          6           0       -4.208500    0.042527   -0.729486
     16          1           0        7.296011    0.226098    0.114997
     17          1           0        6.251958    0.570858    1.509203
     18          1           0        6.123736    1.557939    0.039953
     19          1           0        5.480654   -1.433152    0.214878
     20          1           0        5.320455   -0.428847   -1.232397
     21          1           0        3.632533    0.974169   -0.096356
     22          1           0        3.800939    0.042389    1.385851
     23          1           0        3.081348   -2.059922    0.152154
     24          1           0        2.932481   -1.090385   -1.330501
     25          1           0        1.483682    0.376003   -0.287268
     26          1           0        1.410012   -0.480549    1.251753
     27          1           0        0.404330   -2.411993   -0.067685
     28          1           0        0.419017   -1.389976   -1.509133
     29          1           0       -0.986958   -0.754925    1.114022
     30          1           0       -2.116570    1.076673   -0.110685
     31          1           0       -1.177665    0.775074   -1.547253
     32          1           0        0.734631    1.919483   -0.257757
     33          1           0       -0.296695    1.879539    1.187153
     34          1           0       -0.620951    3.136188   -1.329547
     35          1           0       -1.979547   -2.647164   -0.105101
     36          1           0       -2.110857   -1.716362   -1.583045
     37          1           0       -4.219476   -2.039079   -0.109923
     38          1           0       -2.787516    0.048505    1.714826
     39          1           0       -4.068692   -1.071712    2.132599
     40          1           0       -4.419833    1.583921    0.881381
     41          1           0       -5.693775    0.332283    0.895035
     42          1           0       -3.558623    0.724693   -1.284445
     43          1           0       -5.022522   -0.189322   -1.421028
 ---------------------------------------------------------------------
 Rotational constants (GHZ):           1.1260970           0.2050674           0.1836643
 Standard basis: 6-31G(2df,p) (6D, 7F)
 There are   605 symmetry adapted cartesian basis functions of A   symmetry.
 There are   560 symmetry adapted basis functions of A   symmetry.
   560 basis functions,   856 primitive gaussians,   605 cartesian basis functions
    60 alpha electrons       60 beta electrons
       nuclear repulsion energy      1049.9676627837 Hartrees.
 NAtoms=   43 NActive=   43 NUniq=   43 SFac= 1.00D+00 NAtFMM=   60 NAOKFM=F Big=F
 Integral buffers will be    131072 words long.
 Raffenetti 2 integral format.
 Two-electron integral symmetry is turned on.
 One-electron integrals computed using PRISM.
 PrsmSu:  requested number of processors reduced to:  12 ShMem   1 Linda.
 NBasis=   560 RedAO= T EigKep=  4.07D-04  NBF=   560
 NBsUse=   560 1.00D-06 EigRej= -1.00D+00 NBFU=   560
 ExpMin= 1.61D-01 ExpMax= 5.48D+03 ExpMxC= 8.25D+02 IAcc=3 IRadAn=         5 AccDes= 0.00D+00
 Harris functional with IExCor=  402 and IRadAn=       5 diagonalized for initial guess.
 HarFok:  IExCor=  402 AccDes= 0.00D+00 IRadAn=         5 IDoV= 1 UseB2=F ITyADJ=14
 ICtDFT=  3500011 ScaDFX=  1.000000  1.000000  1.000000  1.000000
 FoFCou: FMM=F IPFlag=           0 FMFlag=      100000 FMFlg1=           0
         NFxFlg=           0 DoJE=T BraDBF=F KetDBF=T FulRan=T
         wScrn=  0.000000 ICntrl=       500 IOpCl=  0 I1Cent=   200000004 NGrid=           0
         NMat0=    1 NMatS0=      1 NMatT0=    0 NMatD0=    1 NMtDS0=    0 NMtDT0=    0
 Petite list used in FoFCou.
 Requested convergence on RMS density matrix=1.00D-08 within 128 cycles.
 Requested convergence on MAX density matrix=1.00D-06.
 Requested convergence on             energy=1.00D-06.
 No special actions if energy rises.
 Integral accuracy reduced to 1.0D-05 until final iterations.
 Initial convergence to 1.0D-05 achieved.  Increase integral accuracy.
 SCF Done:  E(RB3LYP) =  -625.569642731     A.U. after   12 cycles
            NFock= 12  Conv=0.40D-08     -V/T= 2.0079

 **********************************************************************

            Population analysis using the SCF density.

 **********************************************************************

 Orbital symmetries:
       Occupied  (A) (A) (A) (A) (A) (A) (A) (A) (A) (A) (A) (A)
                 (A) (A) (A) (A) (A) (A) (A) (A) (A) (A) (A) (A)
                 (A) (A) (A) (A) (A) (A) (A) (A) (A) (A) (A) (A)
                 (A) (A) (A) (A) (A) (A) (A) (A) (A) (A) (A) (A)
                 (A) (A) (A) (A) (A) (A) (A) (A) (A) (A) (A) (A)
       Virtual   (A) (A) (A) (A) (A) (A) (A) (A) (A) (A) (A) (A)
                 (A) (A) (A) (A) (A) (A) (A) (A) (A) (A) (A) (A)
                 (A) (A) (A) (A) (A) (A) (A) (A) (A) (A) (A) (A)
                 (A) (A) (A) (A) (A) (A) (A) (A) (A) (A) (A) (A)
                 (A) (A) (A) (A) (A) (A) (A) (A) (A) (A) (A) (A)
                 (A) (A) (A) (A) (A) (A) (A) (A) (A) (A) (A) (A)
                 (A) (A) (A) (A) (A) (A) (A) (A) (A) (A) (A) (A)
                 (A) (A) (A) (A) (A) (A) (A) (A) (A) (A) (A) (A)
                 (A) (A) (A) (A) (A) (A) (A) (A) (A) (A) (A) (A)
                 (A) (A) (A) (A) (A) (A) (A) (A) (A) (A) (A) (A)
                 (A) (A) (A) (A) (A) (A) (A) (A) (A) (A) (A) (A)
                 (A) (A) (A) (A) (A) (A) (A) (A) (A) (A) (A) (A)
                 (A) (A) (A) (A) (A) (A) (A) (A) (A) (A) (A) (A)
                 (A) (A) (A) (A) (A) (A) (A) (A) (A) (A) (A) (A)
                 (A) (A) (A) (A) (A) (A) (A) (A) (A) (A) (A) (A)
                 (A) (A) (A) (A) (A) (A) (A) (A) (A) (A) (A) (A)
                 (A) (A) (A) (A) (A) (A) (A) (A) (A) (A) (A) (A)
                 (A) (A) (A) (A) (A) (A) (A) (A) (A) (A) (A) (A)
                 (A) (A) (A) (A) (A) (A) (A) (A) (A) (A) (A) (A)
                 (A) (A) (A) (A) (A) (A) (A) (A) (A) (A) (A) (A)
                 (A) (A) (A) (A) (A) (A) (A) (A) (A) (A) (A) (A)
                 (A) (A) (A) (A) (A) (A) (A) (A) (A) (A) (A) (A)
                 (A) (A) (A) (A) (A) (A) (A) (A) (A) (A) (A) (A)
                 (A) (A) (A) (A) (A) (A) (A) (A) (A) (A) (A) (A)
                 (A) (A) (A) (A) (A) (A) (A) (A) (A) (A) (A) (A)
                 (A) (A) (A) (A) (A) (A) (A) (A) (A) (A) (A) (A)
                 (A) (A) (A) (A) (A) (A) (A) (A) (A) (A) (A) (A)
                 (A) (A) (A) (A) (A) (A) (A) (A) (A) (A) (A) (A)
                 (A) (A) (A) (A) (A) (A) (A) (A) (A) (A) (A) (A)
                 (A) (A) (A) (A) (A) (A) (A) (A) (A) (A) (A) (A)
                 (A) (A) (A) (A) (A) (A) (A) (A) (A) (A) (A) (A)
                 (A) (A) (A) (A) (A) (A) (A) (A) (A) (A) (A) (A)
                 (A) (A) (A) (A) (A) (A) (A) (A) (A) (A) (A) (A)
                 (A) (A) (A) (A) (A) (A) (A) (A) (A) (A) (A) (A)
                 (A) (A) (A) (A) (A) (A) (A) (A) (A) (A) (A) (A)
                 (A) (A) (A) (A) (A) (A) (A) (A) (A) (A) (A) (A)
                 (A) (A) (A) (A) (A) (A) (A) (A) (A) (A) (A) (A)
                 (A) (A) (A) (A) (A) (A) (A) (A) (A) (A) (A) (A)
                 (A) (A) (A) (A) (A) (A) (A) (A) (A) (A) (A) (A)
                 (A) (A) (A) (A) (A) (A) (A) (A) (A) (A) (A) (A)
                 (A) (A) (A) (A) (A) (A) (A) (A) (A) (A) (A) (A)
                 (A) (A) (A) (A) (A) (A) (A) (A)
 The electronic state is 1-A.
 Alpha  occ. eigenvalues --  -19.12500 -10.21939 -10.18169 -10.17821 -10.17186
 Alpha  occ. eigenvalues --  -10.17150 -10.17030 -10.16991 -10.16934 -10.16806
 Alpha  occ. eigenvalues --  -10.16779 -10.16746 -10.16569 -10.16569 -10.16043
 Alpha  occ. eigenvalues --   -1.00763  -0.84232  -0.81834  -0.79576  -0.75793
 Alpha  occ. eigenvalues --   -0.72663  -0.70444  -0.65944  -0.65203  -0.62349
 Alpha  occ. eigenvalues --   -0.60653  -0.57675  -0.57218  -0.55857  -0.52673
 Alpha  occ. eigenvalues --   -0.50549  -0.48420  -0.47456  -0.46846  -0.45313
 Alpha  occ. eigenvalues --   -0.44004  -0.43415  -0.42560  -0.42056  -0.39740
 Alpha  occ. eigenvalues --   -0.39550  -0.38913  -0.38256  -0.37593  -0.36834
 Alpha  occ. eigenvalues --   -0.35648  -0.34884  -0.34147  -0.33568  -0.33167
 Alpha  occ. eigenvalues --   -0.33017  -0.32325  -0.32271  -0.32015  -0.30128
 Alpha  occ. eigenvalues --   -0.29439  -0.29138  -0.28274  -0.27352  -0.25537
 Alpha virt. eigenvalues --    0.06566   0.08384   0.08698   0.08944   0.10207
 Alpha virt. eigenvalues --    0.10725   0.11009   0.11638   0.12859   0.13698
 Alpha virt. eigenvalues --    0.13780   0.15243   0.15818   0.15915   0.16863
 Alpha virt. eigenvalues --    0.17242   0.17336   0.18475   0.18644   0.18730
 Alpha virt. eigenvalues --    0.19319   0.19709   0.20044   0.20648   0.21044
 Alpha virt. eigenvalues --    0.21483   0.21847   0.22088   0.23009   0.23613
 Alpha virt. eigenvalues --    0.23690   0.23898   0.24407   0.24995   0.26012
 Alpha virt. eigenvalues --    0.27672   0.28008   0.28633   0.29841   0.30948
 Alpha virt. eigenvalues --    0.34003   0.34833   0.36986   0.43406   0.44356
 Alpha virt. eigenvalues --    0.46108   0.47515   0.47641   0.48319   0.49166
 Alpha virt. eigenvalues --    0.50050   0.50770   0.51482   0.52317   0.53008
 Alpha virt. eigenvalues --    0.53535   0.53934   0.54876   0.55633   0.56018
 Alpha virt. eigenvalues --    0.56797   0.57277   0.58396   0.59060   0.59505
 Alpha virt. eigenvalues --    0.60377   0.61148   0.62370   0.62565   0.63752
 Alpha virt. eigenvalues --    0.64928   0.65500   0.66042   0.67140   0.67665
 Alpha virt. eigenvalues --    0.68310   0.68541   0.69621   0.70459   0.70924
 Alpha virt. eigenvalues --    0.72313   0.72762   0.73276   0.73647   0.74448
 Alpha virt. eigenvalues --    0.74878   0.75867   0.76083   0.76339   0.76898
 Alpha virt. eigenvalues --    0.77890   0.78476   0.78897   0.79397   0.79647
 Alpha virt. eigenvalues --    0.80209   0.80660   0.81140   0.81717   0.82342
 Alpha virt. eigenvalues --    0.82645   0.83419   0.84113   0.84705   0.85129
 Alpha virt. eigenvalues --    0.86294   0.86675   0.87953   0.88419   0.89584
 Alpha virt. eigenvalues --    0.89761   0.90511   0.91724   0.91924   0.92982
 Alpha virt. eigenvalues --    0.96913   0.99857   1.01063   1.02172   1.02346
 Alpha virt. eigenvalues --    1.03880   1.06255   1.07038   1.07980   1.08865
 Alpha virt. eigenvalues --    1.11119   1.12127   1.12785   1.16080   1.17282
 Alpha virt. eigenvalues --    1.17697   1.19465   1.19546   1.20988   1.22019
 Alpha virt. eigenvalues --    1.23242   1.24272   1.25140   1.25722   1.26255
 Alpha virt. eigenvalues --    1.27414   1.29256   1.31294   1.33572   1.34633
 Alpha virt. eigenvalues --    1.35098   1.36918   1.37481   1.38668   1.39346
 Alpha virt. eigenvalues --    1.39876   1.40677   1.42493   1.44068   1.45169
 Alpha virt. eigenvalues --    1.47522   1.47611   1.48523   1.50479   1.50862
 Alpha virt. eigenvalues --    1.51297   1.52711   1.52920   1.54223   1.54366
 Alpha virt. eigenvalues --    1.56403   1.58465   1.59447   1.60712   1.61563
 Alpha virt. eigenvalues --    1.61980   1.64936   1.65541   1.66058   1.67392
 Alpha virt. eigenvalues --    1.68397   1.69341   1.70342   1.71330   1.71950
 Alpha virt. eigenvalues --    1.74363   1.75672   1.76038   1.77094   1.80312
 Alpha virt. eigenvalues --    1.82714   1.83352   1.85515   1.86641   1.87493
 Alpha virt. eigenvalues --    1.88041   1.88435   1.90003   1.91330   1.91642
 Alpha virt. eigenvalues --    1.92742   1.93449   1.94228   1.96501   1.97319
 Alpha virt. eigenvalues --    1.97811   2.02169   2.03199   2.03583   2.05705
 Alpha virt. eigenvalues --    2.08212   2.14537   2.15942   2.16642   2.17364
 Alpha virt. eigenvalues --    2.19262   2.20225   2.20525   2.21226   2.21817
 Alpha virt. eigenvalues --    2.22354   2.23876   2.25418   2.26069   2.28009
 Alpha virt. eigenvalues --    2.30864   2.32054   2.34117   2.34633   2.35388
 Alpha virt. eigenvalues --    2.36191   2.39790   2.41162   2.42107   2.43966
 Alpha virt. eigenvalues --    2.45154   2.45372   2.46739   2.48409   2.50886
 Alpha virt. eigenvalues --    2.52227   2.55858   2.57180   2.57867   2.58516
 Alpha virt. eigenvalues --    2.60335   2.62938   2.63916   2.65831   2.67783
 Alpha virt. eigenvalues --    2.69057   2.71734   2.72872   2.74214   2.74788
 Alpha virt. eigenvalues --    2.76122   2.76444   2.76703   2.77072   2.78316
 Alpha virt. eigenvalues --    2.78919   2.79386   2.80648   2.81755   2.82160
 Alpha virt. eigenvalues --    2.83055   2.83840   2.84029   2.84593   2.85010
 Alpha virt. eigenvalues --    2.85854   2.86638   2.87129   2.88117   2.89461
 Alpha virt. eigenvalues --    2.90468   2.90808   2.91689   2.93393   2.93967
 Alpha virt. eigenvalues --    2.94757   2.95019   2.96275   2.96470   2.97598
 Alpha virt. eigenvalues --    2.97873   2.99045   2.99604   3.00410   3.01311
 Alpha virt. eigenvalues --    3.02643   3.04115   3.05192   3.05643   3.06520
 Alpha virt. eigenvalues --    3.06630   3.07976   3.10697   3.11425   3.12969
 Alpha virt. eigenvalues --    3.14068   3.16640   3.17955   3.19832   3.20646
 Alpha virt. eigenvalues --    3.21425   3.22002   3.23283   3.24537   3.25630
 Alpha virt. eigenvalues --    3.28192   3.28933   3.29585   3.32346   3.33708
 Alpha virt. eigenvalues --    3.34392   3.35826   3.37674   3.38198   3.39238
 Alpha virt. eigenvalues --    3.40236   3.41709   3.42543   3.44275   3.45053
 Alpha virt. eigenvalues --    3.46001   3.48015   3.48785   3.50007   3.50601
 Alpha virt. eigenvalues --    3.53387   3.53698   3.54900   3.55546   3.56930
 Alpha virt. eigenvalues --    3.57351   3.57930   3.60169   3.61577   3.62065
 Alpha virt. eigenvalues --    3.62665   3.63524   3.64483   3.66331   3.67346
 Alpha virt. eigenvalues --    3.70496   3.71468   3.73540   3.74010   3.74890
 Alpha virt. eigenvalues --    3.76210   3.77601   3.79097   3.79236   3.81332
 Alpha virt. eigenvalues --    3.81607   3.82321   3.84624   3.85896   3.87341
 Alpha virt. eigenvalues --    3.88627   3.90096   3.93058   3.95544   3.97083
 Alpha virt. eigenvalues --    3.99291   4.01425   4.05266   4.11419   4.13693
 Alpha virt. eigenvalues --    4.15767   4.19110   4.21302   4.22089   4.24883
 Alpha virt. eigenvalues --    4.27117   4.29466   4.31158   4.34252   4.35468
 Alpha virt. eigenvalues --    4.37595   4.39283   4.39860   4.41191   4.42606
 Alpha virt. eigenvalues --    4.43889   4.44613   4.45472   4.47045   4.47510
 Alpha virt. eigenvalues --    4.49267   4.50295   4.50726   4.52343   4.53009
 Alpha virt. eigenvalues --    4.54205   4.54706   4.56296   4.56582   4.57661
 Alpha virt. eigenvalues --    4.57850   4.58903   4.60125   4.60234   4.62463
 Alpha virt. eigenvalues --    4.62793   4.63604   4.63876   4.64196   4.64903
 Alpha virt. eigenvalues --    4.65944   4.66511   4.66831   4.68124   4.69083
 Alpha virt. eigenvalues --    4.69592   4.70441   4.72275   4.73248   4.73878
 Alpha virt. eigenvalues --    4.73915   4.74821   4.76383   4.77405   4.77951
 Alpha virt. eigenvalues --    4.78346   4.79641   4.80454   4.80853   4.81584
 Alpha virt. eigenvalues --    4.82627   4.83319   4.84061   4.85407   4.85980
 Alpha virt. eigenvalues --    4.86486   4.86925   4.88206   4.88705   4.90419
 Alpha virt. eigenvalues --    4.90755   4.92541   4.93448   4.94333   4.94788
 Alpha virt. eigenvalues --    4.95931   4.96492   4.97211   4.98237   5.00248
 Alpha virt. eigenvalues --    5.01255   5.02494   5.05072   5.06372   5.07633
 Alpha virt. eigenvalues --    5.11436   5.13923   5.18311   5.21536   5.25295
 Alpha virt. eigenvalues --    5.26673   5.27687   5.30925   5.32224   5.34922
 Alpha virt. eigenvalues --    5.39037   5.40261   5.43976   5.44922   5.46669
 Alpha virt. eigenvalues --    5.49117   5.50661   5.52525   5.53707   5.54665
 Alpha virt. eigenvalues --    5.57473   5.59098   5.60092   5.64099   5.70871
 Alpha virt. eigenvalues --    5.75481   5.81905   5.90071   5.99088   6.03334
 Alpha virt. eigenvalues --    6.07095   6.32054   6.50500   7.04323   7.05401
 Alpha virt. eigenvalues --   11.05984  11.20710  11.43324  11.68686  11.86744
 Alpha virt. eigenvalues --   11.97297  12.02236  12.11451  12.20739  12.37655
 Alpha virt. eigenvalues --   12.46326  12.74937  12.84384  13.06156  13.21844
          Condensed to atoms (all electrons):
               1          2          3          4          5          6
     1  C    4.961082   0.403993  -0.037577   0.002739  -0.000177   0.000002
     2  C    0.403993   4.769304   0.431522  -0.037916   0.001926  -0.000206
     3  C   -0.037577   0.431522   4.769120   0.426477  -0.035685   0.002487
     4  C    0.002739  -0.037916   0.426477   4.868293   0.418967  -0.035617
     5  C   -0.000177   0.001926  -0.035685   0.418967   4.759963   0.427076
     6  C    0.000002  -0.000206   0.002487  -0.035617   0.427076   4.901383
     7  C   -0.000000   0.000001  -0.000127   0.002048  -0.032460   0.407021
     8  C   -0.000000  -0.000000   0.000007   0.000468   0.002207  -0.025088
     9  C    0.000000   0.000000  -0.000028  -0.000213  -0.011546  -0.002715
    10  O    0.000000   0.000000   0.000001  -0.000004   0.000210  -0.000000
    11  C    0.000000  -0.000000   0.000001  -0.000163   0.002165  -0.040579
    12  C   -0.000000   0.000000  -0.000000   0.000001  -0.000119   0.002736
    13  C    0.000000  -0.000000   0.000000   0.000000   0.000010   0.000748
    14  C   -0.000000   0.000000  -0.000000  -0.000000  -0.000000  -0.000040
    15  C    0.000000  -0.000000   0.000000   0.000000   0.000002   0.000062
    16  H    0.369210  -0.022178   0.003567  -0.000205   0.000001  -0.000000
    17  H    0.379261  -0.029284  -0.005078   0.000189   0.000008   0.000000
    18  H    0.378368  -0.028362  -0.004303   0.000182   0.000011   0.000000
    19  H   -0.036019   0.372074  -0.034562  -0.003085   0.000293   0.000010
    20  H   -0.036653   0.369899  -0.032173  -0.002910   0.000374   0.000008
    21  H   -0.001800  -0.035640   0.365002  -0.031872  -0.003953   0.000251
    22  H   -0.003365  -0.035678   0.367489  -0.034708  -0.000199   0.000164
    23  H    0.000117  -0.003083  -0.029379   0.358255  -0.030268  -0.001659
    24  H    0.000113  -0.003538  -0.030423   0.356009  -0.022486  -0.004509
    25  H    0.000012   0.000441  -0.007009  -0.036667   0.363902  -0.032829
    26  H    0.000008   0.000184  -0.002240  -0.041756   0.375402  -0.036474
    27  H    0.000000   0.000009   0.000083  -0.003533  -0.033711   0.352996
    28  H    0.000000   0.000005   0.000177  -0.004567  -0.027094   0.350321
    29  H    0.000000   0.000000   0.000009   0.000158  -0.005037  -0.041789
    30  H   -0.000000   0.000000  -0.000000  -0.000000  -0.000088   0.004378
    31  H    0.000000   0.000000  -0.000001  -0.000014  -0.000085  -0.005969
    32  H   -0.000000  -0.000001   0.000068   0.000169  -0.011799   0.000406
    33  H    0.000000   0.000000  -0.000000  -0.000067   0.000635   0.000067
    34  H   -0.000000   0.000000   0.000000  -0.000001   0.000030   0.000013
    35  H    0.000000   0.000000   0.000000   0.000005   0.000157  -0.003780
    36  H    0.000000   0.000000   0.000000   0.000007   0.000182  -0.003494
    37  H    0.000000  -0.000000   0.000000  -0.000000   0.000001  -0.000184
    38  H    0.000000  -0.000000   0.000000  -0.000000   0.000022   0.000021
    39  H   -0.000000  -0.000000   0.000000  -0.000000  -0.000000  -0.000030
    40  H    0.000000  -0.000000   0.000000  -0.000000   0.000000   0.000000
    41  H    0.000000  -0.000000   0.000000   0.000000   0.000000   0.000000
    42  H    0.000000  -0.000000   0.000000  -0.000000   0.000001  -0.000061
    43  H   -0.000000   0.000000  -0.000000   0.000000  -0.000000   0.000004
               7          8          9         10         11         12
     1  C   -0.000000  -0.000000   0.000000   0.000000   0.000000  -0.000000
     2  C    0.000001  -0.000000   0.000000   0.000000  -0.000000   0.000000
     3  C   -0.000127   0.000007  -0.000028   0.000001   0.000001  -0.000000
     4  C    0.002048   0.000468  -0.000213  -0.000004  -0.000163   0.000001
     5  C   -0.032460   0.002207  -0.011546   0.000210   0.002165  -0.000119
     6  C    0.407021  -0.025088  -0.002715  -0.000000  -0.040579   0.002736
     7  C    4.765201   0.311239  -0.015463   0.004243   0.392518  -0.018511
     8  C    0.311239   5.004251   0.390550  -0.058046  -0.016869  -0.003657
     9  C   -0.015463   0.390550   4.837860   0.333933   0.002694   0.000229
    10  O    0.004243  -0.058046   0.333933   7.864928  -0.000058   0.000020
    11  C    0.392518  -0.016869   0.002694  -0.000058   4.954873   0.404605
    12  C   -0.018511  -0.003657   0.000229   0.000020   0.404605   4.649832
    13  C   -0.008397  -0.001778  -0.000161  -0.000024  -0.034940   0.404170
    14  C    0.001080  -0.003504   0.000072  -0.000020   0.005008  -0.094214
    15  C   -0.006665  -0.000041   0.000266  -0.000132  -0.024827   0.406182
    16  H    0.000000   0.000000  -0.000000   0.000000  -0.000000   0.000000
    17  H    0.000000   0.000000  -0.000000   0.000000   0.000000   0.000000
    18  H    0.000000   0.000000  -0.000000   0.000000   0.000000   0.000000
    19  H    0.000000  -0.000000  -0.000000   0.000000   0.000000   0.000000
    20  H    0.000000   0.000000   0.000000   0.000000   0.000000   0.000000
    21  H    0.000024  -0.000025  -0.000210   0.000000   0.000000   0.000000
    22  H    0.000011   0.000000   0.000021   0.000000   0.000000   0.000000
    23  H    0.000012  -0.000001  -0.000008   0.000000   0.000003   0.000000
    24  H    0.000249  -0.000028   0.000051   0.000000   0.000006   0.000000
    25  H   -0.004903  -0.000259  -0.002932  -0.000233   0.000172   0.000006
    26  H   -0.002309  -0.002217   0.001751   0.000024   0.000178   0.000007
    27  H   -0.023146   0.003968   0.000064   0.000001  -0.004208   0.000171
    28  H   -0.024753  -0.009520  -0.000023   0.000001  -0.004128   0.000050
    29  H    0.358426  -0.053214  -0.005625   0.000031  -0.035550  -0.006126
    30  H   -0.019265   0.349658  -0.040998   0.009742  -0.007665  -0.002899
    31  H   -0.024959   0.355249  -0.043195  -0.000083  -0.003855  -0.000810
    32  H    0.002642  -0.040488   0.372983  -0.027098  -0.000164   0.000002
    33  H   -0.001277  -0.028804   0.354892  -0.011231  -0.000028  -0.000004
    34  H   -0.000095   0.000272  -0.070376   0.313075   0.000000  -0.000001
    35  H   -0.026765   0.003681  -0.000084   0.000000   0.346243  -0.022265
    36  H   -0.029232  -0.008942   0.000013  -0.000001   0.352623  -0.029138
    37  H    0.003557  -0.000139   0.000003   0.000000  -0.038989   0.356298
    38  H    0.002311  -0.001635   0.000644  -0.000035  -0.011116  -0.020096
    39  H   -0.000534   0.000270  -0.000003  -0.000000   0.003715  -0.025129
    40  H   -0.000049  -0.000038  -0.000000   0.000092  -0.000213   0.006085
    41  H    0.000000   0.000056   0.000002  -0.000000  -0.000266   0.003390
    42  H   -0.000095  -0.003493  -0.000030   0.000219  -0.006759  -0.024785
    43  H    0.000065   0.000275  -0.000015  -0.000001   0.002562  -0.024561
              13         14         15         16         17         18
     1  C    0.000000  -0.000000   0.000000   0.369210   0.379261   0.378368
     2  C   -0.000000   0.000000  -0.000000  -0.022178  -0.029284  -0.028362
     3  C    0.000000  -0.000000   0.000000   0.003567  -0.005078  -0.004303
     4  C    0.000000  -0.000000   0.000000  -0.000205   0.000189   0.000182
     5  C    0.000010  -0.000000   0.000002   0.000001   0.000008   0.000011
     6  C    0.000748  -0.000040   0.000062  -0.000000   0.000000   0.000000
     7  C   -0.008397   0.001080  -0.006665   0.000000   0.000000   0.000000
     8  C   -0.001778  -0.003504  -0.000041   0.000000   0.000000   0.000000
     9  C   -0.000161   0.000072   0.000266  -0.000000  -0.000000  -0.000000
    10  O   -0.000024  -0.000020  -0.000132   0.000000   0.000000   0.000000
    11  C   -0.034940   0.005008  -0.024827  -0.000000   0.000000   0.000000
    12  C    0.404170  -0.094214   0.406182   0.000000   0.000000   0.000000
    13  C    4.954668   0.379784  -0.120829   0.000000   0.000000   0.000000
    14  C    0.379784   4.885175   0.380328  -0.000000  -0.000000  -0.000000
    15  C   -0.120829   0.380328   4.969734  -0.000000  -0.000000  -0.000000
    16  H    0.000000  -0.000000  -0.000000   0.613944  -0.031584  -0.031819
    17  H    0.000000  -0.000000  -0.000000  -0.031584   0.603284  -0.033784
    18  H    0.000000  -0.000000  -0.000000  -0.031819  -0.033784   0.604708
    19  H    0.000000  -0.000000   0.000000  -0.002893  -0.004319   0.005781
    20  H    0.000000  -0.000000  -0.000000  -0.002139   0.005817  -0.004925
    21  H    0.000000  -0.000000  -0.000000  -0.000088  -0.000455   0.004892
    22  H    0.000000  -0.000000  -0.000000  -0.000023   0.005463  -0.000439
    23  H   -0.000000   0.000000  -0.000000   0.000004   0.000007   0.000006
    24  H   -0.000000  -0.000000  -0.000000   0.000005   0.000009   0.000003
    25  H   -0.000001   0.000000  -0.000002   0.000000   0.000001  -0.000009
    26  H   -0.000008   0.000000   0.000000   0.000000  -0.000003   0.000001
    27  H    0.000025  -0.000000   0.000001   0.000000   0.000000  -0.000000
    28  H    0.000001   0.000001  -0.000005   0.000000  -0.000000   0.000000
    29  H    0.001140   0.000030  -0.000227   0.000000  -0.000000  -0.000000
    30  H    0.002067   0.000490  -0.005075   0.000000   0.000000  -0.000000
    31  H    0.000122   0.000121  -0.001363  -0.000000   0.000000  -0.000000
    32  H    0.000003  -0.000003  -0.000011   0.000000  -0.000000   0.000000
    33  H   -0.000024   0.000006  -0.000006   0.000000   0.000000  -0.000000
    34  H   -0.000000   0.000002  -0.000003   0.000000   0.000000   0.000000
    35  H    0.000127  -0.000434   0.005011  -0.000000  -0.000000  -0.000000
    36  H    0.005002  -0.000160  -0.007811  -0.000000   0.000000  -0.000000
    37  H   -0.037774   0.009217  -0.042049  -0.000000   0.000000   0.000000
    38  H    0.363028  -0.023585   0.001885  -0.000000   0.000000   0.000000
    39  H    0.360160  -0.027073   0.010970  -0.000000  -0.000000  -0.000000
    40  H   -0.026202   0.366281  -0.025721  -0.000000   0.000000   0.000000
    41  H   -0.025878   0.366278  -0.023914   0.000000  -0.000000   0.000000
    42  H    0.003059  -0.023464   0.365827  -0.000000   0.000000   0.000000
    43  H    0.011311  -0.028539   0.354502   0.000000   0.000000  -0.000000
              19         20         21         22         23         24
     1  C   -0.036019  -0.036653  -0.001800  -0.003365   0.000117   0.000113
     2  C    0.372074   0.369899  -0.035640  -0.035678  -0.003083  -0.003538
     3  C   -0.034562  -0.032173   0.365002   0.367489  -0.029379  -0.030423
     4  C   -0.003085  -0.002910  -0.031872  -0.034708   0.358255   0.356009
     5  C    0.000293   0.000374  -0.003953  -0.000199  -0.030268  -0.022486
     6  C    0.000010   0.000008   0.000251   0.000164  -0.001659  -0.004509
     7  C    0.000000   0.000000   0.000024   0.000011   0.000012   0.000249
     8  C   -0.000000   0.000000  -0.000025   0.000000  -0.000001  -0.000028
     9  C   -0.000000   0.000000  -0.000210   0.000021  -0.000008   0.000051
    10  O    0.000000   0.000000   0.000000   0.000000   0.000000   0.000000
    11  C    0.000000   0.000000   0.000000   0.000000   0.000003   0.000006
    12  C    0.000000   0.000000   0.000000   0.000000   0.000000   0.000000
    13  C    0.000000   0.000000   0.000000   0.000000  -0.000000  -0.000000
    14  C   -0.000000  -0.000000  -0.000000  -0.000000   0.000000  -0.000000
    15  C    0.000000  -0.000000  -0.000000  -0.000000  -0.000000  -0.000000
    16  H   -0.002893  -0.002139  -0.000088  -0.000023   0.000004   0.000005
    17  H   -0.004319   0.005817  -0.000455   0.005463   0.000007   0.000009
    18  H    0.005781  -0.004925   0.004892  -0.000439   0.000006   0.000003
    19  H    0.646866  -0.041457   0.006535  -0.005227   0.004941  -0.000522
    20  H   -0.041457   0.650141  -0.006599   0.006390  -0.000394   0.005014
    21  H    0.006535  -0.006599   0.654072  -0.044069   0.005786  -0.005440
    22  H   -0.005227   0.006390  -0.044069   0.648420  -0.004927   0.006095
    23  H    0.004941  -0.000394   0.005786  -0.004927   0.652345  -0.043017
    24  H   -0.000522   0.005014  -0.005440   0.006095  -0.043017   0.652808
    25  H    0.000009  -0.000004   0.005102  -0.000922   0.007193  -0.009325
    26  H    0.000005   0.000008  -0.000234   0.005276  -0.005026   0.006659
    27  H   -0.000002   0.000001   0.000005   0.000008   0.004341  -0.000472
    28  H    0.000001  -0.000003   0.000012   0.000008  -0.000475   0.005459
    29  H    0.000000  -0.000000   0.000001  -0.000005   0.000004   0.000013
    30  H   -0.000000   0.000000   0.000000   0.000000  -0.000000  -0.000000
    31  H    0.000000  -0.000000   0.000000  -0.000000   0.000001  -0.000005
    32  H    0.000000  -0.000000   0.001302   0.000010  -0.000002   0.000046
    33  H   -0.000000   0.000000   0.000006  -0.000002   0.000002  -0.000001
    34  H    0.000000   0.000000   0.000000  -0.000000   0.000000  -0.000000
    35  H   -0.000000  -0.000000  -0.000000   0.000000  -0.000001   0.000000
    36  H   -0.000000   0.000000   0.000000  -0.000000   0.000000  -0.000002
    37  H    0.000000   0.000000   0.000000   0.000000   0.000000   0.000000
    38  H    0.000000   0.000000  -0.000000   0.000000   0.000000  -0.000000
    39  H    0.000000  -0.000000   0.000000  -0.000000   0.000000   0.000000
    40  H    0.000000  -0.000000   0.000000  -0.000000  -0.000000  -0.000000
    41  H    0.000000  -0.000000  -0.000000   0.000000  -0.000000  -0.000000
    42  H   -0.000000  -0.000000  -0.000000  -0.000000  -0.000000  -0.000000
    43  H   -0.000000   0.000000   0.000000  -0.000000   0.000000  -0.000000
              25         26         27         28         29         30
     1  C    0.000012   0.000008   0.000000   0.000000   0.000000  -0.000000
     2  C    0.000441   0.000184   0.000009   0.000005   0.000000   0.000000
     3  C   -0.007009  -0.002240   0.000083   0.000177   0.000009  -0.000000
     4  C   -0.036667  -0.041756  -0.003533  -0.004567   0.000158  -0.000000
     5  C    0.363902   0.375402  -0.033711  -0.027094  -0.005037  -0.000088
     6  C   -0.032829  -0.036474   0.352996   0.350321  -0.041789   0.004378
     7  C   -0.004903  -0.002309  -0.023146  -0.024753   0.358426  -0.019265
     8  C   -0.000259  -0.002217   0.003968  -0.009520  -0.053214   0.349658
     9  C   -0.002932   0.001751   0.000064  -0.000023  -0.005625  -0.040998
    10  O   -0.000233   0.000024   0.000001   0.000001   0.000031   0.009742
    11  C    0.000172   0.000178  -0.004208  -0.004128  -0.035550  -0.007665
    12  C    0.000006   0.000007   0.000171   0.000050  -0.006126  -0.002899
    13  C   -0.000001  -0.000008   0.000025   0.000001   0.001140   0.002067
    14  C    0.000000   0.000000  -0.000000   0.000001   0.000030   0.000490
    15  C   -0.000002   0.000000   0.000001  -0.000005  -0.000227  -0.005075
    16  H    0.000000   0.000000   0.000000   0.000000   0.000000   0.000000
    17  H    0.000001  -0.000003   0.000000  -0.000000  -0.000000   0.000000
    18  H   -0.000009   0.000001  -0.000000   0.000000  -0.000000  -0.000000
    19  H    0.000009   0.000005  -0.000002   0.000001   0.000000  -0.000000
    20  H   -0.000004   0.000008   0.000001  -0.000003  -0.000000   0.000000
    21  H    0.005102  -0.000234   0.000005   0.000012   0.000001   0.000000
    22  H   -0.000922   0.005276   0.000008   0.000008  -0.000005   0.000000
    23  H    0.007193  -0.005026   0.004341  -0.000475   0.000004  -0.000000
    24  H   -0.009325   0.006659  -0.000472   0.005459   0.000013  -0.000000
    25  H    0.659019  -0.048281   0.006940  -0.008101  -0.000166   0.000021
    26  H   -0.048281   0.659409  -0.004310   0.006655   0.006989  -0.000031
    27  H    0.006940  -0.004310   0.657966  -0.042354  -0.004363  -0.000210
    28  H   -0.008101   0.006655  -0.042354   0.659644   0.006931  -0.000073
    29  H   -0.000166   0.006989  -0.004363   0.006931   0.693773  -0.005653
    30  H    0.000021  -0.000031  -0.000210  -0.000073  -0.005653   0.624597
    31  H    0.000534   0.000080  -0.000034   0.004347   0.006863  -0.044186
    32  H    0.008887   0.000705  -0.000044   0.000182  -0.000099   0.008150
    33  H   -0.001003   0.000470   0.000011   0.000039   0.003912  -0.007944
    34  H   -0.000243   0.000002  -0.000000   0.000001   0.000015  -0.000623
    35  H   -0.000005   0.000004   0.005622  -0.000316  -0.004152   0.000024
    36  H    0.000005   0.000011  -0.000204   0.004997   0.006324  -0.000319
    37  H    0.000000   0.000000  -0.000004  -0.000001  -0.000055   0.000131
    38  H   -0.000001  -0.000011   0.000015   0.000001   0.003427   0.000371
[...]
 70,-0.00000419,0.00000328,0.00000358,0.00000938,-0.00001079,0.00000592
 ,0.00000414,-0.00001478,0.00003136,0.00001086,0.00001081,-0.00002312,0
 .00001076,-0.00000755,0.00001259,-0.00000116,-0.00016415,-0.00008045,0
 .00008999,0.00004160,0.00006763,-0.00005452,0.00000713,0.00003645,-0.0
 0002002,-0.00001966,-0.00000657,-0.00000723,-0.00001761,-0.00000060,0.
 00000690,0.00001431,0.00002015,0.00000349,-0.00004970,0.00024957,-0.00
 026409,-0.00026283,0.00025680,-0.00090298,-0.00103455,0.00100470,0.002
 09435,-0.00001881,-0.00052567,0.00008540,0.00138873,0.10264889,0.08792
 669,-0.00000067,0.00000036,0.00000125,0.00000098,-0.00000074,-0.000002
 46,-0.00000113,0.00000151,0.00000313,0.00000275,-0.00000268,-0.0000035
 2,-0.00000330,0.00000642,0.00000927,0.00000473,0.00001497,0.00001700,0
 .00007955,-0.00000140,0.00015703,0.00000444,0.00003001,-0.00009948,-0.
 00001593,-0.00004323,0.00002386,0.00001670,0.00001984,0.00001501,0.000
 84004,-0.00035610,-0.00093105,-0.00109313,0.00187063,-0.00146214,0.010
 08940,0.01256568,-0.01213365,-0.09360805,-0.07093741,0.07121417,-0.004
 28183,-0.00500502,0.00003725,0.00000114,-0.00000076,0.00000104,0.00000
 016,-0.00000015,-0.00000028,0.,0.,-0.00000029,0.00000007,-0.00000016,0
 .00000050,0.00000007,0.,0.00000015,-0.00000044,-0.00000011,-0.00000016
 ,0.00000053,-0.00000095,-0.00000037,-0.00000027,-0.00000110,0.00000167
 ,-0.00000011,0.00000002,-0.00000156,-0.00000581,0.00000052,-0.00000036
 ,0.00000114,-0.00000390,-0.00000070,0.00000621,-0.00001271,0.00000886,
 0.00001036,-0.00000135,0.00000140,0.00001031,0.00001779,0.00001869,0.0
 0000447,-0.00002985,0.00005348,0.00000086,-0.00000410,0.00000948,0.000
 02333,0.00001064,0.00001274,-0.00000185,0.00000468,-0.00000695,-0.0000
 0941,-0.00001454,-0.00000214,0.00003955,0.00001166,0.00011228,-0.00013
 283,0.00002628,-0.00032997,0.00011688,0.00027894,-0.00035250,0.0017284
 7,-0.00079444,0.00108874,-0.00066974,0.00131117,-0.00110672,0.09584395
 ,-0.00000283,-0.00000018,0.00000573,0.00000494,-0.00000226,-0.00000929
 ,-0.00000883,-0.00000042,0.00001367,0.00001168,-0.00000351,-0.00001600
 ,-0.00001652,0.00000256,0.00001913,0.00002948,0.00000309,-0.00003093,-
 0.00008336,-0.00003088,-0.00003615,0.00004776,-0.00002177,0.00002835,-
 0.00006678,-0.00004831,0.00003138,0.00004405,0.00008492,-0.00003124,-0
 .00100256,0.00103930,0.00008588,0.00228363,-0.00116814,0.00058596,-0.0
 1139007,-0.01039913,0.00851067,-0.07060245,-0.16289565,0.10978803,0.00
 728669,0.01069141,-0.00715664,0.00000434,-0.00000247,0.00000313,-0.000
 00005,-0.00000026,-0.00000088,0.00000133,0.00000086,-0.00000122,0.0000
 0065,0.00000029,-0.00000007,0.00000031,0.00000053,0.00000171,0.0000032
 8,0.00000170,-0.00000067,-0.00000015,-0.00000044,0.00000007,0.00000026
 ,0.00000024,-0.00000088,0.00000124,0.00000172,0.00000435,0.00001136,0.
 00000228,-0.00000057,-0.00000257,0.00000383,0.00000116,0.00000337,0.00
 000904,-0.00000866,0.00000314,0.00000238,0.00001961,-0.00003937,0.0000
 0053,-0.00002181,0.00000222,-0.00002738,0.00003027,0.00000381,0.000015
 81,0.00000258,0.00001116,0.00000288,-0.00000324,0.00000624,-0.00000587
 ,0.00000015,-0.00001025,-0.00001978,-0.00000272,-0.00011109,0.00000333
 ,-0.00017739,0.00018226,-0.00004045,0.00046717,-0.00001942,0.00013699,
 -0.00033684,-0.00035064,0.00191750,-0.00102456,0.00097131,-0.00133265,
 0.00157569,0.07774988,0.16980530,0.00000378,0.00000019,-0.00000871,-0.
 00000792,0.00000393,0.00001298,0.00001288,0.00000038,-0.00002255,-0.00
 002368,0.00001062,0.00002539,0.00002571,-0.00002160,-0.00004951,-0.000
 11177,-0.00004289,0.00002287,0.00024669,0.00015553,-0.00006491,-0.0001
 7689,0.00006818,-0.00017166,0.00008214,0.00010872,-0.00003761,-0.00002
 286,-0.00017031,0.00010439,0.00061626,0.00133588,0.00013501,-0.0021861
 0,-0.00013090,-0.00582974,0.00173386,0.00300299,-0.00523374,0.07068270
 ,0.10948274,-0.15406294,0.00903518,0.01649853,-0.01173277,-0.00000583,
 0.00000332,-0.00000396,-0.00000007,0.00000052,0.00000134,-0.00000211,-
 0.00000116,0.00000184,-0.00000081,-0.00000088,0.00000023,-0.00000012,-
 0.00000057,-0.00000215,-0.00000579,-0.00000202,0.00000129,-0.00000043,
 0.00000125,0.00000027,-0.00000002,-0.00000333,0.00000342,-0.00000071,-
 0.00000190,-0.00000496,-0.00002988,-0.00000064,0.00000264,0.00000360,-
 0.00000097,0.00000086,-0.00000434,-0.00004687,0.00006350,-0.00002310,-
 0.00001712,-0.00003909,-0.00003899,-0.00000143,0.00002545,0.00004569,0
 .00001301,-0.00004096,0.00001600,-0.00000431,0.00005854,0.00000795,-0.
 00000246,0.00002336,-0.00002020,0.00000316,-0.00000590,-0.00000412,0.0
 0002737,-0.00002763,-0.00032461,0.00018821,-0.00045823,0.00006385,-0.0
 0008465,-0.00003362,0.00027327,0.00011137,0.00015024,-0.00023854,0.000
 05441,0.00101756,-0.00000652,-0.00003494,-0.00046441,-0.07389855,-0.12
 114996,0.16714545,0.00000263,-0.00000105,-0.00000660,-0.00000577,0.000
 00084,0.00001233,0.00000719,-0.00000309,-0.00001386,-0.00000960,-0.000
 00105,0.00001813,0.00001527,-0.00000298,-0.00000630,0.00004340,-0.0000
 5897,-0.00000726,-0.00010856,0.00015637,0.00010856,0.00010356,0.000003
 47,0.00004427,0.00004976,0.00003912,0.00002787,-0.00004422,-0.00006870
 ,-0.00001809,0.00007955,-0.00005091,-0.00012404,-0.00064040,0.00036956
 ,0.00069040,-0.01824754,-0.00861869,-0.00726343,-0.21518601,-0.0938939
 3,-0.08739271,0.00893598,0.00497368,0.00504752,-0.00000548,0.00000312,
 -0.00000476,-0.00000044,0.00000047,0.00000189,0.00000008,0.00000012,0.
 00000129,0.00000057,0.00000118,-0.00000206,-0.00000045,-0.00000007,-0.
 00000151,0.00000049,0.00000089,0.00000027,-0.00000105,0.00000032,0.000
 00103,0.00000177,0.00000349,-0.00000492,-0.00000138,-0.00000091,-0.000
 00446,0.00000256,0.00000222,0.00000192,-0.00000068,-0.00000673,0.00000
 238,-0.00000138,0.00000972,-0.00002062,-0.00001207,0.00000503,-0.00004
 122,0.00015464,-0.00011367,-0.00001804,-0.00004585,0.00009567,0.000053
 32,-0.00001763,-0.00003677,-0.00008423,-0.00000797,-0.00000906,-0.0000
 2035,0.00002910,-0.00000328,0.00000536,0.00001010,0.00002084,0.0000055
 0,0.00002355,0.00001734,0.00001116,0.00002484,-0.00002917,-0.00012722,
 0.00036373,0.00004105,-0.00034988,-0.00128850,0.00321223,-0.00264073,0
 .00153239,-0.00031178,0.00105966,-0.01010577,-0.00540646,-0.00565402,0
 .23260841,0.00000052,-0.00000049,-0.00000048,-0.00000038,0.00000013,0.
 00000142,-0.00000006,-0.00000176,-0.00000187,-0.00000077,0.00000350,0.
 00000057,-0.00000533,-0.00000960,-0.00000874,-0.00003965,0.00010367,0.
 00002575,0.00015811,-0.00014559,0.00000147,-0.00006297,-0.00006637,0.0
 0010250,0.00002335,0.00000520,-0.00002298,-0.00004054,0.00002825,-0.00
 003233,-0.00006436,0.00011021,-0.00003870,0.00051446,-0.00082480,-0.00
 050207,0.02058520,0.01041731,0.01003555,-0.09414863,-0.09501518,-0.044
 29142,-0.01168533,-0.00850253,-0.00624267,-0.00000091,0.00000056,-0.00
 000095,-0.00000013,0.00000035,0.00000027,0.00000009,0.,0.00000004,0.,0
 .00000011,-0.00000018,-0.00000005,0.00000025,0.00000038,0.00000051,-0.
 00000016,-0.00000044,0.,0.00000124,0.00000008,0.,0.00000055,0.00000012
 ,-0.00000036,-0.00000030,0.00000255,0.00000257,-0.00000303,-0.00000233
 ,0.00000001,0.00000972,-0.00000204,-0.00000392,0.00000012,0.00000843,0
 .00000668,-0.00001467,0.00004595,-0.00018259,0.00010933,0.00000925,0.0
 0010574,-0.00006653,-0.00004287,0.00000707,0.00004623,0.00007575,-0.00
 003082,-0.00000173,-0.00001422,-0.00003254,0.00000035,0.00000769,0.000
 02812,0.00001179,0.00002371,-0.00004616,0.00003795,-0.00005350,-0.0000
 2414,-0.00000618,0.00010974,-0.00022869,0.00021719,0.00024212,0.002837
 75,-0.00230134,0.00312141,-0.00069851,0.00182671,-0.00127100,-0.016961
 08,-0.00863890,-0.00922276,0.09877846,0.10176982,0.00000195,-0.0000006
 7,-0.00000445,-0.00000390,0.00000030,0.00000773,0.00000525,-0.00000285
 ,-0.00000923,-0.00000559,-0.00000062,0.00001134,0.00001222,-0.00000641
 ,0.00000225,0.00004326,0.00000381,0.00001578,0.00002986,-0.00009318,0.
 00015887,-0.00013728,-0.00007530,0.00005329,0.00007012,0.00013389,-0.0
 0007725,-0.00004252,-0.00007125,0.00001961,0.00037680,0.00057849,-0.00
 026586,0.00033958,-0.00089135,0.00039996,-0.00519400,-0.00330164,-0.00
 294004,-0.08701401,-0.04395472,-0.09238145,-0.02168970,-0.01268369,-0.
 01126955,-0.00000350,0.00000195,-0.00000285,-0.00000036,0.00000066,0.0
 0000125,-0.00000016,-0.00000012,0.00000075,0.00000026,0.00000066,-0.00
 000117,-0.00000015,0.00000028,-0.00000049,-0.00000008,0.00000019,0.000
 00001,-0.00000084,0.00000128,0.00000081,0.00000088,0.00000178,-0.00000
 229,-0.00000062,-0.00000011,-0.00000091,0.00000095,-0.00000191,-0.0000
 0027,-0.00000134,0.00000244,0.00000011,0.,0.00000891,-0.00000790,-0.00
 000244,0.00000079,0.00000148,0.00002421,0.00000463,-0.00001073,0.00007
 797,0.00002820,-0.00018048,0.00001136,0.00000688,0.00007985,-0.0000505
 6,-0.00001802,-0.00001071,-0.00002880,0.00000121,0.00000496,0.00002725
 ,0.00002810,0.00000965,-0.00013407,0.00011376,-0.00013841,-0.00000642,
 -0.00003740,0.00010543,0.00019059,0.00066858,-0.00049517,0.00003718,0.
 00042884,-0.00077854,-0.00001343,0.00010231,0.00109034,0.01700284,0.00
 891913,0.00943439,0.09542800,0.05020113,0.09963556,-0.00000117,-0.0000
 0013,0.00000372,0.00000331,-0.00000210,-0.00000643,-0.00000454,0.00000
 078,0.00000893,0.00000886,-0.00000525,-0.00001252,-0.00001397,0.000007
 97,0.00001893,-0.00006012,-0.00004205,-0.00001372,0.00011061,0.0002325
 4,0.00026927,-0.00193936,-0.00017743,-0.00101298,-0.00021552,0.0000706
 2,-0.00013664,0.00005798,0.00009496,0.00002355,0.00103346,-0.00070789,
 -0.00006524,0.00613955,0.00718059,0.00353181,-0.00016442,-0.00064215,-
 0.00022276,0.00208217,0.00404503,0.00085698,-0.14112220,-0.12065044,-0
 .03735571,0.00000238,-0.00000153,0.00000184,-0.00000006,0.00000024,-0.
 00000043,0.00000057,0.00000032,-0.00000095,0.00000008,-0.00000036,0.00
 000043,0.00000032,0.00000101,0.00000152,0.00000131,0.00000002,-0.00000
 069,0.00000012,0.00000036,0.00000020,-0.00000015,-0.00000045,0.0000000
 5,0.00000126,0.00000202,0.00000255,0.00000262,-0.00000110,-0.00000225,
 -0.00000155,0.00000127,0.00000129,0.00003067,-0.00002088,0.00002854,0.
 00001749,0.00000888,0.00001217,-0.00001881,-0.00001011,-0.00002489,-0.
 00239450,0.00023288,-0.00106235,0.00007157,0.00002100,0.00030850,-0.00
 002344,0.00000316,-0.00001108,-0.00000335,-0.00000194,-0.00001253,0.00
 002348,-0.00004514,0.00000956,0.00004137,-0.00007576,0.00014752,-0.000
 03139,-0.00016503,0.00004357,0.00036646,0.00212999,0.00010443,-0.00008
 314,0.00013746,0.00011034,-0.00014013,-0.00025327,-0.00007594,0.001173
 28,-0.00003296,-0.00012162,0.00058986,0.00096703,0.00036112,0.15189962
 ,0.00000188,-0.00000216,-0.00000621,-0.00000517,-0.00000096,0.00001004
 ,0.00000362,-0.00001134,-0.00001059,-0.00000255,-0.00000375,0.00001067
 ,0.00000916,-0.00001563,0.00002182,0.00014613,0.00013786,0.00001137,0.
 00005612,-0.00040821,0.00035888,-0.00113275,-0.00047857,0.00093895,0.0
 0014332,0.00060464,-0.00058636,-0.00006896,-0.00016275,0.00000144,-0.0
 0056272,0.00191692,-0.00083883,-0.01705297,-0.01914860,-0.00596891,-0.
 00018919,0.00035123,0.00056747,-0.00264454,-0.00314420,-0.00061101,-0.
 11982981,-0.20591165,-0.05124699,-0.00000457,0.00000259,-0.00000367,-0
 .00000088,0.00000228,0.00000236,0.00000104,0.00000014,0.00000060,0.000
 00132,0.00000239,-0.00000360,-0.00000011,0.00000147,0.00000162,0.00000
 483,0.00000140,-0.00000119,-0.00000254,0.00000630,0.00000273,0.0000017
 5,0.00000859,-0.00001058,-0.00000053,0.00000242,0.00000791,0.00003965,
 -0.00001034,-0.00000507,-0.00000811,0.00002385,0.00000048,0.00000779,0
 .00008355,-0.00009701,0.00000870,0.00000474,0.00006677,-0.00005281,0.0
 0008516,-0.00001292,0.00035648,0.00052691,-0.00119303,0.00004112,0.000
 04131,0.00019026,-0.00032445,-0.00012132,-0.00006915,-0.00010411,-0.00
 000106,0.00003496,0.00004826,0.00009063,0.00001600,-0.00001204,0.00032
 868,-0.00014609,0.00009439,0.00014986,0.00071540,0.00273060,-0.0043534
 2,0.00039890,0.00054778,-0.00013660,-0.00035762,0.00059987,0.00008171,
 -0.00011056,0.00009551,0.00108912,-0.00028134,0.00088222,-0.00008622,0
 .00007769,0.13172354,0.22229098,-0.00000122,-0.00000018,0.00000319,0.0
 0000328,-0.00000068,-0.00000487,-0.00000488,0.00000021,0.00000782,0.00
 000738,0.00000068,-0.00000830,-0.00001452,0.00000151,0.00000734,0.0000
 1440,0.00002641,-0.00002254,0.00001846,0.00003253,-0.00014603,-0.00091
 147,0.00015155,0.00030870,-0.00012996,-0.00021347,-0.00013055,-0.00000
 552,0.00009279,-0.00006828,0.00027367,-0.00118890,0.00100993,0.0117067
 0,0.01402893,0.00353474,0.00001192,0.00038581,-0.00110022,-0.02038371,
 -0.02450873,-0.00918221,-0.03691638,-0.05173274,-0.05868412,0.00000208
 ,-0.00000114,0.00000146,0.00000018,-0.00000025,-0.00000062,0.00000051,
 0.00000031,-0.00000063,-0.00000005,-0.00000014,0.00000047,-0.00000012,
 0.00000007,0.00000061,0.00000106,0.00000032,-0.00000042,0.00000066,-0.
 00000069,-0.00000054,-0.00000028,-0.00000041,0.00000110,-0.00000024,-0
 .00000037,0.00000126,0.00000544,0.00000045,-0.00000136,0.00000347,-0.0
 0000032,-0.00000051,-0.00000065,0.00000361,-0.00000081,-0.00000351,0.0
 0000510,0.00000057,0.00001554,-0.00005680,0.00000218,-0.00068049,0.000
 05958,-0.00004881,-0.00007265,-0.00008701,-0.00027798,-0.00002318,0.00
 000449,-0.00001222,0.00007648,0.00002016,-0.00000060,-0.00001764,-0.00
 003083,0.00002610,0.00014770,-0.00028447,0.00013288,0.00011432,-0.0001
 6940,-0.00013680,-0.00142866,0.00389605,-0.00071177,0.00024145,-0.0003
 2876,0.00034916,0.00027013,0.00000302,0.00019571,-0.00068233,0.0014297
 1,0.00234545,0.00228400,-0.00334287,-0.00487149,0.04191067,0.05626772,
 0.06532386,0.00000271,-0.00000030,-0.00000931,-0.00000772,0.00000176,0
 .00001712,0.00000866,-0.00000248,-0.00001906,-0.00001781,0.00000554,0.
 00002776,0.00001618,-0.00001092,-0.00002767,-0.00001782,0.00001387,0.0
 0002928,0.00007735,-0.00008189,-0.00011634,-0.00027715,-0.00015337,0.0
 0063700,0.00013520,0.00021667,-0.00025478,-0.00007358,-0.00015248,0.00
 000996,-0.00014314,0.00065781,0.00046387,-0.00511770,-0.00171283,0.002
 54660,0.00079572,0.00276708,0.00050834,-0.00030085,-0.00054891,-0.0014
 6490,-0.28801609,0.05273425,0.05132744,-0.00000683,0.00000407,-0.00000
 620,0.,-0.00000013,0.00000227,-0.00000003,-0.00000036,0.00000228,0.000
 00100,0.00000274,-0.00000247,-0.00000110,-0.00000190,-0.00000278,0.000
 00089,0.00000115,0.00000003,-0.00000060,-0.00000090,-0.00000019,0.0000
 0201,0.00000631,-0.00000436,-0.00000342,-0.00000462,-0.00000481,0.0000
 0579,-0.00000323,-0.00000131,0.00000322,-0.00000110,-0.00000246,0.0000
 0036,0.00002838,-0.00000909,-0.00002414,-0.00002120,-0.00001996,0.0000
 8658,0.00000044,0.00000360,-0.00000183,0.00015605,-0.00047154,0.000016
 86,-0.00004589,-0.00005488,-0.00012595,-0.00004715,-0.00002617,-0.0000
 0225,-0.00000099,0.00001437,0.00002067,0.00006015,0.00001968,-0.000072
 62,0.00009295,-0.00024958,-0.00010148,-0.00003172,-0.00033817,0.001561
 95,0.00003474,-0.00013666,0.00019019,-0.00035249,-0.00012107,-0.000460
 53,0.00002194,0.00030762,-0.00006911,0.00048197,0.00006003,0.00115132,
 0.00024228,0.00028813,-0.01744059,0.00445376,0.00416795,0.30820569,-0.
 00000107,-0.00000068,0.00000289,0.00000344,-0.00000097,-0.00000533,-0.
 00000474,-0.00000447,0.00000889,0.00001537,-0.00000384,-0.00001206,-0.
 00000945,0.00000625,0.00003350,0.00013903,0.00013014,0.00001243,-0.000
 14710,-0.00030359,0.00021342,-0.00033119,-0.00016507,0.00045501,0.0000
 2681,0.00014076,-0.00024253,-0.00002036,0.00000827,-0.00001568,0.00030
 997,-0.00133288,-0.00138426,0.02218427,-0.00327907,-0.00628763,0.00185
 615,-0.00525090,-0.00138678,0.00533616,-0.00366169,-0.00121052,0.05204
 022,-0.05806367,-0.00955396,0.00000208,-0.00000107,0.00000177,-0.00000
 012,0.00000065,-0.00000042,0.00000059,0.00000018,-0.00000075,-0.000000
 03,-0.00000013,-0.00000012,0.00000025,0.00000088,0.00000191,0.00000220
 ,0.00000021,-0.00000067,-0.00000029,0.00000251,0.00000038,-0.00000083,
 0.00000137,-0.00000254,0.00000067,0.00000174,0.00000582,0.00002313,-0.
 00000402,-0.00000179,-0.00000488,0.00001179,-0.00000194,-0.00000014,0.
 00004609,-0.00006066,0.00002397,0.00000973,0.00005908,-0.00008255,0.00
 004793,-0.00001173,0.00017541,0.00006707,-0.00041252,0.00002508,0.0000
 0776,0.00003206,-0.00012034,-0.00003809,-0.00002709,-0.00003012,0.0000
 0448,0.00001431,0.00002612,0.00002391,0.00002403,0.00008169,-0.0000811
 0,0.00039247,-0.00013511,0.00027608,0.00037567,-0.00043280,0.00194725,
 0.00026887,0.00046009,-0.00006637,-0.00015142,0.00126809,-0.00058583,-
 0.00109702,0.00015528,-0.00017716,0.00015269,-0.00000015,0.00098482,-0
 .00017668,-0.02402572,0.00616205,0.00553716,-0.05880909,0.06313869,0.0
 0000067,-0.00000038,-0.00000316,-0.00000347,0.00000131,0.00000403,0.00
 000327,-0.00000196,-0.00000911,-0.00001098,0.00000539,0.00000929,0.000
 00638,-0.00001987,-0.00002421,-0.00005817,-0.00000931,-0.00001731,0.00
 011539,-0.00008830,-0.00014779,-0.00022999,-0.00006315,0.00021052,0.00
 004348,0.00006678,-0.00013446,-0.00002367,-0.00004236,0.00002018,-0.00
 039583,0.00129944,0.00102441,-0.01392093,-0.00189080,0.00186497,0.0005
 1790,-0.00144602,-0.00203722,0.02606641,-0.00183383,-0.00096079,0.0506
 6846,-0.00959029,-0.06166793,-0.00000170,0.00000092,-0.00000068,-0.000
 00007,0.00000075,0.00000051,-0.00000025,-0.00000027,0.00000024,0.00000
 017,0.00000017,-0.00000035,-0.00000002,0.00000015,0.00000027,-0.000000
 70,-0.00000055,-0.00000017,-0.00000039,0.00000230,0.00000051,0.0000003
 1,0.00000040,-0.00000002,-0.00000053,0.00000011,0.00000156,-0.00000433
 ,-0.00000290,-0.00000085,0.00000155,0.00000746,0.00000151,-0.00000262,
 -0.00000082,0.00001611,-0.00001668,-0.00001397,-0.00000864,-0.00000506
 ,0.00003317,-0.00000909,0.00002988,0.00004839,-0.00024268,0.00000756,-
 0.00001120,-0.00000068,-0.00005570,-0.00001718,-0.00000054,-0.00001538
 ,0.00000614,0.00000484,0.00000800,0.00001581,0.00000723,0.00004001,0.0
 0010118,-0.00044933,0.00021869,-0.00020525,-0.00015104,0.00053361,-0.0
 0131779,0.00092899,0.00021591,-0.00006143,0.00009649,0.00075028,-0.000
 84544,0.00112315,0.00122536,-0.00151380,-0.00228145,-0.00099855,0.0010
 7854,0.00241581,-0.00761874,0.00185669,0.00215913,-0.05708955,0.014451
 76,0.05825774\\0.00000222,-0.00000072,-0.00000004,-0.00000133,0.000001
 80,-0.00000089,0.00000243,-0.00000103,0.00000034,0.00000512,-0.0000023
 7,0.00000717,-0.00001324,-0.00000204,-0.00000165,0.00000160,-0.0000023
 5,-0.00000608,0.00001087,0.00000833,0.00001466,0.00000373,-0.00001436,
 -0.00000811,-0.00000455,-0.00001944,0.00000296,0.00000641,0.00001580,-
 0.00000417,-0.00000365,-0.00000902,-0.00000579,0.00000381,0.00001288,0
 .00000950,-0.00001152,-0.00000728,-0.00000031,0.00001234,0.00000653,0.
 00000171,-0.00000948,-0.00001292,-0.00001386,0.00000007,0.00000007,-0.
 00000002,-0.00000067,0.00000089,-0.00000027,-0.00000008,0.00000029,0.0
 0000060,-0.00000037,0.00000101,0.00000077,0.00000124,0.00000012,-0.000
 00056,-0.00000005,0.00000006,0.00000019,-0.00000072,0.00000011,-0.0000
 0034,-0.00000012,0.00000088,-0.00000202,0.00000054,0.00000063,-0.00000
 139,0.00000145,0.00000692,-0.00000078,0.00000351,0.00000067,-0.0000005
 5,-0.00000082,0.00000361,0.00000357,0.00000021,-0.00000079,0.00000109,
 0.00000013,-0.00000079,-0.00000148,-0.00000079,0.00000123,0.00000541,-
 0.00000337,0.00000516,0.00000012,-0.00000069,0.00000254,-0.00000384,0.
 00000389,0.00000108,0.00000108,-0.00000177,0.00000002,0.00000038,-0.00
 000184,-0.00000026,-0.00000267,0.00000003,-0.00000297,0.00000197,-0.00
 000686,0.00000009,-0.00000032,0.00000115,0.00000403,0.00000059,0.00000
 204,0.00000176,-0.00000050,-0.00000202,-0.00000169,0.00000045,-0.00000
 307,-0.00000307,0.00000113,0.00000150,0.00000392,0.00000142,0.00000271
 ,0.00000069,0.00000050\\\@


 The arm of the moral universe is long, but it bends toward justice.
 -- Martin Luther King, Jr.
 Job cpu time:       0 days 12 hours 22 minutes 35.8 seconds.
 Elapsed time:       0 days  3 hours  5 minutes 40.5 seconds.
 File lengths (MBytes):  RWF=    926 Int=      0 D2E=      0 Chk=     27 Scr=      1
 Normal termination of Gaussian 16 at Wed May 24 04:55:07 2023.
### All Done ###
