### Starting Gaussian ###
 Entering Gaussian System, Link 0=g16
 Initial command:
 /cluster/software/gaussian/gaussian-16-A.03/avx2/g16/l1.exe "/local/scratch/cz9n3/Gau-2668.inp" -scrdir="/local/scratch/cz9n3/"
 Entering Link 1 = /cluster/software/gaussian/gaussian-16-A.03/avx2/g16/l1.exe PID=      2669.
  
 Copyright (c) 1988,1990,1992,1993,1995,1998,2003,2009,2016,
            Gaussian, Inc.  All Rights Reserved.
  
 This is part of the Gaussian(R) 16 program.  It is based on
 the Gaussian(R) 09 system (copyright 2009, Gaussian, Inc.),
 the Gaussian(R) 03 system (copyright 2003, Gaussian, Inc.),
 the Gaussian(R) 98 system (copyright 1998, Gaussian, Inc.),
 the Gaussian(R) 94 system (copyright 1995, Gaussian, Inc.),
 the Gaussian 92(TM) system (copyright 1992, Gaussian, Inc.),
 the Gaussian 90(TM) system (copyright 1990, Gaussian, Inc.),
 the Gaussian 88(TM) system (copyright 1988, Gaussian, Inc.),
 the Gaussian 86(TM) system (copyright 1986, Carnegie Mellon
 University), and the Gaussian 82(TM) system (copyright 1983,
 Carnegie Mellon University). Gaussian is a federally registered
 trademark of Gaussian, Inc.
  
 This software contains proprietary and confidential information,
 including trade secrets, belonging to Gaussian, Inc.
  
 This software is provided under written license and may be
 used, copied, transmitted, or stored only in accord with that
 written license.
  
 The following legend is applicable only to US Government
 contracts under FAR:
  
                    RESTRICTED RIGHTS LEGEND
  
 Use, reproduction and disclosure by the US Government is
 subject to restrictions as set forth in subparagraphs (a)
 and (c) of the Commercial Computer Software - Restricted
 Rights clause in FAR 52.227-19.
  
 Gaussian, Inc.
 340 Quinnipiac St., Bldg. 40, Wallingford CT 06492
  
  
 ---------------------------------------------------------------
 Warning -- This program may not be used in any manner that
 competes with the business of Gaussian, Inc. or will provide
 assistance to any competitor of Gaussian, Inc.  The licensee
 of this program is prohibited from giving any competitor of
 Gaussian, Inc. access to this program.  By using this program,
 the user acknowledges that Gaussian, Inc. is engaged in the
 business of creating and licensing software in the field of
 computational chemistry and represents and warrants to the
 licensee that it is not a competitor of Gaussian, Inc. and that
 it will not use this program in any manner prohibited above.
 ---------------------------------------------------------------
  

 Cite this work as:
 Gaussian 16, Revision A.03,
 M. J. Frisch, G. W. Trucks, H. B. Schlegel, G. E. Scuseria, 
 M. A. Robb, J. R. Cheeseman, G. Scalmani, V. Barone, 
 G. A. Petersson, H. Nakatsuji, X. Li, M. Caricato, A. V. Marenich, 
 J. Bloino, B. G. Janesko, R. Gomperts, B. Mennucci, H. P. Hratchian, 
 J. V. Ortiz, A. F. Izmaylov, J. L. Sonnenberg, D. Williams-Young, 
 F. Ding, F. Lipparini, F. Egidi, J. Goings, B. Peng, A. Petrone, 
 T. Henderson, D. Ranasinghe, V. G. Zakrzewski, J. Gao, N. Rega, 
 G. Zheng, W. Liang, M. Hada, M. Ehara, K. Toyota, R. Fukuda, 
 J. Hasegawa, M. Ishida, T. Nakajima, Y. Honda, O. Kitao, H. Nakai, 
 T. Vreven, K. Throssell, J. A. Montgomery, Jr., J. E. Peralta, 
 F. Ogliaro, M. J. Bearpark, J. J. Heyd, E. N. Brothers, K. N. Kudin, 
 V. N. Staroverov, T. A. Keith, R. Kobayashi, J. Normand, 
 K. Raghavachari, A. P. Rendell, J. C. Burant, S. S. Iyengar, 
 J. Tomasi, M. Cossi, J. M. Millam, M. Klene, C. Adamo, R. Cammi, 
 J. W. Ochterski, R. L. Martin, K. Morokuma, O. Farkas, 
 J. B. Foresman, and D. J. Fox, Gaussian, Inc., Wallingford CT, 2016.
 
 ******************************************
 Gaussian 16:  ES64L-G16RevA.03 25-Dec-2016
                24-May-2023 
 ******************************************
 %chk=CCCCqOCrOCqCrC1CCCC1.chk
 %NProcShared=20
 Will use up to   20 processors via shared memory.
 -----------------------------
 # opt freq b3lyp/6-31g(2df,p)
 -----------------------------
 1/18=20,19=15,26=3,38=1/1,3;
 2/9=110,12=2,17=6,18=5,40=1/2;
 3/5=1,6=6,7=104,11=2,25=1,30=1,71=1,74=-5/1,2,3;
 4//1;
 5/5=2,38=5/2;
 6/7=2,8=2,9=2,10=2,28=1/1;
 7//1,2,3,16;
 1/18=20,19=15,26=3/3(2);
 2/9=110/2;
 99//99;
 2/9=110/2;
 3/5=1,6=6,7=104,11=2,25=1,30=1,71=1,74=-5/1,2,3;
 4/5=5,16=3,69=1/1;
 5/5=2,38=5/2;
 7//1,2,3,16;
 1/18=20,19=15,26=3/3(-5);
 2/9=110/2;
 6/7=2,8=2,9=2,10=2,19=2,28=1/1;
 99/9=1/99;
 -------------------
 Title Card Required
 -------------------
 Symbolic Z-matrix:
 Charge =  0 Multiplicity = 1
 C                     0.7901    0.26761  -0.12463 
 C                     2.30121   0.24232  -0.07903 
 C                     2.98862   0.53686  -1.41436 
 C                     4.52187   0.36976  -1.33827 
 O                     4.81735  -1.01215  -1.1311 
 C                     4.86723  -1.43964   0.21783 
 O                     5.06522   0.78247  -2.60263 
 C                     6.50023   0.83642  -2.68537 
 C                     7.17627  -0.51617  -2.43891 
 C                     6.89935   1.31317  -4.10032 
 C                     6.19547   0.55283  -5.2276 
 C                     6.38894   1.43316  -6.45098 
 C                     6.49232   2.86182  -5.92274 
 C                     6.53142   2.7654   -4.39802 
 H                     0.40259  -0.03876   0.85396 
 H                     0.42001  -0.44883  -0.8623 
 H                     0.40741   1.26395  -0.35727 
 H                     2.51655  -0.77787   0.22997 
 H                     2.6826    0.906     0.70033 
 H                     2.73455   1.55246  -1.75107 
 H                     2.60067  -0.14488  -2.1791 
 H                     4.94477   1.01445  -0.56076 
 H                     5.65601  -2.18964   0.31502 
 H                     3.94437  -1.96766   0.46567 
 H                     5.05115  -0.62495   0.92164 
 H                     6.86717   1.5638   -1.95023 
 H                     6.72443  -1.29854  -3.05832 
 H                     7.08769  -0.82491  -1.39535 
 H                     8.2493   -0.47391  -2.64644 
 H                     7.98784   1.21337  -4.22532 
 H                     5.1234    0.44356  -5.02934 
 H                     6.61077  -0.44843  -5.37865 
 H                     5.562     1.31795  -7.15894 
 H                     7.31179   1.15753  -6.97411 
 H                     5.64007   3.46827  -6.24615 
 H                     7.39876   3.33971  -6.31121 
 H                     5.55073   3.02167  -3.9837 
 H                     7.26282   3.46201  -3.97326 
 

 GradGradGradGradGradGradGradGradGradGradGradGradGradGradGradGradGradGrad
 Berny optimization.
 Initialization pass.
                           ----------------------------
                           !    Initial Parameters    !
                           ! (Angstroms and Degrees)  !
 --------------------------                            --------------------------
 ! Name  Definition              Value          Derivative Info.                !
 --------------------------------------------------------------------------------
 ! R1    R(1,2)                  1.512          estimate D2E/DX2                !
 ! R2    R(1,15)                 1.0962         estimate D2E/DX2                !
 ! R3    R(1,16)                 1.0929         estimate D2E/DX2                !
 ! R4    R(1,17)                 1.0924         estimate D2E/DX2                !
 ! R5    R(2,3)                  1.5305         estimate D2E/DX2                !
 ! R6    R(2,18)                 1.0875         estimate D2E/DX2                !
 ! R7    R(2,19)                 1.0924         estimate D2E/DX2                !
 ! R8    R(3,4)                  1.5442         estimate D2E/DX2                !
 ! R9    R(3,20)                 1.0997         estimate D2E/DX2                !
 ! R10   R(3,21)                 1.0955         estimate D2E/DX2                !
 ! R11   R(4,5)                  1.4283         estimate D2E/DX2                !
 ! R12   R(4,7)                  1.4367         estimate D2E/DX2                !
 ! R13   R(4,22)                 1.095          estimate D2E/DX2                !
 ! R14   R(5,6)                  1.4159         estimate D2E/DX2                !
 ! R15   R(6,23)                 1.0928         estimate D2E/DX2                !
 ! R16   R(6,24)                 1.0917         estimate D2E/DX2                !
 ! R17   R(6,25)                 1.0922         estimate D2E/DX2                !
 ! R18   R(7,8)                  1.4384         estimate D2E/DX2                !
 ! R19   R(8,9)                  1.5321         estimate D2E/DX2                !
 ! R20   R(8,10)                 1.5455         estimate D2E/DX2                !
 ! R21   R(8,26)                 1.0973         estimate D2E/DX2                !
 ! R22   R(9,27)                 1.0954         estimate D2E/DX2                !
 ! R23   R(9,28)                 1.0919         estimate D2E/DX2                !
 ! R24   R(9,29)                 1.0937         estimate D2E/DX2                !
 ! R25   R(10,11)                1.5311         estimate D2E/DX2                !
 ! R26   R(10,14)                1.5274         estimate D2E/DX2                !
 ! R27   R(10,30)                1.1002         estimate D2E/DX2                !
 ! R28   R(11,12)                1.5196         estimate D2E/DX2                !
 ! R29   R(11,31)                1.0957         estimate D2E/DX2                !
 ! R30   R(11,32)                1.0944         estimate D2E/DX2                !
 ! R31   R(12,13)                1.5267         estimate D2E/DX2                !
 ! R32   R(12,33)                1.0947         estimate D2E/DX2                !
 ! R33   R(12,34)                1.096          estimate D2E/DX2                !
 ! R34   R(13,14)                1.5283         estimate D2E/DX2                !
 ! R35   R(13,35)                1.0949         estimate D2E/DX2                !
 ! R36   R(13,36)                1.0959         estimate D2E/DX2                !
 ! R37   R(14,37)                1.095          estimate D2E/DX2                !
 ! R38   R(14,38)                1.0957         estimate D2E/DX2                !
 ! A1    A(2,1,15)             108.7654         estimate D2E/DX2                !
 ! A2    A(2,1,16)             110.3543         estimate D2E/DX2                !
 ! A3    A(2,1,17)             111.8267         estimate D2E/DX2                !
 ! A4    A(15,1,16)            107.4354         estimate D2E/DX2                !
 ! A5    A(15,1,17)            108.7349         estimate D2E/DX2                !
 ! A6    A(16,1,17)            109.6052         estimate D2E/DX2                !
 ! A7    A(1,2,3)              114.7933         estimate D2E/DX2                !
 ! A8    A(1,2,18)             102.8358         estimate D2E/DX2                !
 ! A9    A(1,2,19)             111.1173         estimate D2E/DX2                !
 ! A10   A(3,2,18)             109.847          estimate D2E/DX2                !
 ! A11   A(3,2,19)             110.41           estimate D2E/DX2                !
 ! A12   A(18,2,19)            107.3432         estimate D2E/DX2                !
 ! A13   A(2,3,4)              112.4664         estimate D2E/DX2                !
 ! A14   A(2,3,20)             109.9439         estimate D2E/DX2                !
 ! A15   A(2,3,21)             109.2836         estimate D2E/DX2                !
 ! A16   A(4,3,20)             110.1461         estimate D2E/DX2                !
 ! A17   A(4,3,21)             108.583          estimate D2E/DX2                !
 ! A18   A(20,3,21)            106.2102         estimate D2E/DX2                !
 ! A19   A(3,4,5)              108.4974         estimate D2E/DX2                !
 ! A20   A(3,4,7)              107.5211         estimate D2E/DX2                !
 ! A21   A(3,4,22)             110.7783         estimate D2E/DX2                !
 ! A22   A(5,4,7)              109.1079         estimate D2E/DX2                !
 ! A23   A(5,4,22)             112.7534         estimate D2E/DX2                !
 ! A24   A(7,4,22)             108.0405         estimate D2E/DX2                !
 ! A25   A(4,5,6)              115.9506         estimate D2E/DX2                !
 ! A26   A(5,6,23)             108.5043         estimate D2E/DX2                !
 ! A27   A(5,6,24)             109.4215         estimate D2E/DX2                !
 ! A28   A(5,6,25)             113.2432         estimate D2E/DX2                !
 ! A29   A(23,6,24)            104.9531         estimate D2E/DX2                !
 ! A30   A(23,6,25)            109.4563         estimate D2E/DX2                !
 ! A31   A(24,6,25)            110.9051         estimate D2E/DX2                !
 ! A32   A(4,7,8)              116.0204         estimate D2E/DX2                !
 ! A33   A(7,8,9)              113.4437         estimate D2E/DX2                !
 ! A34   A(7,8,10)             108.7756         estimate D2E/DX2                !
 ! A35   A(7,8,26)             108.6585         estimate D2E/DX2                !
 ! A36   A(9,8,10)             107.7976         estimate D2E/DX2                !
 ! A37   A(9,8,26)             109.2615         estimate D2E/DX2                !
 ! A38   A(10,8,26)            108.8143         estimate D2E/DX2                !
 ! A39   A(8,9,27)             110.9513         estimate D2E/DX2                !
 ! A40   A(8,9,28)             111.5668         estimate D2E/DX2                !
 ! A41   A(8,9,29)             111.6089         estimate D2E/DX2                !
 ! A42   A(27,9,28)            107.7593         estimate D2E/DX2                !
 ! A43   A(27,9,29)            108.9644         estimate D2E/DX2                !
 ! A44   A(28,9,29)            105.7753         estimate D2E/DX2                !
 ! A45   A(8,10,11)            113.712          estimate D2E/DX2                !
 ! A46   A(8,10,14)            114.1746         estimate D2E/DX2                !
 ! A47   A(8,10,30)            109.3619         estimate D2E/DX2                !
 ! A48   A(11,10,14)           102.5864         estimate D2E/DX2                !
 ! A49   A(11,10,30)           109.0343         estimate D2E/DX2                !
 ! A50   A(14,10,30)           107.6036         estimate D2E/DX2                !
 ! A51   A(10,11,12)           104.2717         estimate D2E/DX2                !
 ! A52   A(10,11,31)           111.4754         estimate D2E/DX2                !
 ! A53   A(10,11,32)           112.4252         estimate D2E/DX2                !
 ! A54   A(12,11,31)           109.1487         estimate D2E/DX2                !
 ! A55   A(12,11,32)           111.7512         estimate D2E/DX2                !
 ! A56   A(31,11,32)           107.7589         estimate D2E/DX2                !
 ! A57   A(11,12,13)           105.7946         estimate D2E/DX2                !
 ! A58   A(11,12,33)           111.3167         estimate D2E/DX2                !
 ! A59   A(11,12,34)           110.2291         estimate D2E/DX2                !
 ! A60   A(13,12,33)           111.9262         estimate D2E/DX2                !
 ! A61   A(13,12,34)           110.0879         estimate D2E/DX2                !
 ! A62   A(33,12,34)           107.5123         estimate D2E/DX2                !
 ! A63   A(12,13,14)           106.7318         estimate D2E/DX2                !
 ! A64   A(12,13,35)           111.3107         estimate D2E/DX2                !
 ! A65   A(12,13,36)           109.9646         estimate D2E/DX2                !
 ! A66   A(14,13,35)           110.4609         estimate D2E/DX2                !
 ! A67   A(14,13,36)           111.1011         estimate D2E/DX2                !
 ! A68   A(35,13,36)           107.3134         estimate D2E/DX2                !
 ! A69   A(10,14,13)           105.1058         estimate D2E/DX2                !
 ! A70   A(10,14,37)           111.3768         estimate D2E/DX2                !
 ! A71   A(10,14,38)           111.5992         estimate D2E/DX2                !
 ! A72   A(13,14,37)           109.8652         estimate D2E/DX2                !
 ! A73   A(13,14,38)           111.3287         estimate D2E/DX2                !
 ! A74   A(37,14,38)           107.5984         estimate D2E/DX2                !
 ! D1    D(15,1,2,3)           175.1825         estimate D2E/DX2                !
 ! D2    D(15,1,2,18)           55.9198         estimate D2E/DX2                !
 ! D3    D(15,1,2,19)          -58.6464         estimate D2E/DX2                !
 ! D4    D(16,1,2,3)            57.5647         estimate D2E/DX2                !
 ! D5    D(16,1,2,18)          -61.698          estimate D2E/DX2                !
 ! D6    D(16,1,2,19)         -176.2642         estimate D2E/DX2                !
 ! D7    D(17,1,2,3)           -64.7186         estimate D2E/DX2                !
 ! D8    D(17,1,2,18)          176.0187         estimate D2E/DX2                !
 ! D9    D(17,1,2,19)           61.4525         estimate D2E/DX2                !
 ! D10   D(1,2,3,4)           -174.7167         estimate D2E/DX2                !
 ! D11   D(1,2,3,20)            62.1538         estimate D2E/DX2                !
 ! D12   D(1,2,3,21)           -54.0509         estimate D2E/DX2                !
 ! D13   D(18,2,3,4)           -59.446          estimate D2E/DX2                !
 ! D14   D(18,2,3,20)          177.4246         estimate D2E/DX2                !
 ! D15   D(18,2,3,21)           61.2199         estimate D2E/DX2                !
 ! D16   D(19,2,3,4)            58.7478         estimate D2E/DX2                !
 ! D17   D(19,2,3,20)          -64.3817         estimate D2E/DX2                !
 ! D18   D(19,2,3,21)          179.4136         estimate D2E/DX2                !
 ! D19   D(2,3,4,5)             67.0954         estimate D2E/DX2                !
 ! D20   D(2,3,4,7)           -175.0266         estimate D2E/DX2                !
 ! D21   D(2,3,4,22)           -57.1781         estimate D2E/DX2                !
 ! D22   D(20,3,4,5)          -169.8884         estimate D2E/DX2                !
 ! D23   D(20,3,4,7)           -52.0104         estimate D2E/DX2                !
 ! D24   D(20,3,4,22)           65.8381         estimate D2E/DX2                !
 ! D25   D(21,3,4,5)           -53.9726         estimate D2E/DX2                !
 ! D26   D(21,3,4,7)            63.9055         estimate D2E/DX2                !
 ! D27   D(21,3,4,22)         -178.246          estimate D2E/DX2                !
 ! D28   D(3,4,5,6)            -88.371          estimate D2E/DX2                !
 ! D29   D(7,4,5,6)            154.7655         estimate D2E/DX2                !
 ! D30   D(22,4,5,6)            34.7191         estimate D2E/DX2                !
 ! D31   D(3,4,7,8)            173.5952         estimate D2E/DX2                !
 ! D32   D(5,4,7,8)            -68.923          estimate D2E/DX2                !
 ! D33   D(22,4,7,8)            53.9866         estimate D2E/DX2                !
 ! D34   D(4,5,6,23)          -143.7246         estimate D2E/DX2                !
 ! D35   D(4,5,6,24)           102.2894         estimate D2E/DX2                !
 ! D36   D(4,5,6,25)           -21.988          estimate D2E/DX2                !
 ! D37   D(4,7,8,9)             60.7516         estimate D2E/DX2                !
 ! D38   D(4,7,8,10)          -179.2946         estimate D2E/DX2                !
 ! D39   D(4,7,8,26)           -60.9797         estimate D2E/DX2                !
 ! D40   D(7,8,9,27)            50.2356         estimate D2E/DX2                !
 ! D41   D(7,8,9,28)           -69.9326         estimate D2E/DX2                !
 ! D42   D(7,8,9,29)           171.9684         estimate D2E/DX2                !
 ! D43   D(10,8,9,27)          -70.2728         estimate D2E/DX2                !
 ! D44   D(10,8,9,28)          169.559          estimate D2E/DX2                !
 ! D45   D(10,8,9,29)           51.46           estimate D2E/DX2                !
 ! D46   D(26,8,9,27)          171.6298         estimate D2E/DX2                !
 ! D47   D(26,8,9,28)           51.4615         estimate D2E/DX2                !
 ! D48   D(26,8,9,29)          -66.6374         estimate D2E/DX2                !
 ! D49   D(7,8,10,11)          -49.3816         estimate D2E/DX2                !
 ! D50   D(7,8,10,14)           67.8794         estimate D2E/DX2                !
 ! D51   D(7,8,10,30)         -171.5157         estimate D2E/DX2                !
 ! D52   D(9,8,10,11)           74.0171         estimate D2E/DX2                !
 ! D53   D(9,8,10,14)         -168.722          estimate D2E/DX2                !
 ! D54   D(9,8,10,30)          -48.117          estimate D2E/DX2                !
 ! D55   D(26,8,10,11)        -167.5982         estimate D2E/DX2                !
 ! D56   D(26,8,10,14)         -50.3372         estimate D2E/DX2                !
 ! D57   D(26,8,10,30)          70.2677         estimate D2E/DX2                !
 ! D58   D(8,10,11,12)         163.2144         estimate D2E/DX2                !
 ! D59   D(8,10,11,31)          45.5824         estimate D2E/DX2                !
 ! D60   D(8,10,11,32)         -75.5448         estimate D2E/DX2                !
 ! D61   D(14,10,11,12)         39.4099         estimate D2E/DX2                !
 ! D62   D(14,10,11,31)        -78.2221         estimate D2E/DX2                !
 ! D63   D(14,10,11,32)        160.6507         estimate D2E/DX2                !
 ! D64   D(30,10,11,12)        -74.4705         estimate D2E/DX2                !
 ! D65   D(30,10,11,31)        167.8975         estimate D2E/DX2                !
 ! D66   D(30,10,11,32)         46.7703         estimate D2E/DX2                !
 ! D67   D(8,10,14,13)        -158.5048         estimate D2E/DX2                !
 ! D68   D(8,10,14,37)         -39.582          estimate D2E/DX2                !
 ! D69   D(8,10,14,38)          80.6944         estimate D2E/DX2                !
 ! D70   D(11,10,14,13)        -35.009          estimate D2E/DX2                !
 ! D71   D(11,10,14,37)         83.9139         estimate D2E/DX2                !
 ! D72   D(11,10,14,38)       -155.8097         estimate D2E/DX2                !
 ! D73   D(30,10,14,13)         79.9156         estimate D2E/DX2                !
 ! D74   D(30,10,14,37)       -161.1616         estimate D2E/DX2                !
 ! D75   D(30,10,14,38)        -40.8852         estimate D2E/DX2                !
 ! D76   D(10,11,12,13)        -28.7387         estimate D2E/DX2                !
 ! D77   D(10,11,12,33)       -150.538          estimate D2E/DX2                !
 ! D78   D(10,11,12,34)         90.2502         estimate D2E/DX2                !
 ! D79   D(31,11,12,13)         90.4844         estimate D2E/DX2                !
 ! D80   D(31,11,12,33)        -31.3148         estimate D2E/DX2                !
 ! D81   D(31,11,12,34)       -150.5266         estimate D2E/DX2                !
 ! D82   D(32,11,12,13)       -150.4265         estimate D2E/DX2                !
 ! D83   D(32,11,12,33)         87.7743         estimate D2E/DX2                !
 ! D84   D(32,11,12,34)        -31.4376         estimate D2E/DX2                !
 ! D85   D(11,12,13,14)          6.8778         estimate D2E/DX2                !
 ! D86   D(11,12,13,35)       -113.7251         estimate D2E/DX2                !
 ! D87   D(11,12,13,36)        127.4866         estimate D2E/DX2                !
 ! D88   D(33,12,13,14)        128.2844         estimate D2E/DX2                !
 ! D89   D(33,12,13,35)          7.6815         estimate D2E/DX2                !
 ! D90   D(33,12,13,36)       -111.1068         estimate D2E/DX2                !
 ! D91   D(34,12,13,14)       -112.2046         estimate D2E/DX2                !
 ! D92   D(34,12,13,35)        127.1926         estimate D2E/DX2                !
 ! D93   D(34,12,13,36)          8.4042         estimate D2E/DX2                !
 ! D94   D(12,13,14,10)         17.659          estimate D2E/DX2                !
 ! D95   D(12,13,14,37)       -102.2722         estimate D2E/DX2                !
 ! D96   D(12,13,14,38)        138.6376         estimate D2E/DX2                !
 ! D97   D(35,13,14,10)        138.8042         estimate D2E/DX2                !
 ! D98   D(35,13,14,37)         18.873          estimate D2E/DX2                !
 ! D99   D(35,13,14,38)       -100.2172         estimate D2E/DX2                !
 ! D100  D(36,13,14,10)       -102.2197         estimate D2E/DX2                !
 ! D101  D(36,13,14,37)        137.8491         estimate D2E/DX2                !
 ! D102  D(36,13,14,38)         18.7589         estimate D2E/DX2                !
 --------------------------------------------------------------------------------
 Trust Radius=3.00D-01 FncErr=1.00D-07 GrdErr=1.00D-06 EigMax=2.50D+02 EigMin=1.00D-04
 Number of steps in this run=    224 maximum allowed number of steps=    228.
 GradGradGradGradGradGradGradGradGradGradGradGradGradGradGradGradGradGrad

                          Input orientation:                          
 ---------------------------------------------------------------------
 Center     Atomic      Atomic             Coordinates (Angstroms)
 Number     Number       Type             X           Y           Z
 ---------------------------------------------------------------------
      1          6           0        0.790100    0.267610   -0.124630
      2          6           0        2.301210    0.242320   -0.079030
      3          6           0        2.988620    0.536860   -1.414360
      4          6           0        4.521870    0.369760   -1.338270
      5          8           0        4.817350   -1.012150   -1.131100
      6          6           0        4.867230   -1.439640    0.217830
      7          8           0        5.065220    0.782470   -2.602630
      8          6           0        6.500230    0.836420   -2.685370
      9          6           0        7.176270   -0.516170   -2.438910
     10          6           0        6.899350    1.313170   -4.100320
     11          6           0        6.195470    0.552830   -5.227600
     12          6           0        6.388940    1.433160   -6.450980
     13          6           0        6.492320    2.861820   -5.922740
     14          6           0        6.531420    2.765400   -4.398020
     15          1           0        0.402590   -0.038760    0.853960
     16          1           0        0.420010   -0.448830   -0.862300
     17          1           0        0.407410    1.263950   -0.357270
     18          1           0        2.516550   -0.777870    0.229970
     19          1           0        2.682600    0.906000    0.700330
     20          1           0        2.734550    1.552460   -1.751070
     21          1           0        2.600670   -0.144880   -2.179100
     22          1           0        4.944770    1.014450   -0.560760
     23          1           0        5.656010   -2.189640    0.315020
     24          1           0        3.944370   -1.967660    0.465670
     25          1           0        5.051150   -0.624950    0.921640
     26          1           0        6.867170    1.563800   -1.950230
     27          1           0        6.724430   -1.298540   -3.058320
     28          1           0        7.087690   -0.824910   -1.395350
     29          1           0        8.249300   -0.473910   -2.646440
     30          1           0        7.987840    1.213370   -4.225320
     31          1           0        5.123400    0.443560   -5.029340
     32          1           0        6.610770   -0.448430   -5.378650
     33          1           0        5.562000    1.317950   -7.158940
     34          1           0        7.311790    1.157530   -6.974110
     35          1           0        5.640070    3.468270   -6.246150
     36          1           0        7.398760    3.339710   -6.311210
     37          1           0        5.550730    3.021670   -3.983700
     38          1           0        7.262820    3.462010   -3.973260
 ---------------------------------------------------------------------
                    Distance matrix (angstroms):
                    1          2          3          4          5
     1  C    0.000000
     2  C    1.512009   0.000000
     3  C    2.563082   1.530488   0.000000
     4  C    3.925489   2.556024   1.544205   0.000000
     5  O    4.343905   3.001917   2.413280   1.428252   0.000000
     6  C    4.433393   3.082462   3.178014   2.411358   1.415927
     7  O    4.968120   3.781543   2.405115   1.436720   2.333988
     8  C    6.283830   4.977724   3.746546   2.438516   2.943646
     9  C    6.837644   5.469054   4.437903   3.007012   2.742420
    10  C    7.363575   6.201644   4.807374   3.764486   4.307912
    11  C    7.439064   6.462929   4.982463   4.238082   4.596704
    12  C    8.528084   7.663510   6.142725   5.545861   6.062224
    13  C    8.536001   7.653504   6.164969   5.577670   6.385372
    14  C    7.580473   6.550899   5.140044   4.374866   5.280216
    15  H    1.096205   2.134065   3.487716   4.684147   4.937414
    16  H    1.092891   2.151770   2.806085   4.209738   4.441417
    17  H    1.092367   2.169706   2.882489   4.323276   5.022650
    18  H    2.049244   1.087493   2.157588   2.792443   2.683483
    19  H    2.160939   1.092397   2.168370   2.797563   3.404496
    20  H    2.842012   2.167941   1.099713   2.182589   3.361494
    21  H    2.769325   2.156361   1.095492   2.159365   2.600794
    22  H    4.243732   2.795829   2.187064   1.094985   2.109178
    23  H    5.468862   4.162258   4.188022   3.251180   2.044773
    24  H    3.910793   2.807256   3.274231   3.008528   2.055424
    25  H    4.477487   3.052158   3.325767   2.525228   2.101982
    26  H    6.476396   5.108394   4.047828   2.701973   3.392382
    27  H    6.802620   5.551152   4.475218   3.254699   2.726380
    28  H    6.516745   5.077605   4.319393   2.830888   2.293323
    29  H    7.908795   6.518002   5.496766   4.039409   3.790018
    30  H    8.337720   7.104394   5.775064   4.589083   4.957736
    31  H    6.547108   5.701826   4.199294   3.740492   4.172413
    32  H    7.873858   6.865524   5.459520   4.621429   4.644978
    33  H    8.564798   7.868599   6.342916   5.988417   6.505284
    34  H    9.499462   8.572377   7.070067   6.337738   6.713457
    35  H    8.440346   7.719333   6.242559   5.910873   6.849436
    36  H    9.559600   8.626639   7.161316   6.467398   7.241264
    37  H    6.718695   5.790563   4.397749   3.884518   4.994685
    38  H    8.179991   7.081596   5.776959   4.900815   5.837491
                    6          7          8          9         10
     6  C    0.000000
     7  O    3.596104   0.000000
     8  C    4.034316   1.438405   0.000000
     9  C    3.639056   2.483909   1.532081   0.000000
    10  C    5.509437   2.426675   1.545533   2.486655   0.000000
    11  C    5.948686   2.867171   2.576089   3.143489   1.531119
    12  C    7.419003   4.121338   3.814224   4.529512   2.408427
    13  C    7.671380   4.169345   3.818753   4.900579   2.425944
    14  C    6.462040   3.050439   2.579749   3.875906   1.527406
    15  H    4.722302   5.861958   7.104506   7.546764   8.281334
    16  H    4.682537   5.111049   6.476459   6.938104   7.454614
    17  H    5.246917   5.193136   6.536458   7.302022   7.493873
    18  H    2.442086   4.117524   5.193731   5.376281   6.506366
    19  H    3.241518   4.074516   5.103147   5.663079   6.402578
    20  H    4.168639   2.598088   3.945374   4.947851   4.787671
    21  H    3.543864   2.667089   4.052879   4.597986   4.929061
    22  H    2.575805   2.058532   2.639151   3.293909   4.054393
    23  H    1.092758   4.206561   4.344202   3.563120   5.771551
    24  H    1.091742   4.270127   4.931971   4.581330   6.351694
    25  H    1.092197   3.794932   4.152825   3.977595   5.691418
    26  H    4.209619   2.069571   1.097341   2.158848   2.164888
    27  H    3.768589   2.700228   2.178856   1.095414   2.817337
    28  H    2.812594   2.851593   2.183868   1.091872   3.453074
    29  H    4.535976   3.423270   2.185801   1.093731   2.670166
    30  H    6.043033   3.370535   2.174056   2.615572   1.100180
    31  H    5.580758   2.450952   2.746670   3.441756   2.184788
    32  H    5.944999   3.407364   2.986104   2.994403   2.195596
    33  H    7.905931   4.614487   4.596191   5.314936   3.338216
    34  H    8.027775   4.929258   4.376646   4.836081   2.907404
    35  H    8.152785   4.562807   4.510617   5.721079   3.291630
    36  H    8.478160   5.073308   4.496725   5.469188   3.040446
    37  H    6.166305   2.675274   2.713398   4.188683   2.179759
    38  H    6.879699   3.726662   3.022239   4.264697   2.183064
                   11         12         13         14         15
    11  C    0.000000
    12  C    1.519562   0.000000
    13  C    2.429563   1.526694   0.000000
    14  C    2.386741   2.451491   1.528266   0.000000
    15  H    8.419787   9.558508   9.561477   8.544540   0.000000
    16  H    7.308564   8.390671   8.569796   7.757701   1.764656
    17  H    7.597858   8.540529   8.399629   7.489026   1.778807
    18  H    6.714930   8.032381   8.179849   7.077587   2.324752
    19  H    6.899662   8.071932   7.886967   6.653116   2.472776
    20  H    5.006345   5.954658   5.765248   4.784746   3.841380
    21  H    4.764739   5.923695   6.180617   5.370673   3.747302
    22  H    4.853529   6.079115   5.878649   4.506423   4.872585
    23  H    6.207479   7.709774   8.070088   6.894310   5.702207
    24  H    6.620698   8.085886   8.404029   7.262931   4.051621
    25  H    6.364730   7.770523   7.815374   6.479541   4.685863
    26  H    3.494910   4.527971   4.195975   2.747407   7.226512
    27  H    2.900542   4.368625   5.056419   4.283417   7.540467
    28  H    4.168976   5.580907   5.868876   4.713363   7.097041
    29  H    3.454678   4.644608   4.994819   4.063530   8.603082
    30  H    2.157190   2.749246   2.799143   2.135365   9.214279
    31  H    1.095710   2.145218   2.918919   2.787835   7.558565
    32  H    1.094446   2.177035   3.356757   3.361047   8.806518
    33  H    2.171812   1.094674   2.185685   3.264593   9.626357
    34  H    2.159197   1.096033   2.163681   3.135357  10.509369
    35  H    3.137786   2.178172   1.094854   2.168897   9.494315
    36  H    3.223169   2.161991   1.095866   2.177707  10.568828
    37  H    2.838688   3.051791   2.161486   1.095029   7.698866
    38  H    3.343042   3.319487   2.180452   1.095734   9.089565
                   16         17         18         19         20
    16  H    0.000000
    17  H    1.785729   0.000000
    18  H    2.386797   2.993719   0.000000
    19  H    3.065402   2.534391   1.756197   0.000000
    20  H    3.186247   2.727911   3.066347   2.535739   0.000000
    21  H    2.565468   3.180292   2.492262   3.066297   1.755590
    22  H    4.765036   4.548768   3.119923   2.592204   2.567365
    23  H    5.642003   6.318786   3.443332   4.309596   5.177545
    24  H    4.060968   4.861134   1.873453   3.147229   4.332303
    25  H    4.965976   5.173768   2.631727   2.828925   4.153448
    26  H    6.841063   6.660025   5.400425   4.996879   4.137432
    27  H    6.729801   7.332583   5.365650   5.943386   5.075061
    28  H    6.699518   7.075810   4.851721   5.176171   4.972751
    29  H    8.030041   8.351988   6.421102   6.640269   5.943091
    30  H    8.446589   8.510422   7.331416   7.245832   5.816696
    31  H    6.346846   6.688934   5.995657   6.245036   4.205154
    32  H    7.663089   8.162609   6.951819   7.363355   5.673445
    33  H    8.319210   8.534368   8.262156   8.380261   6.106924
    34  H    9.350468   9.563700   8.867856   8.966030   6.956094
    35  H    8.460410   8.180383   8.350222   7.972794   5.684903
    36  H    9.630504   9.414731   9.142072   8.793566   6.763431
    37  H    6.936267   6.534089   6.434110   5.885777   3.882536
    38  H    8.473299   8.056271   7.626979   7.025243   5.393490
                   21         22         23         24         25
    21  H    0.000000
    22  H    3.075366   0.000000
    23  H    4.442610   3.396917   0.000000
    24  H    3.481790   3.308676   1.732536   0.000000
    25  H    3.981194   2.212794   1.783844   1.798816   0.000000
    26  H    4.601629   2.434755   4.548250   5.181751   4.041806
    27  H    4.371425   3.841213   3.648973   4.538167   4.369631
    28  H    4.605437   2.944808   2.614873   3.827497   3.091265
    29  H    5.677472   4.181530   4.294081   5.518056   4.793972
    30  H    5.920596   4.767478   6.134541   6.962326   6.204415
    31  H    3.851532   4.508440   5.981605   6.115491   6.046577
    32  H    5.139082   5.303550   6.030030   6.601047   6.492860
    33  H    5.975630   6.633933   8.256640   8.458525   8.326560
    34  H    6.847119   6.837713   8.190029   8.743950   8.404201
    35  H    6.231669   6.231239   8.663784   8.801890   8.275173
    36  H    7.227612   6.670575   8.804420   9.275079   8.575775
    37  H    4.688974   4.014055   6.756318   6.875369   6.132681
    38  H    6.161518   4.796776   7.274086   7.758706   6.749428
                   26         27         28         29         30
    26  H    0.000000
    27  H    3.072658   0.000000
    28  H    2.462206   1.766848   0.000000
    29  H    2.558760   1.781822   1.742919   0.000000
    30  H    2.560222   3.044304   3.601886   2.325540   0.000000
    31  H    3.711683   3.079469   4.321265   4.036238   3.073121
    32  H    3.983576   2.473770   4.029376   3.185969   2.447054
    33  H    5.375367   5.001235   6.335499   5.549324   3.808118
    34  H    5.059853   4.659472   5.924766   4.719031   2.831256
    35  H    4.856718   5.836144   6.637564   5.941951   3.831495
    36  H    4.738628   5.705206   6.450310   5.357019   3.036326
    37  H    2.827260   4.571446   4.884463   4.614068   3.044312
    38  H    2.802212   4.877480   5.005394   4.269082   2.376041
                   31         32         33         34         35
    31  H    0.000000
    32  H    1.769162   0.000000
    33  H    2.343528   2.718354   0.000000
    34  H    3.013459   2.369816   1.766823   0.000000
    35  H    3.300976   4.127391   2.337340   2.943483   0.000000
    36  H    3.899761   3.980025   2.860043   2.282304   1.764582
    37  H    2.814716   3.887308   3.603462   3.939404   2.307837
    38  H    3.847527   4.206166   4.199802   3.783930   2.792738
                   36         37         38
    36  H    0.000000
    37  H    2.988924   0.000000
    38  H    2.345090   1.767841   0.000000
 Stoichiometry    C12H24O2
 Framework group  C1[X(C12H24O2)]
 Deg. of freedom   108
 Full point group                 C1      NOp   1
 Largest Abelian subgroup         C1      NOp   1
 Largest concise Abelian subgroup C1      NOp   1
                         Standard orientation:                         
 ---------------------------------------------------------------------
 Center     Atomic      Atomic             Coordinates (Angstroms)
 Number     Number       Type             X           Y           Z
 ---------------------------------------------------------------------
      1          6           0       -4.486638   -2.115537    0.280427
      2          6           0       -3.647755   -0.963211   -0.224146
      3          6           0       -2.149953   -1.084316    0.066230
      4          6           0       -1.363503    0.176305   -0.354363
      5          8           0       -1.759992    1.259661    0.487681
      6          6           0       -2.877927    2.009143    0.047969
      7          8           0        0.031925   -0.094917   -0.146077
      8          6           0        0.947078    0.911010   -0.614708
      9          6           0        0.751483    2.273745    0.057576
     10          6           0        2.391344    0.443806   -0.324040
     11          6           0        2.606239   -0.033565    1.114800
     12          6           0        3.906204   -0.818443    1.058872
     13          6           0        3.993331   -1.377627   -0.359055
     14          6           0        2.834994   -0.765025   -1.145547
     15          1           0       -5.543521   -1.888575    0.098353
     16          1           0       -4.358534   -2.235233    1.359163
     17          1           0       -4.236734   -3.051447   -0.224437
     18          1           0       -4.060039   -0.111432    0.311702
     19          1           0       -3.816516   -0.790435   -1.289510
     20          1           0       -1.740672   -1.971823   -0.437942
     21          1           0       -2.001452   -1.246545    1.139417
     22          1           0       -1.512333    0.390148   -1.417901
     23          1           0       -2.715260    3.058438    0.306118
     24          1           0       -3.760701    1.712461    0.617698
     25          1           0       -3.059663    1.922551   -1.025515
     26          1           0        0.822313    1.021219   -1.699349
     27          1           0        0.722888    2.172118    1.147891
     28          1           0       -0.180952    2.746538   -0.257409
     29          1           0        1.546452    2.974358   -0.213374
     30          1           0        3.090579    1.265929   -0.537531
     31          1           0        1.798850   -0.698264    1.441725
     32          1           0        2.663868    0.796435    1.825849
     33          1           0        3.924855   -1.611717    1.812979
     34          1           0        4.757343   -0.156463    1.255430
     35          1           0        3.921825   -2.470142   -0.361016
     36          1           0        4.957869   -1.113127   -0.806970
     37          1           0        2.026601   -1.496555   -1.247790
     38          1           0        3.148094   -0.474101   -2.154490
 ---------------------------------------------------------------------
 Rotational constants (GHZ):           1.1670903           0.3134129           0.2707747
 Standard basis: 6-31G(2df,p) (6D, 7F)
 There are   554 symmetry adapted cartesian basis functions of A   symmetry.
 There are   512 symmetry adapted basis functions of A   symmetry.
   512 basis functions,   784 primitive gaussians,   554 cartesian basis functions
    56 alpha electrons       56 beta electrons
       nuclear repulsion energy       989.9887153685 Hartrees.
 NAtoms=   38 NActive=   38 NUniq=   38 SFac= 1.00D+00 NAtFMM=   60 NAOKFM=F Big=F
 Integral buffers will be    131072 words long.
 Raffenetti 2 integral format.
 Two-electron integral symmetry is turned on.
 One-electron integrals computed using PRISM.
 PrsmSu:  requested number of processors reduced to:  12 ShMem   1 Linda.
 NBasis=   512 RedAO= T EigKep=  5.15D-04  NBF=   512
 NBsUse=   512 1.00D-06 EigRej= -1.00D+00 NBFU=   512
 ExpMin= 1.61D-01 ExpMax= 5.48D+03 ExpMxC= 8.25D+02 IAcc=3 IRadAn=         5 AccDes= 0.00D+00
 Harris functional with IExCor=  402 and IRadAn=       5 diagonalized for initial guess.
 HarFok:  IExCor=  402 AccDes= 0.00D+00 IRadAn=         5 IDoV= 1 UseB2=F ITyADJ=14
 ICtDFT=  3500011 ScaDFX=  1.000000  1.000000  1.000000  1.000000
 FoFCou: FMM=F IPFlag=           0 FMFlag=      100000 FMFlg1=           0
         NFxFlg=           0 DoJE=T BraDBF=F KetDBF=T FulRan=T
         wScrn=  0.000000 ICntrl=       500 IOpCl=  0 I1Cent=   200000004 NGrid=           0
         NMat0=    1 NMatS0=      1 NMatT0=    0 NMatD0=    1 NMtDS0=    0 NMtDT0=    0
 Petite list used in FoFCou.
 Requested convergence on RMS density matrix=1.00D-08 within 128 cycles.
 Requested convergence on MAX density matrix=1.00D-06.
 Requested convergence on             energy=1.00D-06.
 No special actions if energy rises.
 Integral accuracy reduced to 1.0D-05 until final iterations.
 Initial convergence to 1.0D-05 achieved.  Increase integral accuracy.
 SCF Done:  E(RB3LYP) =  -622.202838279     A.U. after   12 cycles
            NFock= 12  Conv=0.60D-08     -V/T= 2.0079

 **********************************************************************

            Population analysis using the SCF density.

 **********************************************************************

 Orbital symmetries:
       Occupied  (A) (A) (A) (A) (A) (A) (A) (A) (A) (A) (A) (A)
                 (A) (A) (A) (A) (A) (A) (A) (A) (A) (A) (A) (A)
                 (A) (A) (A) (A) (A) (A) (A) (A) (A) (A) (A) (A)
                 (A) (A) (A) (A) (A) (A) (A) (A) (A) (A) (A) (A)
                 (A) (A) (A) (A) (A) (A) (A) (A)
       Virtual   (A) (A) (A) (A) (A) (A) (A) (A) (A) (A) (A) (A)
                 (A) (A) (A) (A) (A) (A) (A) (A) (A) (A) (A) (A)
                 (A) (A) (A) (A) (A) (A) (A) (A) (A) (A) (A) (A)
                 (A) (A) (A) (A) (A) (A) (A) (A) (A) (A) (A) (A)
                 (A) (A) (A) (A) (A) (A) (A) (A) (A) (A) (A) (A)
                 (A) (A) (A) (A) (A) (A) (A) (A) (A) (A) (A) (A)
                 (A) (A) (A) (A) (A) (A) (A) (A) (A) (A) (A) (A)
                 (A) (A) (A) (A) (A) (A) (A) (A) (A) (A) (A) (A)
                 (A) (A) (A) (A) (A) (A) (A) (A) (A) (A) (A) (A)
                 (A) (A) (A) (A) (A) (A) (A) (A) (A) (A) (A) (A)
                 (A) (A) (A) (A) (A) (A) (A) (A) (A) (A) (A) (A)
                 (A) (A) (A) (A) (A) (A) (A) (A) (A) (A) (A) (A)
                 (A) (A) (A) (A) (A) (A) (A) (A) (A) (A) (A) (A)
                 (A) (A) (A) (A) (A) (A) (A) (A) (A) (A) (A) (A)
                 (A) (A) (A) (A) (A) (A) (A) (A) (A) (A) (A) (A)
                 (A) (A) (A) (A) (A) (A) (A) (A) (A) (A) (A) (A)
                 (A) (A) (A) (A) (A) (A) (A) (A) (A) (A) (A) (A)
                 (A) (A) (A) (A) (A) (A) (A) (A) (A) (A) (A) (A)
                 (A) (A) (A) (A) (A) (A) (A) (A) (A) (A) (A) (A)
                 (A) (A) (A) (A) (A) (A) (A) (A) (A) (A) (A) (A)
                 (A) (A) (A) (A) (A) (A) (A) (A) (A) (A) (A) (A)
                 (A) (A) (A) (A) (A) (A) (A) (A) (A) (A) (A) (A)
                 (A) (A) (A) (A) (A) (A) (A) (A) (A) (A) (A) (A)
                 (A) (A) (A) (A) (A) (A) (A) (A) (A) (A) (A) (A)
                 (A) (A) (A) (A) (A) (A) (A) (A) (A) (A) (A) (A)
                 (A) (A) (A) (A) (A) (A) (A) (A) (A) (A) (A) (A)
                 (A) (A) (A) (A) (A) (A) (A) (A) (A) (A) (A) (A)
                 (A) (A) (A) (A) (A) (A) (A) (A) (A) (A) (A) (A)
                 (A) (A) (A) (A) (A) (A) (A) (A) (A) (A) (A) (A)
                 (A) (A) (A) (A) (A) (A) (A) (A) (A) (A) (A) (A)
                 (A) (A) (A) (A) (A) (A) (A) (A) (A) (A) (A) (A)
                 (A) (A) (A) (A) (A) (A) (A) (A) (A) (A) (A) (A)
                 (A) (A) (A) (A) (A) (A) (A) (A) (A) (A) (A) (A)
                 (A) (A) (A) (A) (A) (A) (A) (A) (A) (A) (A) (A)
                 (A) (A) (A) (A) (A) (A) (A) (A) (A) (A) (A) (A)
                 (A) (A) (A) (A) (A) (A) (A) (A) (A) (A) (A) (A)
                 (A) (A) (A) (A) (A) (A) (A) (A) (A) (A) (A) (A)
                 (A) (A) (A) (A) (A) (A) (A) (A) (A) (A) (A) (A)
 The electronic state is 1-A.
 Alpha  occ. eigenvalues --  -19.13921 -19.13704 -10.27715 -10.22577 -10.22337
 Alpha  occ. eigenvalues --  -10.17708 -10.17553 -10.17150 -10.17116 -10.16156
 Alpha  occ. eigenvalues --  -10.16078 -10.15973 -10.15775 -10.15729  -1.05084
 Alpha  occ. eigenvalues --   -0.99638  -0.83092  -0.79365  -0.75892  -0.71816
 Alpha  occ. eigenvalues --   -0.69755  -0.68595  -0.67987  -0.62065  -0.58967
 Alpha  occ. eigenvalues --   -0.58114  -0.54791  -0.54401  -0.50668  -0.48816
 Alpha  occ. eigenvalues --   -0.47801  -0.46653  -0.46264  -0.44563  -0.43264
 Alpha  occ. eigenvalues --   -0.42160  -0.41455  -0.40321  -0.39960  -0.39617
 Alpha  occ. eigenvalues --   -0.37980  -0.37805  -0.36638  -0.35132  -0.33416
 Alpha  occ. eigenvalues --   -0.33114  -0.32496  -0.32304  -0.31997  -0.31848
 Alpha  occ. eigenvalues --   -0.31036  -0.30662  -0.29964  -0.28795  -0.26282
 Alpha  occ. eigenvalues --   -0.24662
 Alpha virt. eigenvalues --    0.08112   0.08592   0.09985   0.10268   0.11157
 Alpha virt. eigenvalues --    0.11963   0.12828   0.13716   0.14074   0.14673
 Alpha virt. eigenvalues --    0.15011   0.15665   0.16091   0.16757   0.16847
 Alpha virt. eigenvalues --    0.17171   0.18110   0.18668   0.19165   0.19457
 Alpha virt. eigenvalues --    0.19953   0.20245   0.21339   0.21489   0.22120
 Alpha virt. eigenvalues --    0.22925   0.23219   0.24556   0.25851   0.26121
 Alpha virt. eigenvalues --    0.26503   0.26726   0.27259   0.28090   0.30144
 Alpha virt. eigenvalues --    0.30763   0.32212   0.32789   0.43140   0.43939
 Alpha virt. eigenvalues --    0.45190   0.45946   0.48079   0.48963   0.49667
 Alpha virt. eigenvalues --    0.50305   0.51186   0.51490   0.51613   0.52595
 Alpha virt. eigenvalues --    0.53138   0.53641   0.54286   0.55816   0.57078
 Alpha virt. eigenvalues --    0.57348   0.58388   0.59177   0.59581   0.60102
 Alpha virt. eigenvalues --    0.60571   0.61219   0.62558   0.63915   0.65755
 Alpha virt. eigenvalues --    0.66670   0.68001   0.69038   0.69693   0.70276
 Alpha virt. eigenvalues --    0.71259   0.71776   0.72775   0.73550   0.73792
 Alpha virt. eigenvalues --    0.74086   0.74248   0.74908   0.76010   0.76390
 Alpha virt. eigenvalues --    0.76886   0.77233   0.77860   0.78369   0.78775
 Alpha virt. eigenvalues --    0.79575   0.80286   0.80461   0.80886   0.81233
 Alpha virt. eigenvalues --    0.81763   0.82022   0.84030   0.84553   0.84812
 Alpha virt. eigenvalues --    0.85989   0.87635   0.88130   0.88381   0.89069
 Alpha virt. eigenvalues --    0.89704   0.91384   0.93902   0.96241   0.97445
 Alpha virt. eigenvalues --    0.98670   1.01158   1.02984   1.04599   1.06539
 Alpha virt. eigenvalues --    1.07688   1.09285   1.11884   1.12148   1.15328
 Alpha virt. eigenvalues --    1.16845   1.18112   1.18577   1.21160   1.21933
 Alpha virt. eigenvalues --    1.23697   1.24994   1.25944   1.28544   1.29542
 Alpha virt. eigenvalues --    1.30098   1.30342   1.31630   1.32347   1.34059
 Alpha virt. eigenvalues --    1.36190   1.36956   1.37715   1.39786   1.40260
 Alpha virt. eigenvalues --    1.40878   1.42057   1.43192   1.46740   1.47410
 Alpha virt. eigenvalues --    1.48538   1.49105   1.50190   1.51203   1.52459
 Alpha virt. eigenvalues --    1.53174   1.53374   1.54841   1.55391   1.56678
 Alpha virt. eigenvalues --    1.58748   1.59306   1.60539   1.61242   1.62581
 Alpha virt. eigenvalues --    1.63830   1.64262   1.66835   1.69161   1.71494
 Alpha virt. eigenvalues --    1.72041   1.72988   1.73796   1.74376   1.76956
 Alpha virt. eigenvalues --    1.78149   1.80003   1.81540   1.81739   1.83223
 Alpha virt. eigenvalues --    1.84357   1.86413   1.87547   1.87648   1.89637
 Alpha virt. eigenvalues --    1.91511   1.93107   1.94397   1.95203   1.96108
 Alpha virt. eigenvalues --    1.97373   1.98895   1.99610   2.01242   2.02244
 Alpha virt. eigenvalues --    2.04079   2.07043   2.09118   2.10684   2.15053
 Alpha virt. eigenvalues --    2.16550   2.18235   2.20817   2.21544   2.22288
 Alpha virt. eigenvalues --    2.24507   2.25985   2.26097   2.29866   2.30697
 Alpha virt. eigenvalues --    2.33754   2.34440   2.35348   2.36964   2.37715
 Alpha virt. eigenvalues --    2.38382   2.39689   2.40134   2.41987   2.45023
 Alpha virt. eigenvalues --    2.46371   2.47848   2.49253   2.50956   2.53377
 Alpha virt. eigenvalues --    2.54186   2.54951   2.56440   2.62058   2.64413
 Alpha virt. eigenvalues --    2.64775   2.66556   2.67504   2.70932   2.71825
 Alpha virt. eigenvalues --    2.72240   2.73784   2.74921   2.75480   2.76335
 Alpha virt. eigenvalues --    2.77294   2.78082   2.79164   2.79551   2.80327
 Alpha virt. eigenvalues --    2.81614   2.82744   2.83970   2.86222   2.86441
 Alpha virt. eigenvalues --    2.87415   2.89018   2.89141   2.90316   2.90703
 Alpha virt. eigenvalues --    2.91874   2.92969   2.93462   2.94081   2.95092
 Alpha virt. eigenvalues --    2.96556   2.97416   2.97659   2.98946   2.99523
 Alpha virt. eigenvalues --    3.01248   3.01680   3.03623   3.05420   3.08400
 Alpha virt. eigenvalues --    3.08918   3.09271   3.11201   3.13649   3.15117
 Alpha virt. eigenvalues --    3.15865   3.17788   3.18811   3.19907   3.22624
 Alpha virt. eigenvalues --    3.26008   3.27828   3.28266   3.29472   3.30283
 Alpha virt. eigenvalues --    3.32406   3.33201   3.34745   3.35890   3.35985
 Alpha virt. eigenvalues --    3.39553   3.39700   3.40727   3.42845   3.43365
 Alpha virt. eigenvalues --    3.44675   3.45884   3.47207   3.48526   3.49261
 Alpha virt. eigenvalues --    3.50296   3.52408   3.52892   3.53731   3.56849
 Alpha virt. eigenvalues --    3.57447   3.57635   3.58501   3.60408   3.62027
 Alpha virt. eigenvalues --    3.63586   3.64312   3.64776   3.67993   3.68905
 Alpha virt. eigenvalues --    3.70570   3.72509   3.73050   3.75156   3.77333
 Alpha virt. eigenvalues --    3.78113   3.79839   3.81492   3.82057   3.82750
 Alpha virt. eigenvalues --    3.85698   3.87266   3.87843   3.91146   3.91274
 Alpha virt. eigenvalues --    3.95065   3.95721   3.98242   4.00509   4.00712
 Alpha virt. eigenvalues --    4.03213   4.07583   4.11420   4.16319   4.17533
 Alpha virt. eigenvalues --    4.21725   4.25345   4.27070   4.28769   4.29494
 Alpha virt. eigenvalues --    4.31475   4.33823   4.36739   4.38572   4.39551
 Alpha virt. eigenvalues --    4.41748   4.43277   4.44118   4.45243   4.45793
 Alpha virt. eigenvalues --    4.46380   4.47363   4.48019   4.49220   4.49656
 Alpha virt. eigenvalues --    4.51104   4.52728   4.54199   4.54903   4.55380
 Alpha virt. eigenvalues --    4.56718   4.56973   4.58477   4.59083   4.59940
 Alpha virt. eigenvalues --    4.60452   4.62333   4.63135   4.65662   4.66501
 Alpha virt. eigenvalues --    4.66729   4.67311   4.68342   4.68786   4.69546
 Alpha virt. eigenvalues --    4.70973   4.72105   4.72577   4.73512   4.74215
 Alpha virt. eigenvalues --    4.75469   4.76386   4.77127   4.77899   4.78803
 Alpha virt. eigenvalues --    4.80544   4.81485   4.81781   4.81934   4.83216
 Alpha virt. eigenvalues --    4.85069   4.85295   4.85572   4.86218   4.88180
 Alpha virt. eigenvalues --    4.89069   4.89093   4.90294   4.92391   4.92803
 Alpha virt. eigenvalues --    4.93492   4.94389   4.97496   5.00124   5.00684
 Alpha virt. eigenvalues --    5.03868   5.06381   5.07691   5.11358   5.13521
 Alpha virt. eigenvalues --    5.15632   5.18151   5.20699   5.25404   5.28181
 Alpha virt. eigenvalues --    5.31146   5.33703   5.36030   5.36476   5.41123
 Alpha virt. eigenvalues --    5.42243   5.43275   5.43624   5.46367   5.47040
 Alpha virt. eigenvalues --    5.49052   5.53772   5.57693   5.59382   5.64997
 Alpha virt. eigenvalues --    5.68473   5.74829   5.77946   5.89209   5.93274
 Alpha virt. eigenvalues --    5.97579   5.99686   6.10791   6.13496   6.16835
 Alpha virt. eigenvalues --    6.22610   6.29834   6.47345   6.57345   6.83505
 Alpha virt. eigenvalues --    7.22874   7.33082  11.08455  11.23820  11.43562
 Alpha virt. eigenvalues --   11.58934  11.77120  11.92565  12.03473  12.12755
 Alpha virt. eigenvalues --   12.39661  12.52395  12.79827  12.87669  13.65141
 Alpha virt. eigenvalues --   13.80268
          Condensed to atoms (all electrons):
               1          2          3          4          5          6
     1  C    4.964223   0.408604  -0.034099   0.001289  -0.000009   0.000026
     2  C    0.408604   4.785362   0.402789  -0.027009  -0.001106  -0.005159
     3  C   -0.034099   0.402789   4.925869   0.388692  -0.025440  -0.000218
     4  C    0.001289  -0.027009   0.388692   4.602521   0.296753  -0.066619
     5  O   -0.000009  -0.001106  -0.025440   0.296753   7.802466   0.348808
     6  C    0.000026  -0.005159  -0.000218  -0.066619   0.348808   4.836751
     7  O   -0.000020   0.001521  -0.021468   0.377920  -0.044588   0.002995
     8  C   -0.000000  -0.000186   0.002189  -0.060976  -0.005487   0.000571
     9  C    0.000000   0.000016   0.000643  -0.005308   0.000354  -0.001048
    10  C   -0.000000  -0.000000  -0.000209   0.002818   0.000079   0.000006
    11  C   -0.000000   0.000000  -0.000018   0.000450  -0.000073   0.000001
    12  C   -0.000000  -0.000000  -0.000000  -0.000007  -0.000000   0.000000
    13  C   -0.000000  -0.000000  -0.000001   0.000002  -0.000000   0.000000
    14  C    0.000000   0.000000  -0.000003   0.000179   0.000003  -0.000000
    15  H    0.373393  -0.022502   0.003243  -0.000123   0.000002   0.000022
    16  H    0.379380  -0.027776  -0.004788   0.000227  -0.000000   0.000017
    17  H    0.376060  -0.028752  -0.002504   0.000066  -0.000001  -0.000001
    18  H   -0.038232   0.371092  -0.031064  -0.003681   0.000914  -0.001577
    19  H   -0.037634   0.372547  -0.038162  -0.001050  -0.000169  -0.000081
    20  H   -0.003272  -0.034694   0.342101  -0.018297   0.003119  -0.000219
    21  H   -0.004196  -0.030070   0.345820  -0.013954  -0.001202   0.000114
    22  H   -0.000117  -0.001884  -0.065298   0.343995  -0.050504  -0.010182
    23  H   -0.000015   0.000391  -0.000257   0.003103  -0.027771   0.374798
    24  H    0.000324  -0.004504   0.000267   0.002257  -0.031000   0.382399
    25  H    0.000013  -0.000825  -0.000876  -0.012641  -0.026231   0.371056
    26  H    0.000000   0.000024  -0.000104  -0.005611  -0.001589   0.000001
    27  H   -0.000000   0.000003  -0.000093   0.000937   0.001413   0.000140
    28  H   -0.000000  -0.000004   0.000106   0.001394   0.001625   0.001080
    29  H    0.000000  -0.000000   0.000004  -0.000160   0.000901  -0.000048
    30  H    0.000000  -0.000000   0.000003  -0.000100   0.000004  -0.000000
    31  H    0.000000   0.000003   0.000089  -0.000073  -0.000013  -0.000001
    32  H    0.000000  -0.000000  -0.000000  -0.000036  -0.000000  -0.000000
    33  H    0.000000  -0.000000   0.000000  -0.000000   0.000000  -0.000000
    34  H    0.000000   0.000000   0.000000   0.000000  -0.000000  -0.000000
    35  H    0.000000  -0.000000   0.000000  -0.000001  -0.000000  -0.000000
    36  H    0.000000   0.000000   0.000000   0.000000  -0.000000   0.000000
    37  H    0.000000   0.000001   0.000032   0.000052   0.000008  -0.000000
    38  H   -0.000000   0.000000   0.000000  -0.000006   0.000000  -0.000000
               7          8          9         10         11         12
     1  C   -0.000020  -0.000000   0.000000  -0.000000  -0.000000  -0.000000
     2  C    0.001521  -0.000186   0.000016  -0.000000   0.000000  -0.000000
     3  C   -0.021468   0.002189   0.000643  -0.000209  -0.000018  -0.000000
     4  C    0.377920  -0.060976  -0.005308   0.002818   0.000450  -0.000007
     5  O   -0.044588  -0.005487   0.000354   0.000079  -0.000073  -0.000000
     6  C    0.002995   0.000571  -0.001048   0.000006   0.000001   0.000000
     7  O    7.747387   0.344407  -0.039042  -0.031632  -0.006401   0.000327
     8  C    0.344407   4.635127   0.358868   0.420187  -0.020591   0.002195
     9  C   -0.039042   0.358868   5.089216  -0.025203  -0.007912   0.000177
    10  C   -0.031632   0.420187  -0.025203   4.668869   0.410227  -0.045979
    11  C   -0.006401  -0.020591  -0.007912   0.410227   4.879708   0.415251
    12  C    0.000327   0.002195   0.000177  -0.045979   0.415251   4.848243
    13  C   -0.000029   0.002788  -0.000263  -0.048979  -0.062473   0.420187
    14  C   -0.003176  -0.022055   0.004585   0.408595  -0.058161  -0.063571
    15  H    0.000000  -0.000000   0.000000   0.000000   0.000000  -0.000000
    16  H    0.000001   0.000000  -0.000000   0.000000  -0.000000  -0.000000
    17  H   -0.000001   0.000000  -0.000000   0.000000  -0.000000   0.000000
    18  H   -0.000021   0.000002  -0.000002   0.000000  -0.000000   0.000000
    19  H    0.000012   0.000010  -0.000000   0.000000  -0.000000   0.000000
    20  H    0.001576   0.000197   0.000005  -0.000003  -0.000001  -0.000000
    21  H    0.000712   0.000130  -0.000043   0.000002  -0.000026   0.000000
    22  H   -0.035819  -0.006060  -0.001828  -0.000074   0.000025   0.000000
    23  H   -0.000039   0.000084   0.000158   0.000000  -0.000000   0.000000
    24  H   -0.000117  -0.000025   0.000069   0.000000  -0.000000  -0.000000
    25  H   -0.000087  -0.000206   0.000162  -0.000001  -0.000000   0.000000
    26  H   -0.036808   0.349749  -0.066822  -0.042333   0.005775  -0.000123
    27  H   -0.000318  -0.013191   0.365963  -0.007176   0.001959  -0.000031
    28  H   -0.000825  -0.015395   0.364168   0.002977   0.000085  -0.000004
    29  H    0.002293  -0.021733   0.349739  -0.005097   0.000060  -0.000026
    30  H    0.001800  -0.036134  -0.004924   0.359197  -0.044964   0.001551
    31  H    0.014817  -0.009313  -0.000103  -0.030981   0.365672  -0.030053
    32  H    0.000067   0.000186   0.000776  -0.027299   0.361604  -0.030371
    33  H    0.000001  -0.000174   0.000003   0.004055  -0.027561   0.369835
    34  H   -0.000004  -0.000020  -0.000004   0.000775  -0.030722   0.366954
    35  H    0.000003  -0.000076   0.000002   0.003037   0.004227  -0.031578
    36  H   -0.000002  -0.000038   0.000003   0.001826   0.002811  -0.029003
    37  H    0.009123  -0.008441   0.000642  -0.030185  -0.001544   0.001725
    38  H    0.000093   0.000561  -0.000006  -0.023501   0.006695   0.005181
              13         14         15         16         17         18
     1  C   -0.000000   0.000000   0.373393   0.379380   0.376060  -0.038232
     2  C   -0.000000   0.000000  -0.022502  -0.027776  -0.028752   0.371092
     3  C   -0.000001  -0.000003   0.003243  -0.004788  -0.002504  -0.031064
     4  C    0.000002   0.000179  -0.000123   0.000227   0.000066  -0.003681
     5  O   -0.000000   0.000003   0.000002  -0.000000  -0.000001   0.000914
     6  C    0.000000  -0.000000   0.000022   0.000017  -0.000001  -0.001577
     7  O   -0.000029  -0.003176   0.000000   0.000001  -0.000001  -0.000021
     8  C    0.002788  -0.022055  -0.000000   0.000000   0.000000   0.000002
     9  C   -0.000263   0.004585   0.000000  -0.000000  -0.000000  -0.000002
    10  C   -0.048979   0.408595   0.000000   0.000000   0.000000   0.000000
    11  C   -0.062473  -0.058161   0.000000  -0.000000  -0.000000  -0.000000
    12  C    0.420187  -0.063571  -0.000000  -0.000000   0.000000   0.000000
    13  C    4.859612   0.401958  -0.000000   0.000000   0.000000   0.000000
    14  C    0.401958   4.934130   0.000000  -0.000000  -0.000000  -0.000000
    15  H   -0.000000   0.000000   0.606633  -0.032135  -0.031635  -0.004204
    16  H    0.000000  -0.000000  -0.032135   0.595718  -0.032218  -0.005432
    17  H    0.000000  -0.000000  -0.031635  -0.032218   0.602873   0.006146
    18  H    0.000000  -0.000000  -0.004204  -0.005432   0.006146   0.635990
    19  H   -0.000000  -0.000000  -0.002225   0.005796  -0.004263  -0.043186
    20  H   -0.000000  -0.000017  -0.000069  -0.000344   0.003997   0.006174
    21  H   -0.000000  -0.000000  -0.000035   0.005011  -0.000370  -0.005553
    22  H   -0.000001  -0.000051   0.000007   0.000007   0.000006   0.000142
    23  H    0.000000  -0.000000   0.000000   0.000000   0.000000   0.000415
    24  H    0.000000  -0.000000  -0.000021   0.000003  -0.000003   0.003200
    25  H   -0.000000  -0.000000  -0.000000   0.000001  -0.000001   0.000421
    26  H   -0.000033  -0.006041   0.000000  -0.000000   0.000000   0.000000
    27  H    0.000010   0.000061   0.000000  -0.000000   0.000000   0.000000
    28  H    0.000004  -0.000190  -0.000000   0.000000   0.000000   0.000001
    29  H    0.000001   0.000117  -0.000000  -0.000000   0.000000   0.000000
    30  H    0.002044  -0.045693  -0.000000  -0.000000  -0.000000  -0.000000
    31  H    0.000848  -0.001860  -0.000000   0.000000   0.000000   0.000000
    32  H    0.005577   0.006508  -0.000000   0.000000  -0.000000  -0.000000
    33  H   -0.031779   0.005294  -0.000000   0.000000  -0.000000  -0.000000
    34  H   -0.030389   0.001882  -0.000000  -0.000000  -0.000000  -0.000000
    35  H    0.369016  -0.026514  -0.000000   0.000000   0.000000  -0.000000
    36  H    0.367372  -0.028719  -0.000000  -0.000000  -0.000000  -0.000000
    37  H   -0.028616   0.362425  -0.000000   0.000000   0.000000   0.000000
    38  H   -0.030532   0.355287   0.000000  -0.000000  -0.000000  -0.000000
              19         20         21         22         23         24
     1  C   -0.037634  -0.003272  -0.004196  -0.000117  -0.000015   0.000324
     2  C    0.372547  -0.034694  -0.030070  -0.001884   0.000391  -0.004504
     3  C   -0.038162   0.342101   0.345820  -0.065298  -0.000257   0.000267
     4  C   -0.001050  -0.018297  -0.013954   0.343995   0.003103   0.002257
     5  O   -0.000169   0.003119  -0.001202  -0.050504  -0.027771  -0.031000
     6  C   -0.000081  -0.000219   0.000114  -0.010182   0.374798   0.382399
     7  O    0.000012   0.001576   0.000712  -0.035819  -0.000039  -0.000117
     8  C    0.000010   0.000197   0.000130  -0.006060   0.000084  -0.000025
     9  C   -0.000000   0.000005  -0.000043  -0.001828   0.000158   0.000069
    10  C    0.000000  -0.000003   0.000002  -0.000074   0.000000   0.000000
    11  C   -0.000000  -0.000001  -0.000026   0.000025  -0.000000  -0.000000
    12  C    0.000000  -0.000000   0.000000   0.000000   0.000000  -0.000000
    13  C   -0.000000  -0.000000  -0.000000  -0.000001   0.000000   0.000000
    14  C   -0.000000  -0.000017  -0.000000  -0.000051  -0.000000  -0.000000
    15  H   -0.002225  -0.000069  -0.000035   0.000007   0.000000  -0.000021
    16  H    0.005796  -0.000344   0.005011   0.000007   0.000000   0.000003
    17  H   -0.004263   0.003997  -0.000370   0.000006   0.000000  -0.000003
    18  H   -0.043186   0.006174  -0.005553   0.000142   0.000415   0.003200
    19  H    0.651482  -0.004531   0.006200   0.005495   0.000009  -0.000139
    20  H   -0.004531   0.642688  -0.036509   0.000955   0.000015  -0.000097
    21  H    0.006200  -0.036509   0.615476   0.006574   0.000005  -0.000004
    22  H    0.005495   0.000955   0.006574   0.720627   0.000510  -0.000857
    23  H    0.000009   0.000015   0.000005   0.000510   0.609079  -0.047189
    24  H   -0.000139  -0.000097  -0.000004  -0.000857  -0.047189   0.615977
    25  H    0.001245   0.000007   0.000211   0.016741  -0.030995  -0.043280
    26  H   -0.000000  -0.000011   0.000028   0.013126   0.000008  -0.000002
    27  H    0.000000  -0.000001   0.000030   0.000406   0.000060  -0.000011
    28  H   -0.000000  -0.000003  -0.000003  -0.000567   0.000942   0.000076
    29  H   -0.000000  -0.000001  -0.000000   0.000017  -0.000101   0.000002
    30  H   -0.000000   0.000000   0.000000   0.000001  -0.000000   0.000000
    31  H    0.000000   0.000009   0.000194   0.000068   0.000000   0.000000
    32  H    0.000000   0.000000  -0.000000  -0.000000   0.000000   0.000000
    33  H   -0.000000   0.000000  -0.000000   0.000000  -0.000000   0.000000
    34  H   -0.000000  -0.000000  -0.000000  -0.000000  -0.000000  -0.000000
    35  H    0.000000  -0.000000   0.000000   0.000000  -0.000000  -0.000000
    36  H   -0.000000   0.000000  -0.000000   0.000000  -0.000000  -0.000000
    37  H   -0.000000   0.000186  -0.000001  -0.000008   0.000000   0.000000
    38  H    0.000000  -0.000000   0.000000   0.000003   0.000000   0.000000
              25         26         27         28         29         30
     1  C    0.000013   0.000000  -0.000000  -0.000000   0.000000   0.000000
     2  C   -0.000825   0.000024   0.000003  -0.000004  -0.000000  -0.000000
     3  C   -0.000876  -0.000104  -0.000093   0.000106   0.000004   0.000003
     4  C   -0.012641  -0.005611   0.000937   0.001394  -0.000160  -0.000100
     5  O   -0.026231  -0.001589   0.001413   0.001625   0.000901   0.000004
     6  C    0.371056   0.000001   0.000140   0.001080  -0.000048  -0.000000
     7  O   -0.000087  -0.036808  -0.000318  -0.000825   0.002293   0.001800
     8  C   -0.000206   0.349749  -0.013191  -0.015395  -0.021733  -0.036134
     9  C    0.000162  -0.066822   0.365963   0.364168   0.349739  -0.004924
    10  C   -0.000001  -0.042333  -0.007176   0.002977  -0.005097   0.359197
    11  C   -0.000000   0.005775   0.001959   0.000085   0.000060  -0.044964
    12  C    0.000000  -0.000123  -0.000031  -0.000004  -0.000026   0.001551
    13  C   -0.000000  -0.000033   0.000010   0.000004   0.000001   0.002044
    14  C   -0.000000  -0.006041   0.000061  -0.000190   0.000117  -0.045693
    15  H   -0.000000   0.000000   0.000000  -0.000000  -0.000000  -0.000000
    16  H    0.000001  -0.000000  -0.000000   0.000000  -0.000000  -0.000000
    17  H   -0.000001   0.000000   0.000000   0.000000   0.000000  -0.000000
    18  H    0.000421   0.000000   0.000000   0.000001   0.000000  -0.000000
    19  H    0.001245  -0.000000   0.000000  -0.000000  -0.000000  -0.000000
    20  H    0.000007  -0.000011  -0.000001  -0.000003  -0.000001   0.000000
    21  H    0.000211   0.000028   0.000030  -0.000003  -0.000000   0.000000
    22  H    0.016741   0.013126   0.000406  -0.000567   0.000017   0.000001
    23  H   -0.030995   0.000008   0.000060   0.000942  -0.000101  -0.000000
    24  H   -0.043280  -0.000002  -0.000011   0.000076   0.000002   0.000000
    25  H    0.612105   0.000058   0.000033  -0.000006   0.000007  -0.000000
    26  H    0.000058   0.725468   0.006212  -0.004314   0.001341   0.000935
    27  H    0.000033   0.006212   0.574954  -0.031920  -0.030101   0.000381
    28  H   -0.000006  -0.004314  -0.031920   0.602950  -0.034033   0.000021
    29  H    0.000007   0.001341  -0.030101  -0.034033   0.637664   0.004025
    30  H   -0.000000   0.000935   0.000381   0.000021   0.004025   0.696919
    31  H    0.000000   0.000553   0.001037  -0.000032   0.000020   0.006086
    32  H   -0.000000  -0.000099   0.002085  -0.000038   0.000270  -0.007108
    33  H   -0.000000   0.000004   0.000004  -0.000000   0.000000  -0.000128
    34  H   -0.000000   0.000002   0.000002  -0.000000   0.000000   0.001796
    35  H   -0.000000   0.000005  -0.000000  -0.000000   0.000000  -0.000170
    36  H    0.000000  -0.000003  -0.000000  -0.000000   0.000000   0.000938
    37  H   -0.000000  -0.000120  -0.000000  -0.000002  -0.000014   0.006473
    38  H   -0.000000   0.002618  -0.000001   0.000004  -0.000014  -0.008945
              31         32         33         34         35         36
     1  C    0.000000   0.000000   0.000000   0.000000   0.000000   0.000000
     2  C    0.000003  -0.000000  -0.000000   0.000000  -0.000000   0.000000
     3  C    0.000089  -0.000000   0.000000   0.000000   0.000000   0.000000
     4  C   -0.000073  -0.000036  -0.000000   0.000000  -0.000001   0.000000
     5  O   -0.000013  -0.000000   0.000000  -0.000000  -0.000000  -0.000000
     6  C   -0.000001  -0.000000  -0.000000  -0.000000  -0.000000   0.000000
     7  O    0.014817   0.000067   0.000001  -0.000004   0.000003  -0.000002
     8  C   -0.009313   0.000186  -0.000174  -0.000020  -0.000076  -0.000038
     9  C   -0.000103   0.000776   0.000003  -0.000004   0.000002   0.000003
    10  C   -0.030981  -0.027299   0.004055   0.000775   0.003037   0.001826
    11  C    0.365672   0.361604  -0.027561  -0.030722   0.004227   0.002811
    12  C   -0.030053  -0.030371   0.369835   0.366954  -0.031578  -0.029003
    13  C    0.000848   0.005577  -0.031779  -0.030389   0.369016   0.367372
    14  C   -0.001860   0.006508   0.005294   0.001882  -0.026514  -0.028719
    15  H   -0.000000  -0.000000  -0.000000  -0.000000  -0.000000  -0.000000
    16  H    0.000000   0.000000   0.000000  -0.000000   0.000000  -0.000000
    17  H    0.000000  -0.000000  -0.000000  -0.000000   0.000000  -0.000000
    18  H    0.000000  -0.000000  -0.000000  -0.000000  -0.000000  -0.000000
    19  H    0.000000   0.000000  -0.000000  -0.000000   0.000000  -0.000000
    20  H    0.000009   0.000000   0.000000  -0.000000  -0.000000   0.000000
    21  H    0.000194  -0.000000  -0.000000  -0.000000   0.000000  -0.000000
    22  H    0.000068  -0.000000   0.000000  -0.000000   0.000000   0.000000
    23  H    0.000000   0.000000  -0.000000  -0.000000  -0.000000  -0.000000
    24  H    0.000000   0.000000   0.000000  -0.000000  -0.000000  -0.000000
    25  H    0.000000  -0.000000  -0.000000  -0.000000  -0.000000   0.000000
    26  H    0.000553  -0.000099   0.000004   0.000002   0.000005  -0.000003
    27  H    0.001037   0.002085   0.000004   0.000002  -0.000000  -0.000000
    28  H   -0.000032  -0.000038  -0.000000  -0.000000  -0.000000  -0.000000
    29  H    0.000020   0.000270   0.000000   0.000000   0.000000   0.000000
    30  H    0.006086  -0.007108  -0.000128   0.001796  -0.000170   0.000938
    31  H    0.610306  -0.039719  -0.009120   0.005761   0.000304  -0.000151
    32  H   -0.039719   0.649293   0.003370  -0.009476  -0.000142  -0.000209
    33  H   -0.009120   0.003370   0.648146  -0.043460  -0.011835   0.004963
    34  H    0.005761  -0.009476  -0.043460   0.658096   0.005534  -0.014174
    35  H    0.000304  -0.000142  -0.011835   0.005534   0.647700  -0.043531
    36  H   -0.000151  -0.000209   0.004963  -0.014174  -0.043531   0.654453
    37  H    0.002164  -0.000102  -0.000009  -0.000176  -0.011726   0.005609
    38  H   -0.000065  -0.000249  -0.000149  -0.000142   0.004589  -0.011288
              37         38
     1  C    0.000000  -0.000000
     2  C    0.000001   0.000000
     3  C    0.000032   0.000000
     4  C    0.000052  -0.000006
     5  O    0.000008   0.000000
     6  C   -0.000000  -0.000000
     7  O    0.009123   0.000093
     8  C   -0.008441   0.000561
     9  C    0.000642  -0.000006
    10  C   -0.030185  -0.023501
    11  C   -0.001544   0.006695
    12  C    0.001725   0.005181
    13  C   -0.028616  -0.030532
    14  C    0.362425   0.355287
    15  H   -0.000000   0.000000
    16  H    0.000000  -0.000000
    17  H    0.000000  -0.000000
    18  H    0.000000  -0.000000
    19  H   -0.000000   0.000000
    20  H    0.000186  -0.000000
    21  H   -0.000001   0.000000
    22  H   -0.000008   0.000003
    23  H    0.000000   0.000000
    24  H    0.000000   0.000000
    25  H   -0.000000  -0.000000
    26  H   -0.000120   0.002618
    27  H   -0.000000  -0.000001
    28  H   -0.000002   0.000004
    29  H   -0.000014  -0.000014
    30  H    0.006473  -0.008945
    31  H    0.002164  -0.000065
    32  H   -0.000102  -0.000249
    33  H   -0.000009  -0.000149
    34  H   -0.000176  -0.000142
    35  H   -0.011726   0.004589
    36  H    0.005609  -0.011288
    37  H    0.630547  -0.041990
    38  H   -0.041990   0.660719
 Mulliken charges:
               1
     1  C   -0.385718
     2  C   -0.157880
     3  C   -0.187245
     4  C    0.192996
     5  O   -0.241266
     6  C   -0.233632
     7  O   -0.284658
     8  C    0.102850
     9  C   -0.383038
    10  C    0.036004
    11  C   -0.194101
    12  C   -0.200880
    13  C   -0.196323
    14  C   -0.224971
    15  H    0.109650
    16  H    0.116532
    17  H    0.110599
    18  H    0.108458
    19  H    0.088643
    20  H    0.097040
    21  H    0.111463
    22  H    0.064545
    23  H    0.116789
    24  H    0.122676
    25  H    0.113089
    26  H    0.058105
    27  H    0.127156
    28  H    0.111904
    29  H    0.094864
    30  H    0.065990
    31  H    0.113552
    32  H    0.085113
    33  H    0.088542
    34  H    0.087766
    35  H    0.091158
    36  H    0.089142
    37  H    0.103948
    38  H    0.081138
 Sum of Mulliken charges =  -0.00000
 Mulliken charges with hydrogens summed into heavy atoms:
               1
     1  C   -0.048937
     2  C    0.039221
     3  C    0.021258
     4  C    0.257542
     5  O   -0.241266
     6  C    0.118921
     7  O   -0.284658
     8  C    0.160955
     9  C   -0.049113
    10  C    0.101994
    11  C    0.004565
    12  C   -0.024572
    13  C   -0.016022
    14  C   -0.039885
 Electronic spatial extent (au):  <R**2>=           4329.0094
 Charge=             -0.0000 electrons
 Dipole moment (field-independent basis, Debye):
    X=             -1.4202    Y=              0.7202    Z=             -1.1307  Tot=              1.9530
 Quadrupole moment (field-independent basis, Debye-Ang):
   XX=            -84.2242   YY=            -88.0633   ZZ=            -89.1503
   XY=             -0.5271   XZ=              0.8673   YZ=             -1.5079
 Traceless Quadrupole moment (field-independent basis, Debye-Ang):
   XX=              2.9217   YY=             -0.9174   ZZ=             -2.0044
   XY=             -0.5271   XZ=              0.8673   YZ=             -1.5079
 Octapole moment (field-independent basis, Debye-Ang**2):
  XXX=            -30.2246  YYY=              8.6318  ZZZ=              1.2957  XYY=             -6.8410
  XXY=             18.6631  XXZ=             -2.0149  XZZ=             -6.0862  YZZ=              1.8124
  YYZ=              0.1361  XYZ=             -0.4372
 Hexadecapole moment (field-independent basis, Debye-Ang**3):
 XXXX=          -4420.1680 YYYY=          -1097.5078 ZZZZ=           -375.6399 XXXY=            -22.9683
 XXXZ=            -19.7581 YYYX=            -37.3592 YYYZ=              6.0442 ZZZX=             -5.3803
 ZZZY=             -1.0203 XXYY=           -924.9937 XXZZ=           -805.0584 YYZZ=           -246.6341
 XXYZ=             -0.0346 YYXZ=              4.5292 ZZXY=              0.5673
 N-N= 9.899887153685D+02 E-N=-3.426423205860D+03  KE= 6.173246216122D+02
 PrsmSu:  requested number of processors reduced to:  13 ShMem   1 Linda.
 Calling FoFJK, ICntrl=      2127 FMM=F ISym2X=0 I1Cent= 0 IOpClX= 0 NMat=1 NMatS=1 NMatT=0.
 ***** Axes restored to original set *****
 -------------------------------------------------------------------
 Center     Atomic                   Forces (Hartrees/Bohr)
 Number     Number              X              Y              Z
 -------------------------------------------------------------------
      1        6          -0.005993983    0.005840018    0.003031116
      2        6           0.001524137   -0.007875008   -0.002314835
      3        6           0.002820152    0.006320890   -0.001070264
      4        6          -0.010172167   -0.001091354   -0.030421614
      5        8           0.001033861    0.013442984    0.005339540
      6        6           0.001878613   -0.012117380   -0.006699379
      7        8          -0.002456216   -0.010104777    0.016833131
      8        6           0.009640146   -0.007704211   -0.007740008
      9        6           0.001899912   -0.006460635    0.010675672
     10        6          -0.015466022    0.003442310    0.008505033
     11        6          -0.000135919   -0.011906881   -0.001970087
     12        6           0.000230653   -0.006314366   -0.013078566
     13        6          -0.000195051    0.015413685   -0.007724401
     14        6           0.002950172    0.009740755    0.005211962
     15        1          -0.003013893    0.002065657   -0.001347827
     16        1          -0.002098187    0.001186738   -0.002054795
     17        1          -0.003899519    0.000448455   -0.001503292
     18        1           0.007202196    0.000053330    0.001373674
     19        1           0.000242781    0.002155502    0.002456483
     20        1           0.002829323   -0.000472848    0.001197828
     21        1           0.003422478   -0.000901655   -0.000878510
     22        1           0.004369293   -0.002976017    0.008002141
     23        1           0.006195603    0.001682301   -0.000759410
     24        1          -0.001888406    0.001862327    0.006065269
     25        1          -0.000687384    0.001473337    0.001542065
     26        1           0.000341439    0.002132007    0.002714783
     27        1           0.001037818    0.001874769    0.001365396
     28        1          -0.000304400   -0.001121581   -0.002331640
     29        1           0.000442713    0.003749584   -0.004176876
     30        1          -0.002296493   -0.002625039    0.003701361
     31        1           0.002720888   -0.000082471    0.005435510
     32        1          -0.002106153   -0.000998153    0.000498949
[...]
 20,0.00000124,-0.00000848,-0.00002462,0.00003273,0.00000827,-0.0000082
 1,-0.00001688,-0.00000275,-0.00001423,0.00000417,0.00000760,0.00000415
 ,-0.00000962,0.00009575,-0.00004956,0.00019349,0.00113128,0.00140084,-
 0.00113565,0.00116002,-0.00068028,0.00026033,-0.01754683,-0.00765303,0
 .00741229,0.24957748,0.00000278,-0.00000893,0.00001287,-0.00000848,0.0
 0001636,-0.00002041,0.00000058,-0.00007121,0.00003463,0.00025946,0.000
 04530,-0.00018488,-0.00002900,-0.00002816,0.00010621,-0.00002231,-0.00
 000565,-0.00005278,-0.00009462,0.00017678,0.00029845,-0.00002308,-0.00
 017021,-0.00014076,-0.00001975,-0.00007920,-0.00008550,-0.00032183,0.0
 0012988,-0.00090637,-0.02500924,-0.01401469,0.01039947,-0.08204443,-0.
 08086016,0.03392633,0.02097868,0.00736400,-0.00900376,0.00013651,0.000
 25144,0.00087837,-0.00000754,0.00000292,0.00000188,0.00000134,0.000002
 21,-0.00000183,-0.00000487,0.00000466,-0.00000359,0.00000555,0.0000012
 5,-0.00000777,-0.00000053,0.00000099,0.00000902,-0.00002354,0.00000787
 ,0.00000320,0.00001064,0.00002089,-0.00000908,-0.00002101,0.00001471,0
 .00007289,0.00000127,-0.00000544,0.00000381,-0.00000216,0.00000785,0.0
 0001151,-0.00000122,0.00000040,-0.00000582,-0.00002159,0.00001193,0.00
 010726,-0.00004264,0.00016319,0.00003626,0.00003250,0.00001730,0.00004
 552,0.00005257,0.00001174,0.00006248,0.00034138,0.00019095,0.00045439,
 0.00195975,-0.00411645,0.00408622,-0.00016309,0.00133116,-0.00115025,-
 0.00487282,-0.00231993,0.00200409,0.08745142,0.09262034,-0.00000301,-0
 .00000456,-0.00000339,-0.00001365,0.00001607,0.00000547,0.00000968,-0.
 00003835,0.00002634,-0.00008736,-0.00005281,0.00011090,-0.00002187,0.0
 0005345,-0.00009889,0.00003524,0.00000963,0.00004507,-0.00011774,-0.00
 002718,-0.00017505,0.00009491,0.00010521,0.00003218,-0.00001516,0.0000
 3296,0.00005112,0.00028372,0.00004794,0.00071205,0.01399620,0.00622006
 ,-0.00559964,0.07456042,0.03393490,-0.08315092,0.01908994,0.00785937,-
 0.00795458,0.00032498,0.00024834,0.00093377,0.00000636,0.00000046,-0.0
 0000492,-0.00000036,0.00000154,0.00000178,-0.00000339,0.00000189,0.000
 00176,0.00000553,0.00000250,-0.00001096,0.00000233,-0.00000384,-0.0000
 0242,-0.00002387,0.00001897,0.00000428,-0.00000509,0.00000073,-0.00000
 156,0.00000915,-0.00000997,-0.00003071,-0.00000375,0.00000407,-0.00000
 589,-0.00000072,-0.00000502,-0.00000569,-0.00000859,-0.00000343,-0.000
 00008,-0.00000115,-0.00002143,-0.00004653,0.00002024,-0.00007499,-0.00
 002164,-0.00000531,-0.00002235,-0.00001877,-0.00002969,0.00000980,-0.0
 0003390,-0.00025943,0.00021394,-0.00027874,-0.00069167,0.00233493,-0.0
 0110237,-0.00045718,-0.00057661,0.00091305,-0.02098102,-0.00933968,0.0
 0936774,-0.08596017,-0.03803778,0.08794551,0.00000488,0.00001464,0.000
 00110,0.00004565,-0.00005788,-0.00000080,-0.00004262,0.00016134,-0.000
 08252,0.00004007,0.00007367,-0.00037534,0.00012023,-0.00016095,0.00025
 747,-0.00011341,-0.00003452,-0.00008997,0.00062623,-0.00033999,0.00051
 819,-0.00104303,0.00003233,0.00019294,0.00016119,0.00006162,-0.0001144
 2,-0.00004407,-0.00008071,-0.00034584,0.00016766,-0.00056726,-0.000200
 72,-0.01180788,-0.00355396,0.00357401,-0.27257847,-0.06534574,0.048601
 97,-0.01675291,-0.00615718,0.00223455,-0.00001213,-0.00000223,0.000013
 95,0.00000299,-0.00000023,-0.00000467,0.00001238,-0.00001141,-0.000003
 72,-0.00002205,-0.00000934,0.00004152,-0.00000623,0.00001440,0.0000086
 4,0.00013040,-0.00007056,-0.00006329,0.00001328,-0.00000078,0.00000660
 ,0.00000730,0.00002629,0.00005067,0.00001414,-0.00000564,0.00001946,0.
 00000821,0.00000729,0.00000943,0.00003717,0.00001332,0.00001221,0.0000
 8734,0.00002155,0.00003798,-0.00001948,0.00000227,0.00001101,-0.000028
 96,0.00008069,-0.00001521,0.00005757,-0.00005142,-0.00000037,0.0001128
 4,0.00013144,0.00003503,0.00012731,0.00071279,-0.00010317,0.00034997,0
 .00024323,-0.00002111,0.00117555,0.00021965,0.00009115,0.00047290,0.00
 192221,0.00143845,0.29789158,-0.00000942,0.00001975,-0.00002623,-0.000
 00060,0.00000739,0.00002499,0.00000623,0.00000902,-0.00004656,-0.00026
 819,0.00003743,0.00042413,0.00001309,0.00004624,-0.00016052,0.00003098
 ,0.00001737,0.00004198,-0.00007298,0.00006768,-0.00025202,0.00028210,0
 .00002269,0.00001973,-0.00002343,-0.00001037,-0.00000468,-0.00025128,-
 0.00003568,0.00005026,0.00015104,0.00107925,-0.00025704,0.01977910,0.0
 0515052,-0.00483732,-0.06632916,-0.07038736,0.01612901,0.00301926,0.00
 074659,-0.00166000,0.00001026,-0.00000515,0.00000113,-0.00000150,-0.00
 000575,0.00000305,0.00001037,-0.00000908,0.00000828,0.00000085,-0.0000
 0859,0.00000102,-0.00000045,-0.00000242,-0.00001865,-0.00005083,0.0000
 5347,0.00007457,-0.00000680,-0.00003704,0.00001804,-0.00000309,-0.0000
 2339,-0.00006161,-0.00000395,0.00000320,-0.00000994,-0.00000149,-0.000
 00707,-0.00001369,-0.00000013,-0.00000269,0.00000097,-0.00006151,-0.00
 001763,-0.00000266,0.00001000,-0.00000505,0.00000271,0.00000160,0.0000
 0053,-0.00000402,-0.00001592,0.00000820,0.00000276,-0.00010516,0.00004
 118,-0.00003566,-0.00003057,-0.00046405,-0.00010310,-0.00031610,0.0001
 3482,-0.00000782,-0.00050364,0.00110888,0.00067852,0.00231999,-0.00211
 594,-0.00254524,0.07157456,0.07125211,0.00001550,0.00000350,0.00001276
 ,0.00003399,-0.00006411,-0.00000880,-0.00003982,0.00022253,-0.00011782
 ,0.00008051,0.00006929,-0.00032142,0.00006656,-0.00010670,0.00017613,-
 0.00006739,-0.00002271,-0.00006361,0.00029700,-0.00022592,0.00016555,-
 0.00055047,0.00006019,0.00020434,0.00009710,0.00004894,-0.00007793,-0.
 00001379,-0.00055873,-0.00029773,-0.00034529,0.00100289,0.00036149,0.0
 2476628,0.00627793,-0.00791275,0.04928144,0.01588045,-0.05445438,-0.02
 749966,-0.00890377,0.00225014,-0.00001328,-0.00000054,0.00000335,-0.00
 000335,-0.00000780,-0.00000156,0.00000623,0.00000409,-0.00000230,-0.00
 002190,0.00000261,0.00002751,-0.00000352,0.00000517,-0.00000475,0.0001
 9143,-0.00006605,-0.00004000,0.00000121,-0.00004838,0.00002782,-0.0000
 1102,0.00002022,0.00001195,0.00000889,-0.00000399,0.00001366,0.0000040
 6,0.00000672,0.00000872,0.00001791,0.00000666,0.00000491,0.00002860,-0
 .00003638,0.00006963,0.00000254,0.00001477,0.00000516,-0.00001819,0.00
 005257,0.00000249,0.00003321,-0.00003414,-0.00000844,0.00014700,0.0001
 2218,0.00001921,-0.00016813,-0.00023085,0.00061794,-0.00026105,-0.0000
 0711,-0.00008519,-0.00050478,0.00105417,0.00082560,0.00231020,-0.00421
 887,-0.00262291,-0.05303457,-0.01358614,0.06542974,0.00000411,-0.00000
 079,0.00000229,0.00003428,-0.00003557,0.00000947,-0.00001301,0.0000864
 6,-0.00005917,-0.00005427,0.00005028,-0.00006347,0.00006369,-0.0000591
 9,0.00006199,-0.00004167,-0.00001184,-0.00001051,0.00040590,-0.0002235
 8,0.00014990,-0.00100527,0.00052261,0.00039972,0.00023788,0.00017934,-
 0.00031195,-0.00149626,0.00163674,-0.00236829,-0.00118365,0.00161656,0
 .00050365,-0.00099998,0.01089510,-0.00415345,-0.04747578,-0.00362368,0
 .00130851,-0.00097598,0.01716186,-0.00421337,-0.00000309,-0.00000024,0
 .00000419,0.00000211,0.00000307,-0.00000229,0.00000288,-0.00000331,-0.
 00000418,-0.00001472,-0.00000071,0.00002239,-0.00000271,0.00000688,0.0
 0000955,0.00005644,-0.00005923,-0.00003317,0.00000716,0.00000984,-0.00
 000188,0.00000565,0.00000710,0.00001559,0.00000572,0.00000003,0.000006
 31,0.00000779,-0.00000046,-0.00000171,0.00001873,0.00000850,0.00001059
 ,0.00003503,-0.00000104,0.00001682,-0.00001358,-0.00003095,0.00001445,
 -0.00004871,0.00014415,-0.00004127,0.00004024,-0.00004573,0.00001166,-
 0.00030101,0.00048363,-0.00006958,0.00014683,0.00046165,-0.00011737,0.
 00013223,0.00069693,-0.00020458,0.00005111,-0.00013279,0.00017649,0.00
 063833,-0.00012676,-0.00069505,0.00031923,-0.02950401,0.00887079,0.050
 47897,0.00000874,-0.00000946,0.00002776,0.00000007,-0.00001592,-0.0000
 3522,-0.00001794,-0.00000205,0.00003014,0.00022463,0.00002895,-0.00039
 520,-0.00001809,-0.00006995,0.00018376,-0.00002154,-0.00001408,-0.0000
 8512,-0.00025633,-0.00002953,0.00036339,0.00025650,0.00007809,-0.00014
 927,-0.00007632,-0.00003661,0.00004944,-0.00010668,0.00011702,-0.00072
 131,0.00234193,-0.00139707,-0.00280756,-0.00120765,-0.01514704,0.00723
 621,-0.00066386,-0.28517730,0.07439687,-0.00122740,-0.00077814,-0.0007
 7810,-0.00001795,0.00000261,0.00000654,0.00000096,0.00000260,-0.000004
 19,-0.00000405,0.00000563,-0.00001005,-0.00000207,0.00000254,0.0000059
 8,-0.00000030,0.00000464,0.00001378,0.00001811,-0.00001866,-0.00001010
 ,0.00000487,0.00001168,-0.00000327,-0.00000093,0.00001278,0.00004370,0
 .00000170,-0.00000913,0.00001075,-0.00000527,0.00001284,0.00001921,-0.
 00000644,0.00000032,-0.00000600,-0.00002694,-0.00000249,0.00009150,0.0
 0001880,0.00007118,-0.00000413,0.00001713,-0.00002901,0.00003465,0.000
 00046,0.00001387,-0.00001149,0.00009398,-0.00011396,0.00014590,-0.0001
 6842,0.00026907,-0.00010054,0.00028582,-0.00098862,0.00073010,-0.00008
 218,-0.00032593,-0.00049715,0.00029511,0.00137819,0.00012311,-0.000205
 89,-0.00824456,0.00246228,-0.00037545,0.30951963,-0.00000659,0.0000048
 5,-0.00002233,0.00000673,0.00001590,0.00003022,0.00000719,-0.00001071,
 -0.00002886,-0.00017627,-0.00005533,0.00033429,0.00001274,0.00008295,-
 0.00014074,0.00001506,0.00000946,0.00006222,0.00023612,0.00011288,-0.0
 0027224,-0.00063531,0.00055061,0.00049525,0.00019965,0.00012397,-0.000
 32925,-0.00180250,-0.00069629,-0.00390383,0.00200439,-0.00288179,-0.00
 392631,-0.00069810,-0.02284729,0.00894092,0.00060351,0.07485927,-0.069
 91637,0.00033938,0.02438945,-0.00598848,0.00001340,-0.00000145,-0.0000
 0369,0.00000053,-0.00000171,0.00000292,0.00000385,-0.00000328,0.000007
 42,0.00000064,-0.00000251,-0.00000499,-0.00000158,-0.00000201,-0.00000
 777,-0.00002344,0.00001206,0.00001100,0.00000546,-0.00000003,-0.000000
 33,-0.00000198,-0.00000287,-0.00000028,-0.00000100,0.00000713,-0.00000
 985,0.00000280,-0.00000870,-0.00001370,0.00000610,-0.00000206,0.000004
 11,-0.00004139,-0.00000958,0.00012457,0.00003151,0.00009101,0.00004095
 ,-0.00002397,0.00017990,0.00002612,0.00001304,-0.00003940,0.00000208,-
 0.00031192,0.00074820,0.00001709,-0.00003570,0.00004493,-0.00010673,0.
 00046010,-0.00114831,0.00107751,-0.00045194,0.00023171,-0.00005038,-0.
 00054272,0.00112949,0.00117586,0.00002666,0.00637505,-0.00208113,0.000
 54480,-0.08062817,0.07371697,-0.00000140,-0.00000847,-0.00000903,-0.00
 000765,0.00004888,0.00001480,0.00005432,-0.00016590,-0.00001724,0.0000
 7477,0.00003063,0.00072268,-0.00009411,-0.00000237,-0.00021132,0.00008
 668,0.00004665,0.00006361,0.00062701,-0.00052737,-0.00052214,0.0003942
 8,-0.00066619,0.00192080,-0.00029136,-0.00010560,-0.00038147,-0.006050
 64,0.00228354,0.00607232,-0.00099092,0.00037483,-0.00050510,-0.0020723
 1,0.00061555,-0.00325196,0.00986150,-0.00413793,-0.01800025,-0.1153825
 7,0.01997582,0.11699398,0.00000842,0.00000206,-0.00000418,-0.00000236,
 0.00000016,-0.00000031,-0.00000630,0.00000403,0.00000176,0.00001291,0.
 00000339,-0.00002175,0.00000175,-0.00001385,-0.00000268,-0.00008070,0.
 00003489,-0.00002494,-0.00002628,0.00002489,-0.00002792,0.00001538,-0.
 00009795,-0.00017684,-0.00001711,-0.00000974,-0.00001028,0.00001320,-0
 .00000639,-0.00001757,-0.00003441,0.00001344,0.00000120,-0.00020048,0.
 00003193,-0.00074831,0.00003685,-0.00014142,-0.00000642,0.00001585,0.0
 0005126,-0.00000936,0.00004295,0.00003143,0.00001958,-0.00028133,0.001
 88404,0.00027952,0.00004336,-0.00003297,0.00004689,0.00020757,0.000000
 11,0.00027388,0.00044973,-0.00079118,-0.00077370,0.00018641,-0.0000049
 5,-0.00024823,0.00162184,-0.00014188,0.00039793,-0.00010128,0.00038724
 ,-0.00019095,0.12511889,-0.00001340,0.00000606,-0.00004186,-0.00000446
 ,0.00003890,0.00006527,-0.00003271,0.00001093,0.00002280,-0.00083720,-
 0.00097151,0.00099713,-0.00007444,0.00040688,-0.00039049,0.00014737,0.
 00002201,0.00018109,-0.00024795,0.00091744,0.00007748,0.00115886,0.000
 75648,-0.00167325,0.00015635,0.00032956,-0.00004173,0.01474388,-0.0041
 4250,-0.02317402,0.00135190,-0.00252563,-0.00081917,0.00097668,-0.0014
 9588,0.00051105,-0.00359203,0.00110999,0.00493124,0.01905577,-0.051460
 87,-0.03054222,0.00002849,-0.00000289,-0.00000871,0.00000258,-0.000000
 04,0.00000593,0.00000417,-0.00000495,0.00001156,0.00000394,-0.00000038
 ,-0.00001633,-0.00000641,-0.00000107,-0.00000690,-0.00006718,0.0000293
 7,-0.00002510,0.00004222,0.00002154,-0.00000555,0.00000093,-0.00000287
 ,0.00019651,-0.00001071,0.00002033,-0.00003109,-0.00001202,-0.00002414
 ,-0.00002569,-0.00001881,-0.00002453,-0.00000512,0.00006980,0.00005864
 ,0.00071012,0.00000984,0.00014983,0.00001984,-0.00005150,0.00004297,0.
 00003787,-0.00014108,0.00007324,-0.00003541,0.00111453,-0.00289604,-0.
 00060318,-0.00017834,-0.00020844,-0.00041627,-0.00051989,-0.00042491,-
 0.00091496,-0.00007200,0.00044973,-0.00009800,0.00015349,-0.00008400,-
 0.00015286,-0.00009974,0.00059926,-0.00067581,-0.00001930,-0.00021397,
 0.00005049,-0.02239772,0.05643239,-0.00001308,-0.00000576,-0.00000680,
 -0.00003653,0.00002267,0.00000360,-0.00000598,-0.00009190,0.00013841,0
 .00000424,-0.00024174,0.00028479,-0.00006302,0.00022153,-0.00017537,0.
 00007407,-0.00000311,0.00006920,-0.00086624,0.00130655,0.00002455,0.00
 117455,0.00130920,-0.00039335,0.00005149,-0.00008377,0.00027379,-0.000
 65447,0.00031642,0.00025654,-0.00003363,0.00051680,-0.00063752,-0.0035
 0849,0.00055828,-0.00316834,0.01296080,-0.00415244,-0.01935520,0.11475
 187,-0.03277655,-0.23246078,0.00001440,-0.00000022,-0.00000786,0.00000
 723,0.00001171,0.00000486,-0.00001056,-0.00000008,-0.00000174,0.000018
 18,0.00001169,-0.00002584,0.00000531,0.00000452,0.00002235,-0.00012550
 ,0.00001934,-0.00007684,0.00001985,0.00005722,-0.00002415,0.00005515,0
 .00006469,0.00014687,-0.00000646,0.00001415,-0.00001503,-0.00001877,-0
 .00000702,-0.00000048,-0.00001904,-0.00001826,-0.00001800,-0.00014970,
 -0.00015265,0.00067803,-0.00001708,0.00015427,-0.00002051,0.00006007,-
 0.00008555,0.00003333,-0.00006723,0.00001979,0.00001856,-0.00040845,0.
 00011545,-0.00009620,-0.00003939,-0.00012577,-0.00007085,-0.00000779,-
 0.00023479,-0.00005083,0.00059600,-0.00105396,-0.00091952,0.00006749,0
 .00019729,0.00018676,0.00009395,-0.00024917,0.00183007,-0.00045077,0.0
 0028408,-0.00100388,-0.12373602,0.03393487,0.25439176,0.00000593,0.000
 00633,0.00000910,0.00002488,-0.00003475,-0.00002047,0.00000258,0.00007
 349,-0.00007248,0.00014144,0.00026235,-0.00033284,0.00008613,-0.000193
 61,0.00021623,-0.00009953,-0.00001882,-0.00010416,0.00025733,-0.000637
 17,0.00023501,-0.00048180,0.00135148,0.00070775,0.00000639,0.00012034,
 -0.00033379,0.00754789,0.01120022,0.00005935,-0.00019851,0.00109178,-0
 .00041791,-0.00008966,-0.00003073,0.00046745,-0.01724426,-0.01021656,0
 .00038364,-0.20080933,-0.12831827,0.00402755,-0.00001471,-0.00000119,0
 .00001174,0.00000088,0.00000081,-0.00000396,0.00000671,-0.00000618,-0.
 00000545,-0.00001288,-0.00000723,0.00002520,-0.00000071,0.00000824,0.0
 0000252,0.00006417,-0.00003968,0.00001642,-0.00000914,-0.00001281,0.00
 000856,-0.00001164,-0.00000025,-0.00006796,0.00000896,-0.00000896,0.00
 001653,0.00000494,0.00001094,0.00001335,0.00002520,0.00001078,0.000006
 57,-0.00004449,-0.00012914,-0.00008785,0.00002078,-0.00003689,0.000003
 41,-0.00009833,0.00010742,-0.00002522,0.00000628,-0.00000726,-0.000005
 23,0.00217627,0.00053265,-0.00016655,0.00008592,0.00011428,0.00015535,
 0.00006144,-0.00002463,0.00015058,0.00022936,0.00000757,-0.00023892,0.
 00045533,-0.00029119,-0.00024373,-0.00113670,0.00049267,-0.00410216,0.
 00103665,0.00053565,0.00041172,-0.01323247,-0.01062392,0.00028355,0.22
 122872,0.00000393,-0.00000216,0.00002280,-0.00002328,-0.00000307,-0.00
 003952,-0.00001644,-0.00002287,0.00007615,0.00025973,-0.00001037,-0.00
 046816,-0.00003236,-0.00002250,0.00019632,-0.00002846,-0.00002004,-0.0
 0010720,0.00016892,0.00019496,0.00019397,0.00110010,-0.00316691,-0.002
 24741,-0.00047639,-0.00040217,0.00107614,-0.02087232,-0.01953255,0.000
 89474,0.00155962,-0.00227167,0.00054011,-0.00007711,-0.00024907,0.0001
 8394,0.00641476,0.00364813,0.00101925,-0.12799885,-0.14757336,0.001303
 74,-0.00001481,0.00000205,0.00000411,0.00000079,0.00000027,-0.00000227
 ,-0.00000353,0.00000396,-0.00000526,0.00000584,0.00000078,-0.00000304,
 0.00000006,0.00000423,0.00000848,-0.00001081,0.00000185,-0.00000334,0.
 00000575,0.00000730,-0.00000099,-0.00000201,0.00002392,0.00008321,0.00
 000253,-0.00000712,0.00000858,-0.00001291,0.00001393,0.00002431,-0.000
 00740,-0.00000797,-0.00001764,0.00004264,0.00012259,0.00024259,-0.0000
 1726,0.00008359,-0.00003009,0.00024288,-0.00039704,0.00004315,0.000073
 87,-0.00000502,-0.00000156,0.00014213,0.00143853,0.00030300,-0.0001072
 9,0.00002921,-0.00003176,-0.00027001,-0.00033604,-0.00068935,0.0000735
 4,0.00006300,-0.00016678,0.00002874,0.00010767,-0.00032377,0.00144215,
 0.00097619,0.00148082,0.00028389,0.00109183,-0.00067786,0.00340711,0.0
 0300907,0.00014224,0.13471225,0.16320686,-0.00000880,0.00000573,-0.000
 02086,0.00000140,0.00000441,0.00003285,-0.00002023,0.00001139,0.000024
 60,-0.00030892,-0.00034768,0.00045480,-0.00003717,0.00020371,-0.000211
 16,0.00009655,0.00001346,0.00010412,-0.00030361,0.00096307,-0.00025727
 ,0.00073073,0.00024170,-0.00026716,0.00003872,0.00008974,-0.00005804,-
 0.00107285,-0.00133350,0.00024098,0.00039822,-0.00032684,-0.00080349,-
 0.00042141,0.00014023,0.00076318,-0.02288994,-0.01600160,0.00050153,0.
 00429318,0.00135747,-0.04923253,0.00001535,-0.00000197,-0.00000305,0.0
 0000363,0.00000346,0.00000256,0.00000052,-0.00000535,0.00000302,0.0000
 0419,0.00000415,-0.00000549,-0.00000111,0.00000195,0.00000685,-0.00004
 808,-0.00000686,-0.00004468,0.00002175,0.00002619,-0.00000950,0.000027
 87,-0.00001395,0.00012098,-0.00000895,0.00000948,-0.00001445,-0.000006
 56,-0.00001259,-0.00001537,-0.00001774,-0.00000798,-0.00000284,-0.0000
 5392,-0.00000483,0.00002749,-0.00000023,0.00001349,-0.00000502,-0.0000
 0797,0.00002299,0.00000069,-0.00004584,0.00001050,0.00001825,-0.000089
 31,-0.00002317,0.00097001,-0.00000832,0.00006363,0.00001281,-0.0000010
 7,-0.00016971,-0.00011147,0.00033954,0.00018907,-0.00013736,0.00043257
 ,-0.00005219,-0.00034409,-0.00282124,0.00002585,-0.00396747,0.00066287
 ,-0.00001226,0.00174158,0.02208906,0.01795044,0.00016563,-0.00098289,-
 0.00303162,0.05031936\\0.00000463,-0.00000004,0.00000042,-0.00000447,0
 .00000079,0.00000430,0.00000277,-0.00000171,-0.00000138,0.00000312,0.0
 0001477,-0.00000794,-0.00000561,-0.00001444,-0.00000007,0.00000432,0.0
 0000372,0.00000067,0.00000105,0.00000112,0.00000458,-0.00000425,-0.000
 00574,0.00000146,0.00000087,0.00000177,-0.00000035,0.00000927,-0.00000
 356,-0.00000758,-0.00000429,-0.00000211,0.00000362,0.00000265,0.000001
 63,-0.00000330,0.00000254,-0.00000011,0.00000440,-0.00000861,0.0000064
 4,0.00000282,0.00000003,0.00000045,0.00000113,-0.00000075,0.00000006,0
 .00000085,-0.00000030,0.00000008,0.00000066,0.00000182,-0.00000089,-0.
 00000061,0.00000071,-0.00000013,-0.00000009,0.00000074,-0.00000014,-0.
 00000024,-0.00000005,0.00000085,0.00000057,-0.00000124,-0.00000290,0.0
 0000020,-0.00000046,-0.00000068,-0.00000036,-0.00000130,-0.00000006,0.
 00000053,-0.00000046,-0.00000093,-0.00000069,0.00000062,0.00000089,-0.
 00000145,-0.00000120,-0.00000004,-0.00000109,0.00000088,0.00000007,-0.
 00000106,-0.00000033,0.00000049,-0.00000096,-0.00000157,-0.00000085,0.
 00000209,-0.00000096,-0.00000008,-0.00000022,-0.00000035,0.00000022,-0
 .00000050,-0.00000028,-0.00000111,0.00000139,-0.00000075,0.00000125,-0
 .00000086,-0.00000077,0.00000100,-0.00000117,-0.00000062,0.,0.00000049
 ,0.00000227,0.00000109,0.00000021,0.00000034,-0.00000119,-0.00000047\\
 \@


 THIS CURIOUS WORLD WHICH WE INHABIT IS MORE WONDERFUL THAN IT IS CONVENIENT;
 MORE BEAUTIFUL THAN IT IS USEFUL;
 IT IS MORE TO BE ADMIRED THAN IT IS TO BE USED.

                                                                 -- THOREAU
 Job cpu time:       0 days  9 hours 17 minutes 32.7 seconds.
 Elapsed time:       0 days  2 hours 19 minutes 24.4 seconds.
 File lengths (MBytes):  RWF=    710 Int=      0 D2E=      0 Chk=     23 Scr=      1
 Normal termination of Gaussian 16 at Thu May 25 01:45:43 2023.
### All Done ###
