### Starting Gaussian ###
 Entering Gaussian System, Link 0=g16
 Initial command:
 /cluster/software/gaussian/gaussian-16-A.03/avx2/g16/l1.exe "/local/scratch/linjian/Gau-10126.inp" -scrdir="/local/scratch/linjian/"
 Entering Link 1 = /cluster/software/gaussian/gaussian-16-A.03/avx2/g16/l1.exe PID=     10127.
  
 Copyright (c) 1988,1990,1992,1993,1995,1998,2003,2009,2016,
            Gaussian, Inc.  All Rights Reserved.
  
 This is part of the Gaussian(R) 16 program.  It is based on
 the Gaussian(R) 09 system (copyright 2009, Gaussian, Inc.),
 the Gaussian(R) 03 system (copyright 2003, Gaussian, Inc.),
 the Gaussian(R) 98 system (copyright 1998, Gaussian, Inc.),
 the Gaussian(R) 94 system (copyright 1995, Gaussian, Inc.),
 the Gaussian 92(TM) system (copyright 1992, Gaussian, Inc.),
 the Gaussian 90(TM) system (copyright 1990, Gaussian, Inc.),
 the Gaussian 88(TM) system (copyright 1988, Gaussian, Inc.),
 the Gaussian 86(TM) system (copyright 1986, Carnegie Mellon
 University), and the Gaussian 82(TM) system (copyright 1983,
 Carnegie Mellon University). Gaussian is a federally registered
 trademark of Gaussian, Inc.
  
 This software contains proprietary and confidential information,
 including trade secrets, belonging to Gaussian, Inc.
  
 This software is provided under written license and may be
 used, copied, transmitted, or stored only in accord with that
 written license.
  
 The following legend is applicable only to US Government
 contracts under FAR:
  
                    RESTRICTED RIGHTS LEGEND
  
 Use, reproduction and disclosure by the US Government is
 subject to restrictions as set forth in subparagraphs (a)
 and (c) of the Commercial Computer Software - Restricted
 Rights clause in FAR 52.227-19.
  
 Gaussian, Inc.
 340 Quinnipiac St., Bldg. 40, Wallingford CT 06492
  
  
 ---------------------------------------------------------------
 Warning -- This program may not be used in any manner that
 competes with the business of Gaussian, Inc. or will provide
 assistance to any competitor of Gaussian, Inc.  The licensee
 of this program is prohibited from giving any competitor of
 Gaussian, Inc. access to this program.  By using this program,
 the user acknowledges that Gaussian, Inc. is engaged in the
 business of creating and licensing software in the field of
 computational chemistry and represents and warrants to the
 licensee that it is not a competitor of Gaussian, Inc. and that
 it will not use this program in any manner prohibited above.
 ---------------------------------------------------------------
  

 Cite this work as:
 Gaussian 16, Revision A.03,
 M. J. Frisch, G. W. Trucks, H. B. Schlegel, G. E. Scuseria, 
 M. A. Robb, J. R. Cheeseman, G. Scalmani, V. Barone, 
 G. A. Petersson, H. Nakatsuji, X. Li, M. Caricato, A. V. Marenich, 
 J. Bloino, B. G. Janesko, R. Gomperts, B. Mennucci, H. P. Hratchian, 
 J. V. Ortiz, A. F. Izmaylov, J. L. Sonnenberg, D. Williams-Young, 
 F. Ding, F. Lipparini, F. Egidi, J. Goings, B. Peng, A. Petrone, 
 T. Henderson, D. Ranasinghe, V. G. Zakrzewski, J. Gao, N. Rega, 
 G. Zheng, W. Liang, M. Hada, M. Ehara, K. Toyota, R. Fukuda, 
 J. Hasegawa, M. Ishida, T. Nakajima, Y. Honda, O. Kitao, H. Nakai, 
 T. Vreven, K. Throssell, J. A. Montgomery, Jr., J. E. Peralta, 
 F. Ogliaro, M. J. Bearpark, J. J. Heyd, E. N. Brothers, K. N. Kudin, 
 V. N. Staroverov, T. A. Keith, R. Kobayashi, J. Normand, 
 K. Raghavachari, A. P. Rendell, J. C. Burant, S. S. Iyengar, 
 J. Tomasi, M. Cossi, J. M. Millam, M. Klene, C. Adamo, R. Cammi, 
 J. W. Ochterski, R. L. Martin, K. Morokuma, O. Farkas, 
 J. B. Foresman, and D. J. Fox, Gaussian, Inc., Wallingford CT, 2016.
 
 ******************************************
 Gaussian 16:  ES64L-G16RevA.03 25-Dec-2016
                22-May-2023 
 ******************************************
 %chk=CCCCCC1OCqCOCqCrCrCqCrCC2qCrCC12.chk
 %NProcShared=20
 Will use up to   20 processors via shared memory.
 -----------------------------
 # opt freq b3lyp/6-31g(2df,p)
 -----------------------------
 1/18=20,19=15,26=3,38=1/1,3;
 2/9=110,12=2,17=6,18=5,40=1/2;
 3/5=1,6=6,7=104,11=2,25=1,30=1,71=1,74=-5/1,2,3;
 4//1;
 5/5=2,38=5/2;
 6/7=2,8=2,9=2,10=2,28=1/1;
 7//1,2,3,16;
 1/18=20,19=15,26=3/3(2);
 2/9=110/2;
 99//99;
 2/9=110/2;
 3/5=1,6=6,7=104,11=2,25=1,30=1,71=1,74=-5/1,2,3;
 4/5=5,16=3,69=1/1;
 5/5=2,38=5/2;
 7//1,2,3,16;
 1/18=20,19=15,26=3/3(-5);
 2/9=110/2;
 6/7=2,8=2,9=2,10=2,19=2,28=1/1;
 99/9=1/99;
 -------------------
 Title Card Required
 -------------------
 Symbolic Z-matrix:
 Charge =  0 Multiplicity = 1
 C                     1.01256   0.07012  -0.07228 
 C                     2.52723   0.06518  -0.05585 
 C                     3.05771  -0.31368   1.32306 
 C                     4.57878  -0.37184   1.27808 
 C                     5.16838  -0.89443   2.57206 
 C                     6.70688  -0.81211   2.64587 
 O                     7.19658  -1.6707    3.67126 
 C                     8.49954  -1.34462   4.14125 
 C                     8.87782  -2.13001   5.3979 
 O                     10.2915  -1.96655   5.63616 
 C                     10.74198  -2.58857   6.83969 
 C                     10.6054  -4.10226   6.73853 
 C                     12.20987  -2.22624   7.0712 
 C                     8.80546   0.16487   4.33531 
 C                     7.68443   1.16382   4.70777 
 C                     9.58175   0.56444   3.09469 
 C                     8.78275   0.53415   1.78527 
 C                     8.80354   1.90986   1.17404 
 C                     9.01841  -0.74165   0.99815 
 C                     7.57525  -0.51513   1.44744 
 H                     0.64719   0.32876  -1.06996 
 H                     0.61949   0.80049   0.64122 
 H                     0.621    -0.91716   0.19216 
 H                     2.90468   1.05364  -0.34381 
 H                     2.89494  -0.65012  -0.80142 
 H                     2.65692  -1.28863   1.62348 
 H                     2.72544   0.41861   2.07005 
 H                     4.96841   0.63238   1.06823 
 H                     4.88497  -1.03453   0.46367 
 H                     4.78286  -1.88281   2.841 
 H                     4.78634  -0.24831   3.38697 
 H                     6.69698   0.16365   3.04924 
 H                     9.18374  -1.77279   3.40315 
 H                     8.65311  -3.18338   5.21314 
 H                     8.30264  -1.78396   6.2608 
 H                     10.15401  -2.19706   7.67702 
 H                     11.14932  -4.47742   5.86417 
 H                     9.5617   -4.4021    6.61399 
 H                     10.98197  -4.59433   7.63765 
 H                     12.84132  -2.5632    6.24094 
 H                     12.58087  -2.68772   7.99328 
 H                     12.34546  -1.1425    7.1515 
 H                     9.51178   0.26015   5.16695 
 H                     7.12507   1.60398   3.87274 
 H                     8.11296   2.05949   5.16252 
 H                     6.97071   0.71304   5.40384 
 H                     10.46814  -0.07493   2.98713 
 H                     10.0063   1.56276   3.28678 
 H                     9.77705   2.38885   1.38442 
 H                     8.0601    2.54342   1.67813 
 H                     8.66648   1.95307   0.09825 
 H                     9.54181  -1.58127   1.39618 
 H                     9.19986  -0.62332  -0.06691 
 H                     7.01016  -0.65166   0.54316 
 

 GradGradGradGradGradGradGradGradGradGradGradGradGradGradGradGradGradGrad
 Berny optimization.
 Initialization pass.
                           ----------------------------
                           !    Initial Parameters    !
                           ! (Angstroms and Degrees)  !
 --------------------------                            --------------------------
 ! Name  Definition              Value          Derivative Info.                !
 --------------------------------------------------------------------------------
 ! R1    R(1,2)                  1.5148         estimate D2E/DX2                !
 ! R2    R(1,21)                 1.0935         estimate D2E/DX2                !
 ! R3    R(1,22)                 1.0941         estimate D2E/DX2                !
 ! R4    R(1,23)                 1.0945         estimate D2E/DX2                !
 ! R5    R(2,3)                  1.5252         estimate D2E/DX2                !
 ! R6    R(2,24)                 1.0966         estimate D2E/DX2                !
 ! R7    R(2,25)                 1.0967         estimate D2E/DX2                !
 ! R8    R(3,4)                  1.5228         estimate D2E/DX2                !
 ! R9    R(3,26)                 1.0961         estimate D2E/DX2                !
 ! R10   R(3,27)                 1.0976         estimate D2E/DX2                !
 ! R11   R(4,5)                  1.515          estimate D2E/DX2                !
 ! R12   R(4,28)                 1.0974         estimate D2E/DX2                !
 ! R13   R(4,29)                 1.0937         estimate D2E/DX2                !
 ! R14   R(5,6)                  1.5425         estimate D2E/DX2                !
 ! R15   R(5,30)                 1.0945         estimate D2E/DX2                !
 ! R16   R(5,31)                 1.1079         estimate D2E/DX2                !
 ! R17   R(6,7)                  1.4242         estimate D2E/DX2                !
 ! R18   R(6,20)                 1.5095         estimate D2E/DX2                !
 ! R19   R(6,32)                 1.0559         estimate D2E/DX2                !
 ! R20   R(7,8)                  1.423          estimate D2E/DX2                !
 ! R21   R(8,9)                  1.5294         estimate D2E/DX2                !
 ! R22   R(8,14)                 1.5524         estimate D2E/DX2                !
 ! R23   R(8,33)                 1.0937         estimate D2E/DX2                !
 ! R24   R(9,10)                 1.4429         estimate D2E/DX2                !
 ! R25   R(9,34)                 1.0928         estimate D2E/DX2                !
 ! R26   R(9,35)                 1.0932         estimate D2E/DX2                !
 ! R27   R(10,11)                1.4277         estimate D2E/DX2                !
 ! R28   R(11,12)                1.5232         estimate D2E/DX2                !
 ! R29   R(11,13)                1.5296         estimate D2E/DX2                !
 ! R30   R(11,36)                1.0955         estimate D2E/DX2                !
 ! R31   R(12,37)                1.0959         estimate D2E/DX2                !
 ! R32   R(12,38)                1.093          estimate D2E/DX2                !
 ! R33   R(12,39)                1.0919         estimate D2E/DX2                !
 ! R34   R(13,40)                1.0962         estimate D2E/DX2                !
 ! R35   R(13,41)                1.0958         estimate D2E/DX2                !
 ! R36   R(13,42)                1.0951         estimate D2E/DX2                !
 ! R37   R(14,15)                1.547          estimate D2E/DX2                !
 ! R38   R(14,16)                1.517          estimate D2E/DX2                !
 ! R39   R(14,43)                1.0953         estimate D2E/DX2                !
 ! R40   R(15,44)                1.0972         estimate D2E/DX2                !
 ! R41   R(15,45)                1.0921         estimate D2E/DX2                !
 ! R42   R(15,46)                1.0941         estimate D2E/DX2                !
 ! R43   R(16,17)                1.5342         estimate D2E/DX2                !
 ! R44   R(16,47)                1.0982         estimate D2E/DX2                !
 ! R45   R(16,48)                1.1017         estimate D2E/DX2                !
 ! R46   R(17,18)                1.5055         estimate D2E/DX2                !
 ! R47   R(17,19)                1.5175         estimate D2E/DX2                !
 ! R48   R(17,20)                1.635          estimate D2E/DX2                !
 ! R49   R(18,49)                1.1052         estimate D2E/DX2                !
 ! R50   R(18,50)                1.0992         estimate D2E/DX2                !
 ! R51   R(18,51)                1.0853         estimate D2E/DX2                !
 ! R52   R(19,20)                1.5284         estimate D2E/DX2                !
 ! R53   R(19,52)                1.0665         estimate D2E/DX2                !
 ! R54   R(19,53)                1.0869         estimate D2E/DX2                !
 ! R55   R(20,54)                1.075          estimate D2E/DX2                !
 ! A1    A(2,1,21)             110.1679         estimate D2E/DX2                !
 ! A2    A(2,1,22)             110.7535         estimate D2E/DX2                !
 ! A3    A(2,1,23)             110.6196         estimate D2E/DX2                !
 ! A4    A(21,1,22)            108.4851         estimate D2E/DX2                !
 ! A5    A(21,1,23)            108.3155         estimate D2E/DX2                !
 ! A6    A(22,1,23)            108.4253         estimate D2E/DX2                !
 ! A7    A(1,2,3)              111.0017         estimate D2E/DX2                !
 ! A8    A(1,2,24)             109.7796         estimate D2E/DX2                !
 ! A9    A(1,2,25)             109.2701         estimate D2E/DX2                !
 ! A10   A(3,2,24)             109.9744         estimate D2E/DX2                !
 ! A11   A(3,2,25)             109.6326         estimate D2E/DX2                !
 ! A12   A(24,2,25)            107.0974         estimate D2E/DX2                !
 ! A13   A(2,3,4)              109.2797         estimate D2E/DX2                !
 ! A14   A(2,3,26)             109.9717         estimate D2E/DX2                !
 ! A15   A(2,3,27)             110.1377         estimate D2E/DX2                !
 ! A16   A(4,3,26)             109.8375         estimate D2E/DX2                !
 ! A17   A(4,3,27)             110.3629         estimate D2E/DX2                !
 ! A18   A(26,3,27)            107.2309         estimate D2E/DX2                !
 ! A19   A(3,4,5)              112.128          estimate D2E/DX2                !
 ! A20   A(3,4,28)             108.9856         estimate D2E/DX2                !
 ! A21   A(3,4,29)             108.9515         estimate D2E/DX2                !
 ! A22   A(5,4,28)             109.9263         estimate D2E/DX2                !
 ! A23   A(5,4,29)             108.5452         estimate D2E/DX2                !
 ! A24   A(28,4,29)            108.2205         estimate D2E/DX2                !
 ! A25   A(4,5,6)              114.2454         estimate D2E/DX2                !
 ! A26   A(4,5,30)             112.6011         estimate D2E/DX2                !
 ! A27   A(4,5,31)             107.0298         estimate D2E/DX2                !
 ! A28   A(6,5,30)             112.8163         estimate D2E/DX2                !
 ! A29   A(6,5,31)             106.118          estimate D2E/DX2                !
 ! A30   A(30,5,31)            102.9706         estimate D2E/DX2                !
 ! A31   A(5,6,7)              110.1959         estimate D2E/DX2                !
 ! A32   A(5,6,20)             123.1142         estimate D2E/DX2                !
 ! A33   A(5,6,32)              93.3392         estimate D2E/DX2                !
 ! A34   A(7,6,20)             119.4994         estimate D2E/DX2                !
 ! A35   A(7,6,32)             106.5757         estimate D2E/DX2                !
 ! A36   A(20,6,32)             97.2893         estimate D2E/DX2                !
 ! A37   A(6,7,8)              114.4866         estimate D2E/DX2                !
 ! A38   A(7,8,9)              112.3446         estimate D2E/DX2                !
 ! A39   A(7,8,14)             116.3949         estimate D2E/DX2                !
 ! A40   A(7,8,33)             105.0819         estimate D2E/DX2                !
 ! A41   A(9,8,14)             110.3581         estimate D2E/DX2                !
 ! A42   A(9,8,33)             101.4629         estimate D2E/DX2                !
 ! A43   A(14,8,33)            109.9835         estimate D2E/DX2                !
 ! A44   A(8,9,10)             108.6525         estimate D2E/DX2                !
 ! A45   A(8,9,34)             107.7712         estimate D2E/DX2                !
 ! A46   A(8,9,35)             110.846          estimate D2E/DX2                !
 ! A47   A(10,9,34)            109.7902         estimate D2E/DX2                !
 ! A48   A(10,9,35)            110.4429         estimate D2E/DX2                !
 ! A49   A(34,9,35)            109.2916         estimate D2E/DX2                !
 ! A50   A(9,10,11)            113.5144         estimate D2E/DX2                !
 ! A51   A(10,11,12)           110.4067         estimate D2E/DX2                !
 ! A52   A(10,11,13)           109.0984         estimate D2E/DX2                !
 ! A53   A(10,11,36)           108.619          estimate D2E/DX2                !
 ! A54   A(12,11,13)           109.3603         estimate D2E/DX2                !
 ! A55   A(12,11,36)           110.9643         estimate D2E/DX2                !
 ! A56   A(13,11,36)           108.3444         estimate D2E/DX2                !
 ! A57   A(11,12,37)           110.4055         estimate D2E/DX2                !
 ! A58   A(11,12,38)           111.4563         estimate D2E/DX2                !
 ! A59   A(11,12,39)           111.2362         estimate D2E/DX2                !
 ! A60   A(37,12,38)           106.8038         estimate D2E/DX2                !
 ! A61   A(37,12,39)           109.3605         estimate D2E/DX2                !
 ! A62   A(38,12,39)           107.4273         estimate D2E/DX2                !
 ! A63   A(11,13,40)           111.4299         estimate D2E/DX2                !
 ! A64   A(11,13,41)           110.6407         estimate D2E/DX2                !
 ! A65   A(11,13,42)           111.3667         estimate D2E/DX2                !
 ! A66   A(40,13,41)           108.2309         estimate D2E/DX2                !
 ! A67   A(40,13,42)           106.7629         estimate D2E/DX2                !
 ! A68   A(41,13,42)           108.2478         estimate D2E/DX2                !
 ! A69   A(8,14,15)            121.0096         estimate D2E/DX2                !
 ! A70   A(8,14,16)            104.7573         estimate D2E/DX2                !
 ! A71   A(8,14,43)            107.8544         estimate D2E/DX2                !
 ! A72   A(15,14,16)           113.4292         estimate D2E/DX2                !
 ! A73   A(15,14,43)           103.1984         estimate D2E/DX2                !
 ! A74   A(16,14,43)           105.5479         estimate D2E/DX2                !
 ! A75   A(14,15,44)           116.4375         estimate D2E/DX2                !
 ! A76   A(14,15,45)           110.2118         estimate D2E/DX2                !
 ! A77   A(14,15,46)           111.0892         estimate D2E/DX2                !
 ! A78   A(44,15,45)           100.8322         estimate D2E/DX2                !
 ! A79   A(44,15,46)           108.475          estimate D2E/DX2                !
 ! A80   A(45,15,46)           109.2053         estimate D2E/DX2                !
 ! A81   A(14,16,17)           115.2307         estimate D2E/DX2                !
 ! A82   A(14,16,47)           109.8628         estimate D2E/DX2                !
 ! A83   A(14,16,48)           107.054          estimate D2E/DX2                !
 ! A84   A(17,16,47)           108.9808         estimate D2E/DX2                !
 ! A85   A(17,16,48)           111.554          estimate D2E/DX2                !
 ! A86   A(47,16,48)           103.5094         estimate D2E/DX2                !
 ! A87   A(16,17,18)           108.7395         estimate D2E/DX2                !
 ! A88   A(16,17,19)           112.2356         estimate D2E/DX2                !
 ! A89   A(16,17,20)           125.004          estimate D2E/DX2                !
 ! A90   A(18,17,19)           123.7457         estimate D2E/DX2                !
 ! A91   A(18,17,20)           120.8465         estimate D2E/DX2                !
 ! A92   A(17,18,49)           109.3243         estimate D2E/DX2                !
 ! A93   A(17,18,50)           109.3393         estimate D2E/DX2                !
 ! A94   A(17,18,51)           115.9159         estimate D2E/DX2                !
 ! A95   A(49,18,50)           104.991          estimate D2E/DX2                !
 ! A96   A(49,18,51)           106.4194         estimate D2E/DX2                !
 ! A97   A(50,18,51)           110.2555         estimate D2E/DX2                !
 ! A98   A(17,19,52)           122.9926         estimate D2E/DX2                !
 ! A99   A(17,19,53)           116.2755         estimate D2E/DX2                !
 ! A100  A(20,19,52)           118.0598         estimate D2E/DX2                !
 ! A101  A(20,19,53)           115.4406         estimate D2E/DX2                !
 ! A102  A(52,19,53)           111.6858         estimate D2E/DX2                !
 ! A103  A(6,20,17)            112.7732         estimate D2E/DX2                !
 ! A104  A(6,20,19)            138.3696         estimate D2E/DX2                !
 ! A105  A(6,20,54)            109.9045         estimate D2E/DX2                !
 ! A106  A(17,20,54)           130.0552         estimate D2E/DX2                !
 ! A107  A(19,20,54)           103.3117         estimate D2E/DX2                !
 ! D1    D(21,1,2,3)          -179.1673         estimate D2E/DX2                !
 ! D2    D(21,1,2,24)           59.0361         estimate D2E/DX2                !
 ! D3    D(21,1,2,25)          -58.1383         estimate D2E/DX2                !
 ! D4    D(22,1,2,3)            60.8072         estimate D2E/DX2                !
 ! D5    D(22,1,2,24)          -60.9895         estimate D2E/DX2                !
 ! D6    D(22,1,2,25)         -178.1639         estimate D2E/DX2                !
 ! D7    D(23,1,2,3)           -59.4389         estimate D2E/DX2                !
 ! D8    D(23,1,2,24)          178.7644         estimate D2E/DX2                !
 ! D9    D(23,1,2,25)           61.59           estimate D2E/DX2                !
 ! D10   D(1,2,3,4)            177.3052         estimate D2E/DX2                !
 ! D11   D(1,2,3,26)            56.6654         estimate D2E/DX2                !
 ! D12   D(1,2,3,27)           -61.3014         estimate D2E/DX2                !
 ! D13   D(24,2,3,4)           -61.0119         estimate D2E/DX2                !
 ! D14   D(24,2,3,26)          178.3482         estimate D2E/DX2                !
 ! D15   D(24,2,3,27)           60.3814         estimate D2E/DX2                !
 ! D16   D(25,2,3,4)            56.4901         estimate D2E/DX2                !
 ! D17   D(25,2,3,26)          -64.1498         estimate D2E/DX2                !
 ! D18   D(25,2,3,27)          177.8834         estimate D2E/DX2                !
 ! D19   D(2,3,4,5)           -173.5532         estimate D2E/DX2                !
 ! D20   D(2,3,4,28)            64.5106         estimate D2E/DX2                !
 ! D21   D(2,3,4,29)           -53.3779         estimate D2E/DX2                !
 ! D22   D(26,3,4,5)           -52.8315         estimate D2E/DX2                !
 ! D23   D(26,3,4,28)         -174.7677         estimate D2E/DX2                !
 ! D24   D(26,3,4,29)           67.3439         estimate D2E/DX2                !
 ! D25   D(27,3,4,5)            65.1899         estimate D2E/DX2                !
 ! D26   D(27,3,4,28)          -56.7463         estimate D2E/DX2                !
 ! D27   D(27,3,4,29)         -174.6347         estimate D2E/DX2                !
 ! D28   D(3,4,5,6)           -172.8848         estimate D2E/DX2                !
 ! D29   D(3,4,5,30)            56.713          estimate D2E/DX2                !
 ! D30   D(3,4,5,31)           -55.7309         estimate D2E/DX2                !
 ! D31   D(28,4,5,6)           -51.4874         estimate D2E/DX2                !
 ! D32   D(28,4,5,30)          178.1104         estimate D2E/DX2                !
 ! D33   D(28,4,5,31)           65.6666         estimate D2E/DX2                !
 ! D34   D(29,4,5,6)            66.7038         estimate D2E/DX2                !
 ! D35   D(29,4,5,30)          -63.6984         estimate D2E/DX2                !
 ! D36   D(29,4,5,31)         -176.1422         estimate D2E/DX2                !
 ! D37   D(4,5,6,7)           -162.2389         estimate D2E/DX2                !
 ! D38   D(4,5,6,20)           -12.2029         estimate D2E/DX2                !
 ! D39   D(4,5,6,32)            88.738          estimate D2E/DX2                !
 ! D40   D(30,5,6,7)           -31.9427         estimate D2E/DX2                !
 ! D41   D(30,5,6,20)          118.0933         estimate D2E/DX2                !
 ! D42   D(30,5,6,32)         -140.9658         estimate D2E/DX2                !
 ! D43   D(31,5,6,7)            80.084          estimate D2E/DX2                !
 ! D44   D(31,5,6,20)         -129.88           estimate D2E/DX2                !
 ! D45   D(31,5,6,32)          -28.9391         estimate D2E/DX2                !
 ! D46   D(5,6,7,8)           -159.1607         estimate D2E/DX2                !
 ! D47   D(20,6,7,8)            49.567          estimate D2E/DX2                !
 ! D48   D(32,6,7,8)           -59.126          estimate D2E/DX2                !
 ! D49   D(5,6,20,17)          137.4911         estimate D2E/DX2                !
 ! D50   D(5,6,20,19)         -156.8211         estimate D2E/DX2                !
 ! D51   D(5,6,20,54)          -15.9253         estimate D2E/DX2                !
 ! D52   D(7,6,20,17)          -75.0952         estimate D2E/DX2                !
 ! D53   D(7,6,20,19)           -9.4074         estimate D2E/DX2                !
 ! D54   D(7,6,20,54)          131.4884         estimate D2E/DX2                !
 ! D55   D(32,6,20,17)          38.6589         estimate D2E/DX2                !
 ! D56   D(32,6,20,19)         104.3467         estimate D2E/DX2                !
 ! D57   D(32,6,20,54)        -114.7574         estimate D2E/DX2                !
 ! D58   D(6,7,8,9)            169.8716         estimate D2E/DX2                !
 ! D59   D(6,7,8,14)            41.2702         estimate D2E/DX2                !
 ! D60   D(6,7,8,33)           -80.6593         estimate D2E/DX2                !
 ! D61   D(7,8,9,10)           167.6345         estimate D2E/DX2                !
 ! D62   D(7,8,9,34)            48.7239         estimate D2E/DX2                !
 ! D63   D(7,8,9,35)           -70.8322         estimate D2E/DX2                !
 ! D64   D(14,8,9,10)          -60.6686         estimate D2E/DX2                !
 ! D65   D(14,8,9,34)         -179.5791         estimate D2E/DX2                !
 ! D66   D(14,8,9,35)           60.8647         estimate D2E/DX2                !
 ! D67   D(33,8,9,10)           55.8944         estimate D2E/DX2                !
 ! D68   D(33,8,9,34)          -63.0162         estimate D2E/DX2                !
 ! D69   D(33,8,9,35)          177.4277         estimate D2E/DX2                !
 ! D70   D(7,8,14,15)           29.9745         estimate D2E/DX2                !
 ! D71   D(7,8,14,16)          -99.6742         estimate D2E/DX2                !
 ! D72   D(7,8,14,43)          148.2359         estimate D2E/DX2                !
 ! D73   D(9,8,14,15)          -99.5833         estimate D2E/DX2                !
 ! D74   D(9,8,14,16)          130.768          estimate D2E/DX2                !
 ! D75   D(9,8,14,43)           18.6781         estimate D2E/DX2                !
 ! D76   D(33,8,14,15)         149.2865         estimate D2E/DX2                !
 ! D77   D(33,8,14,16)          19.6378         estimate D2E/DX2                !
 ! D78   D(33,8,14,43)         -92.4521         estimate D2E/DX2                !
 ! D79   D(8,9,10,11)          176.1268         estimate D2E/DX2                !
 ! D80   D(34,9,10,11)         -66.2392         estimate D2E/DX2                !
 ! D81   D(35,9,10,11)          54.3472         estimate D2E/DX2                !
 ! D82   D(9,10,11,12)          65.9302         estimate D2E/DX2                !
 ! D83   D(9,10,11,13)        -173.863          estimate D2E/DX2                !
 ! D84   D(9,10,11,36)         -55.9515         estimate D2E/DX2                !
 ! D85   D(10,11,12,37)         56.2225         estimate D2E/DX2                !
 ! D86   D(10,11,12,38)        -62.3081         estimate D2E/DX2                !
 ! D87   D(10,11,12,39)        177.8259         estimate D2E/DX2                !
 ! D88   D(13,11,12,37)        -63.8269         estimate D2E/DX2                !
 ! D89   D(13,11,12,38)        177.6425         estimate D2E/DX2                !
 ! D90   D(13,11,12,39)         57.7765         estimate D2E/DX2                !
 ! D91   D(36,11,12,37)        176.7096         estimate D2E/DX2                !
 ! D92   D(36,11,12,38)         58.179          estimate D2E/DX2                !
 ! D93   D(36,11,12,39)        -61.687          estimate D2E/DX2                !
 ! D94   D(10,11,13,40)        -59.8093         estimate D2E/DX2                !
 ! D95   D(10,11,13,41)        179.7276         estimate D2E/DX2                !
 ! D96   D(10,11,13,42)         59.2854         estimate D2E/DX2                !
 ! D97   D(12,11,13,40)         61.0393         estimate D2E/DX2                !
 ! D98   D(12,11,13,41)        -59.4238         estimate D2E/DX2                !
 ! D99   D(12,11,13,42)       -179.866          estimate D2E/DX2                !
 ! D100  D(36,11,13,40)       -177.8935         estimate D2E/DX2                !
 ! D101  D(36,11,13,41)         61.6434         estimate D2E/DX2                !
 ! D102  D(36,11,13,42)        -58.7988         estimate D2E/DX2                !
 ! D103  D(8,14,15,44)         -87.3942         estimate D2E/DX2                !
 ! D104  D(8,14,15,45)         158.6073         estimate D2E/DX2                !
 ! D105  D(8,14,15,46)          37.4301         estimate D2E/DX2                !
 ! D106  D(16,14,15,44)         38.3653         estimate D2E/DX2                !
 ! D107  D(16,14,15,45)        -75.6332         estimate D2E/DX2                !
 ! D108  D(16,14,15,46)        163.1896         estimate D2E/DX2                !
 ! D109  D(43,14,15,44)        152.0487         estimate D2E/DX2                !
 ! D110  D(43,14,15,45)         38.0502         estimate D2E/DX2                !
 ! D111  D(43,14,15,46)        -83.127          estimate D2E/DX2                !
 ! D112  D(8,14,16,17)          67.3339         estimate D2E/DX2                !
 ! D113  D(8,14,16,47)         -56.2068         estimate D2E/DX2                !
 ! D114  D(8,14,16,48)        -167.961          estimate D2E/DX2                !
 ! D115  D(15,14,16,17)        -66.6755         estimate D2E/DX2                !
 ! D116  D(15,14,16,47)        169.7838         estimate D2E/DX2                !
 ! D117  D(15,14,16,48)         58.0296         estimate D2E/DX2                !
 ! D118  D(43,14,16,17)       -178.9385         estimate D2E/DX2                !
 ! D119  D(43,14,16,47)         57.5208         estimate D2E/DX2                !
 ! D120  D(43,14,16,48)        -54.2334         estimate D2E/DX2                !
 ! D121  D(14,16,17,18)        121.1255         estimate D2E/DX2                !
 ! D122  D(14,16,17,19)        -98.3026         estimate D2E/DX2                !
 ! D123  D(14,16,17,20)        -32.8481         estimate D2E/DX2                !
 ! D124  D(47,16,17,18)       -114.8687         estimate D2E/DX2                !
 ! D125  D(47,16,17,19)         25.7031         estimate D2E/DX2                !
 ! D126  D(47,16,17,20)         91.1576         estimate D2E/DX2                !
 ! D127  D(48,16,17,18)         -1.1986         estimate D2E/DX2                !
 ! D128  D(48,16,17,19)        139.3733         estimate D2E/DX2                !
 ! D129  D(48,16,17,20)       -155.1722         estimate D2E/DX2                !
 ! D130  D(16,17,18,49)         34.5453         estimate D2E/DX2                !
 ! D131  D(16,17,18,50)        -79.8843         estimate D2E/DX2                !
 ! D132  D(16,17,18,51)        154.7725         estimate D2E/DX2                !
 ! D133  D(19,17,18,49)       -100.4632         estimate D2E/DX2                !
 ! D134  D(19,17,18,50)        145.1072         estimate D2E/DX2                !
 ! D135  D(19,17,18,51)         19.764          estimate D2E/DX2                !
 ! D136  D(20,17,18,49)       -170.2029         estimate D2E/DX2                !
 ! D137  D(20,17,18,50)         75.3674         estimate D2E/DX2                !
 ! D138  D(20,17,18,51)        -49.9757         estimate D2E/DX2                !
 ! D139  D(16,17,19,52)          9.9724         estimate D2E/DX2                !
 ! D140  D(16,17,19,53)       -134.3045         estimate D2E/DX2                !
 ! D141  D(18,17,19,52)        143.6438         estimate D2E/DX2                !
 ! D142  D(18,17,19,53)         -0.633          estimate D2E/DX2                !
 ! D143  D(16,17,20,6)          37.8749         estimate D2E/DX2                !
 ! D144  D(16,17,20,54)       -175.473          estimate D2E/DX2                !
 ! D145  D(18,17,20,6)        -113.179          estimate D2E/DX2                !
 ! D146  D(18,17,20,54)         33.4731         estimate D2E/DX2                !
 ! D147  D(52,19,20,6)          27.3997         estimate D2E/DX2                !
 ! D148  D(52,19,20,54)       -115.0522         estimate D2E/DX2                !
 ! D149  D(53,19,20,6)         163.2297         estimate D2E/DX2                !
 ! D150  D(53,19,20,54)         20.7778         estimate D2E/DX2                !
 --------------------------------------------------------------------------------
 Trust Radius=3.00D-01 FncErr=1.00D-07 GrdErr=1.00D-06 EigMax=2.50D+02 EigMin=1.00D-04
 Number of steps in this run=    322 maximum allowed number of steps=    324.
 GradGradGradGradGradGradGradGradGradGradGradGradGradGradGradGradGradGrad

 Stoichiometry    C18H34O2
 Framework group  C1[X(C18H34O2)]
 Deg. of freedom   156
 Full point group                 C1      NOp   1
 Largest Abelian subgroup         C1      NOp   1
 Largest concise Abelian subgroup C1      NOp   1
                         Standard orientation:                         
 ---------------------------------------------------------------------
 Center     Atomic      Atomic             Coordinates (Angstroms)
 Number     Number       Type             X           Y           Z
 ---------------------------------------------------------------------
      1          6           0       -7.237804   -1.502534    0.189713
      2          6           0       -6.043875   -0.664208   -0.218037
      3          6           0       -4.742991   -1.289233    0.275301
      4          6           0       -3.567045   -0.453274   -0.211919
      5          6           0       -2.235260   -1.100444    0.108442
      6          6           0       -1.010072   -0.217993   -0.206838
      7          8           0        0.167442   -1.016541   -0.271577
      8          6           0        1.380337   -0.294614   -0.090936
      9          6           0        2.587301   -1.218610    0.078097
     10          8           0        3.790971   -0.431416   -0.038008
     11          6           0        4.985175   -1.179519    0.191216
     12          6           0        5.176217   -2.223056   -0.901798
     13          6           0        6.180490   -0.225169    0.195621
     14          6           0        1.376290    0.796065    1.013695
     15          6           0        0.480806    0.657217    2.267556
     16          6           0        1.171349    2.100957    0.267588
     17          6           0       -0.202834    2.267074   -0.394172
     18          6           0       -0.863775    3.498317    0.166014
     19          6           0       -0.173616    1.924454   -1.872183
     20          6           0       -1.094541    1.049244   -1.022603
     21          1           0       -8.160977   -1.050351   -0.183165
     22          1           0       -7.304199   -1.578609    1.279130
     23          1           0       -7.158443   -2.512970   -0.223435
     24          1           0       -6.148136    0.350504    0.184370
     25          1           0       -6.019381   -0.576701   -1.310961
     26          1           0       -4.652938   -2.314008   -0.103035
     27          1           0       -4.742976   -1.346147    1.371389
     28          1           0       -3.620336    0.540991    0.249495
     29          1           0       -3.642797   -0.331600   -1.296184
     30          1           0       -2.148320   -2.110411   -0.304180
     31          1           0       -2.214574   -1.276028    1.202173
     32          1           0       -1.014205    0.235865    0.746529
     33          1           0        1.588820    0.159513   -1.063846
     34          1           0        2.552824   -1.962107   -0.722055
     35          1           0        2.555472   -1.727188    1.045317
     36          1           0        4.917871   -1.652367    1.177114
     37          1           0        5.183850   -1.745996   -1.888436
     38          1           0        4.359427   -2.949372   -0.908307
     39          1           0        6.106085   -2.777862   -0.760766
     40          1           0        6.273011    0.305254   -0.759206
     41          1           0        7.112084   -0.773696    0.374751
     42          1           0        6.077798    0.539350    0.972982
     43          1           0        2.386515    0.853142    1.432953
     44          1           0       -0.542584    1.043591    2.182188
     45          1           0        0.867734    1.278343    3.078204
     46          1           0        0.431811   -0.383030    2.603113
     47          1           0        1.952076    2.221148   -0.495347
     48          1           0        1.379135    2.916047    0.979092
     49          1           0       -0.094345    4.263901    0.374030
     50          1           0       -1.302182    3.262229    1.145947
     51          1           0       -1.603056    3.971829   -0.472130
     52          1           0        0.663010    1.461597   -2.344579
     53          1           0       -0.675550    2.621842   -2.537760
     54          1           0       -2.026731    1.078905   -1.557235
 ---------------------------------------------------------------------
 Rotational constants (GHZ):           0.5936945           0.1312828           0.1179201
 Standard basis: 6-31G(2df,p) (6D, 7F)
 There are   790 symmetry adapted cartesian basis functions of A   symmetry.
 There are   730 symmetry adapted basis functions of A   symmetry.
   730 basis functions,  1118 primitive gaussians,   790 cartesian basis functions
    79 alpha electrons       79 beta electrons
       nuclear repulsion energy      1691.5494736283 Hartrees.
 NAtoms=   54 NActive=   54 NUniq=   54 SFac= 1.00D+00 NAtFMM=   60 NAOKFM=F Big=F
 Integral buffers will be    131072 words long.
 Raffenetti 2 integral format.
 Two-electron integral symmetry is turned on.
 One-electron integrals computed using PRISM.
 PrsmSu:  requested number of processors reduced to:  11 ShMem   1 Linda.
 NBasis=   730 RedAO= T EigKep=  4.64D-04  NBF=   730
 NBsUse=   730 1.00D-06 EigRej= -1.00D+00 NBFU=   730
 ExpMin= 1.61D-01 ExpMax= 5.48D+03 ExpMxC= 8.25D+02 IAcc=3 IRadAn=         5 AccDes= 0.00D+00
 Harris functional with IExCor=  402 and IRadAn=       5 diagonalized for initial guess.
 HarFok:  IExCor=  402 AccDes= 0.00D+00 IRadAn=         5 IDoV= 1 UseB2=F ITyADJ=14
 ICtDFT=  3500011 ScaDFX=  1.000000  1.000000  1.000000  1.000000
 FoFCou: FMM=F IPFlag=           0 FMFlag=      100000 FMFlg1=           0
         NFxFlg=           0 DoJE=T BraDBF=F KetDBF=T FulRan=T
         wScrn=  0.000000 ICntrl=       500 IOpCl=  0 I1Cent=   200000004 NGrid=           0
         NMat0=    1 NMatS0=      1 NMatT0=    0 NMatD0=    1 NMtDS0=    0 NMtDT0=    0
 Petite list used in FoFCou.
 Requested convergence on RMS density matrix=1.00D-08 within 128 cycles.
 Requested convergence on MAX density matrix=1.00D-06.
 Requested convergence on             energy=1.00D-06.
 No special actions if energy rises.
 Integral accuracy reduced to 1.0D-05 until final iterations.
 Initial convergence to 1.0D-05 achieved.  Increase integral accuracy.
 SCF Done:  E(RB3LYP) =  -856.771200689     A.U. after   12 cycles
            NFock= 12  Conv=0.57D-08     -V/T= 2.0080

 **********************************************************************

            Population analysis using the SCF density.

 **********************************************************************

 Orbital symmetries:
       Occupied  (A) (A) (A) (A) (A) (A) (A) (A) (A) (A) (A) (A)
                 (A) (A) (A) (A) (A) (A) (A) (A) (A) (A) (A) (A)
                 (A) (A) (A) (A) (A) (A) (A) (A) (A) (A) (A) (A)
                 (A) (A) (A) (A) (A) (A) (A) (A) (A) (A) (A) (A)
                 (A) (A) (A) (A) (A) (A) (A) (A) (A) (A) (A) (A)
                 (A) (A) (A) (A) (A) (A) (A) (A) (A) (A) (A) (A)
                 (A) (A) (A) (A) (A) (A) (A)
       Virtual   (A) (A) (A) (A) (A) (A) (A) (A) (A) (A) (A) (A)
                 (A) (A) (A) (A) (A) (A) (A) (A) (A) (A) (A) (A)
                 (A) (A) (A) (A) (A) (A) (A) (A) (A) (A) (A) (A)
                 (A) (A) (A) (A) (A) (A) (A) (A) (A) (A) (A) (A)
                 (A) (A) (A) (A) (A) (A) (A) (A) (A) (A) (A) (A)
                 (A) (A) (A) (A) (A) (A) (A) (A) (A) (A) (A) (A)
                 (A) (A) (A) (A) (A) (A) (A) (A) (A) (A) (A) (A)
                 (A) (A) (A) (A) (A) (A) (A) (A) (A) (A) (A) (A)
                 (A) (A) (A) (A) (A) (A) (A) (A) (A) (A) (A) (A)
                 (A) (A) (A) (A) (A) (A) (A) (A) (A) (A) (A) (A)
                 (A) (A) (A) (A) (A) (A) (A) (A) (A) (A) (A) (A)
                 (A) (A) (A) (A) (A) (A) (A) (A) (A) (A) (A) (A)
                 (A) (A) (A) (A) (A) (A) (A) (A) (A) (A) (A) (A)
                 (A) (A) (A) (A) (A) (A) (A) (A) (A) (A) (A) (A)
                 (A) (A) (A) (A) (A) (A) (A) (A) (A) (A) (A) (A)
                 (A) (A) (A) (A) (A) (A) (A) (A) (A) (A) (A) (A)
                 (A) (A) (A) (A) (A) (A) (A) (A) (A) (A) (A) (A)
                 (A) (A) (A) (A) (A) (A) (A) (A) (A) (A) (A) (A)
                 (A) (A) (A) (A) (A) (A) (A) (A) (A) (A) (A) (A)
                 (A) (A) (A) (A) (A) (A) (A) (A) (A) (A) (A) (A)
                 (A) (A) (A) (A) (A) (A) (A) (A) (A) (A) (A) (A)
                 (A) (A) (A) (A) (A) (A) (A) (A) (A) (A) (A) (A)
                 (A) (A) (A) (A) (A) (A) (A) (A) (A) (A) (A) (A)
                 (A) (A) (A) (A) (A) (A) (A) (A) (A) (A) (A) (A)
                 (A) (A) (A) (A) (A) (A) (A) (A) (A) (A) (A) (A)
                 (A) (A) (A) (A) (A) (A) (A) (A) (A) (A) (A) (A)
                 (A) (A) (A) (A) (A) (A) (A) (A) (A) (A) (A) (A)
                 (A) (A) (A) (A) (A) (A) (A) (A) (A) (A) (A) (A)
                 (A) (A) (A) (A) (A) (A) (A) (A) (A) (A) (A) (A)
                 (A) (A) (A) (A) (A) (A) (A) (A) (A) (A) (A) (A)
                 (A) (A) (A) (A) (A) (A) (A) (A) (A) (A) (A) (A)
                 (A) (A) (A) (A) (A) (A) (A) (A) (A) (A) (A) (A)
                 (A) (A) (A) (A) (A) (A) (A) (A) (A) (A) (A) (A)
                 (A) (A) (A) (A) (A) (A) (A) (A) (A) (A) (A) (A)
                 (A) (A) (A) (A) (A) (A) (A) (A) (A) (A) (A) (A)
                 (A) (A) (A) (A) (A) (A) (A) (A) (A) (A) (A) (A)
                 (A) (A) (A) (A) (A) (A) (A) (A) (A) (A) (A) (A)
                 (A) (A) (A) (A) (A) (A) (A) (A) (A) (A) (A) (A)
                 (A) (A) (A) (A) (A) (A) (A) (A) (A) (A) (A) (A)
                 (A) (A) (A) (A) (A) (A) (A) (A) (A) (A) (A) (A)
                 (A) (A) (A) (A) (A) (A) (A) (A) (A) (A) (A) (A)
                 (A) (A) (A) (A) (A) (A) (A) (A) (A) (A) (A) (A)
                 (A) (A) (A) (A) (A) (A) (A) (A) (A) (A) (A) (A)
                 (A) (A) (A) (A) (A) (A) (A) (A) (A) (A) (A) (A)
                 (A) (A) (A) (A) (A) (A) (A) (A) (A) (A) (A) (A)
                 (A) (A) (A) (A) (A) (A) (A) (A) (A) (A) (A) (A)
                 (A) (A) (A) (A) (A) (A) (A) (A) (A) (A) (A) (A)
                 (A) (A) (A) (A) (A) (A) (A) (A) (A) (A) (A) (A)
                 (A) (A) (A) (A) (A) (A) (A) (A) (A) (A) (A) (A)
                 (A) (A) (A) (A) (A) (A) (A) (A) (A) (A) (A) (A)
                 (A) (A) (A) (A) (A) (A) (A) (A) (A) (A) (A) (A)
                 (A) (A) (A) (A) (A) (A) (A) (A) (A) (A) (A) (A)
                 (A) (A) (A) (A) (A) (A) (A) (A) (A) (A) (A) (A)
                 (A) (A) (A) (A) (A) (A) (A) (A) (A) (A) (A) (A)
                 (A) (A) (A)
 The electronic state is 1-A.
 Alpha  occ. eigenvalues --  -19.13533 -19.12537 -10.23076 -10.21839 -10.21760
 Alpha  occ. eigenvalues --  -10.20901 -10.19342 -10.18210 -10.17575 -10.17566
 Alpha  occ. eigenvalues --  -10.17306 -10.17246 -10.17184 -10.17179 -10.17170
 Alpha  occ. eigenvalues --  -10.17135 -10.17065 -10.16985 -10.16871 -10.16591
 Alpha  occ. eigenvalues --   -1.02282  -1.01344  -0.84748  -0.81137  -0.79785
 Alpha  occ. eigenvalues --   -0.77413  -0.76414  -0.72508  -0.72002  -0.69215
 Alpha  occ. eigenvalues --   -0.68348  -0.67931  -0.64022  -0.61789  -0.59532
 Alpha  occ. eigenvalues --   -0.57857  -0.57448  -0.56664  -0.53881  -0.53740
 Alpha  occ. eigenvalues --   -0.49944  -0.48196  -0.47413  -0.47273  -0.45911
 Alpha  occ. eigenvalues --   -0.45132  -0.44499  -0.44380  -0.43216  -0.42620
 Alpha  occ. eigenvalues --   -0.42031  -0.41329  -0.40464  -0.40102  -0.39411
 Alpha  occ. eigenvalues --   -0.39300  -0.38472  -0.38133  -0.37600  -0.37419
 Alpha  occ. eigenvalues --   -0.36715  -0.36130  -0.35613  -0.35096  -0.34555
 Alpha  occ. eigenvalues --   -0.34428  -0.34053  -0.33550  -0.32814  -0.32253
 Alpha  occ. eigenvalues --   -0.31619  -0.30803  -0.30167  -0.29551  -0.27778
 Alpha  occ. eigenvalues --   -0.26519  -0.25039  -0.23078  -0.21817
 Alpha virt. eigenvalues --    0.05106   0.07718   0.08643   0.09460   0.10439
 Alpha virt. eigenvalues --    0.11068   0.11246   0.11527   0.12228   0.12381
 Alpha virt. eigenvalues --    0.12964   0.13401   0.13723   0.14344   0.14615
 Alpha virt. eigenvalues --    0.15432   0.15859   0.15936   0.16308   0.16634
 Alpha virt. eigenvalues --    0.17183   0.17193   0.17607   0.17904   0.18204
 Alpha virt. eigenvalues --    0.18762   0.19212   0.19643   0.19837   0.19980
 Alpha virt. eigenvalues --    0.20517   0.20690   0.21030   0.21163   0.21632
 Alpha virt. eigenvalues --    0.22178   0.22656   0.23370   0.24239   0.24450
 Alpha virt. eigenvalues --    0.24652   0.25194   0.25667   0.26094   0.27666
 Alpha virt. eigenvalues --    0.28057   0.28729   0.29936   0.30217   0.31083
 Alpha virt. eigenvalues --    0.31986   0.32572   0.34062   0.36382   0.38133
 Alpha virt. eigenvalues --    0.42845   0.43870   0.45024   0.45449   0.45615
 Alpha virt. eigenvalues --    0.46185   0.47195   0.47488   0.48031   0.49037
 Alpha virt. eigenvalues --    0.49248   0.50592   0.50669   0.51535   0.51927
 Alpha virt. eigenvalues --    0.52298   0.52534   0.53126   0.53232   0.53993
 Alpha virt. eigenvalues --    0.54339   0.54729   0.55907   0.56974   0.57418
 Alpha virt. eigenvalues --    0.58000   0.58446   0.59423   0.59653   0.60591
 Alpha virt. eigenvalues --    0.61027   0.62037   0.62146   0.63133   0.64208
 Alpha virt. eigenvalues --    0.64657   0.65771   0.66695   0.67085   0.67388
 Alpha virt. eigenvalues --    0.68229   0.68549   0.69102   0.70395   0.70689
 Alpha virt. eigenvalues --    0.70952   0.71948   0.72091   0.73063   0.73067
 Alpha virt. eigenvalues --    0.73405   0.73879   0.73923   0.74088   0.74343
 Alpha virt. eigenvalues --    0.74786   0.75099   0.75494   0.75633   0.76050
 Alpha virt. eigenvalues --    0.76567   0.76712   0.76957   0.77820   0.78130
 Alpha virt. eigenvalues --    0.78572   0.79206   0.79512   0.79890   0.80939
 Alpha virt. eigenvalues --    0.81358   0.81616   0.82583   0.82634   0.83437
 Alpha virt. eigenvalues --    0.84116   0.84449   0.84789   0.85643   0.85923
 Alpha virt. eigenvalues --    0.86469   0.87030   0.87961   0.88296   0.88676
 Alpha virt. eigenvalues --    0.89247   0.90311   0.90812   0.91905   0.92613
 Alpha virt. eigenvalues --    0.93934   0.94375   0.95451   0.96476   0.98476
 Alpha virt. eigenvalues --    0.99349   1.00283   1.01396   1.03559   1.04388
 Alpha virt. eigenvalues --    1.04605   1.06608   1.08640   1.09515   1.10986
 Alpha virt. eigenvalues --    1.11534   1.13432   1.14003   1.15163   1.16041
 Alpha virt. eigenvalues --    1.16757   1.17589   1.19147   1.19681   1.21409
 Alpha virt. eigenvalues --    1.21553   1.21939   1.22421   1.23641   1.24587
 Alpha virt. eigenvalues --    1.24950   1.26301   1.27641   1.28526   1.30050
 Alpha virt. eigenvalues --    1.31052   1.32383   1.33046   1.33421   1.34272
 Alpha virt. eigenvalues --    1.35042   1.36150   1.36821   1.38386   1.39499
 Alpha virt. eigenvalues --    1.39703   1.40655   1.41327   1.42317   1.43093
 Alpha virt. eigenvalues --    1.43838   1.45085   1.46497   1.47657   1.48377
 Alpha virt. eigenvalues --    1.48786   1.48998   1.50026   1.50201   1.51424
 Alpha virt. eigenvalues --    1.52420   1.53248   1.53709   1.55066   1.55675
 Alpha virt. eigenvalues --    1.56074   1.57335   1.57517   1.58775   1.59269
 Alpha virt. eigenvalues --    1.60344   1.60775   1.60883   1.62174   1.62664
 Alpha virt. eigenvalues --    1.65367   1.65803   1.66250   1.66993   1.68468
 Alpha virt. eigenvalues --    1.68938   1.69416   1.69956   1.71672   1.71878
 Alpha virt. eigenvalues --    1.72356   1.73266   1.73694   1.74152   1.76706
 Alpha virt. eigenvalues --    1.78382   1.79220   1.80085   1.81195   1.81656
 Alpha virt. eigenvalues --    1.82387   1.83621   1.84305   1.85122   1.85821
 Alpha virt. eigenvalues --    1.87145   1.88271   1.88487   1.89649   1.90781
 Alpha virt. eigenvalues --    1.91153   1.92394   1.92985   1.93936   1.93978
 Alpha virt. eigenvalues --    1.94764   1.95675   1.96420   1.97095   1.97194
 Alpha virt. eigenvalues --    1.98226   1.99103   2.00453   2.01349   2.03517
 Alpha virt. eigenvalues --    2.05122   2.05767   2.06583   2.08373   2.09537
 Alpha virt. eigenvalues --    2.14745   2.14843   2.16545   2.17652   2.18185
 Alpha virt. eigenvalues --    2.20294   2.21457   2.22169   2.23928   2.24562
 Alpha virt. eigenvalues --    2.26824   2.27476   2.28046   2.30264   2.31400
 Alpha virt. eigenvalues --    2.32174   2.32551   2.33182   2.34440   2.35207
 Alpha virt. eigenvalues --    2.36499   2.37413   2.39223   2.40523   2.41128
 Alpha virt. eigenvalues --    2.41662   2.42210   2.43892   2.45314   2.45953
 Alpha virt. eigenvalues --    2.46811   2.48046   2.48720   2.49431   2.50775
 Alpha virt. eigenvalues --    2.52421   2.54427   2.55958   2.57603   2.58904
 Alpha virt. eigenvalues --    2.60234   2.60871   2.61126   2.61933   2.63967
 Alpha virt. eigenvalues --    2.65280   2.66815   2.68012   2.70788   2.70849
 Alpha virt. eigenvalues --    2.71465   2.72638   2.73896   2.74477   2.74819
 Alpha virt. eigenvalues --    2.75230   2.75495   2.76453   2.76907   2.77144
 Alpha virt. eigenvalues --    2.78277   2.80021   2.80851   2.81466   2.81806
 Alpha virt. eigenvalues --    2.82334   2.83398   2.83722   2.84225   2.84638
 Alpha virt. eigenvalues --    2.85503   2.86025   2.86815   2.87060   2.88767
 Alpha virt. eigenvalues --    2.89069   2.90318   2.90490   2.91176   2.91645
 Alpha virt. eigenvalues --    2.92442   2.92570   2.93030   2.93379   2.93869
 Alpha virt. eigenvalues --    2.94431   2.95407   2.96162   2.96211   2.97300
 Alpha virt. eigenvalues --    2.97318   2.97933   2.98763   2.98874   3.00340
 Alpha virt. eigenvalues --    3.00678   3.01410   3.01935   3.02868   3.03536
 Alpha virt. eigenvalues --    3.04394   3.05591   3.06279   3.08583   3.09241
 Alpha virt. eigenvalues --    3.10057   3.10973   3.11725   3.12576   3.16104
 Alpha virt. eigenvalues --    3.17134   3.17452   3.18178   3.19911   3.21550
 Alpha virt. eigenvalues --    3.22800   3.23420   3.23987   3.25275   3.25716
 Alpha virt. eigenvalues --    3.26974   3.28386   3.28793   3.29783   3.30163
 Alpha virt. eigenvalues --    3.30954   3.32509   3.34214   3.34629   3.35732
 Alpha virt. eigenvalues --    3.36375   3.37949   3.38661   3.39485   3.40344
 Alpha virt. eigenvalues --    3.41160   3.41643   3.42218   3.43438   3.44042
 Alpha virt. eigenvalues --    3.45695   3.46646   3.47584   3.48760   3.49452
 Alpha virt. eigenvalues --    3.50669   3.51309   3.51978   3.53552   3.53991
 Alpha virt. eigenvalues --    3.54979   3.55538   3.57088   3.57822   3.58546
 Alpha virt. eigenvalues --    3.60086   3.60641   3.60755   3.61124   3.61834
 Alpha virt. eigenvalues --    3.62474   3.63094   3.63908   3.64956   3.66191
 Alpha virt. eigenvalues --    3.67454   3.67729   3.68091   3.70008   3.70593
 Alpha virt. eigenvalues --    3.71496   3.73170   3.73310   3.74334   3.75087
 Alpha virt. eigenvalues --    3.77159   3.79108   3.79681   3.81134   3.82030
 Alpha virt. eigenvalues --    3.83005   3.83299   3.83685   3.84508   3.86322
 Alpha virt. eigenvalues --    3.87107   3.88711   3.89562   3.90572   3.92287
 Alpha virt. eigenvalues --    3.94201   3.94565   3.96761   3.98406   3.98961
 Alpha virt. eigenvalues --    4.00398   4.02200   4.03002   4.04392   4.06164
 Alpha virt. eigenvalues --    4.08489   4.10113   4.10915   4.12281   4.15322
 Alpha virt. eigenvalues --    4.17339   4.21275   4.24548   4.25383   4.26793
 Alpha virt. eigenvalues --    4.30201   4.31699   4.32805   4.34684   4.35649
 Alpha virt. eigenvalues --    4.37599   4.39874   4.40030   4.40789   4.41197
 Alpha virt. eigenvalues --    4.41793   4.42690   4.43641   4.44546   4.44687
 Alpha virt. eigenvalues --    4.45140   4.45676   4.46884   4.47071   4.48718
 Alpha virt. eigenvalues --    4.49539   4.49821   4.50992   4.51205   4.52513
 Alpha virt. eigenvalues --    4.53390   4.53922   4.55134   4.55600   4.56121
 Alpha virt. eigenvalues --    4.56849   4.57801   4.58080   4.58564   4.60145
 Alpha virt. eigenvalues --    4.61026   4.61702   4.62181   4.62717   4.63679
 Alpha virt. eigenvalues --    4.64009   4.64134   4.64743   4.64834   4.65835
 Alpha virt. eigenvalues --    4.66344   4.66685   4.67569   4.68834   4.69172
 Alpha virt. eigenvalues --    4.69761   4.70125   4.70935   4.71165   4.72140
 Alpha virt. eigenvalues --    4.72332   4.72817   4.73635   4.73857   4.74682
 Alpha virt. eigenvalues --    4.75870   4.76071   4.76963   4.77604   4.77915
 Alpha virt. eigenvalues --    4.78245   4.79436   4.80180   4.80672   4.81212
 Alpha virt. eigenvalues --    4.82533   4.83446   4.83771   4.84420   4.84896
 Alpha virt. eigenvalues --    4.85099   4.85798   4.86828   4.87881   4.88160
 Alpha virt. eigenvalues --    4.89063   4.91099   4.92218   4.92811   4.93388
 Alpha virt. eigenvalues --    4.93605   4.95287   4.96016   4.96876   4.97131
 Alpha virt. eigenvalues --    4.97774   4.98897   4.99437   5.00950   5.01520
 Alpha virt. eigenvalues --    5.03909   5.05259   5.06585   5.07733   5.10309
 Alpha virt. eigenvalues --    5.10579   5.12496   5.14818   5.15885   5.18882
 Alpha virt. eigenvalues --    5.24721   5.25659   5.30099   5.30920   5.31495
 Alpha virt. eigenvalues --    5.33236   5.35578   5.38957   5.39304   5.42223
 Alpha virt. eigenvalues --    5.42535   5.44693   5.46150   5.47541   5.48447
 Alpha virt. eigenvalues --    5.50732   5.53494   5.54238   5.55580   5.56579
 Alpha virt. eigenvalues --    5.59274   5.60180   5.61117   5.65164   5.65750
 Alpha virt. eigenvalues --    5.70583   5.72937   5.76627   5.81465   5.86519
 Alpha virt. eigenvalues --    5.89282   5.91713   6.00799   6.02495   6.08772
 Alpha virt. eigenvalues --    6.11925   6.13140   6.14116   6.23002   6.28891
 Alpha virt. eigenvalues --    6.33062   6.62942   6.88635   6.98235   7.20911
 Alpha virt. eigenvalues --    7.43451  11.00089  11.18071  11.20405  11.49983
 Alpha virt. eigenvalues --   11.58200  11.69658  11.76579  11.85148  11.94041
 Alpha virt. eigenvalues --   12.06830  12.23211  12.24721  12.36547  12.47670
 Alpha virt. eigenvalues --   12.55330  12.84047  12.89373  13.05092  13.64420
 Alpha virt. eigenvalues --   13.79497
          Condensed to atoms (all electrons):
 Mulliken charges:
               1
     1  C   -0.377368
     2  C   -0.155340
     3  C   -0.167313
     4  C   -0.169675
     5  C   -0.288201
     6  C    0.195005
     7  O   -0.323249
     8  C    0.127190
     9  C   -0.129391
    10  O   -0.276933
    11  C    0.173995
    12  C   -0.389374
    13  C   -0.395992
    14  C   -0.004362
    15  C   -0.419990
    16  C   -0.281989
    17  C    0.345167
    18  C   -0.467848
    19  C   -0.374010
    20  C   -0.130351
    21  H    0.104842
    22  H    0.110548
    23  H    0.111409
    24  H    0.091756
    25  H    0.092259
    26  H    0.093225
    27  H    0.090991
    28  H    0.097281
    29  H    0.098131
    30  H    0.097071
    31  H    0.095735
    32  H    0.094850
    33  H    0.081665
    34  H    0.101999
    35  H    0.088925
    36  H    0.066043
    37  H    0.121273
    38  H    0.119904
    39  H    0.110517
    40  H    0.122353
    41  H    0.115539
    42  H    0.116255
    43  H    0.087007
    44  H    0.135785
    45  H    0.106270
    46  H    0.122242
    47  H    0.113392
    48  H    0.081600
    49  H    0.111500
    50  H    0.113319
    51  H    0.105184
    52  H    0.116152
    53  H    0.099701
    54  H    0.095307
 Sum of Mulliken charges =  -0.00000
 Mulliken charges with hydrogens summed into heavy atoms:
               1
     1  C   -0.050570
     2  C    0.028676
     3  C    0.016904
     4  C    0.025738
     5  C   -0.095396
     6  C    0.289855
     7  O   -0.323249
     8  C    0.208856
     9  C    0.061533
    10  O   -0.276933
    11  C    0.240038
    12  C   -0.037680
    13  C   -0.041846
    14  C    0.082644
    15  C   -0.055693
    16  C   -0.086998
    17  C    0.345167
    18  C   -0.137846
    19  C   -0.158157
    20  C   -0.035044
 Electronic spatial extent (au):  <R**2>=           9691.2509
 Charge=             -0.0000 electrons
 Dipole moment (field-independent basis, Debye):
    X=              0.3894    Y=              0.2333    Z=              0.5298  Tot=              0.6977
 Quadrupole moment (field-independent basis, Debye-Ang):
   XX=           -121.2535   YY=           -127.8524   ZZ=           -125.3657
   XY=             -4.0658   XZ=              1.6301   YZ=             -0.3653
 Traceless Quadrupole moment (field-independent basis, Debye-Ang):
   XX=              3.5703   YY=             -3.0285   ZZ=             -0.5418
   XY=             -4.0658   XZ=              1.6301   YZ=             -0.3653
 Octapole moment (field-independent basis, Debye-Ang**2):
  XXX=             76.1435  YYY=             -9.8605  ZZZ=             -1.9257  XYY=             14.6972
  XXY=            -18.0056  XXZ=             -0.2220  XZZ=              5.3817  YZZ=              0.2313
  YYZ=             -0.5585  XYZ=             -1.3470
 Hexadecapole moment (field-independent basis, Debye-Ang**3):
 XXXX=         -10357.7173 YYYY=          -2036.3438 ZZZZ=           -775.0443 XXXY=           -185.2162
 XXXZ=             46.1992 YYYX=             -9.6084 YYYZ=              0.6537 ZZZX=             -2.6882
 ZZZY=             -2.5203 XXYY=          -2063.6641 XXZZ=          -1849.2612 YYZZ=           -459.8717
 XXYZ=              3.1034 YYXZ=             18.9191 ZZXY=             -0.8664
 N-N= 1.691549473628D+03 E-N=-5.371869258414D+03  KE= 8.499720504269D+02
 PrsmSu:  requested number of processors reduced to:  12 ShMem   1 Linda.
 Calling FoFJK, ICntrl=      2127 FMM=F ISym2X=0 I1Cent= 0 IOpClX= 0 NMat=1 NMatS=1 NMatT=0.
 ***** Axes restored to original set *****
 -------------------------------------------------------------------
 Center     Atomic                   Forces (Hartrees/Bohr)
 Number     Number              X              Y              Z
 -------------------------------------------------------------------
      1        6          -0.004966584    0.002053496   -0.006360656
      2        6          -0.005779289   -0.001277868    0.004145893
      3        6           0.007101397    0.002104184   -0.008688993
      4        6          -0.002021863   -0.005259714    0.006347899
      5        6          -0.002694103   -0.010680522    0.004889625
      6        6           0.001910532    0.006066200    0.025094162
      7        8          -0.005655062   -0.009253079    0.013138538
      8        6           0.002655951   -0.002352057    0.003288328
      9        6          -0.000289614   -0.004471309    0.000451548
     10        8          -0.012447383    0.003012126   -0.003612887
     11        6           0.007556463   -0.003960693   -0.005456387
     12        6          -0.007070258   -0.005859178    0.000606310
     13        6           0.001037046    0.008250067   -0.003997041
     14        6           0.008856072    0.001814283   -0.000470062
     15        6          -0.002314522    0.002885368   -0.000765544
     16        6          -0.004007196    0.009038065    0.012710323
     17        6          -0.001285753   -0.016971434   -0.039342757
     18        6           0.009386253    0.008486887   -0.001027838
     19        6          -0.007873762    0.001477861    0.004331271
     20        6           0.029661797    0.001010303   -0.001081918
     21        1          -0.004053295    0.000215291    0.000179241
     22        1          -0.002084616   -0.000041632    0.000145418
     23        1          -0.001770931    0.000214316    0.000176587
     24        1           0.001508866   -0.000100487   -0.000406736
     25        1           0.001631697    0.000430187   -0.000163631
     26        1          -0.001107419   -0.000543699    0.000421813
     27        1          -0.000368881   -0.000610886    0.000524888
     28        1           0.001321266   -0.001438032   -0.002199570
     29        1           0.000191111    0.001508576   -0.004410342
     30        1           0.001832705   -0.005458517   -0.007579725
     31        1           0.003736159   -0.004729109   -0.002155300
     32        1           0.007215317    0.015302407    0.011807765
     33        1           0.006384714    0.007738481   -0.001396030
     34        1          -0.003448388   -0.001689837    0.001684148
     35        1          -0.001971951    0.000141274    0.005287500
     36        1          -0.003580840   -0.000951126    0.003523035
     37        1           0.001922856    0.001208548    0.001628885
     38        1          -0.000010691   -0.001401239    0.001966369
     39        1           0.001426320   -0.000694667    0.000665153
     40        1          -0.002046638   -0.001726683    0.000180580
     41        1          -0.001789249    0.000333556   -0.001078860
     42        1          -0.001174656   -0.000128270    0.000757022
     43        1           0.000627725   -0.008298432    0.000209578
     44        1           0.000811462   -0.007067323   -0.000616140
     45        1           0.004752906   -0.002485487    0.008273059
     46        1          -0.000773839    0.002188928    0.000405874
     47        1          -0.003898232   -0.000849288    0.002066416
     48        1          -0.006388916    0.000610218   -0.007337897
     49        1          -0.003717968   -0.001415989   -0.004506889
     50        1          -0.001030152    0.000100846   -0.004584917
     51        1          -0.006512437   -0.001920564   -0.005489656
     52        1           0.016847268   -0.003824241    0.009207210
     53        1          -0.006780536   -0.003181233   -0.003040247
     54        1          -0.009460861    0.032451128   -0.008344416
 -------------------------------------------------------------------
 Cartesian Forces:  Max     0.039342757 RMS     0.007116049

 GradGradGradGradGradGradGradGradGradGradGradGradGradGradGradGradGradGrad
 Berny optimization.
 FormGI is forming the generalized inverse of G from B-inverse, IUseBI=4.
 Internal  Forces:  Max     0.026827222 RMS     0.006012186
 Search for a local minimum.
 Step number   1 out of a maximum of  322
 All quantities printed in internal units (Hartrees-Bohrs-Radians)
 Mixed Optimization -- RFO/linear search
 Second derivative matrix not updated -- first step.
 ITU=  0
     Eigenvalues ---    0.00230   0.00230   0.00375   0.00377   0.00432
     Eigenvalues ---    0.00459   0.00464   0.00568   0.00571   0.00636
     Eigenvalues ---    0.00693   0.00839   0.01101   0.01124   0.01325
     Eigenvalues ---    0.01356   0.01423   0.01961   0.02173   0.02941
     Eigenvalues ---    0.03126   0.03129   0.03351   0.03436   0.03760
     Eigenvalues ---    0.03805   0.03821   0.03924   0.04417   0.04449
     Eigenvalues ---    0.04639   0.04794   0.04885   0.04977   0.04980
     Eigenvalues ---    0.04981   0.05004   0.05134   0.05160   0.05224
     Eigenvalues ---    0.05237   0.05448   0.05459   0.05496   0.05508
     Eigenvalues ---    0.05521   0.05636   0.05717   0.05779   0.05983
     Eigenvalues ---    0.06067   0.06255   0.07042   0.07254   0.07819
     Eigenvalues ---    0.07929   0.08123   0.08264   0.08520   0.08754
     Eigenvalues ---    0.08913   0.09450   0.09880   0.11054   0.11413
     Eigenvalues ---    0.11800   0.12028   0.12134   0.12493   0.12623
     Eigenvalues ---    0.13628   0.14060   0.15610   0.16000   0.16000
     Eigenvalues ---    0.16000   0.16000   0.16000   0.16000   0.16000
     Eigenvalues ---    0.16000   0.16000   0.16000   0.16000   0.16000
     Eigenvalues ---    0.16000   0.16000   0.16000   0.16150   0.17500
     Eigenvalues ---    0.17611   0.19659   0.19754   0.19831   0.20394
     Eigenvalues ---    0.21825   0.21850   0.21889   0.21963   0.22050
     Eigenvalues ---    0.22579   0.23657   0.25000   0.26332   0.27904
     Eigenvalues ---    0.28236   0.28301   0.28641   0.29463   0.29478
     Eigenvalues ---    0.29516   0.29868   0.30060   0.30094   0.30857
     Eigenvalues ---    0.30876   0.31089   0.31804   0.32820   0.33116
     Eigenvalues ---    0.33493   0.33772   0.33882   0.33953   0.33970
     Eigenvalues ---    0.33991   0.34050   0.34065   0.34109   0.34118
     Eigenvalues ---    0.34134   0.34148   0.34185   0.34212   0.34226
     Eigenvalues ---    0.34296   0.34302   0.34340   0.34345   0.34385
     Eigenvalues ---    0.34389   0.34411   0.34441   0.34464   0.34491
     Eigenvalues ---    0.34572   0.34588   0.35177   0.35356   0.36602
     Eigenvalues ---    0.37681   0.39071   0.39190   0.40327   0.40947
     Eigenvalues ---    0.41322
 RFO step:  Lambda=-5.91335095D-02 EMin= 2.30000000D-03
 Linear search not attempted -- first point.
 Maximum step size (   0.300) exceeded in Quadratic search.
    -- Step size scaled by   0.813
 Iteration  1 RMS(Cart)=  0.10866145 RMS(Int)=  0.00214297
 Iteration  2 RMS(Cart)=  0.00527796 RMS(Int)=  0.00054018
 Iteration  3 RMS(Cart)=  0.00000974 RMS(Int)=  0.00054016
 Iteration  4 RMS(Cart)=  0.00000001 RMS(Int)=  0.00054016
 Variable       Old X    -DE/DX   Delta X   Delta X   Delta X     New X
                                 (Linear)    (Quad)   (Total)
    R1        2.86250   0.01295   0.00000   0.02862   0.02862   2.89111
    R2        2.06643   0.00124   0.00000   0.00250   0.00250   2.06893
    R3        2.06753   0.00082   0.00000   0.00165   0.00165   2.06917
    R4        2.06834   0.00048   0.00000   0.00098   0.00098   2.06932
    R5        2.88227   0.00783   0.00000   0.01779   0.01779   2.90007
    R6        2.07220   0.00054   0.00000   0.00109   0.00109   2.07329
    R7        2.07245   0.00038   0.00000   0.00077   0.00077   2.07322
    R8        2.87776   0.00968   0.00000   0.02186   0.02186   2.89962
    R9        2.07131   0.00100   0.00000   0.00204   0.00204   2.07335
   R10        2.07409   0.00006   0.00000   0.00013   0.00013   2.07422
   R11        2.86287   0.01188   0.00000   0.02628   0.02628   2.88915
   R12        2.07380  -0.00043   0.00000  -0.00087  -0.00087   2.07293
   R13        2.06679   0.00242   0.00000   0.00489   0.00489   2.07168
   R14        2.91484   0.00949   0.00000   0.02256   0.02256   2.93740
   R15        2.06824   0.00242   0.00000   0.00490   0.00490   2.07313
   R16        2.09368  -0.00563   0.00000  -0.01182  -0.01182   2.08186
   R17        2.69139   0.00250   0.00000   0.00046   0.00099   2.69238
   R18        2.85248   0.02683   0.00000   0.05578   0.05634   2.90882
   R19        1.99535   0.01858   0.00000   0.03360   0.03360   2.02895
   R20        2.68908  -0.00650   0.00000  -0.01039  -0.01037   2.67871
   R21        2.89017   0.00080   0.00000   0.00184   0.00184   2.89201
   R22        2.93353   0.00599   0.00000   0.02076   0.02054   2.95406
   R23        2.06685   0.00191   0.00000   0.00385   0.00385   2.07070
   R24        2.72670  -0.01686   0.00000  -0.03040  -0.03040   2.69630
   R25        2.06510   0.00205   0.00000   0.00413   0.00413   2.06923
   R26        2.06593   0.00526   0.00000   0.01059   0.01059   2.07652
   R27        2.69796  -0.00005   0.00000  -0.00008  -0.00008   2.69788
   R28        2.87843   0.00671   0.00000   0.01518   0.01518   2.89361
   R29        2.89047  -0.00284   0.00000  -0.00654  -0.00654   2.88393
   R30        2.07019   0.00427   0.00000   0.00867   0.00867   2.07886
   R31        2.07104  -0.00076   0.00000  -0.00154  -0.00154   2.06950
   R32        2.06554   0.00017   0.00000   0.00034   0.00034   2.06588
   R33        2.06349   0.00135   0.00000   0.00272   0.00272   2.06620
   R34        2.07147  -0.00078   0.00000  -0.00159  -0.00159   2.06988
   R35        2.07081  -0.00165   0.00000  -0.00336  -0.00336   2.06745
   R36        2.06951  -0.00022   0.00000  -0.00044  -0.00044   2.06907
   R37        2.92348  -0.00293   0.00000  -0.00705  -0.00705   2.91644
   R38        2.86680   0.01970   0.00000   0.04698   0.04640   2.91319
   R39        2.06974  -0.00016   0.00000  -0.00032  -0.00032   2.06942
   R40        2.07345  -0.00278   0.00000  -0.00566  -0.00566   2.06779
   R41        2.06375   0.00327   0.00000   0.00657   0.00657   2.07032
   R42        2.06760  -0.00014   0.00000  -0.00028  -0.00028   2.06732
   R43        2.89930   0.01854   0.00000   0.04465   0.04423   2.94353
   R44        2.07530  -0.00285   0.00000  -0.00583  -0.00583   2.06947
   R45        2.08195  -0.00319   0.00000  -0.00658  -0.00658   2.07537
   R46        2.84503   0.01111   0.00000   0.02395   0.02395   2.86898
   R47        2.86763  -0.01457   0.00000  -0.02720  -0.02588   2.84175
   R48        3.08967  -0.02023   0.00000  -0.07008  -0.07048   3.01920
   R49        2.08848  -0.00475   0.00000  -0.00989  -0.00989   2.07859
   R50        2.07716  -0.00135   0.00000  -0.00276  -0.00276   2.07440
   R51        2.05101   0.00619   0.00000   0.01219   0.01219   2.06320
   R52        2.88818   0.00537   0.00000   0.01143   0.01072   2.89890
   R53        2.01532   0.01472   0.00000   0.02745   0.02745   2.04277
   R54        2.05388   0.00150   0.00000   0.00297   0.00297   2.05685
   R55        2.03151   0.00787   0.00000   0.01506   0.01506   2.04657
    A1        1.92279   0.00497   0.00000   0.01927   0.01920   1.94199
    A2        1.93301   0.00138   0.00000   0.00463   0.00460   1.93761
    A3        1.93068   0.00111   0.00000   0.00378   0.00374   1.93442
    A4        1.89342  -0.00305   0.00000  -0.01066  -0.01073   1.88269
    A5        1.89046  -0.00276   0.00000  -0.00926  -0.00932   1.88114
    A6        1.89238  -0.00193   0.00000  -0.00877  -0.00877   1.88361
    A7        1.93735   0.00968   0.00000   0.03046   0.03045   1.96779
    A8        1.91602  -0.00246   0.00000  -0.00526  -0.00520   1.91081
    A9        1.90712  -0.00177   0.00000  -0.00101  -0.00100   1.90613
   A10        1.91942  -0.00339   0.00000  -0.01124  -0.01130   1.90811
   A11        1.91345  -0.00334   0.00000  -0.00994  -0.01009   1.90337
   A12        1.86920   0.00092   0.00000  -0.00431  -0.00442   1.86478
   A13        1.90729   0.01580   0.00000   0.04915   0.04916   1.95645
   A14        1.91937  -0.00468   0.00000  -0.01170  -0.01187   1.90750
   A15        1.92227  -0.00482   0.00000  -0.01389  -0.01388   1.90838
   A16        1.91703  -0.00397   0.00000  -0.00806  -0.00815   1.90888
   A17        1.92620  -0.00493   0.00000  -0.01407  -0.01404   1.91216
   A18        1.87153   0.00214   0.00000  -0.00291  -0.00316   1.86837
   A19        1.95700   0.00356   0.00000   0.01291   0.01287   1.96987
   A20        1.90216  -0.00034   0.00000  -0.00113  -0.00113   1.90103
   A21        1.90156  -0.00217   0.00000  -0.00681  -0.00695   1.89461
   A22        1.91858  -0.00171   0.00000  -0.00586  -0.00584   1.91274
   A23        1.89447   0.00161   0.00000   0.01182   0.01182   1.90629
   A24        1.88880  -0.00112   0.00000  -0.01182  -0.01182   1.87698
   A25        1.99396   0.01035   0.00000   0.02872   0.02864   2.02259
   A26        1.96526  -0.00624   0.00000  -0.02690  -0.02674   1.93852
   A27        1.86802  -0.00014   0.00000   0.01025   0.01012   1.87814
   A28        1.96902  -0.00433   0.00000  -0.01924  -0.01915   1.94987
   A29        1.85211  -0.00343   0.00000  -0.00541  -0.00577   1.84634
   A30        1.79718   0.00343   0.00000   0.01458   0.01466   1.81184
   A31        1.92328  -0.00621   0.00000  -0.03319  -0.03530   1.88798
   A32        2.14875  -0.01101   0.00000  -0.04680  -0.04873   2.10002
   A33        1.62908   0.01314   0.00000   0.08475   0.08678   1.71585
   A34        2.08566   0.01122   0.00000   0.02749   0.02572   2.11138
   A35        1.86010  -0.00328   0.00000  -0.01649  -0.01678   1.84331
   A36        1.69802   0.00021   0.00000   0.02635   0.02780   1.72582
   A37        1.99817  -0.00956   0.00000  -0.02455  -0.02432   1.97385
   A38        1.96078  -0.01713   0.00000  -0.06224  -0.06186   1.89893
   A39        2.03147   0.00509   0.00000   0.01625   0.01564   2.04712
   A40        1.83402   0.00256   0.00000   0.01164   0.01263   1.84665
   A41        1.92611   0.01303   0.00000   0.03925   0.04005   1.96616
   A42        1.77086   0.00578   0.00000   0.03638   0.03678   1.80764
   A43        1.91957  -0.01006   0.00000  -0.04101  -0.04179   1.87778
   A44        1.89634  -0.01131   0.00000  -0.03289  -0.03283   1.86352
   A45        1.88096   0.00346   0.00000   0.01255   0.01263   1.89359
   A46        1.93463   0.00383   0.00000   0.01033   0.01024   1.94487
   A47        1.91620   0.00454   0.00000   0.01693   0.01704   1.93325
   A48        1.92759   0.00242   0.00000   0.00228   0.00227   1.92986
   A49        1.90750  -0.00288   0.00000  -0.00878  -0.00888   1.89862
   A50        1.98120   0.00990   0.00000   0.02604   0.02604   2.00724
   A51        1.92696   0.00812   0.00000   0.03356   0.03385   1.96082
   A52        1.90413  -0.01149   0.00000  -0.04036  -0.04067   1.86345
   A53        1.89576   0.00108   0.00000   0.00092   0.00077   1.89653
   A54        1.90870   0.00569   0.00000   0.01919   0.01941   1.92811
   A55        1.93669  -0.00522   0.00000  -0.01665  -0.01667   1.92003
   A56        1.89097   0.00147   0.00000   0.00195   0.00187   1.89284
   A57        1.92694  -0.00215   0.00000  -0.00820  -0.00824   1.91870
   A58        1.94528   0.00275   0.00000   0.01244   0.01245   1.95773
   A59        1.94144  -0.00056   0.00000  -0.00413  -0.00416   1.93728
   A60        1.86408   0.00121   0.00000   0.00846   0.00847   1.87255
   A61        1.90870  -0.00016   0.00000  -0.00486  -0.00493   1.90377
   A62        1.87496  -0.00101   0.00000  -0.00331  -0.00330   1.87166
   A63        1.94482  -0.00256   0.00000  -0.00929  -0.00932   1.93550
   A64        1.93104  -0.00140   0.00000  -0.00616  -0.00619   1.92485
   A65        1.94371  -0.00048   0.00000  -0.00102  -0.00102   1.94270
   A66        1.88899   0.00156   0.00000   0.00433   0.00428   1.89327
   A67        1.86336   0.00228   0.00000   0.01029   0.01030   1.87366
   A68        1.88928   0.00086   0.00000   0.00285   0.00284   1.89212
   A69        2.11202  -0.00302   0.00000  -0.01558  -0.01561   2.09641
   A70        1.82836   0.00716   0.00000   0.02969   0.02846   1.85682
   A71        1.88241  -0.00326   0.00000  -0.02174  -0.02166   1.86076
   A72        1.97971  -0.00523   0.00000  -0.00989  -0.00881   1.97090
   A73        1.80115   0.00116   0.00000  -0.00209  -0.00271   1.79844
   A74        1.84216   0.00381   0.00000   0.02243   0.02270   1.86486
   A75        2.03222  -0.00532   0.00000  -0.01688  -0.01686   2.01536
   A76        1.92356  -0.00536   0.00000  -0.01873  -0.01873   1.90482
   A77        1.93887   0.00399   0.00000   0.01080   0.01081   1.94968
   A78        1.75985   0.00832   0.00000   0.03856   0.03857   1.79842
   A79        1.89325   0.00005   0.00000  -0.00133  -0.00130   1.89194
   A80        1.90599  -0.00141   0.00000  -0.01104  -0.01104   1.89495
   A81        2.01115   0.00667   0.00000   0.04382   0.04289   2.05404
   A82        1.91747  -0.00561   0.00000  -0.03999  -0.03925   1.87821
   A83        1.86844   0.00354   0.00000   0.02564   0.02608   1.89452
   A84        1.90207  -0.00194   0.00000  -0.02213  -0.02203   1.88005
   A85        1.94699  -0.00631   0.00000  -0.02658  -0.02698   1.92000
   A86        1.80658   0.00326   0.00000   0.01619   0.01607   1.82265
   A87        1.89786   0.02130   0.00000   0.06927   0.06982   1.96768
   A88        1.95888  -0.01213   0.00000  -0.02909  -0.02889   1.92999
   A89        2.18173  -0.01197   0.00000  -0.04206  -0.04286   2.13887
   A90        2.15977  -0.00600   0.00000  -0.02105  -0.02176   2.13801
   A91        2.10917  -0.01008   0.00000  -0.03328  -0.03282   2.07635
   A92        1.90807   0.00483   0.00000   0.02304   0.02295   1.93102
   A93        1.90833   0.00370   0.00000   0.01254   0.01224   1.92058
   A94        2.02311  -0.00617   0.00000  -0.02712  -0.02711   1.99601
   A95        1.83244  -0.00035   0.00000   0.00801   0.00759   1.84003
   A96        1.85737   0.00076   0.00000   0.00427   0.00446   1.86183
   A97        1.92432  -0.00223   0.00000  -0.01702  -0.01718   1.90714
   A98        2.14663   0.00773   0.00000   0.00256   0.00303   2.14965
   A99        2.02939  -0.00747   0.00000  -0.01235  -0.01269   2.01669
   A100       2.06053   0.00660   0.00000   0.03710   0.03651   2.09704
   A101       2.01482  -0.00277   0.00000  -0.01889  -0.01860   1.99622
   A102       1.94929   0.00019   0.00000   0.00651   0.00639   1.95568
   A103       1.96826   0.00817   0.00000   0.03396   0.03517   2.00343
   A104       2.41501  -0.00656   0.00000  -0.02411  -0.02367   2.39134
   A105       1.91820   0.00465   0.00000   0.01036   0.00868   1.92687
   A106       2.26989  -0.01434   0.00000  -0.07460  -0.07493   2.19497
   A107       1.80313   0.00172   0.00000   0.02366   0.02542   1.82855
    D1       -3.12706  -0.00022   0.00000  -0.00212  -0.00214  -3.12920
    D2        1.03037  -0.00069   0.00000  -0.00456  -0.00457   1.02580
    D3       -1.01471   0.00065   0.00000   0.00428   0.00432  -1.01039
    D4        1.06129  -0.00053   0.00000  -0.00431  -0.00435   1.05693
    D5       -1.06447  -0.00100   0.00000  -0.00675  -0.00679  -1.07126
    D6       -3.10955   0.00033   0.00000   0.00208   0.00210  -3.10744
    D7       -1.03740   0.00025   0.00000   0.00117   0.00116  -1.03624
    D8        3.12003  -0.00022   0.00000  -0.00127  -0.00127   3.11876
    D9        1.07495   0.00112   0.00000   0.00756   0.00762   1.08257
   D10        3.09456   0.00083   0.00000   0.00703   0.00704   3.10160
   D11        0.98900  -0.00132   0.00000  -0.00670  -0.00666   0.98234
   D12       -1.06991   0.00182   0.00000   0.01239   0.01234  -1.05757
   D13       -1.06486   0.00187   0.00000   0.01303   0.01298  -1.05188
   D14        3.11276  -0.00028   0.00000  -0.00070  -0.00071   3.11205
   D15        1.05385   0.00286   0.00000   0.01840   0.01829   1.07214
   D16        0.98594  -0.00100   0.00000  -0.00478  -0.00472   0.98122
[...]
 772,-0.00000831,-0.00001048,0.00000108,0.00000949,0.00000314,-0.000020
 35,0.00000606,-0.00000868,0.00004036,0.00000461,-0.00001262,-0.0000054
 6,0.00000388,-0.00001436,0.00000233,-0.00000813,0.00000953,-0.00000956
 ,0.00002702,0.00000699,0.00002036,0.00000565,0.00002109,-0.00001241,-0
 .00000870,-0.00000577,-0.00000984,0.00000203,-0.00000139,-0.00000366,-
 0.00000008,-0.00000010,0.00000137,-0.00000095,-0.00000078,0.00000312,0
 .00000053,0.00000379,-0.00000528,0.,-0.00000027,0.00000169,0.00000078,
 0.00000421,-0.00000609,0.00000279,0.00000476,0.00000718,0.00000022,0.0
 0001222,-0.00001933,-0.00009536,-0.00003432,-0.00003165,0.00022521,0.0
 0012233,0.00012277,0.00005606,0.00014286,-0.00003161,-0.00011760,0.000
 36707,-0.00022578,0.00015556,-0.00009350,0.00003760,0.01363760,-0.0078
 8466,0.00861517,-0.02269086,0.01248380,-0.01308478,0.10689047,-0.05761
 481,0.11230150,0.00000356,-0.00000945,0.00000524,0.00000114,0.00002273
 ,-0.00001148,0.00002017,-0.00005308,0.00006141,-0.00012564,0.00012916,
 -0.00022291,0.00000388,0.00019106,0.00059407,0.00063529,0.00042527,-0.
 00261525,-0.00013476,-0.00099255,-0.00048861,0.00056848,0.00010158,0.0
 0003909,-0.00006793,-0.00002105,-0.00003621,-0.00004672,0.00000613,-0.
 00008449,-0.00001580,0.00000369,0.00000441,0.00000449,-0.00000181,0.00
 000043,0.00000576,0.00000365,-0.00000607,0.00022638,0.00025211,0.00006
 927,-0.00009558,-0.00009154,0.00007117,0.00151753,-0.00096785,0.001994
 82,0.00578371,-0.02288045,-0.00193631,-0.00044177,-0.00150246,-0.00512
 671,-0.05732775,0.07922824,0.01132030,-0.00824341,0.02352024,0.0022058
 0,0.00000935,-0.00000047,0.00000063,-0.00000262,0.00000016,-0.00000045
 ,-0.00000364,0.00000008,-0.00000356,0.00001033,-0.00000560,-0.00000664
 ,0.00000460,-0.00000402,0.00001092,-0.00002683,-0.00002031,-0.00003365
 ,-0.00002226,-0.00002252,-0.00000833,0.00009017,-0.00006482,-0.0000500
 3,0.00008666,-0.00003016,0.00010540,-0.00045761,-0.00036994,-0.0002094
 6,0.00004425,-0.00014129,-0.00019721,0.00013698,0.00022937,-0.00034446
 ,-0.00004165,0.00004927,-0.00001316,-0.00001296,-0.00002586,0.00002708
 ,-0.00001768,0.00001285,0.00002050,0.00000032,0.00000084,0.00000082,-0
 .00000081,0.00000072,-0.00000008,-0.00000279,-0.00000198,-0.00000066,-
 0.00000027,0.00000036,-0.00000038,-0.00000138,0.00000184,-0.00000077,-
 0.00000346,-0.00000177,-0.00000059,-0.00000120,-0.00000343,-0.00000242
 ,-0.00006771,-0.00009842,0.00005469,-0.00004795,0.00000989,-0.00003095
 ,0.00004150,-0.00000865,0.00002089,-0.00001474,0.00005434,0.00005396,-
 0.00053753,0.00077709,0.00015758,0.00026112,-0.00009712,0.00012805,-0.
 00005197,0.00013016,0.00012922,-0.00046629,-0.00188313,0.00005085,0.00
 002478,0.00004383,-0.00006474,0.06120920,0.00000059,-0.00000321,-0.000
 00327,0.00000137,0.00000273,0.00000861,0.00001425,-0.00001597,-0.00001
 569,0.00002060,0.00004461,0.00008813,0.00005838,0.00004585,-0.00034167
 ,0.00045418,-0.00135401,0.00044372,-0.00118587,-0.00011304,0.00121011,
 0.00023140,0.00010896,0.00012088,0.00001431,-0.00005064,-0.00001022,-0
 .00002143,0.00001460,-0.00002308,-0.00000199,-0.00001348,0.00001690,0.
 00000213,0.00000089,-0.00000096,0.00000113,-0.00000094,-0.00000204,-0.
 00000985,0.00018797,-0.00005260,0.00004512,-0.00010148,0.00011180,0.00
 128259,0.00045387,0.00193575,0.00457111,-0.01169500,-0.00165236,0.0003
 7238,-0.00010029,-0.00283924,0.07849432,-0.30336269,-0.04697390,-0.001
 57798,0.00326583,-0.00210595,0.00000196,0.00000016,0.00000083,0.000000
 45,0.00000099,-0.00000007,0.00000084,0.00000151,0.00000236,-0.00000183
 ,0.00000131,0.00000164,0.00000049,-0.00000079,-0.00000289,0.00000617,0
 .00000486,0.00000901,-0.00000067,0.00000045,0.00000320,-0.00003525,0.0
 0002086,0.00000233,-0.00000759,0.00000096,-0.00000571,-0.00007558,0.00
 005534,0.00008923,0.00008801,0.00004677,-0.00001580,0.00018907,0.00011
 534,-0.00020241,-0.00000915,0.00003570,-0.00001911,-0.00001079,-0.0000
 0243,0.00001114,-0.00001016,0.00001107,0.00000777,-0.00000165,0.000001
 59,0.00000001,-0.00000143,0.00000122,0.00000040,-0.00000060,-0.0000013
 4,0.00000047,0.00000008,0.00000081,-0.00000133,-0.00000144,0.00000137,
 0.00000014,-0.00000084,0.00000025,-0.00000163,0.00000134,0.00000076,0.
 00000064,-0.00000683,0.00000206,0.00000593,-0.00006591,0.00000380,0.00
 000033,0.00002138,0.00000989,0.00001153,-0.00003131,0.00005644,0.00003
 013,-0.00088796,0.00093449,-0.00025048,0.00017171,0.00024061,0.0003716
 8,-0.00003738,0.00003368,0.00011139,-0.00039825,-0.00079594,0.00005535
 ,-0.00003704,0.00029446,0.00005117,-0.08296385,0.32144333,-0.00000222,
 0.00000458,0.00000339,-0.00000594,-0.00000909,-0.00000659,-0.00001733,
 0.00004380,-0.00000502,-0.00001112,-0.00005393,0.00004598,0.00000023,0
 .00046666,-0.00037412,0.00189721,-0.00074232,0.00192248,-0.00001197,0.
 00047673,0.00079453,-0.00098409,-0.00001135,-0.00064081,0.00015039,0.0
 0006786,-0.00004193,0.00001918,-0.00003000,0.00029092,0.00005790,0.000
 02352,-0.00010053,-0.00000910,-0.00000383,0.00001700,-0.00001186,-0.00
 001478,0.00002253,0.00012630,-0.00006591,0.00004883,0.00020106,-0.0000
 4802,-0.00006926,0.00030873,-0.00162216,0.00122955,0.00488305,-0.01156
 973,-0.00551443,0.00055693,0.00048899,-0.00211673,0.01046094,-0.042725
 24,-0.05621142,0.00341331,-0.01932820,-0.00504718,-0.00000300,-0.00000
 074,-0.00000138,-0.00000005,-0.00000092,0.00000016,0.00000035,-0.00000
 021,-0.00000121,-0.00000117,-0.00000181,0.00000164,0.00000043,-0.00000
 128,-0.00000101,0.00000530,0.00000437,0.00000256,0.00000778,0.00000398
 ,0.00000306,-0.00003332,0.00000740,0.00001749,-0.00003019,0.00002605,-
 0.00005158,0.00020312,0.00009780,0.00010824,0.00016393,0.00015079,0.00
 010991,-0.00036319,0.00001151,0.00029150,0.00002054,0.00001116,-0.0000
 2427,0.00002112,0.00002563,-0.00002664,-0.00002232,0.00000387,0.000029
 08,-0.00001065,-0.00000088,0.00001028,0.00000104,0.00000094,-0.0000032
 3,0.00000809,0.00000811,-0.00000441,-0.00000063,-0.00000734,0.00000979
 ,0.00000148,0.00000087,-0.00000270,0.00000776,0.00000155,0.00001196,0.
 00000166,0.00000325,-0.00000193,0.00003367,0.00006839,0.00001240,-0.00
 012837,0.00001684,0.00010505,0.00000315,0.00004103,0.00002527,-0.00007
 760,0.00002191,-0.00002983,-0.00072691,0.00037203,0.00015434,-0.000292
 85,0.00022143,-0.00008880,-0.00015884,0.00007013,0.00015391,-0.0000183
 4,-0.00074837,0.00040876,0.00021812,-0.00029874,0.00002328,-0.01287225
 ,0.05298436,0.06042087,-0.00000911,0.00001088,-0.00000296,-0.00001835,
 -0.00003468,0.00000955,-0.00004343,0.00007965,-0.00001832,0.00003246,-
 0.00023951,0.00010463,0.00031662,0.00023905,0.00004749,-0.00002040,0.0
 0314780,0.00418317,0.00060023,0.00006241,-0.00013545,-0.00058229,-0.00
 031465,-0.00029076,-0.00006456,0.00012531,0.00009555,0.00011456,-0.000
 00510,0.00001271,0.00000443,0.00000253,0.00002271,0.00000080,0.0000026
 0,-0.00000769,-0.00000356,-0.00000643,0.00000071,-0.00128047,0.0001706
 5,-0.00020565,-0.00006340,0.00020296,0.00006381,0.00052137,-0.00161826
 ,-0.00356408,-0.00677793,0.01598513,-0.01391988,0.00099133,0.00202190,
 0.00246696,-0.05609267,0.04424981,-0.06226848,0.00682285,-0.01691417,0
 .01697859,-0.00000196,-0.00000289,-0.00000065,0.00000420,0.00000419,-0
 .00000205,-0.00000151,-0.00000312,-0.00000103,0.00000448,0.00000047,-0
 .00000586,-0.00000796,0.00001592,-0.00000886,-0.00000882,-0.00002260,-
 0.00000519,0.00002694,0.00002036,-0.00000805,0.00003367,0.00001956,-0.
 00004285,-0.00004256,0.00011651,-0.00002534,-0.00003769,-0.00012253,-0
 .00011633,-0.00005457,-0.00004523,-0.00005758,-0.00064466,-0.00122466,
 0.00111598,0.00007954,-0.00003141,0.00003257,0.00003019,0.00002380,-0.
 00004781,0.00005091,-0.00004765,-0.00006900,0.00000285,-0.00000192,-0.
 00000772,0.00000061,-0.00000139,0.00000114,0.00000025,0.00000111,0.000
 00190,0.00000059,0.00000281,-0.00000268,0.00000167,-0.00000222,0.00000
 239,0.00000282,0.00000337,-0.00000311,0.00000062,0.00000466,0.00000559
 ,0.00009101,0.00022260,-0.00043180,0.00003396,-0.00011512,-0.00003178,
 0.00001428,0.00000726,0.00002084,0.00005547,-0.00006039,-0.00006485,0.
 00011481,-0.00027749,-0.00008543,-0.00043155,0.00004992,-0.00047693,-0
 .00026490,-0.00025422,0.00003296,0.00021626,0.00041762,0.00028501,0.00
 030199,-0.00045749,0.00025735,-0.00242944,0.00224638,-0.00612751,0.057
 85544,-0.00000641,0.00000980,0.00000331,-0.00001333,-0.00002563,-0.000
 00109,-0.00002150,0.00005792,0.00001973,-0.00001221,-0.00009875,0.0000
 7225,0.00005194,0.00015030,0.00011488,0.00020315,-0.00064595,0.0002834
 1,-0.00038576,0.00025418,0.00103196,-0.00047435,-0.00009989,-0.0002901
 5,0.00005020,0.00004670,-0.00002727,0.00003476,-0.00001971,0.00015237,
 0.00003037,0.00001606,-0.00005355,-0.00000419,-0.00000305,0.00000699,-
 0.00000546,-0.00000723,0.00001140,-0.00059424,0.00017042,-0.00016416,0
 .00002650,0.00007683,0.00004494,0.00093187,-0.00088481,-0.00166848,-0.
 00318794,0.00749125,-0.01279358,-0.00072189,0.00141324,0.00023400,0.04
 469707,-0.13436029,0.12472611,0.00024111,-0.00182020,-0.00447236,-0.00
 000388,-0.00000156,-0.00000124,0.00000239,0.00000191,-0.00000277,-0.00
 000229,-0.00000522,-0.00000354,0.00000506,-0.00000118,-0.00000745,-0.0
 0000449,0.00001298,-0.00000127,-0.00000540,-0.00002355,-0.00001126,0.0
 0001502,0.00000724,-0.00001162,-0.00001297,0.00002197,-0.00003099,-0.0
 0002859,0.00006807,-0.00000770,0.00016102,-0.00000067,0.00001142,-0.00
 001210,-0.00000138,-0.00002619,-0.00001691,-0.00009363,0.00012556,0.00
 001810,0.00001252,-0.00001674,0.00001294,0.00001346,-0.00001814,0.0000
 0329,-0.00000432,0.00000329,-0.00000465,-0.00000044,0.00000418,0.00000
 039,0.00000014,-0.00000222,0.00000470,0.00000458,-0.00000272,-0.000000
 48,-0.00000319,0.00000602,0.00000099,-0.00000024,-0.00000151,0.0000039
 3,0.00000099,0.00000681,0.00000008,0.00000199,-0.00000096,0.00002994,0
 .00014280,-0.00020486,-0.00004316,0.00001481,0.00004754,-0.00001279,0.
 00000053,0.00000484,-0.00004101,-0.00000231,-0.00001254,-0.00035824,0.
 00027541,0.00012786,-0.00011681,0.00017198,0.00000256,-0.00029900,-0.0
 0004422,0.00021748,0.00014576,0.00014810,0.00015374,0.00020142,-0.0000
 4752,-0.00026647,0.00582272,-0.01022864,0.02256928,-0.04673856,0.13677
 987,0.00000904,-0.00001606,0.00000047,0.00001036,0.00004371,-0.0000089
 8,0.00001930,-0.00005636,-0.00001563,0.00000988,0.00020544,-0.00002213
 ,-0.00015747,-0.00005595,-0.00007765,-0.00094263,-0.00261282,-0.001496
 70,-0.00016903,0.00013891,0.00038017,0.00000138,-0.00020423,0.00010892
 ,0.00008238,-0.00005935,0.00002822,-0.00003420,0.00008049,-0.00013197,
 -0.00001686,-0.00004195,0.00011995,0.00000758,0.00000671,-0.00001651,0
 .00000166,0.00000024,-0.00000976,-0.00053833,0.00007491,-0.00011857,0.
 00006691,0.00005607,0.00004796,0.00181179,-0.00046042,-0.00099138,-0.0
 0016650,0.00491894,-0.01163478,-0.00136185,0.00183682,0.00150680,-0.06
 115820,0.12242181,-0.22604723,-0.00642175,0.00691931,-0.01458045,0.000
 00964,0.00000195,0.00000158,-0.00000431,-0.00000372,0.00000253,0.00000
 113,0.00000534,0.00000262,-0.00000384,-0.00000074,0.00000583,0.0000061
 2,-0.00001762,0.00000890,0.00001253,0.00002473,0.00001199,-0.00000809,
 -0.00000994,0.00001330,-0.00003929,-0.00002043,0.00003795,0.00002537,-
 0.00005627,-0.00003879,0.00006857,0.00008403,0.00010880,0.00005685,0.0
 0004809,0.00003187,0.00033661,0.00065548,-0.00042757,-0.00002817,0.000
 02682,-0.00001235,0.00000391,0.00002543,-0.00000949,-0.00003417,0.0000
 1872,0.00002599,0.00000482,0.00000295,-0.00000707,-0.00000349,0.000001
 09,0.00000265,-0.00000413,-0.00000723,0.00000441,0.00000114,0.00000811
 ,-0.00000998,-0.00000249,-0.00000027,0.00000321,-0.00000151,0.00000318
 ,-0.00001142,0.00000282,0.00000354,0.00000812,-0.00000137,0.00009338,-
 0.00019483,-0.00004181,0.00009521,0.00012677,-0.00005865,-0.00001262,-
 0.00002785,-0.00003935,-0.00000656,-0.00003824,-0.00014541,0.00005284,
 0.00004886,-0.00006046,0.00003647,-0.00004096,-0.00015333,-0.00076871,
 0.00005574,0.00033953,0.00005358,0.00023497,0.00041446,-0.00087352,0.0
 0004153,0.00226404,-0.00419102,0.00694245,0.06509115,-0.12928253,0.244
 22516,-0.00000580,0.00000571,-0.00000189,-0.00000631,-0.00001191,0.000
 00925,-0.00011918,-0.00011190,0.00011912,-0.00139240,-0.00082347,-0.00
 028212,0.00007410,0.00085258,-0.00060264,0.00571255,-0.00554496,-0.000
 47844,0.00108117,-0.00239215,0.00142382,-0.00053321,-0.00057511,-0.000
 41338,0.00004974,0.00010867,0.00004378,0.00004031,-0.00001165,0.000020
 04,-0.00000207,0.00000588,0.00002773,0.00000221,0.00000176,-0.00000374
 ,-0.00000222,0.00000057,0.00000071,0.00027487,-0.00016837,0.00051901,-
 0.00022776,0.00021351,-0.00003761,-0.00175720,-0.00075139,0.00339894,-
 0.01881906,0.01853764,0.00086801,0.00147421,0.00192595,-0.00275714,-0.
 00372862,-0.00125001,0.00099305,-0.16254914,0.13803657,0.00137598,0.00
 000077,0.00000083,-0.00000053,0.00000179,0.00000213,-0.00000006,0.0000
 0017,-0.00000040,-0.00000078,-0.00000108,0.00000113,-0.00000309,-0.000
 00144,0.00000431,-0.00000206,0.00001401,0.00000553,0.00000155,-0.00003
 255,-0.00003368,0.00000108,0.00004998,0.00008540,-0.00000497,-0.001166
 86,-0.00100170,0.00008205,-0.00004960,-0.00008869,-0.00001879,0.000104
 54,0.00015698,0.00007912,0.00047403,0.00039696,-0.00028690,0.00010529,
 -0.00002064,0.00005694,0.00003097,0.00002245,-0.00003542,0.00001366,-0
 .00000504,-0.00002543,0.00000621,-0.00000157,-0.00000350,0.00000071,-0
 .00000215,0.00000048,-0.00000181,-0.00000149,0.00000099,-0.00000023,0.
 00000136,-0.00000263,0.00000177,-0.00000366,0.00000128,0.00000160,0.00
 000145,-0.00000191,-0.00000262,0.00000079,0.00000254,0.00002895,-0.000
 01079,-0.00011000,0.00009531,-0.00001641,-0.00017032,-0.00001223,0.000
 00797,0.00002471,0.00014137,-0.00010457,-0.00005132,-0.00077394,0.0001
 8398,-0.00051559,-0.00080663,0.00051981,-0.00021889,0.00071190,0.00020
 504,0.00008465,-0.00020794,-0.00074661,-0.00007523,0.00025572,-0.00101
 654,0.00077976,0.00002049,-0.00090911,-0.00085198,0.00055456,0.0004338
 9,0.00093775,0.18087696,-0.00000441,-0.00003287,-0.00001663,-0.0000920
 2,0.00004161,0.00001404,-0.00033460,0.00037795,-0.00043230,0.00038198,
 -0.00067702,0.00088723,0.00036989,-0.00000211,-0.00010558,0.01690228,-
 0.01265879,-0.00332086,0.00062890,-0.00473725,0.00435487,-0.00169131,-
 0.00078099,-0.00123267,0.00030466,0.00004516,-0.00011640,0.00000482,-0
 .00006391,0.00047380,0.00009941,0.00005783,-0.00018126,-0.00001314,-0.
 00000785,0.00002919,-0.00001785,-0.00001780,0.00003708,0.00006507,-0.0
 0008535,0.00014430,0.00015409,0.00003134,0.00000751,-0.00175746,-0.000
 57872,0.00106633,-0.00927189,0.00882406,-0.00045909,-0.00091462,0.0005
 6005,-0.00038250,0.00386443,-0.00696058,0.00198209,0.13891414,-0.20297
 125,0.00779336,0.00003557,-0.00000327,0.00000895,0.00000482,0.00001365
 ,-0.00000171,-0.00000017,0.00000843,0.00000796,-0.00000210,-0.00000484
 ,-0.00000232,-0.00001890,0.00000776,-0.00001955,0.00005922,0.00003679,
 0.00007487,0.00025584,0.00017074,0.00003989,-0.00012297,0.00001350,0.0
 0006335,-0.00074024,0.00048807,-0.00085439,-0.00007976,-0.00004456,0.0
 0004084,-0.00008933,0.00014606,-0.00000391,-0.00029945,0.00072807,0.00
 060480,0.00017048,-0.00001619,0.00015367,0.00003999,0.00003697,-0.0000
 4938,-0.00002587,0.00003212,0.00002941,-0.00002010,0.00000190,0.000020
 05,-0.00000037,0.00000185,-0.00000554,0.00001194,0.00001036,-0.0000104
 3,-0.00000044,-0.00001296,0.00001771,0.00000096,0.00000174,-0.00000498
 ,0.00001204,0.00000003,0.00002129,0.00000041,0.00000093,-0.00000699,0.
 00005570,0.00010242,0.00001511,0.00004847,-0.00001287,0.00002813,-0.00
 000273,0.00005581,0.00003315,-0.00001735,-0.00002541,-0.00003114,-0.00
 029951,0.00014653,-0.00004350,-0.00039763,0.00037159,-0.00021060,0.000
 03941,0.00012769,-0.00012509,-0.00002555,0.00002384,-0.00033509,-0.000
 40054,0.00027951,0.00019531,0.00124619,0.00039450,-0.00100995,-0.00091
 553,0.00105754,0.00081400,-0.14611486,0.21549815,0.00000355,-0.0000098
 3,-0.00001292,-0.00000582,0.00001298,0.00004101,0.00005692,-0.00002698
 ,-0.00014904,0.00006058,-0.00007977,0.00057133,-0.00005765,-0.00018196
 ,0.00000606,-0.01344816,0.01045866,0.00124223,-0.00029011,0.00560328,-
 0.00243329,0.00107095,0.00023918,0.00100951,-0.00018531,0.00003998,0.0
 0014717,0.00000034,0.00000151,-0.00028677,-0.00005678,-0.00002358,0.00
 010554,0.00001169,0.00000427,-0.00001760,0.00001235,0.00001366,-0.0000
 2284,0.00022677,-0.00004186,0.00028430,-0.00033591,0.00007104,0.000170
 95,-0.00180001,-0.00090548,0.00069339,-0.00492218,0.00814824,-0.003796
 15,0.00231622,0.00019924,0.00042279,0.02012198,-0.02320602,0.00003468,
 -0.00036830,0.00939446,-0.04183856,0.00001020,0.00000061,0.00000401,0.
 00000222,0.00000527,-0.00000057,-0.00000276,-0.00000125,0.00000042,0.0
 0001068,-0.00000010,-0.00001394,-0.00000924,0.00001003,-0.00000758,-0.
 00002984,-0.00003210,-0.00001129,0.00002515,0.00003133,0.00000673,0.00
 010461,0.00004007,-0.00021833,-0.00035222,-0.00001838,0.00000195,0.000
 04099,-0.00003787,0.00005665,-0.00001609,0.00004017,-0.00005461,-0.000
 13287,-0.00103503,0.00038799,-0.00013863,0.00000598,-0.00013996,-0.000
 01587,-0.00003291,0.00002413,0.00003442,-0.00002487,-0.00003894,0.0000
 1388,0.00000014,-0.00001435,-0.00000107,-0.00000183,0.00000288,-0.0000
 0876,-0.00000845,0.00000464,0.00000014,0.00000772,-0.00000990,-0.00000
 054,-0.00000197,0.00000294,-0.00000769,-0.00000077,-0.00001216,-0.0000
 0311,-0.00000307,0.00000259,-0.00002128,-0.00008523,-0.00005301,0.0001
 1415,-0.00000490,-0.00010532,0.00002425,-0.00007067,-0.00001710,0.0000
 7899,-0.00002327,0.00002226,-0.00023038,0.00020869,0.00004952,-0.00059
 070,0.00024549,-0.00013141,0.00019861,0.00032706,-0.00016575,-0.000076
 76,0.00023193,-0.00006548,0.00028434,0.00008766,-0.00012157,0.00497719
 ,0.00102450,-0.00285218,-0.00279710,-0.00059858,0.00183258,-0.00389600
 ,-0.00999642,0.04546239\\0.00000037,-0.00000002,-0.00000031,-0.0000000
 6,0.00000006,0.00000017,0.00000037,-0.00000034,-0.00000049,-0.00000024
 ,0.00000112,0.00000033,0.00000322,-0.00000109,0.00000005,0.00000257,0.
 00000133,-0.00000103,-0.00000762,-0.00000008,-0.00000285,0.00000884,0.
 00000369,0.00000694,0.00000290,-0.00000088,0.00000106,-0.00000301,0.00
 000071,-0.00000280,0.00000056,-0.00000007,0.00000084,-0.00000016,-0.00
 000033,-0.00000027,-0.00000050,-0.00000036,-0.00000084,-0.00000203,-0.
 00000332,0.00000061,-0.00000111,0.00000180,0.00000251,0.00000106,0.000
 00008,-0.00000348,0.00000184,0.00000387,-0.00000020,-0.00000023,-0.000
 00167,0.00000056,0.00000113,-0.00000163,-0.00000187,-0.00000316,-0.000
 00061,0.00000186,0.00000008,-0.00000011,-0.00000008,0.00000019,-0.0000
 0020,-0.00000039,0.00000010,0.00000013,-0.00000034,-0.00000007,-0.0000
 0004,-0.00000028,0.00000016,-0.00000003,-0.00000021,0.00000014,0.00000
 005,-0.00000022,-0.00000004,-0.00000004,-0.00000028,0.00000003,-0.0000
 0063,0.,-0.00000024,0.00000027,-0.00000007,-0.00000132,-0.00000022,-0.
 00000051,-0.00000008,0.00000048,0.00000027,-0.00000099,-0.00000051,0.0
 0000048,-0.00000080,-0.00000088,0.00000008,-0.00000113,-0.00000023,-0.
 00000108,-0.00000078,-0.00000039,0.00000045,0.00000003,-0.00000023,-0.
 00000027,0.00000002,-0.00000026,-0.00000007,0.00000015,-0.00000008,-0.
 00000032,-0.00000014,-0.00000011,-0.00000024,-0.00000005,-0.00000012,0
 .,-0.00000012,-0.00000029,0.00000021,0.00000001,-0.00000016,0.00000038
 ,0.00000069,0.00000094,-0.00000108,0.00000023,-0.00000088,-0.00000046,
 -0.00000097,-0.00000035,-0.00000003,0.00000040,-0.00000109,-0.00000038
 ,-0.00000037,-0.00000001,0.00000123,-0.00000053,0.00000045,0.00000045,
 0.00000011,0.00000075,0.00000068,-0.00000027,0.00000034,0.00000044,0.0
 0000018,0.00000023,-0.00000001,-0.00000027,0.00000038,0.00000096,0.000
 00012,0.00000084,0.00000067,0.00000080,-0.00000022,-0.00000076\\\@


 I take a simple view of life: keep your eyes open and get on with it.
 -- Laurence Olivier
 Job cpu time:       1 days 16 hours 20 minutes 42.3 seconds.
 Elapsed time:       0 days 10 hours  9 minutes 22.5 seconds.
 File lengths (MBytes):  RWF=   1971 Int=      0 D2E=      0 Chk=     45 Scr=      1
 Normal termination of Gaussian 16 at Tue May 23 17:38:07 2023.
### All Done ###
