### Starting Gaussian ###
 Entering Gaussian System, Link 0=g16
 Initial command:
 /cluster/software/gaussian/gaussian-16-A.03/avx2/g16/l1.exe "/local/scratch/yxie/Gau-17577.inp" -scrdir="/local/scratch/yxie/"
 Entering Link 1 = /cluster/software/gaussian/gaussian-16-A.03/avx2/g16/l1.exe PID=     17586.
  
 Copyright (c) 1988,1990,1992,1993,1995,1998,2003,2009,2016,
            Gaussian, Inc.  All Rights Reserved.
  
 This is part of the Gaussian(R) 16 program.  It is based on
 the Gaussian(R) 09 system (copyright 2009, Gaussian, Inc.),
 the Gaussian(R) 03 system (copyright 2003, Gaussian, Inc.),
 the Gaussian(R) 98 system (copyright 1998, Gaussian, Inc.),
 the Gaussian(R) 94 system (copyright 1995, Gaussian, Inc.),
 the Gaussian 92(TM) system (copyright 1992, Gaussian, Inc.),
 the Gaussian 90(TM) system (copyright 1990, Gaussian, Inc.),
 the Gaussian 88(TM) system (copyright 1988, Gaussian, Inc.),
 the Gaussian 86(TM) system (copyright 1986, Carnegie Mellon
 University), and the Gaussian 82(TM) system (copyright 1983,
 Carnegie Mellon University). Gaussian is a federally registered
 trademark of Gaussian, Inc.
  
 This software contains proprietary and confidential information,
 including trade secrets, belonging to Gaussian, Inc.
  
 This software is provided under written license and may be
 used, copied, transmitted, or stored only in accord with that
 written license.
  
 The following legend is applicable only to US Government
 contracts under FAR:
  
                    RESTRICTED RIGHTS LEGEND
  
 Use, reproduction and disclosure by the US Government is
 subject to restrictions as set forth in subparagraphs (a)
 and (c) of the Commercial Computer Software - Restricted
 Rights clause in FAR 52.227-19.
  
 Gaussian, Inc.
 340 Quinnipiac St., Bldg. 40, Wallingford CT 06492
  
  
 ---------------------------------------------------------------
 Warning -- This program may not be used in any manner that
 competes with the business of Gaussian, Inc. or will provide
 assistance to any competitor of Gaussian, Inc.  The licensee
 of this program is prohibited from giving any competitor of
 Gaussian, Inc. access to this program.  By using this program,
 the user acknowledges that Gaussian, Inc. is engaged in the
 business of creating and licensing software in the field of
 computational chemistry and represents and warrants to the
 licensee that it is not a competitor of Gaussian, Inc. and that
 it will not use this program in any manner prohibited above.
 ---------------------------------------------------------------
  

 Cite this work as:
 Gaussian 16, Revision A.03,
 M. J. Frisch, G. W. Trucks, H. B. Schlegel, G. E. Scuseria, 
 M. A. Robb, J. R. Cheeseman, G. Scalmani, V. Barone, 
 G. A. Petersson, H. Nakatsuji, X. Li, M. Caricato, A. V. Marenich, 
 J. Bloino, B. G. Janesko, R. Gomperts, B. Mennucci, H. P. Hratchian, 
 J. V. Ortiz, A. F. Izmaylov, J. L. Sonnenberg, D. Williams-Young, 
 F. Ding, F. Lipparini, F. Egidi, J. Goings, B. Peng, A. Petrone, 
 T. Henderson, D. Ranasinghe, V. G. Zakrzewski, J. Gao, N. Rega, 
 G. Zheng, W. Liang, M. Hada, M. Ehara, K. Toyota, R. Fukuda, 
 J. Hasegawa, M. Ishida, T. Nakajima, Y. Honda, O. Kitao, H. Nakai, 
 T. Vreven, K. Throssell, J. A. Montgomery, Jr., J. E. Peralta, 
 F. Ogliaro, M. J. Bearpark, J. J. Heyd, E. N. Brothers, K. N. Kudin, 
 V. N. Staroverov, T. A. Keith, R. Kobayashi, J. Normand, 
 K. Raghavachari, A. P. Rendell, J. C. Burant, S. S. Iyengar, 
 J. Tomasi, M. Cossi, J. M. Millam, M. Klene, C. Adamo, R. Cammi, 
 J. W. Ochterski, R. L. Martin, K. Morokuma, O. Farkas, 
 J. B. Foresman, and D. J. Fox, Gaussian, Inc., Wallingford CT, 2016.
 
 ******************************************
 Gaussian 16:  ES64L-G16RevA.03 25-Dec-2016
                23-May-2023 
 ******************************************
 %chk=CCCCC1qCdOrOCCC1C.chk
 %NProcShared=20
 Will use up to   20 processors via shared memory.
 -----------------------------
 # opt freq b3lyp/6-31g(2df,p)
 -----------------------------
 1/18=20,19=15,26=3,38=1/1,3;
 2/9=110,12=2,17=6,18=5,40=1/2;
 3/5=1,6=6,7=104,11=2,25=1,30=1,71=1,74=-5/1,2,3;
 4//1;
 5/5=2,38=5/2;
 6/7=2,8=2,9=2,10=2,28=1/1;
 7//1,2,3,16;
 1/18=20,19=15,26=3/3(2);
 2/9=110/2;
 99//99;
 2/9=110/2;
 3/5=1,6=6,7=104,11=2,25=1,30=1,71=1,74=-5/1,2,3;
 4/5=5,16=3,69=1/1;
 5/5=2,38=5/2;
 7//1,2,3,16;
 1/18=20,19=15,26=3/3(-5);
 2/9=110/2;
 6/7=2,8=2,9=2,10=2,19=2,28=1/1;
 99/9=1/99;
 -------------------
 Title Card Required
 -------------------
 Symbolic Z-matrix:
 Charge =  0 Multiplicity = 1
 C                     1.06666   0.03744   0.09336 
 C                     2.58952   0.06527   0.10758 
 C                     3.11908  -0.98082  -0.85155 
 C                     4.65039  -1.08372  -0.89126 
 C                     5.12134  -2.16256  -1.89878 
 C                     5.01351  -1.56569  -3.31804 
 O                     5.35721  -2.13753  -4.35487 
 O                     6.49914  -2.51251  -1.6604 
 C                     6.6825   -3.84272  -2.18088 
 C                     5.3949   -4.58155  -1.90086 
 C                     4.35791  -3.48783  -1.71999 
 C                     3.15472  -3.66047  -2.63964 
 H                     0.66665   0.78443   0.78226 
 H                     0.68833  -0.94618   0.39589 
 H                     0.6803    0.24782  -0.91014 
 H                     2.9502   -0.14779   1.11911 
 H                     2.94944   1.05551  -0.18545 
 H                     2.73696  -0.76698  -1.85698 
 H                     2.68954  -1.9363   -0.53305 
 H                     5.03645  -1.30593   0.11143 
 H                     5.07236  -0.10511  -1.15843 
 H                     4.56935  -0.55914  -3.38184 
 H                     7.54738  -4.32157  -1.71312 
 H                     6.87256  -3.7907   -3.25847 
 H                     5.49227  -5.14803  -0.9656 
 H                     5.14164  -5.30099  -2.68452 
 H                     4.01697  -3.57291  -0.67779 
 H                     3.45672  -3.6752   -3.68964 
 H                     2.42657  -2.85436  -2.52603 
 H                     2.63934  -4.59866  -2.42525 
 

 GradGradGradGradGradGradGradGradGradGradGradGradGradGradGradGradGradGrad
 Berny optimization.
 Initialization pass.
                           ----------------------------
                           !    Initial Parameters    !
                           ! (Angstroms and Degrees)  !
 --------------------------                            --------------------------
 ! Name  Definition              Value          Derivative Info.                !
 --------------------------------------------------------------------------------
 ! R1    R(1,2)                  1.5232         estimate D2E/DX2                !
 ! R2    R(1,13)                 1.0921         estimate D2E/DX2                !
 ! R3    R(1,14)                 1.0964         estimate D2E/DX2                !
 ! R4    R(1,15)                 1.0957         estimate D2E/DX2                !
 ! R5    R(2,3)                  1.5148         estimate D2E/DX2                !
 ! R6    R(2,16)                 1.0948         estimate D2E/DX2                !
 ! R7    R(2,17)                 1.0936         estimate D2E/DX2                !
 ! R8    R(3,4)                  1.5353         estimate D2E/DX2                !
 ! R9    R(3,18)                 1.0966         estimate D2E/DX2                !
 ! R10   R(3,19)                 1.0949         estimate D2E/DX2                !
 ! R11   R(4,5)                  1.5494         estimate D2E/DX2                !
 ! R12   R(4,20)                 1.0972         estimate D2E/DX2                !
 ! R13   R(4,21)                 1.0987         estimate D2E/DX2                !
 ! R14   R(5,6)                  1.5434         estimate D2E/DX2                !
 ! R15   R(5,8)                  1.4414         estimate D2E/DX2                !
 ! R16   R(5,11)                 1.5398         estimate D2E/DX2                !
 ! R17   R(6,7)                  1.2329         estimate D2E/DX2                !
 ! R18   R(6,22)                 1.102          estimate D2E/DX2                !
 ! R19   R(8,9)                  1.4401         estimate D2E/DX2                !
 ! R20   R(9,10)                 1.5107         estimate D2E/DX2                !
 ! R21   R(9,23)                 1.0937         estimate D2E/DX2                !
 ! R22   R(9,24)                 1.0955         estimate D2E/DX2                !
 ! R23   R(10,11)                1.518          estimate D2E/DX2                !
 ! R24   R(10,25)                1.0978         estimate D2E/DX2                !
 ! R25   R(10,26)                1.0936         estimate D2E/DX2                !
 ! R26   R(11,12)                1.5242         estimate D2E/DX2                !
 ! R27   R(11,27)                1.0998         estimate D2E/DX2                !
 ! R28   R(12,28)                1.0927         estimate D2E/DX2                !
 ! R29   R(12,29)                1.0922         estimate D2E/DX2                !
 ! R30   R(12,30)                1.0917         estimate D2E/DX2                !
 ! A1    A(2,1,13)             110.3544         estimate D2E/DX2                !
 ! A2    A(2,1,14)             111.0264         estimate D2E/DX2                !
 ! A3    A(2,1,15)             110.9519         estimate D2E/DX2                !
 ! A4    A(13,1,14)            108.2517         estimate D2E/DX2                !
 ! A5    A(13,1,15)            108.4969         estimate D2E/DX2                !
 ! A6    A(14,1,15)            107.6549         estimate D2E/DX2                !
 ! A7    A(1,2,3)              109.3286         estimate D2E/DX2                !
 ! A8    A(1,2,16)             109.5383         estimate D2E/DX2                !
 ! A9    A(1,2,17)             110.0649         estimate D2E/DX2                !
 ! A10   A(3,2,16)             109.5988         estimate D2E/DX2                !
 ! A11   A(3,2,17)             109.9128         estimate D2E/DX2                !
 ! A12   A(16,2,17)            108.3817         estimate D2E/DX2                !
 ! A13   A(2,3,4)              114.2894         estimate D2E/DX2                !
 ! A14   A(2,3,18)             108.9069         estimate D2E/DX2                !
 ! A15   A(2,3,19)             106.3376         estimate D2E/DX2                !
 ! A16   A(4,3,18)             109.6881         estimate D2E/DX2                !
 ! A17   A(4,3,19)             109.8963         estimate D2E/DX2                !
 ! A18   A(18,3,19)            107.4669         estimate D2E/DX2                !
 ! A19   A(3,4,5)              111.509          estimate D2E/DX2                !
 ! A20   A(3,4,20)             109.9313         estimate D2E/DX2                !
 ! A21   A(3,4,21)             109.2485         estimate D2E/DX2                !
 ! A22   A(5,4,20)             110.26           estimate D2E/DX2                !
 ! A23   A(5,4,21)             110.2013         estimate D2E/DX2                !
 ! A24   A(20,4,21)            105.5145         estimate D2E/DX2                !
 ! A25   A(4,5,6)              107.9048         estimate D2E/DX2                !
 ! A26   A(4,5,8)              110.6124         estimate D2E/DX2                !
 ! A27   A(4,5,11)             111.9043         estimate D2E/DX2                !
 ! A28   A(6,5,8)              108.2248         estimate D2E/DX2                !
 ! A29   A(6,5,11)             113.8885         estimate D2E/DX2                !
 ! A30   A(8,5,11)             104.2263         estimate D2E/DX2                !
 ! A31   A(5,6,7)              125.0611         estimate D2E/DX2                !
 ! A32   A(5,6,22)             115.7599         estimate D2E/DX2                !
 ! A33   A(7,6,22)             119.162          estimate D2E/DX2                !
 ! A34   A(5,8,9)              106.6299         estimate D2E/DX2                !
 ! A35   A(8,9,10)             106.0352         estimate D2E/DX2                !
 ! A36   A(8,9,23)             110.5198         estimate D2E/DX2                !
 ! A37   A(8,9,24)             109.4962         estimate D2E/DX2                !
 ! A38   A(10,9,23)            112.3716         estimate D2E/DX2                !
 ! A39   A(10,9,24)            110.6976         estimate D2E/DX2                !
 ! A40   A(23,9,24)            107.7166         estimate D2E/DX2                !
 ! A41   A(9,10,11)            104.5936         estimate D2E/DX2                !
 ! A42   A(9,10,25)            109.5538         estimate D2E/DX2                !
 ! A43   A(9,10,26)            112.7254         estimate D2E/DX2                !
 ! A44   A(11,10,25)           109.3224         estimate D2E/DX2                !
 ! A45   A(11,10,26)           113.6527         estimate D2E/DX2                !
 ! A46   A(25,10,26)           106.9529         estimate D2E/DX2                !
 ! A47   A(5,11,10)            105.5205         estimate D2E/DX2                !
 ! A48   A(5,11,12)            114.7582         estimate D2E/DX2                !
 ! A49   A(5,11,27)            109.2862         estimate D2E/DX2                !
 ! A50   A(10,11,12)           112.6907         estimate D2E/DX2                !
 ! A51   A(10,11,27)           105.6009         estimate D2E/DX2                !
 ! A52   A(12,11,27)           108.5586         estimate D2E/DX2                !
 ! A53   A(11,12,28)           111.2938         estimate D2E/DX2                !
 ! A54   A(11,12,29)           112.3279         estimate D2E/DX2                !
 ! A55   A(11,12,30)           110.5799         estimate D2E/DX2                !
 ! A56   A(28,12,29)           107.1076         estimate D2E/DX2                !
 ! A57   A(28,12,30)           107.9154         estimate D2E/DX2                !
 ! A58   A(29,12,30)           107.4046         estimate D2E/DX2                !
 ! D1    D(13,1,2,3)           179.8411         estimate D2E/DX2                !
 ! D2    D(13,1,2,16)           59.7313         estimate D2E/DX2                !
 ! D3    D(13,1,2,17)          -59.3371         estimate D2E/DX2                !
 ! D4    D(14,1,2,3)            59.8089         estimate D2E/DX2                !
 ! D5    D(14,1,2,16)          -60.3009         estimate D2E/DX2                !
 ! D6    D(14,1,2,17)         -179.3692         estimate D2E/DX2                !
 ! D7    D(15,1,2,3)           -59.8679         estimate D2E/DX2                !
 ! D8    D(15,1,2,16)         -179.9776         estimate D2E/DX2                !
 ! D9    D(15,1,2,17)           60.954          estimate D2E/DX2                !
 ! D10   D(1,2,3,4)           -178.019          estimate D2E/DX2                !
 ! D11   D(1,2,3,18)            58.9378         estimate D2E/DX2                !
 ! D12   D(1,2,3,19)           -56.5948         estimate D2E/DX2                !
 ! D13   D(16,2,3,4)           -57.9464         estimate D2E/DX2                !
 ! D14   D(16,2,3,18)          179.0105         estimate D2E/DX2                !
 ! D15   D(16,2,3,19)           63.4779         estimate D2E/DX2                !
 ! D16   D(17,2,3,4)            61.0666         estimate D2E/DX2                !
 ! D17   D(17,2,3,18)          -61.9766         estimate D2E/DX2                !
 ! D18   D(17,2,3,19)         -177.5092         estimate D2E/DX2                !
 ! D19   D(2,3,4,5)           -179.5478         estimate D2E/DX2                !
 ! D20   D(2,3,4,20)            57.849          estimate D2E/DX2                !
 ! D21   D(2,3,4,21)           -57.4912         estimate D2E/DX2                !
 ! D22   D(18,3,4,5)           -56.9285         estimate D2E/DX2                !
 ! D23   D(18,3,4,20)         -179.5318         estimate D2E/DX2                !
 ! D24   D(18,3,4,21)           65.128          estimate D2E/DX2                !
 ! D25   D(19,3,4,5)            61.0103         estimate D2E/DX2                !
 ! D26   D(19,3,4,20)          -61.5929         estimate D2E/DX2                !
 ! D27   D(19,3,4,21)         -176.9331         estimate D2E/DX2                !
 ! D28   D(3,4,5,6)             77.9686         estimate D2E/DX2                !
 ! D29   D(3,4,5,8)           -163.8242         estimate D2E/DX2                !
 ! D30   D(3,4,5,11)           -48.0883         estimate D2E/DX2                !
 ! D31   D(20,4,5,6)          -159.6169         estimate D2E/DX2                !
 ! D32   D(20,4,5,8)           -41.4097         estimate D2E/DX2                !
 ! D33   D(20,4,5,11)           74.3262         estimate D2E/DX2                !
 ! D34   D(21,4,5,6)           -43.5366         estimate D2E/DX2                !
 ! D35   D(21,4,5,8)            74.6706         estimate D2E/DX2                !
 ! D36   D(21,4,5,11)         -169.5935         estimate D2E/DX2                !
 ! D37   D(4,5,6,7)            177.0606         estimate D2E/DX2                !
 ! D38   D(4,5,6,22)            -4.458          estimate D2E/DX2                !
 ! D39   D(8,5,6,7)             57.3329         estimate D2E/DX2                !
 ! D40   D(8,5,6,22)          -124.1857         estimate D2E/DX2                !
 ! D41   D(11,5,6,7)           -58.0587         estimate D2E/DX2                !
 ! D42   D(11,5,6,22)          120.4227         estimate D2E/DX2                !
 ! D43   D(4,5,8,9)            155.4998         estimate D2E/DX2                !
 ! D44   D(6,5,8,9)            -86.4884         estimate D2E/DX2                !
 ! D45   D(11,5,8,9)            35.0662         estimate D2E/DX2                !
 ! D46   D(4,5,11,10)         -140.2134         estimate D2E/DX2                !
 ! D47   D(4,5,11,12)           95.1093         estimate D2E/DX2                !
 ! D48   D(4,5,11,27)          -27.0793         estimate D2E/DX2                !
 ! D49   D(6,5,11,10)           97.0699         estimate D2E/DX2                !
 ! D50   D(6,5,11,12)          -27.6074         estimate D2E/DX2                !
 ! D51   D(6,5,11,27)         -149.7959         estimate D2E/DX2                !
 ! D52   D(8,5,11,10)          -20.6505         estimate D2E/DX2                !
 ! D53   D(8,5,11,12)         -145.3277         estimate D2E/DX2                !
 ! D54   D(8,5,11,27)           92.4837         estimate D2E/DX2                !
 ! D55   D(5,8,9,10)           -36.0677         estimate D2E/DX2                !
 ! D56   D(5,8,9,23)          -158.1017         estimate D2E/DX2                !
 ! D57   D(5,8,9,24)            83.3957         estimate D2E/DX2                !
 ! D58   D(8,9,10,11)           21.5362         estimate D2E/DX2                !
 ! D59   D(8,9,10,25)          -95.5489         estimate D2E/DX2                !
 ! D60   D(8,9,10,26)          145.4889         estimate D2E/DX2                !
 ! D61   D(23,9,10,11)         142.3802         estimate D2E/DX2                !
 ! D62   D(23,9,10,25)          25.295          estimate D2E/DX2                !
 ! D63   D(23,9,10,26)         -93.6672         estimate D2E/DX2                !
 ! D64   D(24,9,10,11)         -97.1363         estimate D2E/DX2                !
 ! D65   D(24,9,10,25)         145.7785         estimate D2E/DX2                !
 ! D66   D(24,9,10,26)          26.8163         estimate D2E/DX2                !
 ! D67   D(9,10,11,5)           -0.4046         estimate D2E/DX2                !
 ! D68   D(9,10,11,12)         125.5551         estimate D2E/DX2                !
 ! D69   D(9,10,11,27)        -116.0908         estimate D2E/DX2                !
 ! D70   D(25,10,11,5)         116.8397         estimate D2E/DX2                !
 ! D71   D(25,10,11,12)       -117.2005         estimate D2E/DX2                !
 ! D72   D(25,10,11,27)          1.1536         estimate D2E/DX2                !
 ! D73   D(26,10,11,5)        -123.7606         estimate D2E/DX2                !
 ! D74   D(26,10,11,12)          2.1992         estimate D2E/DX2                !
 ! D75   D(26,10,11,27)        120.5533         estimate D2E/DX2                !
 ! D76   D(5,11,12,28)          62.6218         estimate D2E/DX2                !
 ! D77   D(5,11,12,29)         -57.4699         estimate D2E/DX2                !
 ! D78   D(5,11,12,30)        -177.4443         estimate D2E/DX2                !
 ! D79   D(10,11,12,28)        -58.1898         estimate D2E/DX2                !
 ! D80   D(10,11,12,29)       -178.2815         estimate D2E/DX2                !
 ! D81   D(10,11,12,30)         61.7442         estimate D2E/DX2                !
 ! D82   D(27,11,12,28)       -174.7964         estimate D2E/DX2                !
 ! D83   D(27,11,12,29)         65.1119         estimate D2E/DX2                !
 ! D84   D(27,11,12,30)        -54.8624         estimate D2E/DX2                !
 --------------------------------------------------------------------------------
 Trust Radius=3.00D-01 FncErr=1.00D-07 GrdErr=1.00D-06 EigMax=2.50D+02 EigMin=1.00D-04
 Number of steps in this run=    180 maximum allowed number of steps=    180.
 GradGradGradGradGradGradGradGradGradGradGradGradGradGradGradGradGradGrad

                          Input orientation:                          
 ---------------------------------------------------------------------
 Center     Atomic      Atomic             Coordinates (Angstroms)
 Number     Number       Type             X           Y           Z
 ---------------------------------------------------------------------
      1          6           0        1.066660    0.037440    0.093360
      2          6           0        2.589520    0.065270    0.107580
      3          6           0        3.119080   -0.980820   -0.851550
      4          6           0        4.650390   -1.083720   -0.891260
      5          6           0        5.121340   -2.162560   -1.898780
      6          6           0        5.013510   -1.565690   -3.318040
      7          8           0        5.357210   -2.137530   -4.354870
      8          8           0        6.499140   -2.512510   -1.660400
      9          6           0        6.682500   -3.842720   -2.180880
     10          6           0        5.394900   -4.581550   -1.900860
     11          6           0        4.357910   -3.487830   -1.719990
     12          6           0        3.154720   -3.660470   -2.639640
     13          1           0        0.666650    0.784430    0.782260
     14          1           0        0.688330   -0.946180    0.395890
     15          1           0        0.680300    0.247820   -0.910140
     16          1           0        2.950200   -0.147790    1.119110
     17          1           0        2.949440    1.055510   -0.185450
     18          1           0        2.736960   -0.766980   -1.856980
     19          1           0        2.689540   -1.936300   -0.533050
     20          1           0        5.036450   -1.305930    0.111430
     21          1           0        5.072360   -0.105110   -1.158430
     22          1           0        4.569350   -0.559140   -3.381840
     23          1           0        7.547380   -4.321570   -1.713120
     24          1           0        6.872560   -3.790700   -3.258470
     25          1           0        5.492270   -5.148030   -0.965600
     26          1           0        5.141640   -5.300990   -2.684520
     27          1           0        4.016970   -3.572910   -0.677790
     28          1           0        3.456720   -3.675200   -3.689640
     29          1           0        2.426570   -2.854360   -2.526030
     30          1           0        2.639340   -4.598660   -2.425250
 ---------------------------------------------------------------------
                    Distance matrix (angstroms):
                    1          2          3          4          5
     1  C    0.000000
     2  C    1.523181   0.000000
     3  C    2.478333   1.514816   0.000000
     4  C    3.881958   2.562234   1.535277   0.000000
     5  C    5.024843   3.924133   2.549950   1.549447   0.000000
     6  C    5.457591   4.502292   3.164571   2.500682   1.543431
     7  O    6.551799   5.694374   4.315143   3.688727   2.467517
     8  O    6.252180   5.005580   3.798041   2.459856   1.441396
     9  C    7.194822   6.104254   4.759785   3.661239   2.310787
    10  C    6.636689   5.787653   4.386988   3.715966   2.434410
    11  C    5.152484   4.369409   2.928137   2.559704   1.539848
    12  C    5.050131   4.663454   3.221655   3.454490   2.580737
    13  H    1.092056   2.160975   3.435092   4.707530   5.976369
    14  H    1.096433   2.172712   2.732371   4.168164   5.137769
    15  H    1.095694   2.171221   2.731417   4.187478   5.148803
    16  H    2.152718   1.094841   2.146150   2.794315   4.228570
    17  H    2.158486   1.093611   2.149211   2.822712   4.243657
    18  H    2.690877   2.138662   1.096646   2.166600   2.763089
    19  H    2.630927   2.103971   1.094938   2.167981   2.798225
    20  H    4.190967   2.804937   2.170100   1.097181   2.186771
    21  H    4.199158   2.792186   2.162486   1.098688   2.187148
    22  H    4.970087   4.060255   2.946772   2.546515   2.252802
    23  H    8.016487   6.865835   5.613622   4.421728   3.252916
    24  H    7.719967   6.674071   5.270418   4.227229   2.750703
    25  H    6.899023   6.062687   4.796945   4.151253   3.149833
    26  H    7.267800   6.565507   5.110225   4.608956   3.235358
    27  H    4.725847   3.986323   2.748696   2.577374   2.167842
    28  H    5.814393   5.400188   3.927905   3.996442   2.875103
    29  H    4.131957   3.935314   2.606455   3.279179   2.851984
    30  H    5.505465   5.307537   3.974349   4.330387   3.517396
                    6          7          8          9         10
     6  C    0.000000
     7  O    1.232942   0.000000
     8  O    2.418953   2.950387   0.000000
     9  C    3.043604   3.064359   1.440132   0.000000
    10  C    3.353993   3.463643   2.357561   1.510693   0.000000
    11  C    2.584221   3.124821   2.353650   2.396265   1.517987
    12  C    2.881567   3.179988   3.669042   3.562149   2.532309
    13  H    6.421115   7.545151   7.131223   8.147464   7.638666
    14  H    5.734479   6.766644   6.359814   7.138611   6.375169
    15  H    5.278590   6.279295   6.483919   7.373853   6.821422
    16  H    5.094702   6.302160   5.090437   6.202621   5.895338
    17  H    4.576483   5.777277   5.244675   6.473804   6.379604
    18  H    2.820517   3.870862   4.152050   5.013220   4.649464
    19  H    3.646143   4.665111   4.014472   4.721600   4.023335
    20  H    3.439370   4.554369   2.595126   3.794663   3.861021
    21  H    2.607810   3.798565   2.843106   4.196151   4.549038
    22  H    1.102040   2.014653   3.240849   4.085291   4.365159
    23  H    4.073222   4.067643   2.091479   1.093670   2.176237
    24  H    2.900049   2.496267   2.080154   1.095458   2.156856
    25  H    4.312348   4.535251   2.905598   2.144152   1.097767
    26  H    3.790809   3.583855   3.266075   2.180471   1.093553
    27  H    3.463083   4.168630   2.872480   3.071991   2.100463
    28  H    2.647964   2.533539   3.837445   3.565119   2.788861
    29  H    2.996700   3.528052   4.177559   4.382799   3.490703
    30  H    3.953816   4.143358   4.453658   4.120474   2.805065
                   11         12         13         14         15
    11  C    0.000000
    12  C    1.524214   0.000000
    13  H    6.175667   6.136532   0.000000
    14  H    4.939914   4.760766   1.773348   0.000000
    15  H    5.304315   4.938487   1.775487   1.769580   0.000000
    16  H    4.604129   5.148684   2.489398   2.505300   3.070311
    17  H    4.998054   5.320306   2.494209   3.075278   2.515260
    18  H    3.170058   3.026444   3.695760   3.050315   2.481164
    19  H    2.568955   2.761680   3.636550   2.418286   2.991592
    20  H    2.928345   4.080827   4.890273   4.372240   4.736432
    21  H    3.502654   4.302547   4.895696   4.726841   4.413207
    22  H    3.373971   3.488594   5.863103   5.429858   4.678162
    23  H    3.296648   4.537726   8.924270   7.930180   8.287393
    24  H    2.963463   3.771239   8.704748   7.725952   7.756828
    25  H    2.147590   3.237188   7.844470   6.525874   7.230030
    26  H    2.198204   2.577047   8.311223   6.948760   7.337661
    27  H    1.099845   2.144760   5.687073   4.374053   5.077926
    28  H    2.174114   1.092667   6.904396   5.639423   5.551956
    29  H    2.186563   1.092210   5.223303   3.898749   3.909486
    30  H    2.164444   1.091687   6.569420   5.010577   5.442588
                   16         17         18         19         20
    16  H    0.000000
    17  H    1.774770   0.000000
    18  H    3.047290   2.482062   0.000000
    19  H    2.448743   3.023128   1.767017   0.000000
    20  H    2.590202   3.165462   3.074534   2.514102   0.000000
    21  H    3.113290   2.607780   2.525893   3.069558   1.748085
    22  H    4.800980   3.930409   2.392916   3.680470   3.602612
    23  H    6.824663   7.237943   5.982971   5.539015   4.327567
    24  H    6.915122   6.951264   5.311332   5.325821   4.571828
    25  H    5.984190   6.749706   5.251656   4.284578   4.016155
    26  H    6.769452   7.173297   5.198515   4.686444   4.877387
    27  H    4.012268   4.775384   3.301842   2.112229   2.607951
    28  H    5.985254   5.909001   3.512042   3.684617   4.749434
    29  H    4.570203   4.586806   2.213848   2.209968   4.020610
    30  H    5.698190   6.089541   3.874820   3.266665   4.798224
                   21         22         23         24         25
    21  H    0.000000
    22  H    2.324374   0.000000
    23  H    4.920563   5.080272   0.000000
    24  H    4.608087   3.970262   1.767855   0.000000
    25  H    5.064045   5.267628   2.337798   3.000800   0.000000
    26  H    5.415803   4.826895   2.773169   2.367800   1.760972
    27  H    3.656569   4.086541   3.754490   3.855092   2.177234
    28  H    4.665068   3.323028   4.588891   3.444882   3.705818
    29  H    4.053259   3.254528   5.388527   4.602176   4.134535
    30  H    5.264638   4.577961   4.967169   4.389443   3.251399
                   26         27         28         29         30
    26  H    0.000000
    27  H    2.877170   0.000000
    28  H    2.548022   3.065222   0.000000
    29  H    3.658240   2.541983   1.757548   0.000000
    30  H    2.611895   2.450233   1.766231   1.760117   0.000000
 Stoichiometry    C10H18O2
 Framework group  C1[X(C10H18O2)]
 Deg. of freedom    84
 Full point group                 C1      NOp   1
 Largest Abelian subgroup         C1      NOp   1
 Largest concise Abelian subgroup C1      NOp   1
                         Standard orientation:                         
 ---------------------------------------------------------------------
 Center     Atomic      Atomic             Coordinates (Angstroms)
 Number     Number       Type             X           Y           Z
 ---------------------------------------------------------------------
      1          6           0       -4.302726    0.494795    0.136019
      2          6           0       -3.297248   -0.475365   -0.470514
      3          6           0       -1.897811   -0.073536   -0.052451
      4          6           0       -0.785627   -0.951918   -0.642846
      5          6           0        0.614991   -0.492166   -0.165682
      6          6           0        0.818743   -1.008440    1.274500
      7          8           0        1.847360   -0.865811    1.939144
      8          8           0        1.646084   -1.059370   -0.997998
      9          6           0        2.785080   -0.183845   -0.897386
     10          6           0        2.227517    1.216954   -0.802095
     11          6           0        0.802098    1.028947   -0.315146
     12          6           0        0.498917    1.835939    0.941863
     13          1           0       -5.318569    0.221831   -0.157474
     14          1           0       -4.111950    1.520663   -0.200680
     15          1           0       -4.243201    0.487640    1.230072
     16          1           0       -3.376087   -0.449435   -1.562205
     17          1           0       -3.508567   -1.494095   -0.133590
     18          1           0       -1.836610   -0.086187    1.042413
     19          1           0       -1.765283    0.963746   -0.377059
     20          1           0       -0.838017   -0.935451   -1.738652
     21          1           0       -0.959645   -1.998127   -0.355999
     22          1           0       -0.046622   -1.519052    1.727170
     23          1           0        3.444299   -0.311652   -1.760641
     24          1           0        3.360017   -0.433664    0.000983
     25          1           0        2.213155    1.675324   -1.799483
     26          1           0        2.828012    1.867930   -0.160618
     27          1           0        0.160468    1.395570   -1.129737
     28          1           0        1.176586    1.570510    1.756867
     29          1           0       -0.518536    1.673167    1.304102
     30          1           0        0.609403    2.904541    0.747790
 ---------------------------------------------------------------------
 Rotational constants (GHZ):           1.5514485           0.5225417           0.5159543
 Standard basis: 6-31G(2df,p) (6D, 7F)
 There are   462 symmetry adapted cartesian basis functions of A   symmetry.
 There are   426 symmetry adapted basis functions of A   symmetry.
   426 basis functions,   654 primitive gaussians,   462 cartesian basis functions
    47 alpha electrons       47 beta electrons
       nuclear repulsion energy       771.0305621795 Hartrees.
 NAtoms=   30 NActive=   30 NUniq=   30 SFac= 1.00D+00 NAtFMM=   60 NAOKFM=F Big=F
 Integral buffers will be    131072 words long.
 Raffenetti 2 integral format.
 Two-electron integral symmetry is turned on.
 One-electron integrals computed using PRISM.
 PrsmSu:  requested number of processors reduced to:  12 ShMem   1 Linda.
 NBasis=   426 RedAO= T EigKep=  3.99D-04  NBF=   426
 NBsUse=   426 1.00D-06 EigRej= -1.00D+00 NBFU=   426
 ExpMin= 1.61D-01 ExpMax= 5.48D+03 ExpMxC= 8.25D+02 IAcc=3 IRadAn=         5 AccDes= 0.00D+00
 Harris functional with IExCor=  402 and IRadAn=       5 diagonalized for initial guess.
 HarFok:  IExCor=  402 AccDes= 0.00D+00 IRadAn=         5 IDoV= 1 UseB2=F ITyADJ=14
 ICtDFT=  3500011 ScaDFX=  1.000000  1.000000  1.000000  1.000000
 FoFCou: FMM=F IPFlag=           0 FMFlag=      100000 FMFlg1=           0
         NFxFlg=           0 DoJE=T BraDBF=F KetDBF=T FulRan=T
         wScrn=  0.000000 ICntrl=       500 IOpCl=  0 I1Cent=   200000004 NGrid=           0
         NMat0=    1 NMatS0=      1 NMatT0=    0 NMatD0=    1 NMtDS0=    0 NMtDT0=    0
 Petite list used in FoFCou.
 Requested convergence on RMS density matrix=1.00D-08 within 128 cycles.
 Requested convergence on MAX density matrix=1.00D-06.
 Requested convergence on             energy=1.00D-06.
 No special actions if energy rises.
 Integral accuracy reduced to 1.0D-05 until final iterations.
 Initial convergence to 1.0D-05 achieved.  Increase integral accuracy.
 SCF Done:  E(RB3LYP) =  -542.364133901     A.U. after   13 cycles
            NFock= 13  Conv=0.68D-08     -V/T= 2.0078

 **********************************************************************

            Population analysis using the SCF density.

 **********************************************************************

 Orbital symmetries:
       Occupied  (A) (A) (A) (A) (A) (A) (A) (A) (A) (A) (A) (A)
                 (A) (A) (A) (A) (A) (A) (A) (A) (A) (A) (A) (A)
                 (A) (A) (A) (A) (A) (A) (A) (A) (A) (A) (A) (A)
                 (A) (A) (A) (A) (A) (A) (A) (A) (A) (A) (A)
       Virtual   (A) (A) (A) (A) (A) (A) (A) (A) (A) (A) (A) (A)
                 (A) (A) (A) (A) (A) (A) (A) (A) (A) (A) (A) (A)
                 (A) (A) (A) (A) (A) (A) (A) (A) (A) (A) (A) (A)
                 (A) (A) (A) (A) (A) (A) (A) (A) (A) (A) (A) (A)
                 (A) (A) (A) (A) (A) (A) (A) (A) (A) (A) (A) (A)
                 (A) (A) (A) (A) (A) (A) (A) (A) (A) (A) (A) (A)
                 (A) (A) (A) (A) (A) (A) (A) (A) (A) (A) (A) (A)
                 (A) (A) (A) (A) (A) (A) (A) (A) (A) (A) (A) (A)
                 (A) (A) (A) (A) (A) (A) (A) (A) (A) (A) (A) (A)
                 (A) (A) (A) (A) (A) (A) (A) (A) (A) (A) (A) (A)
                 (A) (A) (A) (A) (A) (A) (A) (A) (A) (A) (A) (A)
                 (A) (A) (A) (A) (A) (A) (A) (A) (A) (A) (A) (A)
                 (A) (A) (A) (A) (A) (A) (A) (A) (A) (A) (A) (A)
                 (A) (A) (A) (A) (A) (A) (A) (A) (A) (A) (A) (A)
                 (A) (A) (A) (A) (A) (A) (A) (A) (A) (A) (A) (A)
                 (A) (A) (A) (A) (A) (A) (A) (A) (A) (A) (A) (A)
                 (A) (A) (A) (A) (A) (A) (A) (A) (A) (A) (A) (A)
                 (A) (A) (A) (A) (A) (A) (A) (A) (A) (A) (A) (A)
                 (A) (A) (A) (A) (A) (A) (A) (A) (A) (A) (A) (A)
                 (A) (A) (A) (A) (A) (A) (A) (A) (A) (A) (A) (A)
                 (A) (A) (A) (A) (A) (A) (A) (A) (A) (A) (A) (A)
                 (A) (A) (A) (A) (A) (A) (A) (A) (A) (A) (A) (A)
                 (A) (A) (A) (A) (A) (A) (A) (A) (A) (A) (A) (A)
                 (A) (A) (A) (A) (A) (A) (A) (A) (A) (A) (A) (A)
                 (A) (A) (A) (A) (A) (A) (A) (A) (A) (A) (A) (A)
                 (A) (A) (A) (A) (A) (A) (A) (A) (A) (A) (A) (A)
                 (A) (A) (A) (A) (A) (A) (A) (A) (A) (A) (A) (A)
                 (A) (A) (A) (A) (A) (A) (A) (A) (A) (A) (A) (A)
                 (A) (A) (A) (A) (A) (A) (A) (A) (A) (A) (A) (A)
                 (A) (A) (A) (A) (A) (A) (A) (A) (A) (A) (A) (A)
                 (A) (A) (A) (A) (A) (A) (A) (A) (A) (A) (A) (A)
                 (A) (A) (A) (A) (A) (A) (A)
 The electronic state is 1-A.
 Alpha  occ. eigenvalues --  -19.14590 -19.14078 -10.27290 -10.24346 -10.21776
 Alpha  occ. eigenvalues --  -10.19257 -10.18801 -10.18580 -10.18296 -10.17773
 Alpha  occ. eigenvalues --  -10.17643 -10.17415  -1.04443  -1.02239  -0.82503
 Alpha  occ. eigenvalues --   -0.80055  -0.77071  -0.71717  -0.68763  -0.64046
 Alpha  occ. eigenvalues --   -0.62563  -0.59236  -0.57894  -0.54721  -0.49674
 Alpha  occ. eigenvalues --   -0.48102  -0.47837  -0.46060  -0.45066  -0.43659
 Alpha  occ. eigenvalues --   -0.43279  -0.41035  -0.40690  -0.40047  -0.38752
 Alpha  occ. eigenvalues --   -0.38206  -0.36944  -0.35822  -0.34817  -0.33943
 Alpha  occ. eigenvalues --   -0.33679  -0.33355  -0.32582  -0.32172  -0.30537
 Alpha  occ. eigenvalues --   -0.28197  -0.23314
 Alpha virt. eigenvalues --   -0.04181   0.07030   0.08894   0.10784   0.10866
 Alpha virt. eigenvalues --    0.11784   0.12659   0.12807   0.14348   0.15022
 Alpha virt. eigenvalues --    0.15533   0.15982   0.16948   0.17049   0.17321
 Alpha virt. eigenvalues --    0.18174   0.18691   0.19644   0.20252   0.21473
 Alpha virt. eigenvalues --    0.21739   0.22705   0.24290   0.24552   0.25508
 Alpha virt. eigenvalues --    0.27715   0.27930   0.29848   0.31665   0.33312
 Alpha virt. eigenvalues --    0.33707   0.43358   0.45048   0.45338   0.46937
 Alpha virt. eigenvalues --    0.47053   0.48040   0.48487   0.50775   0.51300
 Alpha virt. eigenvalues --    0.51917   0.53619   0.53701   0.54406   0.55203
 Alpha virt. eigenvalues --    0.55787   0.56316   0.58431   0.59963   0.60792
 Alpha virt. eigenvalues --    0.62121   0.63496   0.64610   0.65847   0.66376
 Alpha virt. eigenvalues --    0.66830   0.68422   0.69705   0.71169   0.71993
 Alpha virt. eigenvalues --    0.72431   0.72865   0.73493   0.74555   0.75776
 Alpha virt. eigenvalues --    0.76069   0.76674   0.77159   0.77845   0.79012
 Alpha virt. eigenvalues --    0.79697   0.80126   0.80956   0.81611   0.82965
 Alpha virt. eigenvalues --    0.83635   0.84407   0.85993   0.86486   0.87263
 Alpha virt. eigenvalues --    0.88806   0.90952   0.92507   0.93749   0.94111
 Alpha virt. eigenvalues --    0.95728   0.98012   1.01579   1.03813   1.03958
 Alpha virt. eigenvalues --    1.04567   1.05761   1.07010   1.08837   1.11493
 Alpha virt. eigenvalues --    1.12088   1.16289   1.18142   1.19966   1.21329
 Alpha virt. eigenvalues --    1.23064   1.23944   1.26655   1.27216   1.29243
 Alpha virt. eigenvalues --    1.31234   1.31726   1.33362   1.35147   1.36139
 Alpha virt. eigenvalues --    1.37036   1.38966   1.41015   1.42910   1.43698
 Alpha virt. eigenvalues --    1.44812   1.45982   1.47258   1.48563   1.50547
 Alpha virt. eigenvalues --    1.50907   1.52812   1.53781   1.55531   1.56814
 Alpha virt. eigenvalues --    1.57440   1.58338   1.59910   1.60822   1.62206
 Alpha virt. eigenvalues --    1.64321   1.66241   1.68519   1.69394   1.72370
 Alpha virt. eigenvalues --    1.72610   1.76402   1.77338   1.79804   1.82033
 Alpha virt. eigenvalues --    1.83059   1.84200   1.85968   1.86851   1.87051
 Alpha virt. eigenvalues --    1.91496   1.92069   1.92506   1.94410   1.95580
 Alpha virt. eigenvalues --    1.97623   1.97931   2.00092   2.02719   2.05187
 Alpha virt. eigenvalues --    2.08421   2.10753   2.13983   2.17346   2.18105
 Alpha virt. eigenvalues --    2.18950   2.20607   2.23673   2.25488   2.26990
 Alpha virt. eigenvalues --    2.29310   2.32658   2.33513   2.35311   2.36503
 Alpha virt. eigenvalues --    2.37005   2.39660   2.41313   2.42712   2.45491
 Alpha virt. eigenvalues --    2.47951   2.49567   2.51605   2.56127   2.58119
 Alpha virt. eigenvalues --    2.59706   2.61551   2.66241   2.67727   2.69011
 Alpha virt. eigenvalues --    2.70878   2.73733   2.74829   2.76460   2.77585
 Alpha virt. eigenvalues --    2.78125   2.79057   2.81025   2.82238   2.83251
 Alpha virt. eigenvalues --    2.84886   2.85065   2.87209   2.88750   2.89663
 Alpha virt. eigenvalues --    2.90323   2.91393   2.92792   2.93309   2.93964
 Alpha virt. eigenvalues --    2.95126   2.96642   2.97006   2.99193   3.00591
 Alpha virt. eigenvalues --    3.02143   3.04339   3.06227   3.07889   3.09160
 Alpha virt. eigenvalues --    3.10177   3.12150   3.13071   3.16567   3.18726
 Alpha virt. eigenvalues --    3.20637   3.22080   3.23367   3.25556   3.26007
 Alpha virt. eigenvalues --    3.28758   3.30786   3.33014   3.34605   3.35010
 Alpha virt. eigenvalues --    3.36481   3.38441   3.39405   3.41576   3.43053
 Alpha virt. eigenvalues --    3.43612   3.45002   3.47992   3.49829   3.51933
 Alpha virt. eigenvalues --    3.52182   3.54297   3.55913   3.57325   3.57953
 Alpha virt. eigenvalues --    3.60590   3.61545   3.62803   3.64062   3.69697
 Alpha virt. eigenvalues --    3.71075   3.71864   3.74788   3.75403   3.76315
 Alpha virt. eigenvalues --    3.80016   3.82162   3.83541   3.85081   3.87596
 Alpha virt. eigenvalues --    3.88869   3.89957   3.93279   3.97667   4.00449
 Alpha virt. eigenvalues --    4.04979   4.05981   4.08243   4.09691   4.14170
 Alpha virt. eigenvalues --    4.14560   4.19823   4.22644   4.28242   4.31263
 Alpha virt. eigenvalues --    4.32116   4.34691   4.35917   4.37865   4.39165
 Alpha virt. eigenvalues --    4.41040   4.43145   4.43541   4.44904   4.46591
 Alpha virt. eigenvalues --    4.47777   4.48919   4.50926   4.52304   4.52603
 Alpha virt. eigenvalues --    4.54467   4.54746   4.55593   4.55875   4.56922
 Alpha virt. eigenvalues --    4.57920   4.59219   4.61588   4.61805   4.64087
 Alpha virt. eigenvalues --    4.64885   4.65333   4.67134   4.68079   4.69460
 Alpha virt. eigenvalues --    4.69959   4.70832   4.72065   4.72546   4.74443
 Alpha virt. eigenvalues --    4.76147   4.76287   4.77823   4.78708   4.79640
 Alpha virt. eigenvalues --    4.83066   4.84431   4.84780   4.85359   4.87154
 Alpha virt. eigenvalues --    4.88636   4.89918   4.90328   4.90754   4.92755
 Alpha virt. eigenvalues --    4.95684   4.96177   4.98132   5.01309   5.02378
 Alpha virt. eigenvalues --    5.05876   5.07442   5.09810   5.12976   5.13255
 Alpha virt. eigenvalues --    5.14992   5.20864   5.23523   5.28912   5.31536
 Alpha virt. eigenvalues --    5.32485   5.35787   5.41676   5.43802   5.46758
 Alpha virt. eigenvalues --    5.48997   5.49456   5.51745   5.54085   5.55321
 Alpha virt. eigenvalues --    5.61769   5.62112   5.75147   5.77819   5.85589
 Alpha virt. eigenvalues --    5.90905   5.95910   6.04451   6.09194   6.11936
 Alpha virt. eigenvalues --    6.18688   6.27185   6.41677   6.51573   6.85810
 Alpha virt. eigenvalues --    7.11741   7.50468  11.06631  11.23477  11.26698
 Alpha virt. eigenvalues --   11.75721  11.76903  12.11974  12.24771  12.48675
 Alpha virt. eigenvalues --   12.76112  13.04722  13.21562  13.72659
          Condensed to atoms (all electrons):
               1          2          3          4          5          6
     1  C    4.947292   0.406781  -0.035411   0.002100  -0.000117   0.000006
     2  C    0.406781   4.803311   0.428396  -0.030442   0.001358  -0.000048
     3  C   -0.035411   0.428396   4.787550   0.385246  -0.031479   0.000647
     4  C    0.002100  -0.030442   0.385246   5.091617   0.372803  -0.035523
     5  C   -0.000117   0.001358  -0.031479   0.372803   4.816675   0.242080
     6  C    0.000006  -0.000048   0.000647  -0.035523   0.242080   4.649435
     7  O   -0.000000  -0.000001  -0.000019   0.001773  -0.063348   0.709939
     8  O    0.000000  -0.000019   0.001095  -0.022306   0.321817  -0.015091
     9  C   -0.000000   0.000001  -0.000293   0.004258  -0.109254   0.002561
    10  C    0.000000  -0.000020   0.000471   0.005071  -0.034997  -0.002736
    11  C    0.000003   0.000137  -0.005300  -0.046082   0.334466  -0.032577
    12  C   -0.000004   0.000504  -0.003123   0.003453  -0.011428  -0.005642
    13  H    0.372993  -0.022446   0.003133  -0.000161   0.000001  -0.000000
    14  H    0.379418  -0.029637  -0.005206   0.000153   0.000013   0.000000
    15  H    0.379614  -0.030060  -0.004254   0.000168   0.000008  -0.000003
    16  H   -0.034887   0.369362  -0.030614  -0.002659   0.000260  -0.000004
    17  H   -0.034088   0.366704  -0.029506  -0.002023   0.000116  -0.000015
    18  H   -0.002671  -0.035625   0.367720  -0.039986  -0.000208   0.001691
    19  H   -0.003425  -0.041367   0.373413  -0.031852  -0.006063  -0.000384
    20  H    0.000079  -0.004260  -0.024544   0.335526  -0.003259   0.002943
    21  H    0.000025  -0.003751  -0.032196   0.347103  -0.019135  -0.007971
    22  H   -0.000009  -0.000074  -0.001813  -0.005922  -0.103037   0.335236
    23  H    0.000000  -0.000000  -0.000002  -0.000241   0.000868   0.000189
    24  H    0.000000   0.000000   0.000015   0.000102   0.007328   0.001456
    25  H    0.000000   0.000000   0.000033  -0.000143   0.003166   0.000066
    26  H   -0.000000   0.000000  -0.000023  -0.000158   0.001120   0.000303
    27  H   -0.000003  -0.000123  -0.002908  -0.013129  -0.034058   0.004501
    28  H   -0.000000  -0.000006  -0.000153   0.000075  -0.012656   0.009204
    29  H    0.000074  -0.000319   0.001815  -0.000562  -0.003674   0.001398
    30  H    0.000000  -0.000011  -0.000047  -0.000102   0.003138   0.000060
               7          8          9         10         11         12
     1  C   -0.000000   0.000000  -0.000000   0.000000   0.000003  -0.000004
     2  C   -0.000001  -0.000019   0.000001  -0.000020   0.000137   0.000504
     3  C   -0.000019   0.001095  -0.000293   0.000471  -0.005300  -0.003123
     4  C    0.001773  -0.022306   0.004258   0.005071  -0.046082   0.003453
     5  C   -0.063348   0.321817  -0.109254  -0.034997   0.334466  -0.011428
     6  C    0.709939  -0.015091   0.002561  -0.002736  -0.032577  -0.005642
     7  O    7.672059  -0.001832  -0.001090   0.000904   0.000749  -0.006534
     8  O   -0.001832   7.769016   0.388359  -0.056875  -0.036099   0.001602
     9  C   -0.001090   0.388359   4.793828   0.368847  -0.042402   0.003023
    10  C    0.000904  -0.056875   0.368847   4.997833   0.401321  -0.031083
    11  C    0.000749  -0.036099  -0.042402   0.401321   4.790616   0.361656
    12  C   -0.006534   0.001602   0.003023  -0.031083   0.361656   5.087859
    13  H    0.000000  -0.000000   0.000000  -0.000000  -0.000000   0.000000
    14  H   -0.000000   0.000000   0.000000   0.000000  -0.000016  -0.000017
    15  H    0.000000  -0.000000   0.000000   0.000000   0.000004  -0.000016
    16  H   -0.000000  -0.000001   0.000000  -0.000000   0.000017  -0.000014
    17  H   -0.000000   0.000000   0.000000   0.000000   0.000016  -0.000010
    18  H   -0.000131   0.000008   0.000013  -0.000034  -0.001256  -0.002393
    19  H    0.000008   0.000052   0.000016   0.000031   0.005029  -0.004432
    20  H   -0.000056   0.002700   0.000365  -0.000151  -0.004318   0.000104
    21  H    0.000087   0.000891  -0.000050  -0.000176   0.004923  -0.000308
    22  H   -0.048412   0.004104   0.000305  -0.000271   0.007822  -0.001193
    23  H    0.000274  -0.018875   0.361676  -0.027574   0.005039  -0.000161
    24  H    0.012915  -0.032733   0.361781  -0.039021  -0.006964   0.000956
    25  H    0.000001   0.001570  -0.024900   0.351491  -0.016891   0.005324
    26  H   -0.000104   0.002502  -0.019245   0.357814  -0.022947  -0.012828
    27  H   -0.000038   0.001690   0.004337  -0.035256   0.362340  -0.056558
    28  H    0.006837   0.000305   0.000494  -0.004622  -0.017583   0.365919
    29  H    0.000114  -0.000026  -0.000230   0.005297  -0.027453   0.367312
    30  H    0.000113  -0.000062   0.000027  -0.004943  -0.018657   0.367126
              13         14         15         16         17         18
     1  C    0.372993   0.379418   0.379614  -0.034887  -0.034088  -0.002671
     2  C   -0.022446  -0.029637  -0.030060   0.369362   0.366704  -0.035625
     3  C    0.003133  -0.005206  -0.004254  -0.030614  -0.029506   0.367720
     4  C   -0.000161   0.000153   0.000168  -0.002659  -0.002023  -0.039986
     5  C    0.000001   0.000013   0.000008   0.000260   0.000116  -0.000208
     6  C   -0.000000   0.000000  -0.000003  -0.000004  -0.000015   0.001691
     7  O    0.000000  -0.000000   0.000000  -0.000000  -0.000000  -0.000131
     8  O   -0.000000   0.000000  -0.000000  -0.000001   0.000000   0.000008
     9  C    0.000000   0.000000   0.000000   0.000000   0.000000   0.000013
    10  C   -0.000000   0.000000   0.000000  -0.000000   0.000000  -0.000034
    11  C   -0.000000  -0.000016   0.000004   0.000017   0.000016  -0.001256
    12  C    0.000000  -0.000017  -0.000016  -0.000014  -0.000010  -0.002393
    13  H    0.601676  -0.031299  -0.030945  -0.002044  -0.002174  -0.000025
    14  H   -0.031299   0.598973  -0.033572  -0.004351   0.005494  -0.000495
    15  H   -0.030945  -0.033572   0.598234   0.005496  -0.004117   0.005395
    16  H   -0.002044  -0.004351   0.005496   0.637501  -0.039859   0.006436
    17  H   -0.002174   0.005494  -0.004117  -0.039859   0.639114  -0.006291
    18  H   -0.000025  -0.000495   0.005395   0.006436  -0.006291   0.646998
    19  H   -0.000015   0.006363  -0.000492  -0.006214   0.006559  -0.044961
    20  H    0.000003   0.000003   0.000009   0.004563  -0.000446   0.005978
    21  H    0.000005   0.000008   0.000006  -0.000418   0.004501  -0.005476
    22  H   -0.000000   0.000000  -0.000002   0.000001   0.000067   0.003464
    23  H   -0.000000   0.000000   0.000000   0.000000   0.000000   0.000000
    24  H   -0.000000   0.000000  -0.000000  -0.000000   0.000000  -0.000001
    25  H    0.000000   0.000000  -0.000000  -0.000000   0.000000  -0.000001
    26  H   -0.000000  -0.000000   0.000000   0.000000  -0.000000   0.000001
    27  H   -0.000000  -0.000007   0.000001   0.000058  -0.000001   0.000499
    28  H   -0.000000   0.000000   0.000000   0.000000   0.000000   0.000247
    29  H   -0.000001   0.000066   0.000051   0.000013   0.000011   0.004136
    30  H   -0.000000   0.000001   0.000000   0.000000   0.000000   0.000023
              19         20         21         22         23         24
     1  C   -0.003425   0.000079   0.000025  -0.000009   0.000000   0.000000
     2  C   -0.041367  -0.004260  -0.003751  -0.000074  -0.000000   0.000000
     3  C    0.373413  -0.024544  -0.032196  -0.001813  -0.000002   0.000015
     4  C   -0.031852   0.335526   0.347103  -0.005922  -0.000241   0.000102
     5  C   -0.006063  -0.003259  -0.019135  -0.103037   0.000868   0.007328
     6  C   -0.000384   0.002943  -0.007971   0.335236   0.000189   0.001456
     7  O    0.000008  -0.000056   0.000087  -0.048412   0.000274   0.012915
     8  O    0.000052   0.002700   0.000891   0.004104  -0.018875  -0.032733
     9  C    0.000016   0.000365  -0.000050   0.000305   0.361676   0.361781
    10  C    0.000031  -0.000151  -0.000176  -0.000271  -0.027574  -0.039021
    11  C    0.005029  -0.004318   0.004923   0.007822   0.005039  -0.006964
    12  C   -0.004432   0.000104  -0.000308  -0.001193  -0.000161   0.000956
    13  H   -0.000015   0.000003   0.000005  -0.000000  -0.000000  -0.000000
    14  H    0.006363   0.000003   0.000008   0.000000   0.000000   0.000000
    15  H   -0.000492   0.000009   0.000006  -0.000002   0.000000  -0.000000
    16  H   -0.006214   0.004563  -0.000418   0.000001   0.000000  -0.000000
    17  H    0.006559  -0.000446   0.004501   0.000067   0.000000   0.000000
    18  H   -0.044961   0.005978  -0.005476   0.003464   0.000000  -0.000001
    19  H    0.634261  -0.005463   0.006253   0.000056   0.000000  -0.000001
    20  H   -0.005463   0.616855  -0.039355  -0.000441  -0.000048   0.000036
    21  H    0.006253  -0.039355   0.634663   0.008046   0.000008  -0.000002
    22  H    0.000056  -0.000441   0.008046   0.715968   0.000023   0.000175
    23  H    0.000000  -0.000048   0.000008   0.000023   0.632825  -0.049451
    24  H   -0.000001   0.000036  -0.000002   0.000175  -0.049451   0.623615
    25  H   -0.000002   0.000020   0.000005   0.000005  -0.010872   0.006082
    26  H    0.000012   0.000002   0.000004   0.000000   0.004189  -0.006606
    27  H    0.002686   0.004115   0.000102  -0.000281  -0.000277  -0.000193
    28  H    0.000086  -0.000000   0.000018   0.000706  -0.000001  -0.000074
    29  H    0.001338   0.000047  -0.000046  -0.000266   0.000005  -0.000005
    30  H    0.000551   0.000005   0.000006   0.000016  -0.000000   0.000015
              25         26         27         28         29         30
     1  C    0.000000  -0.000000  -0.000003  -0.000000   0.000074   0.000000
     2  C    0.000000   0.000000  -0.000123  -0.000006  -0.000319  -0.000011
     3  C    0.000033  -0.000023  -0.002908  -0.000153   0.001815  -0.000047
     4  C   -0.000143  -0.000158  -0.013129   0.000075  -0.000562  -0.000102
     5  C    0.003166   0.001120  -0.034058  -0.012656  -0.003674   0.003138
     6  C    0.000066   0.000303   0.004501   0.009204   0.001398   0.000060
     7  O    0.000001  -0.000104  -0.000038   0.006837   0.000114   0.000113
     8  O    0.001570   0.002502   0.001690   0.000305  -0.000026  -0.000062
     9  C   -0.024900  -0.019245   0.004337   0.000494  -0.000230   0.000027
    10  C    0.351491   0.357814  -0.035256  -0.004622   0.005297  -0.004943
    11  C   -0.016891  -0.022947   0.362340  -0.017583  -0.027453  -0.018657
    12  C    0.005324  -0.012828  -0.056558   0.365919   0.367312   0.367126
    13  H    0.000000  -0.000000  -0.000000  -0.000000  -0.000001  -0.000000
    14  H    0.000000  -0.000000  -0.000007   0.000000   0.000066   0.000001
    15  H   -0.000000   0.000000   0.000001   0.000000   0.000051   0.000000
    16  H   -0.000000   0.000000   0.000058   0.000000   0.000013   0.000000
    17  H    0.000000  -0.000000  -0.000001   0.000000   0.000011   0.000000
    18  H   -0.000001   0.000001   0.000499   0.000247   0.004136   0.000023
    19  H   -0.000002   0.000012   0.002686   0.000086   0.001338   0.000551
    20  H    0.000020   0.000002   0.004115  -0.000000   0.000047   0.000005
    21  H    0.000005   0.000004   0.000102   0.000018  -0.000046   0.000006
    22  H    0.000005   0.000000  -0.000281   0.000706  -0.000266   0.000016
    23  H   -0.010872   0.004189  -0.000277  -0.000001   0.000005  -0.000000
    24  H    0.006082  -0.006606  -0.000193  -0.000074  -0.000005   0.000015
    25  H    0.644706  -0.043922  -0.016809  -0.000144  -0.000245   0.000399
    26  H   -0.043922   0.622531   0.006373   0.004114   0.000166   0.001311
    27  H   -0.016809   0.006373   0.691019   0.006022  -0.003339  -0.003708
    28  H   -0.000144   0.004114   0.006022   0.559833  -0.031741  -0.029362
    29  H   -0.000245   0.000166  -0.003339  -0.031741   0.601270  -0.030097
    30  H    0.000399   0.001311  -0.003708  -0.029362  -0.030097   0.603386
 Mulliken charges:
               1
     1  C   -0.377772
     2  C   -0.178347
     3  C   -0.142645
     4  C   -0.318159
     5  C    0.327495
     6  C    0.138277
     7  O   -0.284207
     8  O   -0.311794
     9  C   -0.092425
    10  C   -0.251322
    11  C    0.004406
    12  C   -0.429095
    13  H    0.111298
    14  H    0.114107
    15  H    0.114476
    16  H    0.097357
    17  H    0.095946
    18  H    0.096944
    19  H    0.107955
    20  H    0.108988
    21  H    0.102231
    22  H    0.085730
    23  H    0.102405
    24  H    0.120572
    25  H    0.101058
    26  H    0.105391
    27  H    0.082945
    28  H    0.142481
    29  H    0.114893
    30  H    0.110811
 Sum of Mulliken charges =  -0.00000
 Mulliken charges with hydrogens summed into heavy atoms:
               1
     1  C   -0.037892
     2  C    0.014956
     3  C    0.062253
     4  C   -0.106940
     5  C    0.327495
     6  C    0.224007
     7  O   -0.284207
     8  O   -0.311794
     9  C    0.130552
    10  C   -0.044873
    11  C    0.087351
    12  C   -0.060909
 Electronic spatial extent (au):  <R**2>=           2542.9376
 Charge=             -0.0000 electrons
 Dipole moment (field-independent basis, Debye):
    X=             -1.9461    Y=              1.4262    Z=             -1.0714  Tot=              2.6400
 Quadrupole moment (field-independent basis, Debye-Ang):
   XX=            -75.3971   YY=            -75.2013   ZZ=            -78.3057
   XY=              4.7084   XZ=             -4.0636   YZ=             -1.2562
 Traceless Quadrupole moment (field-independent basis, Debye-Ang):
   XX=              0.9043   YY=              1.1001   ZZ=             -2.0044
   XY=              4.7084   XZ=             -4.0636   YZ=             -1.2562
 Octapole moment (field-independent basis, Debye-Ang**2):
  XXX=             19.2467  YYY=             -5.6959  ZZZ=             -8.0833  XYY=              1.1700
  XXY=              3.0858  XXZ=            -12.7557  XZZ=             -5.8720  YZZ=              3.3076
  YYZ=              2.6457  XYZ=              2.7507
 Hexadecapole moment (field-independent basis, Debye-Ang**3):
 XXXX=          -2319.8891 YYYY=           -550.2737 ZZZZ=           -494.3313 XXXY=             10.6682
 XXXZ=            -17.2672 YYYX=             -4.1038 YYYZ=            -10.5092 ZZZX=            -19.5326
 ZZZY=              2.5823 XXYY=           -492.9700 XXZZ=           -481.8728 YYZZ=           -178.8374
 XXYZ=              3.2502 YYXZ=              4.5965 ZZXY=              9.5335
 N-N= 7.710305621795D+02 E-N=-2.803598242665D+03  KE= 5.381924199897D+02
 PrsmSu:  requested number of processors reduced to:  13 ShMem   1 Linda.
 Calling FoFJK, ICntrl=      2127 FMM=F ISym2X=0 I1Cent= 0 IOpClX= 0 NMat=1 NMatS=1 NMatT=0.
 ***** Axes restored to original set *****
 -------------------------------------------------------------------
 Center     Atomic                   Forces (Hartrees/Bohr)
 Number     Number              X              Y              Z
 -------------------------------------------------------------------
      1        6          -0.003185451    0.004108454    0.003499395
      2        6          -0.003484628    0.000115622   -0.002338817
      3        6           0.007338457   -0.000333207    0.002448850
      4        6           0.002879398   -0.002406649   -0.001215167
      5        6           0.007269758    0.008710128    0.010001802
      6        6           0.007966150   -0.026645272   -0.034472561
      7        8          -0.007973050    0.017735829    0.035643675
      8        8          -0.002797539   -0.001646527   -0.001303006
      9        6           0.010188424    0.005327225   -0.008716925
     10        6           0.005454972   -0.016481192    0.006933196
     11        6          -0.017381554   -0.006393248   -0.000650952
     12        6          -0.006902987   -0.000930736   -0.004177945
     13        1          -0.003623813    0.000437244    0.000115867
     14        1          -0.000243725    0.000889838    0.000186397
     15        1          -0.000781766    0.000548460    0.000658036
     16        1           0.002054687    0.002137783    0.001165753
     17        1           0.001326852    0.002636778    0.002303762
     18        1          -0.001565145   -0.000444518   -0.000136984
     19        1           0.000764016   -0.000350172   -0.003263544
     20        1           0.000342658   -0.003911737   -0.002584842
     21        1           0.000834752   -0.000977695   -0.001184861
     22        1           0.000747443    0.006003238    0.000740244
     23        1           0.001680937    0.006698227    0.003398270
     24        1           0.000413003    0.001228956   -0.000325380
     25        1          -0.000702964   -0.000849157   -0.002609438
     26        1           0.000293471    0.001698519   -0.001181481
     27        1          -0.000185062    0.007647876   -0.003423244
     28        1           0.000953019   -0.001477917    0.000145252
     29        1          -0.000950360   -0.001255423   -0.000178554
     30        1          -0.000729952   -0.001820727    0.000523199
 -------------------------------------------------------------------
 Cartesian Forces:  Max     0.035643675 RMS     0.007615976

 GradGradGradGradGradGradGradGradGradGradGradGradGradGradGradGradGradGrad
 Berny optimization.
 FormGI is forming the generalized inverse of G from B-inverse, IUseBI=4.
 Internal  Forces:  Max     0.040422716 RMS     0.005562891
 Search for a local minimum.
 Step number   1 out of a maximum of  180
 All quantities printed in internal units (Hartrees-Bohrs-Radians)
 Mixed Optimization -- RFO/linear search
 Second derivative matrix not updated -- first step.
 ITU=  0
     Eigenvalues ---    0.00230   0.00230   0.00232   0.00299   0.00446
     Eigenvalues ---    0.00459   0.00485   0.00570   0.01016   0.02955
     Eigenvalues ---    0.03323   0.03473   0.03507   0.04020   0.04299
     Eigenvalues ---    0.04351   0.04750   0.04859   0.04874   0.05064
     Eigenvalues ---    0.05434   0.05485   0.05572   0.05608   0.05644
     Eigenvalues ---    0.05667   0.05851   0.06258   0.07169   0.07820
     Eigenvalues ---    0.08147   0.08327   0.08613   0.09258   0.11087
     Eigenvalues ---    0.11552   0.11791   0.12076   0.12387   0.12518
     Eigenvalues ---    0.15249   0.16000   0.16000   0.16000   0.16000
     Eigenvalues ---    0.16000   0.16000   0.16000   0.17690   0.20960
     Eigenvalues ---    0.21836   0.21900   0.21980   0.22001   0.26578
     Eigenvalues ---    0.27698   0.28217   0.28941   0.29198   0.29964
     Eigenvalues ---    0.30062   0.30344   0.30871   0.33458   0.33699
     Eigenvalues ---    0.33828   0.33930   0.33996   0.34056   0.34080
     Eigenvalues ---    0.34163   0.34189   0.34248   0.34259   0.34392
     Eigenvalues ---    0.34399   0.34405   0.34506   0.34558   0.34576
     Eigenvalues ---    0.34618   0.37269   0.37513   0.89871
 RFO step:  Lambda=-2.28333491D-02 EMin= 2.30000000D-03
 Linear search not attempted -- first point.
 Iteration  1 RMS(Cart)=  0.21761892 RMS(Int)=  0.00784411
 Iteration  2 RMS(Cart)=  0.02308944 RMS(Int)=  0.00074250
 Iteration  3 RMS(Cart)=  0.00028955 RMS(Int)=  0.00073696
 Iteration  4 RMS(Cart)=  0.00000015 RMS(Int)=  0.00073696
 Variable       Old X    -DE/DX   Delta X   Delta X   Delta X     New X
                                 (Linear)    (Quad)   (Total)
    R1        2.87839   0.00768   0.00000   0.02375   0.02375   2.90215
    R2        2.06369   0.00170   0.00000   0.00461   0.00461   2.06830
    R3        2.07196  -0.00066   0.00000  -0.00182  -0.00182   2.07014
    R4        2.07056  -0.00022   0.00000  -0.00061  -0.00061   2.06996
    R5        2.86259   0.01382   0.00000   0.04169   0.04169   2.90428
    R6        2.06895   0.00134   0.00000   0.00366   0.00366   2.07261
    R7        2.06662   0.00221   0.00000   0.00602   0.00602   2.07264
    R8        2.90125   0.00217   0.00000   0.00696   0.00696   2.90821
    R9        2.07236   0.00058   0.00000   0.00161   0.00161   2.07397
   R10        2.06913  -0.00094   0.00000  -0.00258  -0.00258   2.06655
   R11        2.92803   0.00067   0.00000   0.00224   0.00224   2.93027
   R12        2.07337  -0.00145   0.00000  -0.00400  -0.00400   2.06938
   R13        2.07622  -0.00026   0.00000  -0.00073  -0.00073   2.07549
   R14        2.91666  -0.00293   0.00000  -0.00962  -0.00962   2.90704
   R15        2.72384  -0.00424   0.00000  -0.01194  -0.01239   2.71145
   R16        2.90989   0.01649   0.00000   0.05472   0.05430   2.96419
   R17        2.32992  -0.04042   0.00000  -0.04386  -0.04386   2.28606
   R18        2.08255   0.00514   0.00000   0.01438   0.01438   2.09693
   R19        2.72145  -0.00638   0.00000  -0.02216  -0.02199   2.69947
   R20        2.85480   0.01246   0.00000   0.03957   0.04007   2.89486
   R21        2.06674  -0.00015   0.00000  -0.00041  -0.00041   2.06633
   R22        2.07012   0.00045   0.00000   0.00123   0.00123   2.07135
   R23        2.86858   0.01886   0.00000   0.06428   0.06447   2.93305
   R24        2.07448  -0.00185   0.00000  -0.00510  -0.00510   2.06938
   R25        2.06652  -0.00034   0.00000  -0.00092  -0.00092   2.06559
   R26        2.88035   0.00887   0.00000   0.02750   0.02750   2.90785
   R27        2.07841  -0.00378   0.00000  -0.01050  -0.01050   2.06791
   R28        2.06484   0.00014   0.00000   0.00039   0.00039   2.06523
   R29        2.06398  -0.00031   0.00000  -0.00085  -0.00085   2.06313
   R30        2.06299   0.00201   0.00000   0.00545   0.00545   2.06844
    A1        1.92605   0.00432   0.00000   0.02424   0.02420   1.95024
    A2        1.93778  -0.00019   0.00000  -0.00123  -0.00125   1.93653
    A3        1.93648   0.00043   0.00000   0.00188   0.00185   1.93833
    A4        1.88935  -0.00201   0.00000  -0.01013  -0.01017   1.87918
    A5        1.89363  -0.00243   0.00000  -0.01298  -0.01303   1.88059
    A6        1.87893  -0.00034   0.00000  -0.00306  -0.00305   1.87588
    A7        1.90814   0.01110   0.00000   0.05357   0.05332   1.96146
    A8        1.91180  -0.00235   0.00000  -0.00438  -0.00462   1.90718
    A9        1.92100  -0.00365   0.00000  -0.01385  -0.01420   1.90680
   A10        1.91286  -0.00324   0.00000  -0.00968  -0.00996   1.90290
   A11        1.91834  -0.00221   0.00000  -0.00262  -0.00272   1.91562
   A12        1.89162   0.00020   0.00000  -0.02388  -0.02412   1.86750
   A13        1.99473  -0.00480   0.00000  -0.01844  -0.01846   1.97627
   A14        1.90078   0.00009   0.00000  -0.00787  -0.00792   1.89287
   A15        1.85594   0.00394   0.00000   0.02931   0.02938   1.88532
   A16        1.91442   0.00232   0.00000   0.00606   0.00590   1.92032
   A17        1.91805   0.00028   0.00000   0.00302   0.00312   1.92117
   A18        1.87565  -0.00170   0.00000  -0.01157  -0.01153   1.86412
   A19        1.94620   0.02630   0.00000   0.11442   0.11466   2.06086
   A20        1.91866  -0.00517   0.00000  -0.00128  -0.00087   1.91779
   A21        1.90675  -0.00870   0.00000  -0.03494  -0.03384   1.87291
   A22        1.92440  -0.01060   0.00000  -0.04735  -0.04932   1.87508
   A23        1.92338  -0.00846   0.00000  -0.04201  -0.04205   1.88133
   A24        1.84158   0.00522   0.00000   0.00422   0.00258   1.84415
   A25        1.88329   0.00148   0.00000   0.01410   0.01097   1.89426
   A26        1.93055  -0.00816   0.00000  -0.08116  -0.08122   1.84933
   A27        1.95310   0.00971   0.00000   0.08785   0.08824   2.04133
   A28        1.88888  -0.00194   0.00000  -0.03186  -0.03241   1.85647
   A29        1.98773  -0.00459   0.00000  -0.00901  -0.01127   1.97646
   A30        1.81909   0.00270   0.00000   0.01117   0.01245   1.83154
   A31        2.18273  -0.00354   0.00000  -0.01384  -0.01697   2.16576
   A32        2.02039   0.00106   0.00000   0.00450   0.00137   2.02176
   A33        2.07977   0.00256   0.00000   0.01266   0.00951   2.08928
   A34        1.86104   0.00672   0.00000   0.02742   0.02649   1.88753
   A35        1.85066   0.00019   0.00000  -0.01133  -0.01140   1.83927
   A36        1.92893  -0.00499   0.00000  -0.05016  -0.05007   1.87887
   A37        1.91107  -0.00057   0.00000   0.00314   0.00348   1.91454
   A38        1.96126   0.00397   0.00000   0.02968   0.02923   1.99048
   A39        1.93204   0.00130   0.00000   0.01722   0.01678   1.94882
   A40        1.88001  -0.00003   0.00000   0.01030   0.00947   1.88948
   A41        1.82550  -0.00096   0.00000   0.00478   0.00452   1.83002
   A42        1.91208  -0.00000   0.00000   0.01349   0.01327   1.92535
   A43        1.96743   0.00050   0.00000  -0.01575  -0.01561   1.95182
   A44        1.90804   0.00033   0.00000   0.01176   0.01186   1.91989
   A45        1.98361   0.00037   0.00000  -0.01193  -0.01215   1.97147
   A46        1.86668  -0.00022   0.00000  -0.00061  -0.00051   1.86616
   A47        1.84168  -0.00765   0.00000  -0.03058  -0.03124   1.81044
   A48        2.00291   0.00899   0.00000   0.05358   0.05384   2.05675
   A49        1.90740  -0.00317   0.00000  -0.04300  -0.04254   1.86486
   A50        1.96682   0.00067   0.00000  -0.01076  -0.01008   1.95674
   A51        1.84308   0.00285   0.00000   0.03151   0.03101   1.87409
   A52        1.89471  -0.00224   0.00000  -0.00365  -0.00341   1.89130
   A53        1.94244  -0.00129   0.00000  -0.00695  -0.00701   1.93543
   A54        1.96049   0.00232   0.00000   0.01566   0.01566   1.97615
   A55        1.92998  -0.00087   0.00000  -0.00776  -0.00779   1.92219
   A56        1.86938   0.00043   0.00000   0.00795   0.00792   1.87730
   A57        1.88348   0.00015   0.00000  -0.00479  -0.00488   1.87859
   A58        1.87456  -0.00077   0.00000  -0.00429  -0.00426   1.87031
    D1        3.13882  -0.00017   0.00000  -0.00084  -0.00076   3.13806
    D2        1.04251  -0.00158   0.00000  -0.01919  -0.01921   1.02330
    D3       -1.03563   0.00185   0.00000   0.02123   0.02115  -1.01448
    D4        1.04386  -0.00036   0.00000  -0.00330  -0.00322   1.04064
    D5       -1.05245  -0.00177   0.00000  -0.02165  -0.02168  -1.07413
    D6       -3.13058   0.00166   0.00000   0.01877   0.01868  -3.11190
    D7       -1.04489  -0.00009   0.00000   0.00011   0.00022  -1.04467
    D8       -3.14120  -0.00150   0.00000  -0.01824  -0.01824   3.12375
    D9        1.06385   0.00193   0.00000   0.02219   0.02212   1.08597
   D10       -3.10702  -0.00049   0.00000  -0.01239  -0.01223  -3.11925
   D11        1.02866  -0.00021   0.00000  -0.00135  -0.00133   1.02733
   D12       -0.98777  -0.00032   0.00000   0.00075   0.00081  -0.98695
   D13       -1.01135   0.00147   0.00000   0.00926   0.00932  -1.00203
   D14        3.12432   0.00175   0.00000   0.02030   0.02023  -3.13864
   D15        1.10790   0.00164   0.00000   0.02239   0.02237   1.13027
   D16        1.06581  -0.00162   0.00000  -0.02752  -0.02751   1.03830
   D17       -1.08170  -0.00134   0.00000  -0.01648  -0.01661  -1.09830
   D18       -3.09812  -0.00144   0.00000  -0.01438  -0.01446  -3.11258
   D19       -3.13370   0.00150   0.00000   0.03167   0.03230  -3.10141
   D20        1.00965   0.00066   0.00000   0.01476   0.01415   1.02380
   D21       -1.00341   0.00221   0.00000   0.03021   0.03024  -0.97317
   D22       -0.99359  -0.00003   0.00000   0.01285   0.01345  -0.98014
   D23       -3.13342  -0.00087   0.00000  -0.00406  -0.00470  -3.13812
   D24        1.13670   0.00067   0.00000   0.01139   0.01139   1.14809
   D25        1.06483  -0.00055   0.00000   0.00417   0.00478   1.06961
   D26       -1.07500  -0.00139   0.00000  -0.01274  -0.01337  -1.08837
   D27       -3.08806   0.00015   0.00000   0.00271   0.00272  -3.08534
   D28        1.36081   0.00024   0.00000  -0.02231  -0.02162   1.33919
   D29       -2.85927  -0.00585   0.00000  -0.09853  -0.09696  -2.95623
   D30       -0.83930  -0.00169   0.00000  -0.08193  -0.08353  -0.92283
   D31       -2.78584   0.00429   0.00000   0.02151   0.02100  -2.76484
   D32       -0.72274  -0.00179   0.00000  -0.05471  -0.05434  -0.77707
   D33        1.29724   0.00237   0.00000  -0.03810  -0.04091   1.25633
   D34       -0.75986  -0.00061   0.00000  -0.02613  -0.02490  -0.78476
   D35        1.30325  -0.00670   0.00000  -0.10235  -0.10023   1.20301
   D36       -2.95996  -0.00253   0.00000  -0.08574  -0.08681  -3.04677
   D37        3.09029  -0.00859   0.00000  -0.14497  -0.14457   2.94573
   D38       -0.07781  -0.00486   0.00000   0.00375   0.00393  -0.07388
   D39        1.00065   0.00139   0.00000  -0.03829  -0.03799   0.96265
   D40       -2.16745   0.00512   0.00000   0.11043   0.11050  -2.05695
   D41       -1.01332   0.00194   0.00000  -0.02631  -0.02669  -1.04000
   D42        2.10177   0.00568   0.00000   0.12240   0.12181   2.22358
   D43        2.71398   0.00909   0.00000   0.06366   0.06231   2.77629
   D44       -1.50951   0.00505   0.00000   0.01510   0.01629  -1.49321
   D45        0.61202   0.00019   0.00000  -0.00526  -0.00615   0.60587
   D46       -2.44719   0.00729   0.00000   0.08522   0.08434  -2.36284
   D47        1.65997   0.00629   0.00000   0.08686   0.08635   1.74632
   D48       -0.47262   0.00533   0.00000   0.08683   0.08690  -0.38572
   D49        1.69419   0.00120   0.00000   0.00435   0.00363   1.69782
   D50       -0.48184   0.00020   0.00000   0.00599   0.00563  -0.47621
   D51       -2.61443  -0.00077   0.00000   0.00596   0.00619  -2.60824
   D52       -0.36042   0.00422   0.00000   0.04052   0.04072  -0.31970
   D53       -2.53645   0.00322   0.00000   0.04216   0.04272  -2.49373
   D54        1.61414   0.00225   0.00000   0.04212   0.04328   1.65742
   D55       -0.62950  -0.00101   0.00000  -0.01468  -0.01415  -0.64366
   D56       -2.75939  -0.00308   0.00000  -0.01486  -0.01488  -2.77427
   D57        1.45553   0.00034   0.00000   0.00096   0.00106   1.45659
   D58        0.37588   0.00050   0.00000   0.02880   0.02927   0.40515
   D59       -1.66764   0.00063   0.00000   0.00620   0.00645  -1.66119
   D60        2.53926   0.00060   0.00000   0.00791   0.00823   2.54749
   D61        2.48500  -0.00320   0.00000  -0.02290  -0.02301   2.46199
   D62        0.44148  -0.00307   0.00000  -0.04551  -0.04584   0.39564
   D63       -1.63480  -0.00310   0.00000  -0.04380  -0.04406  -1.67886
   D64       -1.69535   0.00038   0.00000   0.02251   0.02295  -1.67240
   D65        2.54432   0.00051   0.00000  -0.00009   0.00012   2.54444
   D66        0.46803   0.00048   0.00000   0.00162   0.00190   0.46994
   D67       -0.00706  -0.00277   0.00000  -0.04190  -0.04202  -0.04908
   D68        2.19135   0.00352   0.00000  -0.00320  -0.00312   2.18823
   D69       -2.02617   0.00295   0.00000   0.00624   0.00663  -2.01954
   D70        2.03924  -0.00312   0.00000  -0.01816  -0.01828   2.02096
   D71       -2.04554   0.00316   0.00000   0.02055   0.02061  -2.02492
   D72        0.02013   0.00259   0.00000   0.02999   0.03036   0.05050
   D73       -2.16003  -0.00294   0.00000  -0.01845  -0.01862  -2.17865
   D74        0.03838   0.00335   0.00000   0.02025   0.02028   0.05866
   D75        2.10405   0.00278   0.00000   0.02970   0.03003   2.13408
   D76        1.09296  -0.00015   0.00000   0.01906   0.01866   1.11161
   D77       -1.00304  -0.00140   0.00000   0.00296   0.00257  -1.00047
   D78       -3.09699  -0.00138   0.00000   0.00329   0.00294  -3.09404
   D79       -1.01560   0.00272   0.00000   0.02765   0.02777  -0.98783
   D80       -3.11160   0.00147   0.00000   0.01156   0.01168  -3.09991
   D81        1.07764   0.00149   0.00000   0.01189   0.01206   1.08970
   D82       -3.05077   0.00024   0.00000  -0.00253  -0.00231  -3.05308
   D83        1.13642  -0.00100   0.00000  -0.01863  -0.01840   1.11802
   D84       -0.95753  -0.00099   0.00000  -0.01830  -0.01802  -0.97556
         Item               Value     Threshold  Converged?
 Maximum Force            0.040423     0.000450     NO 
 RMS     Force            0.005563     0.000300     NO 
 Maximum Displacement     0.867334     0.001800     NO 
 RMS     Displacement     0.232621     0.001200     NO 
 Predicted change in Energy=-1.379258D-02
 GradGradGradGradGradGradGradGradGradGradGradGradGradGradGradGradGradGrad

                          Input orientation:                          
 ---------------------------------------------------------------------
 Center     Atomic      Atomic             Coordinates (Angstroms)
 Number     Number       Type             X           Y           Z
 ---------------------------------------------------------------------
      1          6           0        1.078738    0.397918    0.279960
      2          6           0        2.595713    0.177868    0.185640
      3          6           0        2.965358   -0.930313   -0.813006
      4          6           0        4.479982   -1.188697   -0.899864
      5          6           0        4.982666   -2.247956   -1.914628
      6          6           0        4.940365   -1.633409   -3.324250
      7          8           0        5.449264   -2.137382   -4.299176
      8          8           0        6.367995   -2.461678   -1.608115
      9          6           0        6.752244   -3.728361   -2.145209
     10          6           0        5.536356   -4.639087   -1.947976
     11          6           0        4.327732   -3.671310   -1.839975
     12          6           0        3.223099   -4.008379   -2.856822
     13          1           0        0.827216    1.186369    0.996201
     14          1           0        0.569276   -0.517365    0.600519
     15          1           0        0.661345    0.683774   -0.691591
     16          1           0        2.985130   -0.088560    1.175737
     17          1           0        3.079902    1.117428   -0.107184
     18          1           0        2.574191   -0.652949   -1.800203
     19          1           0        2.445327   -1.844073   -0.512160
     20          1           0        4.867114   -1.468651    0.085493
     21          1           0        4.960956   -0.232667   -1.146726
     22          1           0        4.508355   -0.613728   -3.394525
     23          1           0        7.647109   -4.057726   -1.610065
     24          1           0        7.007291   -3.618009   -3.205507
     25          1           0        5.638924   -5.215022   -1.022259
     26          1           0        5.432975   -5.361092   -2.762107
     27          1           0        3.913176   -3.777271   -0.832809
     28          1           0        3.616889   -4.002671   -3.876269
     29          1           0        2.381773   -3.313334   -2.824774
     30          1           0        2.823448   -5.008448   -2.661301
 ---------------------------------------------------------------------
                    Distance matrix (angstroms):
                    1          2          3          4          5
     1  C    0.000000
     2  C    1.535750   0.000000
     3  C    2.553058   1.536879   0.000000
     4  C    3.934182   2.568324   1.538958   0.000000
     5  C    5.201684   3.999162   2.649393   1.550634   0.000000
     6  C    5.659397   4.593196   3.271291   2.507463   1.538341
     7  O    6.818924   5.797992   4.447492   3.659896   2.432285
     8  O    6.302249   4.941140   3.815129   2.384678   1.434839
     9  C    7.422687   6.161837   4.893296   3.628216   2.318658
    10  C    7.085582   6.033470   4.653299   3.757613   2.454627
    11  C    5.622161   4.681792   3.228590   2.659014   1.568581
[...]
 -0.00000548,0.00000292,-0.00001028,-0.00000875,0.00000210,0.00000856,0
 .00000696,-0.00001478,0.00004308,0.00007532,0.00003203,-0.00005154,-0.
 00006599,0.00004370,0.00003830,-0.00004687,0.00012454,0.00009399,-0.00
 009509,-0.00003775,0.00000642,-0.00741072,0.00253286,0.00663773,0.0066
 8680,0.05811783,-0.00001228,-0.00002539,-0.00002110,0.00005896,0.00003
 995,0.00003112,-0.00006834,-0.00008186,-0.00007398,0.00037522,0.000145
 93,-0.00001121,-0.00230335,0.00005429,-0.00151670,-0.00025055,0.000049
 55,-0.00037845,0.00007747,0.00010073,0.00030228,0.00435746,-0.00858601
 ,0.00401126,0.12809657,0.01471546,-0.17648656,-0.01019113,-0.00008717,
 0.00768067,-0.00182204,-0.00108387,-0.00021155,-0.00034653,0.00032545,
 0.00034187,0.00001851,-0.00001091,-0.00000728,0.00000171,0.00000366,0.
 00000052,0.00000250,0.00000129,0.00000525,-0.00000084,-0.00000023,0.00
 000038,-0.00000260,-0.00000276,0.00000315,0.00001026,-0.00000467,0.000
 01022,0.00002656,0.00000289,-0.00002143,-0.00002223,0.00000165,0.00002
 879,-0.00001438,0.00003531,0.00004722,-0.00004477,0.00001461,-0.000043
 95,0.02047385,0.00438996,-0.02040073,-0.13827401,-0.00994151,0.1848754
 8,0.00000919,0.00000759,0.00001122,-0.00002529,-0.00000443,-0.00002094
 ,0.00017146,-0.00006098,-0.00006523,0.00117410,0.00096249,-0.00050668,
 -0.00659599,0.00143359,0.00190959,0.00001482,-0.00026773,0.00025409,-0
 .00013661,0.00023751,-0.00005928,-0.00173094,-0.00534199,-0.00155545,0
 .00407145,-0.02282318,0.00950076,-0.04668334,0.01330830,-0.00564953,-0
 .00065519,0.02564646,-0.00920486,0.00108402,0.00060114,-0.00000158,-0.
 00001070,0.00000536,0.00000328,-0.00000799,-0.00000351,0.00000098,-0.0
 0000260,0.00000006,-0.00000286,0.00000338,0.00000160,0.00000094,-0.000
 00370,-0.00001448,0.00000304,-0.00001099,-0.00000112,-0.00000610,-0.00
 000897,-0.00002269,0.00000296,-0.00002610,-0.00001224,0.00007114,-0.00
 014268,0.00043937,0.00040660,0.00005397,0.00018669,-0.00014928,0.00155
 118,0.00062529,-0.00014562,-0.00157318,-0.00014251,0.00001055,0.048605
 43,-0.00001887,-0.00002956,-0.00003113,0.00007153,0.00003755,0.0000532
 0,-0.00013368,-0.00001962,-0.00004353,-0.00038363,-0.00061794,0.000404
 16,0.00037305,-0.00075136,-0.00162037,-0.00019906,0.00015955,-0.000643
 33,0.00017918,0.00014560,0.00039099,-0.00033424,-0.00233977,-0.0010373
 3,0.00418637,-0.01211883,0.00579096,0.01258592,-0.28248077,0.08060996,
 -0.00089652,-0.01172864,0.00402769,-0.00019611,-0.00000973,-0.00008795
 ,0.00002625,-0.00001611,-0.00000924,0.00001031,0.00000808,0.00000100,0
 .00000236,0.00000217,0.00000528,-0.00000418,-0.00000234,-0.00000842,-0
 .00000148,0.00001337,0.00000125,0.00001517,-0.00000618,0.00000437,0.00
 005206,0.00001716,-0.00001034,-0.00001692,0.00000890,-0.00005320,0.000
 16146,-0.00015364,-0.00023786,-0.00008396,-0.00003825,0.00009552,0.000
 14625,0.00110715,-0.00055966,-0.00077642,-0.00045544,-0.00041576,-0.01
 497764,0.30748242,-0.00000247,-0.00000484,-0.00001115,0.00002950,-0.00
 000817,0.00002668,-0.00009316,0.00001413,-0.00004960,-0.00031074,-0.00
 066782,0.00022753,0.00096117,-0.00241112,-0.00084635,-0.00045272,-0.00
 080218,-0.00135780,-0.00032193,0.00118796,0.00066536,0.00010890,-0.003
 99112,-0.00034925,0.00147036,-0.00840273,0.00177641,-0.00588991,0.0842
 4376,-0.07546342,0.00078898,-0.01344011,0.00319642,-0.00028954,0.00026
 221,-0.00019665,0.00000574,-0.00000212,-0.00000010,0.00000374,0.000000
 21,0.00000078,0.00000146,-0.00000009,0.00000040,-0.00000382,0.00000074
 ,-0.00000042,0.00000005,0.00000779,-0.00000469,0.00001888,-0.00000505,
 0.00001166,0.00002363,0.00000454,0.00000898,-0.00002357,0.00004455,-0.
 00001164,0.00011323,-0.00015881,-0.00021976,0.00014596,-0.00000458,0.0
 0016975,0.00038945,-0.00019661,0.00080691,-0.00024961,0.00000708,0.000
 16666,0.00595008,-0.08627510,0.07923729,0.00000090,-0.00000373,0.00000
 238,0.00001597,0.00001269,-0.00001505,0.00001005,-0.00004406,0.0000011
 8,-0.00002589,0.00014928,-0.00004129,0.00038639,-0.00097614,-0.0000979
 7,0.00061292,0.00065405,0.00048098,-0.00022575,-0.00025742,-0.00034046
 ,0.00057795,-0.00041529,0.00045953,-0.00609500,0.00132487,-0.02908122,
 -0.04707933,-0.00052296,-0.02290250,-0.00026530,-0.00077010,0.02831803
 ,0.00205539,-0.00068882,0.00104805,-0.00000117,0.00000054,-0.00000079,
 0.00000277,-0.00000029,0.00000099,-0.00000184,0.00000374,-0.00000256,-
 0.00000194,-0.00000991,-0.00000892,-0.00000613,0.00000868,0.00000469,-
 0.00001520,0.00004260,-0.00002332,0.00008314,-0.00001246,0.00001509,-0
 .00005677,-0.00009694,-0.00019369,-0.00004296,0.00014144,-0.00003134,-
 0.00015716,-0.00000533,-0.00019533,-0.00360544,-0.00383823,-0.00177732
 ,0.00139314,0.00100400,0.00023874,-0.00015486,0.00000905,-0.00154504,0
 .05698034,0.00000386,0.00000491,-0.00000193,-0.00000188,-0.00001934,0.
 00001108,-0.00000686,0.00001348,-0.00004798,0.00011672,-0.00016749,0.0
 0004553,-0.00049522,0.00118594,-0.00052485,-0.00022411,-0.00153242,-0.
 00178066,-0.00005928,0.00040385,0.00150101,-0.00034930,-0.00106102,0.0
 0118735,-0.00121871,0.00107416,-0.01755887,-0.00028175,-0.05158004,0.0
 0505777,-0.00075844,0.00038723,-0.01556277,-0.00088507,0.00045245,0.00
 020950,-0.00000234,0.00000160,0.00000228,-0.00000298,-0.00000202,0.000
 00093,0.00000301,-0.00000245,0.00000132,-0.00000205,0.00000767,0.00001
 101,0.00000189,-0.00000698,-0.00000678,0.00003798,-0.00002903,0.000025
 13,-0.00004270,0.00000414,0.00001044,-0.00000539,0.00002641,0.00017141
 ,0.00000912,-0.00006096,0.00003225,0.00026847,0.00003004,0.00015000,-0
 .00204233,-0.00085530,-0.00110329,0.00061327,0.00073583,0.00024091,0.0
 0231423,0.00041379,0.03072973,0.00068851,0.05132886,-0.00000638,-0.000
 00571,-0.00001098,0.00001859,0.00000791,0.00001423,-0.00006466,0.00002
 850,-0.00001841,0.00001126,-0.00016069,0.00001261,0.00014562,0.0003525
 2,-0.00005408,-0.00074976,-0.00082517,-0.00150895,-0.00053329,0.002237
 56,0.00048917,0.00003771,-0.00094717,0.00027317,-0.00064658,0.00143225
 ,-0.00694211,-0.02310482,0.00235580,-0.30818281,0.00061063,0.00022947,
 -0.01477217,-0.00120736,0.00025824,0.00093777,0.00000779,-0.00000434,-
 0.00000202,-0.00000021,0.00000153,-0.00000070,0.00000399,-0.00000293,0
 .00000529,0.00000048,0.00000506,0.00001057,0.00000075,-0.00000274,-0.0
 0000166,0.00002661,-0.00003447,0.00002302,-0.00002139,0.00001035,-0.00
 001173,0.00000434,0.00003617,0.00013925,0.00002084,-0.00008828,0.00000
 050,0.00010739,0.00000647,0.00014678,-0.00065776,-0.00111271,0.0009793
 1,-0.00005607,-0.00008112,0.00150373,-0.00063665,-0.00003947,-0.009064
 86,0.02400425,-0.00172409,0.33498884,-0.00000780,-0.00000088,-0.000014
 63,-0.00000843,-0.00003804,0.00007394,0.00014384,0.00012467,-0.0001849
 1,0.00013579,0.00039738,0.00017474,-0.00031468,-0.00240737,0.00707369,
 -0.00032268,-0.00095678,-0.00072839,0.00048669,0.00028842,0.00027632,0
 .00081845,-0.00047719,-0.00070766,0.00084513,0.00027377,0.00061705,-0.
 00206490,-0.00347697,0.02611979,-0.04762808,-0.00137265,0.00418079,-0.
 00251786,0.00531949,-0.03208867,0.00000851,-0.00000452,0.00000115,-0.0
 0000749,0.00000305,-0.00000163,0.00000198,-0.00000872,0.00000719,0.000
 00933,0.00001796,0.00001389,0.00000279,-0.00002847,-0.00001026,-0.0000
 3865,-0.00008444,0.00004413,-0.00013643,-0.00002067,-0.00004193,0.0001
 0616,-0.00001427,-0.00021118,-0.00003850,0.00000588,0.00000408,-0.0000
 5638,-0.00009635,0.00032788,-0.00038933,-0.00003332,-0.00028065,0.0000
 8563,0.00024355,-0.00027495,0.00136785,-0.00035817,-0.00071238,-0.0040
 1985,0.00208847,0.00184676,0.05666187,0.00001052,-0.00001126,-0.000005
 12,0.00011076,0.00003002,-0.00006257,0.00005476,-0.00023943,-0.0000954
 9,0.00062004,0.00116542,0.00206747,-0.00107045,-0.01400786,0.03417441,
 -0.00334651,-0.00568649,-0.00315723,0.00053132,0.00148488,0.00034313,0
 .00076352,0.00147166,-0.00154784,-0.00050331,-0.00002922,0.00004719,0.
 00204143,0.00194733,-0.01912140,-0.00193675,-0.05676282,0.05015534,-0.
 00046847,0.00189046,-0.00806304,-0.00000366,0.00000765,0.00000498,0.00
 000438,-0.00000051,-0.00000441,-0.00001297,0.00000423,-0.00000722,0.00
 000503,-0.00002558,-0.00004115,-0.00001412,0.00003868,0.00002773,-0.00
 018769,0.00014120,-0.00007496,0.00019817,0.00001124,-0.00000910,-0.000
 27753,-0.00030533,-0.00108578,-0.00010508,0.00051521,-0.00016983,0.000
 01419,-0.00135713,0.00196244,-0.00002082,0.00029023,0.00029072,-0.0000
 5229,-0.00008856,0.00012665,-0.00112792,0.00082350,-0.00024765,0.00355
 393,-0.00082836,-0.00199640,0.00211116,0.06861494,-0.00000302,0.000020
 94,-0.00000595,-0.00004555,-0.00001543,-0.00001091,-0.00010956,0.00021
 694,0.00014788,0.00007254,-0.00156448,0.00057766,-0.00054828,0.0020696
 4,-0.00609456,-0.00002540,-0.00037145,0.00121433,0.00011459,0.00001292
 ,0.00032005,0.00086208,0.00011039,0.00104493,-0.00030385,0.00004261,-0
 .00034192,0.00144420,0.00129041,-0.01521851,0.00457999,0.05113552,-0.2
 8159467,-0.00141165,0.00234165,-0.01365859,0.00000099,-0.00000339,-0.0
 0000123,-0.00001044,-0.00000084,-0.00000306,0.00000664,-0.00001161,0.0
 0001147,0.00000935,0.00001963,0.00003433,0.00001080,-0.00002109,-0.000
 00765,0.00005260,-0.00015051,0.00006632,-0.00021842,0.00009808,-0.0000
 8847,-0.00004956,0.00039338,0.00096514,0.00018902,-0.00023633,0.000338
 67,0.00011304,0.00036394,-0.00009486,0.00054844,0.00011940,0.00031733,
 0.00011356,-0.00004339,0.00026654,-0.00034263,-0.00034809,0.00110417,0
 .00252643,-0.00150688,0.00029653,-0.00471489,-0.05258773,0.30866180,0.
 00000701,-0.00001568,0.00001853,0.00006463,0.00005662,-0.00005996,-0.0
 0019619,-0.00012724,0.00017268,-0.00000573,-0.00007414,0.00002068,0.00
 111060,0.00060201,0.00015505,-0.00114940,-0.00138394,-0.00239482,-0.00
 009069,0.00042713,0.00199708,0.00037358,-0.00023276,0.00053706,0.00018
 842,0.00009601,0.00016388,0.00187181,-0.00016823,-0.00147219,-0.001489
 87,0.00624091,-0.03064285,-0.04725772,0.00190878,-0.00140889,-0.000005
 98,0.00000882,-0.00000233,0.00000573,-0.00000425,-0.00000208,0.0000012
 0,0.00000911,-0.00000763,-0.00001004,-0.00000278,0.00000762,-0.0000082
 1,0.00003325,0.00002418,0.00008106,0.00005696,-0.00002184,0.00009169,-
 0.00001299,-0.00009447,-0.00000302,0.00008650,0.00018906,0.00004023,-0
 .00008981,-0.00001801,0.00018073,0.00011678,0.00046804,0.00015333,0.00
 004085,0.00014777,-0.00003411,-0.00008537,0.00004428,0.00001531,-0.000
 05885,0.00011498,-0.00056743,0.00036549,0.00080238,-0.00559544,-0.0016
 4057,-0.00270663,0.05256876,0.00000212,0.00002255,-0.00001716,-0.00006
 466,-0.00012774,0.00010952,0.00020033,0.00019609,-0.00029172,0.0000742
 0,-0.00017709,0.00000539,0.00063278,0.00077259,-0.00094928,-0.00160993
 ,-0.00127864,-0.00234400,0.00012323,-0.00122470,0.00259128,0.00045961,
 -0.00047244,0.00059388,0.00001126,0.00052670,0.00001780,0.00022969,-0.
 00023908,0.00070886,-0.00006902,0.00121536,-0.01009517,0.00290037,-0.0
 5602763,0.04920815,-0.00000303,-0.00000394,0.00000561,-0.00001269,-0.0
 0000319,0.00000894,0.00000653,-0.00000850,0.00000462,-0.00000108,0.000
 02732,0.00002323,0.00000625,-0.00005521,-0.00004187,0.00004313,-0.0001
 6305,0.00008097,-0.00022179,-0.00002788,0.00016582,0.00000845,0.000025
 45,0.00015988,-0.00003734,-0.00005461,-0.00001485,-0.00001423,0.000298
 90,0.00038278,0.00002461,-0.00011262,-0.00000968,-0.00000984,-0.000049
 09,-0.00002236,0.00003276,-0.00000123,0.00006936,0.00015442,0.00025711
 ,0.00003673,-0.00214852,0.00034501,-0.00103834,-0.00039223,0.05801076,
 -0.00000710,0.00000488,-0.00001862,-0.00001653,-0.00006681,0.00008135,
 0.00007696,0.00014889,-0.00023716,-0.00000521,-0.00003291,-0.00002654,
 0.00021239,0.00052193,-0.00017688,-0.00076380,-0.00107355,-0.00092201,
 0.00292056,0.00363366,-0.00150080,-0.00013752,-0.00017811,0.00019479,0
 .00019409,-0.00014963,0.00026863,0.00080418,0.00002373,0.00075859,-0.0
 0101044,0.00149422,-0.01301498,-0.00546645,0.04631214,-0.31267469,0.00
 000848,-0.00000504,0.00000278,-0.00000413,0.00000268,-0.00000158,0.000
 00529,-0.00001195,0.00000861,0.00000064,0.00002086,0.00002358,0.000005
 99,-0.00002596,-0.00001939,0.00003228,-0.00011428,0.00007980,-0.000125
 99,-0.00007127,0.00002344,0.00003573,0.00001121,0.00009853,-0.00000377
 ,-0.00006007,0.00001132,-0.00008113,0.00018353,0.00019120,0.00015698,0
 .00007385,0.00001423,-0.00004290,-0.00003555,-0.00000581,0.00003625,0.
 00000255,0.00001424,-0.00059129,0.00021326,0.00046779,-0.00222078,-0.0
 0100997,0.00052058,0.00602225,-0.05276991,0.33982046,0.00008254,-0.000
 01650,0.00001125,0.00056104,0.00019228,-0.00031567,-0.00101377,0.00010
 864,0.00106444,-0.00057478,-0.00031112,-0.00002054,0.00056657,0.001136
 47,0.00046558,-0.00023312,-0.00009533,-0.00001751,0.00010007,-0.000244
 62,0.00006662,0.00040680,-0.00043460,-0.00002465,-0.00115485,0.0018143
 3,0.00108404,-0.00386293,-0.00332150,-0.00368585,-0.02070756,0.0149332
 1,0.01371449,-0.19368115,0.09898164,0.08498594,-0.00003649,0.00002895,
 0.00001667,0.00001111,-0.00001681,-0.00001109,-0.00000271,-0.00000479,
 -0.00001646,-0.00001935,0.00002146,0.00007911,-0.00003427,0.00026034,0
 .00015996,0.00003558,-0.00011005,0.00004462,0.00101922,0.00053555,-0.0
 0063583,0.00002094,-0.00002177,-0.00000057,0.00019672,-0.00002062,-0.0
 0006359,-0.00008812,-0.00007918,0.00007923,-0.00010283,-0.00015817,-0.
 00009878,-0.00037408,-0.00047635,-0.00020453,-0.00002507,0.00016304,-0
 .00009335,0.00028958,-0.00017986,-0.00013990,0.00116086,0.00018612,-0.
 00030033,0.00065228,-0.00076676,-0.00037036,0.21274298,0.00004769,0.00
 003455,0.00001525,0.00004858,-0.00014562,-0.00010293,-0.00006054,-0.00
 115928,-0.00066589,-0.00008654,0.00023048,-0.00012718,-0.00002297,0.00
 054396,0.00063915,-0.00005016,-0.00004180,0.00017290,0.00005663,-0.000
 17411,-0.00010870,0.00032779,0.00009298,-0.00003464,-0.00049627,0.0003
 7854,-0.00001171,-0.00154106,0.00023572,-0.00072371,-0.00779059,0.0047
 6561,0.00538778,0.10096539,-0.11348167,-0.05824338,-0.00002659,0.00001
 323,0.00001367,-0.00001040,-0.00001347,-0.00000270,0.00000273,-0.00001
 280,-0.00000171,-0.00000420,0.00003215,0.00005770,-0.00003263,0.000019
 77,0.00003116,0.00010639,-0.00004008,0.00003675,-0.00011158,-0.0012495
 1,-0.00107989,0.00005274,-0.00002371,0.00003689,0.00005044,0.00000889,
 0.00003799,-0.00001896,-0.00000580,-0.00000574,-0.00002151,-0.00005751
 ,0.00000163,-0.00004111,-0.00007138,-0.00002492,-0.00042578,0.00022074
 ,-0.00004613,0.00001346,-0.00014695,-0.00005248,0.00061265,0.00014300,
 0.00019018,-0.00567187,0.00294352,0.00281645,-0.10966589,0.12275864,0.
 00000280,-0.00001905,0.00003486,-0.00008999,0.00005520,-0.00008125,-0.
 00013005,-0.00115777,-0.00026216,0.00003540,0.00007358,-0.00000977,0.0
 0056919,-0.00010705,0.00044201,0.00000502,-0.00017592,-0.00034907,0.00
 001925,0.00081196,0.00008455,0.00025802,0.00015650,0.00000420,-0.00069
 647,0.00029822,0.00076031,-0.00219149,-0.00113964,-0.00103973,-0.01072
 558,0.00852596,0.00550046,0.08668447,-0.05833899,-0.09786078,-0.000008
 84,0.00000218,-0.00001297,0.00001206,-0.00000681,0.00001106,-0.0000036
 5,0.00003193,-0.00001624,-0.00001255,-0.00004405,-0.00004737,-0.000028
 06,-0.00001598,0.00000747,0.00013270,0.00042527,-0.00016745,0.00006829
 ,-0.00120610,-0.00030219,-0.00007839,-0.00000186,-0.00004599,0.0000063
 0,-0.00002116,-0.00004474,0.00006671,0.00003762,0.00007532,0.00006632,
 0.00007096,0.00001353,-0.00020634,-0.00022183,-0.00009883,0.00020916,-
 0.00008602,-0.00002241,-0.00026468,0.00001732,0.00036155,0.00065599,0.
 00042996,0.00070541,0.02373806,-0.01808398,-0.01186322,-0.09310839,0.0
 6643567,0.10242713,0.00001048,-0.00002199,-0.00002061,0.00024806,0.000
 05464,-0.00003835,-0.00038571,-0.00000318,0.00021461,-0.00038590,-0.00
 011508,0.00027114,-0.00311771,0.00235415,-0.00250397,-0.00014505,0.000
 34265,-0.00067863,0.00016621,-0.00009978,0.00052491,-0.00245609,-0.001
 33183,0.00015891,0.00064564,-0.00101283,-0.00040072,0.00182904,-0.0005
 7878,0.00046216,-0.00728744,-0.03163354,0.00478229,-0.05116516,-0.0370
 5828,0.00646732,0.00000842,0.00000477,0.00000538,0.00000925,-0.0000016
 3,-0.00001228,0.00000316,-0.00001219,0.00000235,-0.00000621,0.00002088
 ,0.00004077,-0.00000752,0.00008672,0.00004939,-0.00001346,-0.00013709,
 0.00008085,0.00021266,0.00020903,-0.00026975,0.00004669,-0.00002774,-0
 .00002145,0.00010378,-0.00017912,-0.00009806,-0.00007351,-0.00014071,0
 .00011451,-0.00004001,0.00012003,-0.00000212,0.00003757,0.00016395,0.0
 0003991,-0.00032794,0.00045773,-0.00013788,-0.00008653,0.00004727,0.00
 017545,0.00131161,0.00056281,0.00014594,-0.00099254,0.00044138,0.00033
 534,0.00406479,0.02379415,-0.00498526,0.05779341,-0.00003954,-0.000031
 73,-0.00002112,-0.00012831,0.00002440,0.00012578,0.00024588,-0.0000249
 0,-0.00028989,0.00004195,0.00001624,0.00016408,-0.00011331,0.00226336,
 -0.00092226,0.00033119,0.00044616,0.00007483,-0.00040625,-0.00030004,0
 .00015259,-0.00069734,0.00001063,0.00014820,0.00003669,-0.00051980,-0.
 00025642,0.00063629,0.00079533,0.00009736,-0.00170612,-0.00861190,0.00
 116262,-0.03852337,-0.29451956,0.04109666,0.00003003,-0.00002194,-0.00
 001583,0.00000921,0.00001471,0.00000857,0.00000067,0.00001317,0.000004
 90,0.00000177,-0.00002631,-0.00004975,0.00000602,-0.00006216,-0.000042
 60,0.00000651,0.00011790,-0.00005080,-0.00015057,-0.00021591,0.0001852
 3,-0.00002366,-0.00000430,-0.00004623,-0.00002882,-0.00008593,-0.00004
 727,-0.00000928,-0.00012568,-0.00001057,-0.00004121,0.00007031,-0.0000
 1616,0.00000949,0.00007546,0.00003910,-0.00057624,0.00032944,0.0000921
 5,-0.00011954,-0.00003513,0.00007923,0.00004087,0.00041787,-0.00052605
 ,-0.00008851,-0.00461472,0.00014117,-0.00243810,-0.01579810,0.00325387
 ,0.04369359,0.32040313,-0.00001923,-0.00000796,-0.00001424,-0.00007269
 ,-0.00005721,0.00009540,0.00016873,-0.00002136,-0.00035605,0.00014598,
 0.00000479,0.00009425,-0.00210113,0.00068944,-0.00054902,-0.00072200,-
 0.00065085,-0.00173268,0.00161183,0.00156393,0.00025265,-0.00089446,-0
 .00090995,0.00022289,0.00032118,-0.00020607,-0.00013811,0.00046694,0.0
 0022059,0.00025801,-0.00295944,-0.01464092,0.00115884,0.00664702,0.041
 71086,-0.05410786,0.00001135,-0.00000535,-0.00000096,0.00000371,0.0000
 0438,0.00000466,0.00000387,0.00000140,0.00000181,-0.00000391,-0.000001
 90,-0.00001151,-0.00000074,-0.00004439,-0.00003439,0.00004584,0.000021
 37,0.00001330,-0.00013383,-0.00016516,0.00015337,-0.00001649,-0.000005
 02,0.00000352,-0.00002976,-0.00006264,-0.00005573,-0.00003500,0.000184
 83,0.00024117,-0.00004690,-0.00000660,-0.00002946,0.00000368,0.0000745
 9,0.00000243,-0.00002393,0.00011987,0.00018486,0.00001242,0.00019986,-
 0.00007964,0.00077549,-0.00034315,0.00052722,0.00420813,0.03150548,-0.
 00211823,-0.00266453,-0.01464147,0.00179633,-0.00470212,-0.04453140,0.
 05421716\\0.00000088,-0.00000045,0.00000198,-0.00000300,0.00000064,0.0
 0000060,-0.00000117,-0.00000112,-0.00000108,0.00000765,-0.00000586,0.0
 0000077,-0.00001634,0.00001717,-0.00001195,0.00001157,0.00001379,0.000
 02114,-0.00000315,-0.00001276,-0.00000463,0.00001213,-0.00002081,0.000
 00402,0.00000478,0.00002483,0.00000363,-0.00001581,-0.00000228,0.00000
 028,0.00000375,-0.00001434,-0.00001023,0.00000224,0.00000304,0.0000016
 2,-0.00000057,0.00000006,-0.00000011,0.00000002,-0.00000006,0.00000034
 ,-0.00000061,-0.00000045,-0.00000002,0.00000127,-0.00000045,-0.0000003
 1,-0.00000084,0.00000028,-0.00000034,0.00000026,0.00000044,0.00000251,
 -0.00000088,-0.00000065,-0.00000085,-0.00000166,0.00000093,0.00000027,
 -0.00000031,0.00000055,0.00000103,-0.00000286,-0.00000122,-0.00000738,
 -0.00000052,0.00000054,0.00000098,0.00000031,-0.00000301,-0.00000232,-
 0.00000035,-0.00000096,-0.00000018,0.00000124,0.00000323,0.00000162,0.
 00000236,0.00000215,0.00000115,0.00000080,-0.00000115,-0.00000177,-0.0
 0000071,-0.00000073,0.00000056,-0.00000048,-0.00000134,-0.00000132\\\@


 BRING ME INTO THE COMPANY OF THOSE WHO SEEK TRUTH,
 AND DELIVER ME FROM THOSE WHO HAVE FOUND IT.
 Job cpu time:       0 days  5 hours 39 minutes 59.8 seconds.
 Elapsed time:       0 days  1 hours 25 minutes  3.1 seconds.
 File lengths (MBytes):  RWF=    392 Int=      0 D2E=      0 Chk=     16 Scr=      1
 Normal termination of Gaussian 16 at Tue May 23 14:55:14 2023.
### All Done ###
