### Starting Gaussian ###
 Entering Gaussian System, Link 0=g16
 Initial command:
 /cluster/software/gaussian/gaussian-16-A.03/avx2/g16/l1.exe "/local/scratch/ks29c/Gau-6670.inp" -scrdir="/local/scratch/ks29c/"
 Entering Link 1 = /cluster/software/gaussian/gaussian-16-A.03/avx2/g16/l1.exe PID=      6671.
  
 Copyright (c) 1988,1990,1992,1993,1995,1998,2003,2009,2016,
            Gaussian, Inc.  All Rights Reserved.
  
 This is part of the Gaussian(R) 16 program.  It is based on
 the Gaussian(R) 09 system (copyright 2009, Gaussian, Inc.),
 the Gaussian(R) 03 system (copyright 2003, Gaussian, Inc.),
 the Gaussian(R) 98 system (copyright 1998, Gaussian, Inc.),
 the Gaussian(R) 94 system (copyright 1995, Gaussian, Inc.),
 the Gaussian 92(TM) system (copyright 1992, Gaussian, Inc.),
 the Gaussian 90(TM) system (copyright 1990, Gaussian, Inc.),
 the Gaussian 88(TM) system (copyright 1988, Gaussian, Inc.),
 the Gaussian 86(TM) system (copyright 1986, Carnegie Mellon
 University), and the Gaussian 82(TM) system (copyright 1983,
 Carnegie Mellon University). Gaussian is a federally registered
 trademark of Gaussian, Inc.
  
 This software contains proprietary and confidential information,
 including trade secrets, belonging to Gaussian, Inc.
  
 This software is provided under written license and may be
 used, copied, transmitted, or stored only in accord with that
 written license.
  
 The following legend is applicable only to US Government
 contracts under FAR:
  
                    RESTRICTED RIGHTS LEGEND
  
 Use, reproduction and disclosure by the US Government is
 subject to restrictions as set forth in subparagraphs (a)
 and (c) of the Commercial Computer Software - Restricted
 Rights clause in FAR 52.227-19.
  
 Gaussian, Inc.
 340 Quinnipiac St., Bldg. 40, Wallingford CT 06492
  
  
 ---------------------------------------------------------------
 Warning -- This program may not be used in any manner that
 competes with the business of Gaussian, Inc. or will provide
 assistance to any competitor of Gaussian, Inc.  The licensee
 of this program is prohibited from giving any competitor of
 Gaussian, Inc. access to this program.  By using this program,
 the user acknowledges that Gaussian, Inc. is engaged in the
 business of creating and licensing software in the field of
 computational chemistry and represents and warrants to the
 licensee that it is not a competitor of Gaussian, Inc. and that
 it will not use this program in any manner prohibited above.
 ---------------------------------------------------------------
  

 Cite this work as:
 Gaussian 16, Revision A.03,
 M. J. Frisch, G. W. Trucks, H. B. Schlegel, G. E. Scuseria, 
 M. A. Robb, J. R. Cheeseman, G. Scalmani, V. Barone, 
 G. A. Petersson, H. Nakatsuji, X. Li, M. Caricato, A. V. Marenich, 
 J. Bloino, B. G. Janesko, R. Gomperts, B. Mennucci, H. P. Hratchian, 
 J. V. Ortiz, A. F. Izmaylov, J. L. Sonnenberg, D. Williams-Young, 
 F. Ding, F. Lipparini, F. Egidi, J. Goings, B. Peng, A. Petrone, 
 T. Henderson, D. Ranasinghe, V. G. Zakrzewski, J. Gao, N. Rega, 
 G. Zheng, W. Liang, M. Hada, M. Ehara, K. Toyota, R. Fukuda, 
 J. Hasegawa, M. Ishida, T. Nakajima, Y. Honda, O. Kitao, H. Nakai, 
 T. Vreven, K. Throssell, J. A. Montgomery, Jr., J. E. Peralta, 
 F. Ogliaro, M. J. Bearpark, J. J. Heyd, E. N. Brothers, K. N. Kudin, 
 V. N. Staroverov, T. A. Keith, R. Kobayashi, J. Normand, 
 K. Raghavachari, A. P. Rendell, J. C. Burant, S. S. Iyengar, 
 J. Tomasi, M. Cossi, J. M. Millam, M. Klene, C. Adamo, R. Cammi, 
 J. W. Ochterski, R. L. Martin, K. Morokuma, O. Farkas, 
 J. B. Foresman, and D. J. Fox, Gaussian, Inc., Wallingford CT, 2016.
 
 ******************************************
 Gaussian 16:  ES64L-G16RevA.03 25-Dec-2016
                23-May-2023 
 ******************************************
 %chk=CCCCqCCCrOCCOCqCrCCO.chk
 %NProcShared=20
 Will use up to   20 processors via shared memory.
 -----------------------------
 # opt freq b3lyp/6-31g(2df,p)
 -----------------------------
 1/18=20,19=15,26=3,38=1/1,3;
 2/9=110,12=2,17=6,18=5,40=1/2;
 3/5=1,6=6,7=104,11=2,25=1,30=1,71=1,74=-5/1,2,3;
 4//1;
 5/5=2,38=5/2;
 6/7=2,8=2,9=2,10=2,28=1/1;
 7//1,2,3,16;
 1/18=20,19=15,26=3/3(2);
 2/9=110/2;
 99//99;
 2/9=110/2;
 3/5=1,6=6,7=104,11=2,25=1,30=1,71=1,74=-5/1,2,3;
 4/5=5,16=3,69=1/1;
 5/5=2,38=5/2;
 7//1,2,3,16;
 1/18=20,19=15,26=3/3(-5);
 2/9=110/2;
 6/7=2,8=2,9=2,10=2,19=2,28=1/1;
 99/9=1/99;
 -------------------
 Title Card Required
 -------------------
 Symbolic Z-matrix:
 Charge =  0 Multiplicity = 1
 C                     0.85084   0.22431  -0.08097 
 C                     2.359     0.18307  -0.05965 
 C                     3.07858   0.64443  -1.32521 
 C                     4.62634   0.5166   -1.26361 
 C                     5.14702  -0.93573  -1.15052 
 C                     4.83259  -1.66871   0.14055 
 C                     5.41667  -3.05774   0.19854 
 O                     5.1308    1.09465  -2.48813 
 C                     6.5582    1.18681  -2.52868 
 C                     6.98922   1.83695  -3.82353 
 O                     8.41753   1.92191  -3.85903 
 C                     8.90218   2.49125  -5.08122 
 C                     8.41378   3.93456  -5.20802 
 C                     10.43568   2.42798  -5.0636 
 C                     11.04449   3.00735  -6.33494 
 O                     12.45729   2.93319  -6.29243 
 H                     0.48336  -0.24452   0.84193 
 H                     0.47667  -0.38108  -0.91359 
 H                     0.46127   1.23729  -0.14654 
 H                     2.49194  -0.87506   0.05503 
 H                     2.76996   0.67699   0.82744 
 H                     2.81452   1.69215  -1.52326 
 H                     2.70913   0.08385  -2.19348 
 H                     4.99546   1.1284   -0.43042 
 H                     6.23803  -0.94162  -1.21371 
 H                     4.80311  -1.50035  -2.02609 
 H                     3.78675  -1.90228   0.21498 
 H                     5.1213   -1.06216   1.00543 
 H                     5.04376  -3.64374  -0.64871 
 H                     5.06105  -3.53977   1.11516 
 H                     6.50536  -3.04817   0.18924 
 H                     7.0265    0.20134  -2.51539 
 H                     6.92791   1.75992  -1.6708 
 H                     6.5324    2.82782  -3.85373 
 H                     6.62431   1.25824  -4.68046 
 H                     8.53612   1.88251  -5.91767 
 H                     8.73187   4.51515  -4.33517 
 H                     7.32431   3.99335  -5.25347 
 H                     8.769     4.41728  -6.11795 
 H                     10.77323   1.39023  -4.93276 
 H                     10.83128   2.95095  -4.18201 
 H                     10.77916   4.05818  -6.47348 
 H                     10.69582   2.45163  -7.21347 
 H                     12.75062   3.51192  -5.55411 
 

 GradGradGradGradGradGradGradGradGradGradGradGradGradGradGradGradGradGrad
 Berny optimization.
 Initialization pass.
                           ----------------------------
                           !    Initial Parameters    !
                           ! (Angstroms and Degrees)  !
 --------------------------                            --------------------------
 ! Name  Definition              Value          Derivative Info.                !
 --------------------------------------------------------------------------------
 ! R1    R(1,2)                  1.5089         estimate D2E/DX2                !
 ! R2    R(1,17)                 1.0984         estimate D2E/DX2                !
 ! R3    R(1,18)                 1.0953         estimate D2E/DX2                !
 ! R4    R(1,19)                 1.0873         estimate D2E/DX2                !
 ! R5    R(2,3)                  1.5272         estimate D2E/DX2                !
 ! R6    R(2,20)                 1.0726         estimate D2E/DX2                !
 ! R7    R(2,21)                 1.0953         estimate D2E/DX2                !
 ! R8    R(3,4)                  1.5543         estimate D2E/DX2                !
 ! R9    R(3,22)                 1.0985         estimate D2E/DX2                !
 ! R10   R(3,23)                 1.0976         estimate D2E/DX2                !
 ! R11   R(4,5)                  1.547          estimate D2E/DX2                !
 ! R12   R(4,8)                  1.445          estimate D2E/DX2                !
 ! R13   R(4,24)                 1.0976         estimate D2E/DX2                !
 ! R14   R(5,6)                  1.5176         estimate D2E/DX2                !
 ! R15   R(5,25)                 1.0929         estimate D2E/DX2                !
 ! R16   R(5,26)                 1.0971         estimate D2E/DX2                !
 ! R17   R(6,7)                  1.508          estimate D2E/DX2                !
 ! R18   R(6,27)                 1.0742         estimate D2E/DX2                !
 ! R19   R(6,28)                 1.0951         estimate D2E/DX2                !
 ! R20   R(7,29)                 1.0956         estimate D2E/DX2                !
 ! R21   R(7,30)                 1.095          estimate D2E/DX2                !
 ! R22   R(7,31)                 1.0888         estimate D2E/DX2                !
 ! R23   R(8,9)                  1.4309         estimate D2E/DX2                !
 ! R24   R(9,10)                 1.5117         estimate D2E/DX2                !
 ! R25   R(9,32)                 1.0912         estimate D2E/DX2                !
 ! R26   R(9,33)                 1.0959         estimate D2E/DX2                !
 ! R27   R(10,11)                1.4313         estimate D2E/DX2                !
 ! R28   R(10,34)                1.0915         estimate D2E/DX2                !
 ! R29   R(10,35)                1.0965         estimate D2E/DX2                !
 ! R30   R(11,12)                1.4328         estimate D2E/DX2                !
 ! R31   R(12,13)                1.529          estimate D2E/DX2                !
 ! R32   R(12,14)                1.5349         estimate D2E/DX2                !
 ! R33   R(12,36)                1.0974         estimate D2E/DX2                !
 ! R34   R(13,37)                1.0955         estimate D2E/DX2                !
 ! R35   R(13,38)                1.092          estimate D2E/DX2                !
 ! R36   R(13,39)                1.0896         estimate D2E/DX2                !
 ! R37   R(14,15)                1.524          estimate D2E/DX2                !
 ! R38   R(14,40)                1.0991         estimate D2E/DX2                !
 ! R39   R(14,41)                1.0987         estimate D2E/DX2                !
 ! R40   R(15,16)                1.4154         estimate D2E/DX2                !
 ! R41   R(15,42)                1.0926         estimate D2E/DX2                !
 ! R42   R(15,43)                1.0965         estimate D2E/DX2                !
 ! R43   R(16,44)                0.9829         estimate D2E/DX2                !
 ! A1    A(2,1,17)             108.1104         estimate D2E/DX2                !
 ! A2    A(2,1,18)             109.6989         estimate D2E/DX2                !
 ! A3    A(2,1,19)             112.6091         estimate D2E/DX2                !
 ! A4    A(17,1,18)            106.7675         estimate D2E/DX2                !
 ! A5    A(17,1,19)            109.1744         estimate D2E/DX2                !
 ! A6    A(18,1,19)            110.285          estimate D2E/DX2                !
 ! A7    A(1,2,3)              116.8073         estimate D2E/DX2                !
 ! A8    A(1,2,20)              98.7636         estimate D2E/DX2                !
 ! A9    A(1,2,21)             111.9705         estimate D2E/DX2                !
 ! A10   A(3,2,20)             109.1612         estimate D2E/DX2                !
 ! A11   A(3,2,21)             110.9853         estimate D2E/DX2                !
 ! A12   A(20,2,21)            108.165          estimate D2E/DX2                !
 ! A13   A(2,3,4)              114.3006         estimate D2E/DX2                !
 ! A14   A(2,3,22)             108.9219         estimate D2E/DX2                !
 ! A15   A(2,3,23)             110.0394         estimate D2E/DX2                !
 ! A16   A(4,3,22)             108.9639         estimate D2E/DX2                !
 ! A17   A(4,3,23)             108.9384         estimate D2E/DX2                !
 ! A18   A(22,3,23)            105.2839         estimate D2E/DX2                !
 ! A19   A(3,4,5)              114.5371         estimate D2E/DX2                !
 ! A20   A(3,4,8)              106.3294         estimate D2E/DX2                !
 ! A21   A(3,4,24)             108.6104         estimate D2E/DX2                !
 ! A22   A(5,4,8)              108.6631         estimate D2E/DX2                !
 ! A23   A(5,4,24)             110.7693         estimate D2E/DX2                !
 ! A24   A(8,4,24)             107.6311         estimate D2E/DX2                !
 ! A25   A(4,5,6)              116.4811         estimate D2E/DX2                !
 ! A26   A(4,5,25)             109.6846         estimate D2E/DX2                !
 ! A27   A(4,5,26)             108.6206         estimate D2E/DX2                !
 ! A28   A(6,5,25)             104.6808         estimate D2E/DX2                !
 ! A29   A(6,5,26)             111.4342         estimate D2E/DX2                !
 ! A30   A(25,5,26)            105.3085         estimate D2E/DX2                !
 ! A31   A(5,6,7)              113.414          estimate D2E/DX2                !
 ! A32   A(5,6,27)             111.4506         estimate D2E/DX2                !
 ! A33   A(5,6,28)             110.4721         estimate D2E/DX2                !
 ! A34   A(7,6,27)             100.0296         estimate D2E/DX2                !
 ! A35   A(7,6,28)             112.1915         estimate D2E/DX2                !
 ! A36   A(27,6,28)            108.8074         estimate D2E/DX2                !
 ! A37   A(6,7,29)             109.3366         estimate D2E/DX2                !
 ! A38   A(6,7,30)             108.1734         estimate D2E/DX2                !
 ! A39   A(6,7,31)             112.2643         estimate D2E/DX2                !
 ! A40   A(29,7,30)            107.5391         estimate D2E/DX2                !
 ! A41   A(29,7,31)            109.7823         estimate D2E/DX2                !
 ! A42   A(30,7,31)            109.619          estimate D2E/DX2                !
 ! A43   A(4,8,9)              113.4542         estimate D2E/DX2                !
 ! A44   A(8,9,10)             109.6576         estimate D2E/DX2                !
 ! A45   A(8,9,32)             111.691          estimate D2E/DX2                !
 ! A46   A(8,9,33)             110.3653         estimate D2E/DX2                !
 ! A47   A(10,9,32)            106.0507         estimate D2E/DX2                !
 ! A48   A(10,9,33)            110.4515         estimate D2E/DX2                !
 ! A49   A(32,9,33)            108.5402         estimate D2E/DX2                !
 ! A50   A(9,10,11)            109.3487         estimate D2E/DX2                !
 ! A51   A(9,10,34)            107.1452         estimate D2E/DX2                !
 ! A52   A(9,10,35)            110.3367         estimate D2E/DX2                !
 ! A53   A(11,10,34)           111.2893         estimate D2E/DX2                !
 ! A54   A(11,10,35)           110.1231         estimate D2E/DX2                !
 ! A55   A(34,10,35)           108.554          estimate D2E/DX2                !
 ! A56   A(10,11,12)           112.4768         estimate D2E/DX2                !
 ! A57   A(11,12,13)           109.7431         estimate D2E/DX2                !
 ! A58   A(11,12,14)           108.1667         estimate D2E/DX2                !
 ! A59   A(11,12,36)           108.4779         estimate D2E/DX2                !
 ! A60   A(13,12,14)           111.0389         estimate D2E/DX2                !
 ! A61   A(13,12,36)           110.7248         estimate D2E/DX2                !
 ! A62   A(14,12,36)           108.6121         estimate D2E/DX2                !
 ! A63   A(12,13,37)           109.9656         estimate D2E/DX2                !
 ! A64   A(12,13,38)           111.8984         estimate D2E/DX2                !
 ! A65   A(12,13,39)           112.5402         estimate D2E/DX2                !
 ! A66   A(37,13,38)           107.1165         estimate D2E/DX2                !
 ! A67   A(37,13,39)           109.6291         estimate D2E/DX2                !
 ! A68   A(38,13,39)           105.4651         estimate D2E/DX2                !
 ! A69   A(12,14,15)           111.9542         estimate D2E/DX2                !
 ! A70   A(12,14,40)           110.3116         estimate D2E/DX2                !
 ! A71   A(12,14,41)           110.4454         estimate D2E/DX2                !
 ! A72   A(15,14,40)           109.6069         estimate D2E/DX2                !
 ! A73   A(15,14,41)           110.1551         estimate D2E/DX2                !
 ! A74   A(40,14,41)           104.0825         estimate D2E/DX2                !
 ! A75   A(14,15,16)           110.7184         estimate D2E/DX2                !
 ! A76   A(14,15,42)           111.9861         estimate D2E/DX2                !
 ! A77   A(14,15,43)           110.4073         estimate D2E/DX2                !
 ! A78   A(16,15,42)           107.2531         estimate D2E/DX2                !
 ! A79   A(16,15,43)           108.3564         estimate D2E/DX2                !
 ! A80   A(42,15,43)           107.9767         estimate D2E/DX2                !
 ! A81   A(15,16,44)           106.834          estimate D2E/DX2                !
 ! D1    D(17,1,2,3)           173.3663         estimate D2E/DX2                !
 ! D2    D(17,1,2,20)           56.6233         estimate D2E/DX2                !
 ! D3    D(17,1,2,21)          -57.1006         estimate D2E/DX2                !
 ! D4    D(18,1,2,3)            57.2951         estimate D2E/DX2                !
 ! D5    D(18,1,2,20)          -59.4478         estimate D2E/DX2                !
 ! D6    D(18,1,2,21)         -173.1717         estimate D2E/DX2                !
 ! D7    D(19,1,2,3)           -65.9345         estimate D2E/DX2                !
 ! D8    D(19,1,2,20)          177.3226         estimate D2E/DX2                !
 ! D9    D(19,1,2,21)           63.5987         estimate D2E/DX2                !
 ! D10   D(1,2,3,4)           -177.3303         estimate D2E/DX2                !
 ! D11   D(1,2,3,22)            60.548          estimate D2E/DX2                !
 ! D12   D(1,2,3,23)           -54.3912         estimate D2E/DX2                !
 ! D13   D(20,2,3,4)           -66.4575         estimate D2E/DX2                !
 ! D14   D(20,2,3,22)          171.4208         estimate D2E/DX2                !
 ! D15   D(20,2,3,23)           56.4815         estimate D2E/DX2                !
 ! D16   D(21,2,3,4)            52.6707         estimate D2E/DX2                !
 ! D17   D(21,2,3,22)          -69.451          estimate D2E/DX2                !
 ! D18   D(21,2,3,23)          175.6097         estimate D2E/DX2                !
 ! D19   D(2,3,4,5)             64.5329         estimate D2E/DX2                !
 ! D20   D(2,3,4,8)           -175.4471         estimate D2E/DX2                !
 ! D21   D(2,3,4,24)           -59.8721         estimate D2E/DX2                !
 ! D22   D(22,3,4,5)          -173.3683         estimate D2E/DX2                !
 ! D23   D(22,3,4,8)           -53.3483         estimate D2E/DX2                !
 ! D24   D(22,3,4,24)           62.2266         estimate D2E/DX2                !
 ! D25   D(23,3,4,5)           -59.0008         estimate D2E/DX2                !
 ! D26   D(23,3,4,8)            61.0192         estimate D2E/DX2                !
 ! D27   D(23,3,4,24)          176.5941         estimate D2E/DX2                !
 ! D28   D(3,4,5,6)            -67.0069         estimate D2E/DX2                !
 ! D29   D(3,4,5,25)           174.3774         estimate D2E/DX2                !
 ! D30   D(3,4,5,26)            59.7679         estimate D2E/DX2                !
 ! D31   D(8,4,5,6)            174.2805         estimate D2E/DX2                !
 ! D32   D(8,4,5,25)            55.6648         estimate D2E/DX2                !
 ! D33   D(8,4,5,26)           -58.9447         estimate D2E/DX2                !
 ! D34   D(24,4,5,6)            56.2453         estimate D2E/DX2                !
 ! D35   D(24,4,5,25)          -62.3705         estimate D2E/DX2                !
 ! D36   D(24,4,5,26)         -176.9799         estimate D2E/DX2                !
 ! D37   D(3,4,8,9)            173.6844         estimate D2E/DX2                !
 ! D38   D(5,4,8,9)            -62.5558         estimate D2E/DX2                !
 ! D39   D(24,4,8,9)            57.4496         estimate D2E/DX2                !
 ! D40   D(4,5,6,7)           -177.7879         estimate D2E/DX2                !
 ! D41   D(4,5,6,27)            70.2464         estimate D2E/DX2                !
 ! D42   D(4,5,6,28)           -50.8459         estimate D2E/DX2                !
 ! D43   D(25,5,6,7)           -56.4865         estimate D2E/DX2                !
 ! D44   D(25,5,6,27)         -168.4522         estimate D2E/DX2                !
 ! D45   D(25,5,6,28)           70.4555         estimate D2E/DX2                !
 ! D46   D(26,5,6,7)            56.8454         estimate D2E/DX2                !
 ! D47   D(26,5,6,27)          -55.1202         estimate D2E/DX2                !
 ! D48   D(26,5,6,28)         -176.2126         estimate D2E/DX2                !
 ! D49   D(5,6,7,29)           -57.8616         estimate D2E/DX2                !
 ! D50   D(5,6,7,30)          -174.6909         estimate D2E/DX2                !
 ! D51   D(5,6,7,31)            64.2277         estimate D2E/DX2                !
 ! D52   D(27,6,7,29)           60.9076         estimate D2E/DX2                !
 ! D53   D(27,6,7,30)          -55.9217         estimate D2E/DX2                !
 ! D54   D(27,6,7,31)         -177.0031         estimate D2E/DX2                !
 ! D55   D(28,6,7,29)          176.1043         estimate D2E/DX2                !
 ! D56   D(28,6,7,30)           59.275          estimate D2E/DX2                !
 ! D57   D(28,6,7,31)          -61.8064         estimate D2E/DX2                !
 ! D58   D(4,8,9,10)          -178.3801         estimate D2E/DX2                !
 ! D59   D(4,8,9,32)            64.3578         estimate D2E/DX2                !
 ! D60   D(4,8,9,33)           -56.4841         estimate D2E/DX2                !
 ! D61   D(8,9,10,11)         -179.8171         estimate D2E/DX2                !
 ! D62   D(8,9,10,34)           59.4499         estimate D2E/DX2                !
 ! D63   D(8,9,10,35)          -58.5504         estimate D2E/DX2                !
 ! D64   D(32,9,10,11)         -59.0756         estimate D2E/DX2                !
 ! D65   D(32,9,10,34)        -179.8086         estimate D2E/DX2                !
 ! D66   D(32,9,10,35)          62.1912         estimate D2E/DX2                !
 ! D67   D(33,9,10,11)          58.3385         estimate D2E/DX2                !
 ! D68   D(33,9,10,34)         -62.3945         estimate D2E/DX2                !
 ! D69   D(33,9,10,35)         179.6052         estimate D2E/DX2                !
 ! D70   D(9,10,11,12)         178.133          estimate D2E/DX2                !
 ! D71   D(34,10,11,12)        -63.6927         estimate D2E/DX2                !
 ! D72   D(35,10,11,12)         56.737          estimate D2E/DX2                !
 ! D73   D(10,11,12,13)         63.3706         estimate D2E/DX2                !
 ! D74   D(10,11,12,14)       -175.3507         estimate D2E/DX2                !
 ! D75   D(10,11,12,36)        -57.7172         estimate D2E/DX2                !
 ! D76   D(11,12,13,37)         56.6614         estimate D2E/DX2                !
 ! D77   D(11,12,13,38)        -62.2539         estimate D2E/DX2                !
 ! D78   D(11,12,13,39)        179.1921         estimate D2E/DX2                !
 ! D79   D(14,12,13,37)        -62.874          estimate D2E/DX2                !
 ! D80   D(14,12,13,38)        178.2106         estimate D2E/DX2                !
 ! D81   D(14,12,13,39)         59.6566         estimate D2E/DX2                !
 ! D82   D(36,12,13,37)        176.3857         estimate D2E/DX2                !
 ! D83   D(36,12,13,38)         57.4703         estimate D2E/DX2                !
 ! D84   D(36,12,13,39)        -61.0837         estimate D2E/DX2                !
 ! D85   D(11,12,14,15)        179.6667         estimate D2E/DX2                !
 ! D86   D(11,12,14,40)         57.3232         estimate D2E/DX2                !
 ! D87   D(11,12,14,41)        -57.1887         estimate D2E/DX2                !
 ! D88   D(13,12,14,15)        -59.8602         estimate D2E/DX2                !
 ! D89   D(13,12,14,40)        177.7963         estimate D2E/DX2                !
 ! D90   D(13,12,14,41)         63.2844         estimate D2E/DX2                !
 ! D91   D(36,12,14,15)         62.1193         estimate D2E/DX2                !
 ! D92   D(36,12,14,40)        -60.2242         estimate D2E/DX2                !
 ! D93   D(36,12,14,41)       -174.7361         estimate D2E/DX2                !
 ! D94   D(12,14,15,16)       -179.8653         estimate D2E/DX2                !
 ! D95   D(12,14,15,42)         60.4861         estimate D2E/DX2                !
 ! D96   D(12,14,15,43)        -59.8675         estimate D2E/DX2                !
 ! D97   D(40,14,15,16)        -57.1208         estimate D2E/DX2                !
 ! D98   D(40,14,15,42)       -176.7694         estimate D2E/DX2                !
 ! D99   D(40,14,15,43)         62.8771         estimate D2E/DX2                !
 ! D100  D(41,14,15,16)         56.8262         estimate D2E/DX2                !
 ! D101  D(41,14,15,42)        -62.8224         estimate D2E/DX2                !
 ! D102  D(41,14,15,43)        176.8241         estimate D2E/DX2                !
 ! D103  D(14,15,16,44)        -64.4568         estimate D2E/DX2                !
 ! D104  D(42,15,16,44)         57.9952         estimate D2E/DX2                !
 ! D105  D(43,15,16,44)        174.3255         estimate D2E/DX2                !
 --------------------------------------------------------------------------------
 Trust Radius=3.00D-01 FncErr=1.00D-07 GrdErr=1.00D-06 EigMax=2.50D+02 EigMin=1.00D-04
 Number of steps in this run=    239 maximum allowed number of steps=    264.
 GradGradGradGradGradGradGradGradGradGradGradGradGradGradGradGradGradGrad

                          Input orientation:                          
 ---------------------------------------------------------------------
 Center     Atomic      Atomic             Coordinates (Angstroms)
 Number     Number       Type             X           Y           Z
 ---------------------------------------------------------------------
      1          6           0        0.850840    0.224310   -0.080970
      2          6           0        2.359000    0.183070   -0.059650
      3          6           0        3.078580    0.644430   -1.325210
      4          6           0        4.626340    0.516600   -1.263610
      5          6           0        5.147020   -0.935730   -1.150520
      6          6           0        4.832590   -1.668710    0.140550
      7          6           0        5.416670   -3.057740    0.198540
      8          8           0        5.130800    1.094650   -2.488130
      9          6           0        6.558200    1.186810   -2.528680
     10          6           0        6.989220    1.836950   -3.823530
     11          8           0        8.417530    1.921910   -3.859030
     12          6           0        8.902180    2.491250   -5.081220
     13          6           0        8.413780    3.934560   -5.208020
     14          6           0       10.435680    2.427980   -5.063600
     15          6           0       11.044490    3.007350   -6.334940
     16          8           0       12.457290    2.933190   -6.292430
     17          1           0        0.483360   -0.244520    0.841930
     18          1           0        0.476670   -0.381080   -0.913590
     19          1           0        0.461270    1.237290   -0.146540
     20          1           0        2.491940   -0.875060    0.055030
     21          1           0        2.769960    0.676990    0.827440
     22          1           0        2.814520    1.692150   -1.523260
     23          1           0        2.709130    0.083850   -2.193480
     24          1           0        4.995460    1.128400   -0.430420
     25          1           0        6.238030   -0.941620   -1.213710
     26          1           0        4.803110   -1.500350   -2.026090
     27          1           0        3.786750   -1.902280    0.214980
     28          1           0        5.121300   -1.062160    1.005430
     29          1           0        5.043760   -3.643740   -0.648710
     30          1           0        5.061050   -3.539770    1.115160
     31          1           0        6.505360   -3.048170    0.189240
     32          1           0        7.026500    0.201340   -2.515390
     33          1           0        6.927910    1.759920   -1.670800
     34          1           0        6.532400    2.827820   -3.853730
     35          1           0        6.624310    1.258240   -4.680460
     36          1           0        8.536120    1.882510   -5.917670
     37          1           0        8.731870    4.515150   -4.335170
     38          1           0        7.324310    3.993350   -5.253470
     39          1           0        8.769000    4.417280   -6.117950
     40          1           0       10.773230    1.390230   -4.932760
     41          1           0       10.831280    2.950950   -4.182010
     42          1           0       10.779160    4.058180   -6.473480
     43          1           0       10.695820    2.451630   -7.213470
     44          1           0       12.750620    3.511920   -5.554110
 ---------------------------------------------------------------------
                    Distance matrix (angstroms):
                    1          2          3          4          5
     1  C    0.000000
     2  C    1.508874   0.000000
     3  C    2.586012   1.527184   0.000000
     4  C    3.967174   2.588743   1.554251   0.000000
     5  C    4.576767   3.196055   2.608806   1.546984   0.000000
     6  C    4.414400   3.096420   3.252018   2.605721   1.517560
     7  C    5.629989   4.463055   4.636221   3.941879   2.528952
     8  O    4.986980   3.796231   2.401393   1.445016   2.431441
     9  C    6.284238   4.973619   3.721595   2.404510   2.897573
    10  C    7.367976   6.192015   4.791327   3.725549   4.269243
    11  O    8.626145   7.359663   6.046204   4.804604   5.118434
    12  C    9.745029   8.564874   7.171658   6.062689   6.426182
    13  C    9.861575   8.788615   7.373298   6.448684   7.131252
    14  C   11.025059   9.762781   8.442957   7.200120   7.388956
    15  C   12.278760  11.081226   9.702397   8.550724   8.786708
    16  O   13.439864  12.181386  10.856883   9.615234   9.738985
    17  H    1.098448   2.124548   3.495983   4.709234   5.118335
    18  H    1.095334   2.142579   2.826842   4.260059   4.709134
    19  H    1.087287   2.172627   2.931051   4.372076   5.261772
    20  H    1.979980   1.072597   2.134961   2.869005   2.916587
    21  H    2.170979   1.095342   2.174904   2.800779   3.487636
    22  H    2.844432   2.151040   1.098485   2.175322   3.533447
    23  H    2.817032   2.164640   1.097559   2.174310   2.840883
    24  H    4.256450   2.825251   2.170093   1.097613   2.191380
    25  H    5.627105   4.200435   3.536964   2.174038   1.092854
    26  H    4.730579   3.560121   2.839950   2.163495   1.097129
    27  H    3.637243   2.542160   3.059317   2.956708   2.156187
    28  H    4.590436   3.211743   3.537943   2.808204   2.159807
    29  H    5.732776   4.711624   4.765290   4.226200   2.756047
    30  H    5.772772   4.747714   5.233844   4.722463   3.452785
    31  H    6.538787   5.262619   5.260387   4.283582   2.846480
    32  H    6.638200   5.274140   4.147159   2.725272   2.586164
    33  H    6.466563   5.094821   4.022573   2.647428   3.272429
    34  H    7.300144   6.229528   4.805151   3.960243   4.836417
    35  H    7.453675   6.379714   4.920027   4.027006   4.410937
    36  H    9.791845   8.681089   7.239356   6.229957   6.492626
    37  H    9.930768   8.812517   7.483450   6.502173   7.259837
    38  H    9.103089   8.133161   6.683765   5.940186   6.772785
    39  H   10.803860   9.783641   8.341800   7.479409   8.151614
    40  H   11.106442   9.798148   8.531018   7.211806   7.167264
    41  H   11.129343   9.820109   8.578211   7.276290   7.523764
    42  H   12.415083  11.271769   9.872047   8.805835   9.219221
    43  H   12.359496  11.217222   9.795914   8.716867   8.889474
    44  H   13.504385  12.217041  10.938668   9.663553   9.848245
                    6          7          8          9         10
     6  C    0.000000
     7  C    1.507951   0.000000
     8  O    3.825578   4.954015   0.000000
     9  C    4.272764   5.172719   1.430947   0.000000
    10  C    5.714423   6.527477   2.405832   1.511654   0.000000
    11  O    6.460727   7.089848   3.655998   2.401523   1.431275
    12  C    7.818805   8.415220   4.785177   3.702873   2.381031
    13  C    8.533977   9.333050   5.122582   4.262883   2.888971
    14  C    8.675290   9.108990   6.045872   4.795954   3.710145
    15  C   10.118558  10.542487   7.309453   6.158635   4.911439
    16  O   10.986208  11.295763   8.457564   7.212137   6.098934
    17  H    4.629908   5.715392   5.872084   7.093194   8.271956
    18  H    4.662965   5.727560   5.130096   6.484736   7.469988
    19  H    5.256966   6.566761   5.225696   6.545968   7.516248
    20  H    2.473022   3.652223   4.160649   5.240356   6.528687
    21  H    3.198213   4.620476   4.091578   5.086671   6.385858
    22  H    4.258668   5.683066   2.579367   3.909140   4.768682
    23  H    3.609466   4.787705   2.640648   4.017987   4.904038
    24  H    2.859433   4.254031   2.062432   2.616919   3.998790
    25  H    2.082773   2.673396   2.645090   2.522275   3.885344
    26  H    2.173371   2.784043   2.656104   3.248656   4.375779
    27  H    1.074186   1.997998   4.253806   4.975046   6.367670
    28  H    1.095114   2.172707   4.105713   4.428598   5.934039
    29  H    2.137351   1.095578   5.083639   5.400188   6.625878
    30  H    2.122009   1.094993   5.870810   6.153014   7.551001
    31  H    2.168742   1.088772   5.120614   5.032389   6.340413
    32  H    3.919738   4.536361   2.095811   1.091161   2.094717
    33  H    4.407591   5.384062   2.083319   1.095946   2.154980
    34  H    6.249993   7.232258   2.614044   2.109345   1.091522
    35  H    5.917722   6.625007   2.657752   2.153980   1.096537
    36  H    7.939101   8.458431   4.896802   3.985150   2.603920
    37  H    8.571848   9.428348   5.298970   4.366474   3.235948
    38  H    8.207499   9.114898   4.567390   3.985984   2.609037
    39  H    9.576190  10.344665   6.119801   5.310973   3.884596
    40  H    8.389684   8.649128   6.156346   4.856692   3.968461
    41  H    8.718375   9.198455   6.229812   4.909674   4.016333
    42  H   10.578486  11.131418   7.521270   6.451567   5.130277
    43  H   10.268217  10.637691   7.425610   6.377063   5.060475
    44  H   11.043699  11.403519   8.561839   7.273612   6.244531
                   11         12         13         14         15
    11  O    0.000000
    12  C    1.432753   0.000000
    13  C    2.422921   1.528972   0.000000
    14  C    2.404168   1.534906   2.525613   0.000000
    15  C    3.769513   2.535284   3.008372   1.524016   0.000000
    16  O    4.823254   3.781686   4.304493   2.419125   1.415384
    17  H    9.473304  10.651041  10.814720  11.877130  13.176479
    18  H    8.777052   9.828969  10.003229  11.148779  12.351166
    19  H    8.806439   9.857608   9.804910  11.184099  12.386846
    20  H    7.632531   8.877178   9.268243  10.010667  11.360059
    21  H    7.443647   8.706775   8.882074   9.825150  11.189196
    22  H    6.074729   7.096284   7.068067   8.435492   9.623639
    23  H    6.224014   7.244894   7.513884   8.569254   9.755858
    24  H    4.908726   6.224931   6.510369   7.263006   8.659363
    25  H    4.466290   5.817209   6.668248   6.617864   8.057507
    26  H    5.304297   6.486067   7.259467   7.508934   8.822719
    27  H    7.257142   8.574408   9.213416   9.530101  10.939868
    28  H    6.590355   7.998068   8.626390   8.789587  10.272591
    29  H    7.257061   8.495449   9.464406   9.242826  10.610324
    30  H    8.114091   9.461639  10.348382  10.133004  11.583191
    31  H    6.689288   8.012969   9.029452   8.545640   9.991894
    32  H    2.588570   3.917314   4.807466   4.803520   6.213445
    33  H    2.652086   4.007936   4.410079   4.925632   6.344802
    34  H    2.091510   2.689957   2.568767   4.106002   5.152435
    35  H    2.081068   2.620995   3.262393   4.005200   5.033357
    36  H    2.062429   1.097366   2.174737   2.152975   2.780521
    37  H    2.655261   2.163739   1.095506   2.791032   3.408922
    38  H    2.725886   2.185326   1.092001   3.488131   3.997688
    39  H    3.384246   2.191378   1.089574   2.801212   2.685673
    40  H    2.642897   2.176032   3.480860   1.099083   2.157491
    41  H    2.643753   2.177459   2.804370   1.098726   2.164197
    42  H    4.120230   2.813665   2.685460   2.182497   1.092628
    43  H    4.089435   2.786612   3.380624   2.165681   1.096454
    44  H    4.917021   4.009474   4.371108   2.602782   1.942979
                   16         17         18         19         20
    16  O    0.000000
    17  H   14.295871   0.000000
    18  H   13.544429   1.760836   0.000000
    19  H   13.585011   1.781382   1.791012   0.000000
    20  H   12.413751   2.247484   2.289881   2.937052   0.000000
    21  H   12.232226   2.465346   3.067552   2.567610   1.755782
    22  H   10.829043   3.844362   3.183634   2.764062   3.030779
    23  H   10.952020   3.778306   2.614987   3.251655   2.454074
    24  H    9.659158   4.884960   4.788679   4.544373   3.243012
    25  H    8.915534   6.150433   5.796339   6.265577   3.955670
    26  H    9.820611   5.335062   4.605269   5.466165   3.172311
    27  H   11.870401   3.748816   3.813705   4.587637   1.660511
    28  H   11.092264   4.712298   5.071400   5.322629   2.802106
    29  H   11.404736   5.879962   5.619023   6.713855   3.830486
    30  H   12.307557   5.646997   5.925343   6.750568   3.850309
    31  H   10.640215   6.674649   6.683914   7.416801   4.565957
    32  H    7.156991   7.367705   6.767958   7.055982   5.322399
    33  H    7.301374   7.201654   6.839280   6.664379   5.440537
    34  H    6.408017   8.251023   7.457434   7.289147   6.731645
    35  H    6.279137   8.394423   7.393927   7.651139   6.637192
    36  H    4.076757  10.726761   9.752917   9.946128   8.933613
    37  H    4.495800  10.839499  10.189632   9.833199   9.341571
    38  H    5.343301  10.095149   9.211969   8.987654   8.673718
    39  H    3.979504  11.782366  10.902860  10.713937  10.272099
    40  H    2.658098  11.912215  11.194213  11.369600   9.929217
    41  H    2.664225  11.938612  11.357946  11.258719  10.106209
    42  H    2.028424  13.342861  12.520412  12.427648  11.646300
    43  H    2.045236  13.283563  12.334657  12.496485  11.454327
    44  H    0.982897  14.335475  13.687210  13.617778  12.487937
                   21         22         23         24         25
    21  H    0.000000
    22  H    2.560923   0.000000
    23  H    3.079200   1.745546   0.000000
    24  H    2.595926   2.503720   3.070305   0.000000
    25  H    4.337476   4.330472   3.803245   2.538209   0.000000
    26  H    4.125184   3.794652   2.631057   3.081150   1.741016
    27  H    2.839296   4.109335   3.302523   3.326040   2.995463
    28  H    2.930038   4.393373   4.167125   2.622223   2.487207
    29  H    5.100774   5.848596   4.661731   4.777374   3.007816
    30  H    4.807592   6.275440   5.441438   4.917818   3.682296
    31  H    5.313881   6.247046   5.467931   4.484140   2.545051
    32  H    5.433129   4.576856   4.330948   3.054777   1.903264
    33  H    4.970160   4.116593   4.569520   2.381538   2.825453
    34  H    6.379293   4.532490   4.990310   4.119377   4.611403
    35  H    6.747654   4.966960   4.784652   4.553334   4.123949
    36  H    8.955355   7.216910   7.145529   6.573802   5.948459
    37  H    8.770883   7.133807   7.777959   6.377923   6.763068
    38  H    8.289621   6.288735   6.778467   6.073985   6.469435
    39  H    9.910434   7.999584   8.420339   7.576565   7.692541
    40  H    9.886402   8.663539   8.616263   7.329546   6.311648
    41  H    9.759629   8.539436   8.839900   7.173068   6.712738
    42  H   11.352672   9.671518   9.961882   8.863034   8.560668
    43  H   11.429122   9.750394   9.725939   8.958505   8.208724
    44  H   12.180911  10.875909  11.130005   9.595617   9.004828
                   26         27         28         29         30
    26  H    0.000000
    27  H    2.493377   0.000000
    28  H    3.079508   1.763983   0.000000
    29  H    2.559142   2.314890   3.067042   0.000000
    30  H    3.754094   2.261756   2.480770   1.767016   0.000000
    31  H    3.193914   2.950350   2.554608   1.786935   1.784665
    32  H    2.842292   4.730340   4.197903   4.711729   5.571337
    33  H    3.907732   5.180228   4.288378   5.813281   6.271639
    34  H    5.006373   6.816659   6.382365   7.373553   8.209808
    35  H    4.239371   6.481201   6.322392   6.540837   7.684653
    36  H    6.365807   8.630791   8.262045   8.396306   9.536138
    37  H    7.546737   9.292012   8.524354   9.682956  10.395324
    38  H    6.852238   8.785029   8.341778   9.204883  10.120755
    39  H    8.215227  10.240393   9.699099  10.429288  11.374595
    40  H    7.241997   9.281743   8.556905   8.747615   9.670121
    41  H    7.797493   9.618356   8.695887   9.458834  10.172758
    42  H    9.294606  11.364699  10.684725  11.231310  12.166063
    43  H    8.789260  11.039640  10.534340  10.592233  11.705280
    44  H   10.036568  11.956041  11.052434  11.604400  12.382850
                   31         32         33         34         35
    31  H    0.000000
    32  H    4.259803   0.000000
    33  H    5.172623   1.775450   0.000000
    34  H    7.132573   2.988927   2.462117   0.000000
    35  H    6.501792   2.442606   3.066253   1.776376   0.000000
    36  H    8.107400   4.084213   4.542826   3.027929   2.361233
    37  H    9.090184   4.982855   4.236087   2.813634   3.894675
    38  H    8.937381   4.686695   4.240385   1.986166   2.880828
    39  H   10.031832   5.812822   5.498029   3.557451   4.079903
    40  H    8.009307   4.614664   5.056040   4.606041   4.158679
    41  H    8.591324   4.981398   4.791766   4.313154   4.562052
    42  H   10.637547   6.680131   6.571138   5.139246   5.321406
    43  H   10.129554   6.371787   6.737715   5.363156   4.941408
    44  H   10.724930   7.277315   7.214815   6.482711   6.585895
                   36         37         38         39         40
    36  H    0.000000
    37  H    3.077892   0.000000
    38  H    2.522953   1.759766   0.000000
    39  H    2.553312   1.785850   1.736137   0.000000
    40  H    2.493401   3.780131   4.332913   3.818985   0.000000
    41  H    3.069501   2.622537   3.812278   3.186061   1.732871
    42  H    3.173908   2.995428   3.664508   2.072703   3.080878
    43  H    2.582111   4.049670   4.193516   2.962529   2.516784
    44  H    4.533118   4.317712   5.455914   4.122001   2.966094
                   41         42         43         44
    41  H    0.000000
    42  H    2.545488   0.000000
    43  H    3.075292   1.770744   0.000000
    44  H    2.425121   2.242832   2.846031   0.000000
 Stoichiometry    C13H28O3
 Framework group  C1[X(C13H28O3)]
 Deg. of freedom   126
 Full point group                 C1      NOp   1
 Largest Abelian subgroup         C1      NOp   1
 Largest concise Abelian subgroup C1      NOp   1
                         Standard orientation:                         
 ---------------------------------------------------------------------
 Center     Atomic      Atomic             Coordinates (Angstroms)
 Number     Number       Type             X           Y           Z
 ---------------------------------------------------------------------
      1          6           0       -6.032602   -1.938117    0.141259
      2          6           0       -4.930743   -1.023062   -0.333382
      3          6           0       -3.524227   -1.310906    0.187339
      4          6           0       -2.446826   -0.295416   -0.285612
      5          6           0       -2.654184    1.148167    0.230366
      6          6           0       -3.871530    1.886307   -0.295186
      7          6           0       -3.977738    3.303023    0.210336
      8          8           0       -1.180997   -0.786048    0.209391
      9          6           0       -0.056345   -0.037167   -0.261716
     10          6           0        1.219852   -0.645268    0.273665
     11          8           0        2.339749    0.111054   -0.197880
     12          6           0        3.586259   -0.383803    0.306214
     13          6           0        3.822019   -1.805553   -0.204474
     14          6           0        4.701015    0.561782   -0.161893
     15          6           0        6.071258    0.117755    0.336002
     16          8           0        7.077935    1.008389   -0.107489
     17          1           0       -6.989322   -1.535610   -0.218270
     18          1           0       -6.076260   -1.926686    1.235663
     19          1           0       -5.915075   -2.956634   -0.220686
     20          1           0       -5.284059   -0.105656    0.095566
     21          1           0       -4.930633   -0.912722   -1.423152
     22          1           0       -3.226895   -2.320002   -0.128870
     23          1           0       -3.528191   -1.340924    1.284480
     24          1           0       -2.404903   -0.314520   -1.382257
     25          1           0       -1.804916    1.769832   -0.063925
     26          1           0       -2.636493    1.134052    1.327262
     27          1           0       -4.781349    1.476914    0.102939
     28          1           0       -3.909204    1.833292   -1.388367
     29          1           0       -4.005244    3.296286    1.305547
     30          1           0       -4.926977    3.720752   -0.141029
     31          1           0       -3.154241    3.926620   -0.133762
     32          1           0       -0.075979    0.991521    0.101668
     33          1           0       -0.041842   -0.019474   -1.357423
     34          1           0        1.259394   -1.676134   -0.082949
     35          1           0        1.206356   -0.655626    1.370070
     36          1           0        3.549551   -0.366168    1.402825
     37          1           0        3.792382   -1.819418   -1.299492
     38          1           0        3.053305   -2.497128    0.146624
     39          1           0        4.767523   -2.222169    0.141395
     40          1           0        4.499431    1.587214    0.178457
     41          1           0        4.703357    0.639463   -1.257866
     42          1           0        6.335958   -0.877795   -0.028211
     43          1           0        6.090296    0.093246    1.432016
     44          1           0        7.103288    0.943874   -1.087939
 ---------------------------------------------------------------------
 Rotational constants (GHZ):           1.0553573           0.1281987           0.1162518
 Standard basis: 6-31G(2df,p) (6D, 7F)
 There are   636 symmetry adapted cartesian basis functions of A   symmetry.
 There are   588 symmetry adapted basis functions of A   symmetry.
   588 basis functions,   900 primitive gaussians,   636 cartesian basis functions
    65 alpha electrons       65 beta electrons
       nuclear repulsion energy      1135.2874274555 Hartrees.
 NAtoms=   44 NActive=   44 NUniq=   44 SFac= 1.00D+00 NAtFMM=   60 NAOKFM=F Big=F
 Integral buffers will be    131072 words long.
 Raffenetti 2 integral format.
 Two-electron integral symmetry is turned on.
 One-electron integrals computed using PRISM.
 PrsmSu:  requested number of processors reduced to:  12 ShMem   1 Linda.
 NBasis=   588 RedAO= T EigKep=  6.27D-04  NBF=   588
 NBsUse=   588 1.00D-06 EigRej= -1.00D+00 NBFU=   588
 ExpMin= 1.61D-01 ExpMax= 5.48D+03 ExpMxC= 8.25D+02 IAcc=3 IRadAn=         5 AccDes= 0.00D+00
 Harris functional with IExCor=  402 and IRadAn=       5 diagonalized for initial guess.
 HarFok:  IExCor=  402 AccDes= 0.00D+00 IRadAn=         5 IDoV= 1 UseB2=F ITyADJ=14
 ICtDFT=  3500011 ScaDFX=  1.000000  1.000000  1.000000  1.000000
 FoFCou: FMM=F IPFlag=           0 FMFlag=      100000 FMFlg1=           0
         NFxFlg=           0 DoJE=T BraDBF=F KetDBF=T FulRan=T
         wScrn=  0.000000 ICntrl=       500 IOpCl=  0 I1Cent=   200000004 NGrid=           0
         NMat0=    1 NMatS0=      1 NMatT0=    0 NMatD0=    1 NMtDS0=    0 NMtDT0=    0
 Petite list used in FoFCou.
 Requested convergence on RMS density matrix=1.00D-08 within 128 cycles.
 Requested convergence on MAX density matrix=1.00D-06.
 Requested convergence on             energy=1.00D-06.
 No special actions if energy rises.
 Integral accuracy reduced to 1.0D-05 until final iterations.
 Initial convergence to 1.0D-05 achieved.  Increase integral accuracy.
 SCF Done:  E(RB3LYP) =  -737.931579505     A.U. after   12 cycles
            NFock= 12  Conv=0.42D-08     -V/T= 2.0076

 **********************************************************************

            Population analysis using the SCF density.

 **********************************************************************

 Orbital symmetries:
       Occupied  (A) (A) (A) (A) (A) (A) (A) (A) (A) (A) (A) (A)
                 (A) (A) (A) (A) (A) (A) (A) (A) (A) (A) (A) (A)
                 (A) (A) (A) (A) (A) (A) (A) (A) (A) (A) (A) (A)
                 (A) (A) (A) (A) (A) (A) (A) (A) (A) (A) (A) (A)
                 (A) (A) (A) (A) (A) (A) (A) (A) (A) (A) (A) (A)
                 (A) (A) (A) (A) (A)
       Virtual   (A) (A) (A) (A) (A) (A) (A) (A) (A) (A) (A) (A)
                 (A) (A) (A) (A) (A) (A) (A) (A) (A) (A) (A) (A)
                 (A) (A) (A) (A) (A) (A) (A) (A) (A) (A) (A) (A)
                 (A) (A) (A) (A) (A) (A) (A) (A) (A) (A) (A) (A)
                 (A) (A) (A) (A) (A) (A) (A) (A) (A) (A) (A) (A)
                 (A) (A) (A) (A) (A) (A) (A) (A) (A) (A) (A) (A)
                 (A) (A) (A) (A) (A) (A) (A) (A) (A) (A) (A) (A)
                 (A) (A) (A) (A) (A) (A) (A) (A) (A) (A) (A) (A)
                 (A) (A) (A) (A) (A) (A) (A) (A) (A) (A) (A) (A)
                 (A) (A) (A) (A) (A) (A) (A) (A) (A) (A) (A) (A)
                 (A) (A) (A) (A) (A) (A) (A) (A) (A) (A) (A) (A)
                 (A) (A) (A) (A) (A) (A) (A) (A) (A) (A) (A) (A)
                 (A) (A) (A) (A) (A) (A) (A) (A) (A) (A) (A) (A)
                 (A) (A) (A) (A) (A) (A) (A) (A) (A) (A) (A) (A)
                 (A) (A) (A) (A) (A) (A) (A) (A) (A) (A) (A) (A)
                 (A) (A) (A) (A) (A) (A) (A) (A) (A) (A) (A) (A)
                 (A) (A) (A) (A) (A) (A) (A) (A) (A) (A) (A) (A)
                 (A) (A) (A) (A) (A) (A) (A) (A) (A) (A) (A) (A)
                 (A) (A) (A) (A) (A) (A) (A) (A) (A) (A) (A) (A)
                 (A) (A) (A) (A) (A) (A) (A) (A) (A) (A) (A) (A)
                 (A) (A) (A) (A) (A) (A) (A) (A) (A) (A) (A) (A)
                 (A) (A) (A) (A) (A) (A) (A) (A) (A) (A) (A) (A)
                 (A) (A) (A) (A) (A) (A) (A) (A) (A) (A) (A) (A)
                 (A) (A) (A) (A) (A) (A) (A) (A) (A) (A) (A) (A)
                 (A) (A) (A) (A) (A) (A) (A) (A) (A) (A) (A) (A)
                 (A) (A) (A) (A) (A) (A) (A) (A) (A) (A) (A) (A)
                 (A) (A) (A) (A) (A) (A) (A) (A) (A) (A) (A) (A)
                 (A) (A) (A) (A) (A) (A) (A) (A) (A) (A) (A) (A)
                 (A) (A) (A) (A) (A) (A) (A) (A) (A) (A) (A) (A)
                 (A) (A) (A) (A) (A) (A) (A) (A) (A) (A) (A) (A)
                 (A) (A) (A) (A) (A) (A) (A) (A) (A) (A) (A) (A)
                 (A) (A) (A) (A) (A) (A) (A) (A) (A) (A) (A) (A)
                 (A) (A) (A) (A) (A) (A) (A) (A) (A) (A) (A) (A)
                 (A) (A) (A) (A) (A) (A) (A) (A) (A) (A) (A) (A)
                 (A) (A) (A) (A) (A) (A) (A) (A) (A) (A) (A) (A)
                 (A) (A) (A) (A) (A) (A) (A) (A) (A) (A) (A) (A)
                 (A) (A) (A) (A) (A) (A) (A) (A) (A) (A) (A) (A)
                 (A) (A) (A) (A) (A) (A) (A) (A) (A) (A) (A) (A)
                 (A) (A) (A) (A) (A) (A) (A) (A) (A) (A) (A) (A)
                 (A) (A) (A) (A) (A) (A) (A) (A) (A) (A) (A) (A)
                 (A) (A) (A) (A) (A) (A) (A) (A) (A) (A) (A) (A)
                 (A) (A) (A) (A) (A) (A) (A) (A) (A) (A) (A) (A)
                 (A) (A) (A) (A) (A) (A) (A) (A) (A) (A) (A) (A)
                 (A) (A) (A) (A) (A) (A) (A)
 The electronic state is 1-A.
 Alpha  occ. eigenvalues --  -19.13637 -19.13258 -19.13075 -10.23395 -10.22976
 Alpha  occ. eigenvalues --  -10.22472 -10.22003 -10.21869 -10.17789 -10.17570
 Alpha  occ. eigenvalues --  -10.17375 -10.17350 -10.17157 -10.17112 -10.16943
 Alpha  occ. eigenvalues --  -10.16893  -1.02517  -1.01391  -1.01002  -0.80937
 Alpha  occ. eigenvalues --   -0.79353  -0.78019  -0.74769  -0.71419  -0.70757
 Alpha  occ. eigenvalues --   -0.67769  -0.64259  -0.61378  -0.59760  -0.57749
 Alpha  occ. eigenvalues --   -0.57264  -0.56591  -0.50801  -0.49911  -0.48783
 Alpha  occ. eigenvalues --   -0.47880  -0.46511  -0.46217  -0.45426  -0.44215
 Alpha  occ. eigenvalues --   -0.43831  -0.43235  -0.42291  -0.40559  -0.39660
 Alpha  occ. eigenvalues --   -0.39526  -0.38774  -0.38357  -0.37489  -0.37080
 Alpha  occ. eigenvalues --   -0.36525  -0.35680  -0.35189  -0.34335  -0.33935
 Alpha  occ. eigenvalues --   -0.33300  -0.32881  -0.32168  -0.31770  -0.30662
 Alpha  occ. eigenvalues --   -0.30372  -0.28807  -0.26131  -0.25360  -0.24654
 Alpha virt. eigenvalues --    0.07208   0.08076   0.08716   0.09536   0.10279
 Alpha virt. eigenvalues --    0.10721   0.11528   0.12159   0.12552   0.13134
 Alpha virt. eigenvalues --    0.13865   0.14069   0.15297   0.15467   0.15816
 Alpha virt. eigenvalues --    0.16421   0.16811   0.17334   0.17557   0.17948
 Alpha virt. eigenvalues --    0.18299   0.18487   0.18699   0.19205   0.19868
 Alpha virt. eigenvalues --    0.20616   0.20694   0.21175   0.21960   0.22369
 Alpha virt. eigenvalues --    0.23295   0.23888   0.24544   0.25435   0.25653
 Alpha virt. eigenvalues --    0.26582   0.27280   0.27346   0.27949   0.29258
 Alpha virt. eigenvalues --    0.29934   0.30719   0.34171   0.41033   0.42253
 Alpha virt. eigenvalues --    0.44585   0.46268   0.46825   0.47367   0.48578
 Alpha virt. eigenvalues --    0.49022   0.50271   0.50395   0.50503   0.51503
 Alpha virt. eigenvalues --    0.51534   0.52188   0.52380   0.54076   0.55344
 Alpha virt. eigenvalues --    0.55843   0.56549   0.57244   0.57607   0.58557
 Alpha virt. eigenvalues --    0.59313   0.60061   0.60183   0.61156   0.61444
 Alpha virt. eigenvalues --    0.62974   0.63218   0.64105   0.65626   0.66800
 Alpha virt. eigenvalues --    0.68576   0.69306   0.70338   0.71448   0.71712
 Alpha virt. eigenvalues --    0.71965   0.72140   0.72854   0.73113   0.73423
 Alpha virt. eigenvalues --    0.73923   0.73973   0.74334   0.74823   0.75620
 Alpha virt. eigenvalues --    0.76150   0.76401   0.77052   0.77763   0.78293
 Alpha virt. eigenvalues --    0.78577   0.78930   0.79402   0.79551   0.80466
 Alpha virt. eigenvalues --    0.81072   0.81295   0.81481   0.82181   0.82396
 Alpha virt. eigenvalues --    0.83098   0.84361   0.86918   0.87434   0.87793
 Alpha virt. eigenvalues --    0.88490   0.88634   0.89448   0.89730   0.91389
 Alpha virt. eigenvalues --    0.91789   0.92971   0.93647   0.95198   0.96094
 Alpha virt. eigenvalues --    0.98152   0.98868   0.99660   1.00518   1.01189
 Alpha virt. eigenvalues --    1.04672   1.05222   1.06313   1.07577   1.08359
 Alpha virt. eigenvalues --    1.10793   1.11619   1.13653   1.13793   1.15900
 Alpha virt. eigenvalues --    1.17653   1.18209   1.19548   1.20647   1.21749
 Alpha virt. eigenvalues --    1.22173   1.23192   1.24465   1.25774   1.26468
 Alpha virt. eigenvalues --    1.27333   1.29328   1.29625   1.30863   1.32775
 Alpha virt. eigenvalues --    1.34286   1.35018   1.36897   1.37450   1.37800
 Alpha virt. eigenvalues --    1.39082   1.40018   1.40198   1.41351   1.42301
 Alpha virt. eigenvalues --    1.43837   1.44937   1.45883   1.48020   1.49612
 Alpha virt. eigenvalues --    1.50473   1.52339   1.52668   1.54205   1.54902
 Alpha virt. eigenvalues --    1.55480   1.55987   1.56845   1.57895   1.59160
 Alpha virt. eigenvalues --    1.59927   1.61368   1.61855   1.62658   1.63833
 Alpha virt. eigenvalues --    1.64013   1.66468   1.67241   1.67983   1.69685
 Alpha virt. eigenvalues --    1.69817   1.71455   1.72191   1.74497   1.75297
 Alpha virt. eigenvalues --    1.77974   1.78304   1.80166   1.81466   1.83671
 Alpha virt. eigenvalues --    1.84625   1.85239   1.86479   1.87148   1.88005
 Alpha virt. eigenvalues --    1.88635   1.89608   1.90899   1.92441   1.93608
 Alpha virt. eigenvalues --    1.95402   1.95705   1.96220   1.96979   1.98345
 Alpha virt. eigenvalues --    1.99085   2.00189   2.02712   2.04114   2.05546
 Alpha virt. eigenvalues --    2.13627   2.16060   2.16175   2.16839   2.18998
 Alpha virt. eigenvalues --    2.19448   2.20146   2.23144   2.24019   2.24973
 Alpha virt. eigenvalues --    2.25555   2.26687   2.27080   2.28165   2.28621
 Alpha virt. eigenvalues --    2.29195   2.31478   2.34510   2.35448   2.35889
 Alpha virt. eigenvalues --    2.39756   2.39938   2.40831   2.42900   2.45049
 Alpha virt. eigenvalues --    2.48096   2.48939   2.50620   2.51377   2.53212
 Alpha virt. eigenvalues --    2.55997   2.56525   2.59140   2.60195   2.61359
 Alpha virt. eigenvalues --    2.62828   2.64407   2.68542   2.69567   2.70440
 Alpha virt. eigenvalues --    2.71335   2.73296   2.73351   2.74408   2.74651
 Alpha virt. eigenvalues --    2.75336   2.76691   2.77470   2.78172   2.78426
 Alpha virt. eigenvalues --    2.79830   2.80556   2.81118   2.82178   2.82780
 Alpha virt. eigenvalues --    2.83889   2.84813   2.85448   2.86098   2.86575
 Alpha virt. eigenvalues --    2.87056   2.87437   2.87971   2.89354   2.89667
 Alpha virt. eigenvalues --    2.89920   2.91126   2.91651   2.92111   2.92584
 Alpha virt. eigenvalues --    2.93521   2.94192   2.94329   2.95353   2.96503
 Alpha virt. eigenvalues --    2.96828   2.98174   2.99949   3.00142   3.01137
 Alpha virt. eigenvalues --    3.01191   3.02882   3.03485   3.04492   3.07614
 Alpha virt. eigenvalues --    3.10380   3.10791   3.11833   3.12938   3.14570
 Alpha virt. eigenvalues --    3.15978   3.17849   3.19178   3.19636   3.21882
 Alpha virt. eigenvalues --    3.23114   3.24379   3.26514   3.29119   3.30299
 Alpha virt. eigenvalues --    3.31183   3.33116   3.34891   3.35058   3.37099
 Alpha virt. eigenvalues --    3.37180   3.37728   3.39149   3.39872   3.40166
 Alpha virt. eigenvalues --    3.42142   3.43613   3.43967   3.45063   3.46745
 Alpha virt. eigenvalues --    3.47911   3.50631   3.51841   3.52929   3.53931
 Alpha virt. eigenvalues --    3.54514   3.55002   3.57103   3.58563   3.59363
 Alpha virt. eigenvalues --    3.59857   3.61895   3.62920   3.63428   3.63574
 Alpha virt. eigenvalues --    3.65537   3.67686   3.70175   3.70890   3.71685
 Alpha virt. eigenvalues --    3.71836   3.72609   3.73784   3.74748   3.75363
 Alpha virt. eigenvalues --    3.75626   3.76219   3.77855   3.79088   3.79692
 Alpha virt. eigenvalues --    3.81735   3.83901   3.86792   3.87333   3.88951
 Alpha virt. eigenvalues --    3.93203   3.94319   3.95090   3.95973   3.97851
 Alpha virt. eigenvalues --    4.00172   4.00737   4.01776   4.06306   4.08841
 Alpha virt. eigenvalues --    4.11936   4.16107   4.23393   4.26299   4.27216
 Alpha virt. eigenvalues --    4.28908   4.30468   4.32519   4.34701   4.35274
 Alpha virt. eigenvalues --    4.37186   4.38169   4.39062   4.40524   4.40971
 Alpha virt. eigenvalues --    4.42334   4.42668   4.43252   4.44001   4.45106
 Alpha virt. eigenvalues --    4.46817   4.48319   4.49157   4.49537   4.50717
 Alpha virt. eigenvalues --    4.51434   4.51740   4.52887   4.53439   4.54230
 Alpha virt. eigenvalues --    4.55427   4.55689   4.56267   4.57495   4.58124
 Alpha virt. eigenvalues --    4.58345   4.59476   4.60163   4.60707   4.61418
 Alpha virt. eigenvalues --    4.62532   4.63466   4.63893   4.64626   4.65510
 Alpha virt. eigenvalues --    4.65763   4.67240   4.67883   4.68360   4.68868
 Alpha virt. eigenvalues --    4.70369   4.71179   4.71752   4.72355   4.73141
 Alpha virt. eigenvalues --    4.74954   4.76075   4.76530   4.76760   4.78041
 Alpha virt. eigenvalues --    4.78557   4.79583   4.80191   4.81269   4.81553
 Alpha virt. eigenvalues --    4.82156   4.82892   4.83731   4.84226   4.84980
 Alpha virt. eigenvalues --    4.86734   4.87956   4.89351   4.89834   4.91354
 Alpha virt. eigenvalues --    4.92014   4.92293   4.93100   4.93766   4.94546
 Alpha virt. eigenvalues --    4.96273   4.96670   4.98074   4.99206   5.00759
 Alpha virt. eigenvalues --    5.02542   5.06384   5.06676   5.13987   5.16767
 Alpha virt. eigenvalues --    5.24998   5.26986   5.28718   5.30281   5.32763
 Alpha virt. eigenvalues --    5.34797   5.35850   5.38754   5.40788   5.42304
 Alpha virt. eigenvalues --    5.43325   5.44630   5.45295   5.45897   5.46643
 Alpha virt. eigenvalues --    5.47861   5.50831   5.52783   5.55799   5.60063
 Alpha virt. eigenvalues --    5.61206   5.61397   5.69493   5.77924   5.84795
 Alpha virt. eigenvalues --    5.87637   5.89329   5.96282   5.98414   6.01310
 Alpha virt. eigenvalues --    6.02382   6.04831   6.09678   6.14326   6.18371
 Alpha virt. eigenvalues --    6.24542   6.27898   6.37051   6.39383   7.01289
 Alpha virt. eigenvalues --    7.12665   7.14925  11.15341  11.22399  11.37639
 Alpha virt. eigenvalues --   11.53266  11.62143  11.77411  11.92674  12.01243
 Alpha virt. eigenvalues --   12.13627  12.21005  12.36542  12.49699  12.74317
 Alpha virt. eigenvalues --   13.17395  13.55309  13.60170
          Condensed to atoms (all electrons):
               1          2          3          4          5          6
     1  C    4.981314   0.398460  -0.031442   0.001794   0.000131   0.000260
     2  C    0.398460   4.786278   0.405361  -0.030004  -0.000470  -0.009908
     3  C   -0.031442   0.405361   4.874755   0.413637  -0.018717  -0.002009
     4  C    0.001794  -0.030004   0.413637   4.632256   0.377656  -0.021496
     5  C    0.000131  -0.000470  -0.018717   0.377656   4.926422   0.394541
     6  C    0.000260  -0.009908  -0.002009  -0.021496   0.394541   4.821993
     7  C   -0.000026   0.000453   0.000062   0.002047  -0.031436   0.391238
     8  O   -0.000020   0.001624  -0.023525   0.345655  -0.039715   0.002481
     9  C    0.000000  -0.000214   0.002722  -0.067949  -0.006434   0.000056
    10  C   -0.000000   0.000001  -0.000208   0.002408   0.000612  -0.000013
    11  O    0.000000   0.000000   0.000000  -0.000020   0.000003  -0.000000
    12  C   -0.000000   0.000000  -0.000000   0.000000   0.000000  -0.000000
    13  C    0.000000  -0.000000   0.000000   0.000000  -0.000000   0.000000
    14  C    0.000000   0.000000   0.000000  -0.000000  -0.000000   0.000000
    15  C    0.000000   0.000000   0.000000   0.000000  -0.000000   0.000000
    16  O    0.000000   0.000000   0.000000  -0.000000  -0.000000  -0.000000
    17  H    0.374185  -0.022538   0.003245  -0.000123   0.000002   0.000039
    18  H    0.377752  -0.027112  -0.004805   0.000185  -0.000011   0.000037
    19  H    0.373400  -0.027981  -0.002724   0.000004  -0.000003  -0.000011
    20  H   -0.041786   0.374461  -0.032608  -0.002950  -0.000368  -0.007494
    21  H   -0.039205   0.376664  -0.035585  -0.002307  -0.000952   0.000927
    22  H   -0.004084  -0.035472   0.351865  -0.018843   0.004483  -0.000101
    23  H   -0.003159  -0.030888   0.351961  -0.022419  -0.009915   0.000191
    24  H   -0.000059  -0.001266  -0.047296   0.345884  -0.067140  -0.000285
    25  H    0.000004  -0.000016   0.003931  -0.027931   0.365064  -0.037967
    26  H   -0.000017   0.000276  -0.008743  -0.021893   0.352686  -0.033525
    27  H    0.000253  -0.010082  -0.000330  -0.000919  -0.033931   0.375743
    28  H   -0.000003   0.000929  -0.000798  -0.003064  -0.031546   0.372851
    29  H    0.000000   0.000036  -0.000013   0.000147  -0.004559  -0.029436
    30  H    0.000000   0.000025   0.000002  -0.000124   0.003169  -0.022851
    31  H    0.000000  -0.000015  -0.000001   0.000025  -0.003753  -0.028379
    32  H    0.000000   0.000015   0.000011  -0.004271   0.001410  -0.000879
    33  H    0.000000   0.000022   0.000310  -0.004307  -0.002922   0.000179
    34  H    0.000000   0.000000   0.000006   0.000226   0.000019  -0.000000
    35  H    0.000000   0.000000   0.000021   0.000227  -0.000026   0.000001
    36  H    0.000000   0.000000   0.000000   0.000000   0.000000   0.000000
    37  H    0.000000   0.000000   0.000000   0.000000   0.000000   0.000000
    38  H    0.000000  -0.000000   0.000000  -0.000000  -0.000000   0.000000
    39  H   -0.000000   0.000000  -0.000000  -0.000000   0.000000   0.000000
    40  H    0.000000   0.000000   0.000000   0.000000  -0.000000  -0.000000
    41  H    0.000000   0.000000   0.000000   0.000000   0.000000   0.000000
    42  H    0.000000  -0.000000  -0.000000  -0.000000  -0.000000  -0.000000
    43  H    0.000000  -0.000000   0.000000  -0.000000   0.000000   0.000000
    44  H    0.000000   0.000000  -0.000000   0.000000   0.000000  -0.000000
               7          8          9         10         11         12
     1  C   -0.000026  -0.000020   0.000000  -0.000000   0.000000  -0.000000
     2  C    0.000453   0.001624  -0.000214   0.000001   0.000000   0.000000
     3  C    0.000062  -0.023525   0.002722  -0.000208   0.000000  -0.000000
     4  C    0.002047   0.345655  -0.067949   0.002408  -0.000020   0.000000
     5  C   -0.031436  -0.039715  -0.006434   0.000612   0.000003   0.000000
     6  C    0.391238   0.002481   0.000056  -0.000013  -0.000000  -0.000000
     7  C    4.980522  -0.000051   0.000002   0.000000   0.000000   0.000000
     8  O   -0.000051   7.770869   0.330525  -0.026631   0.000501  -0.000022
     9  C    0.000002   0.330525   4.790010   0.431776  -0.026957   0.002309
    10  C    0.000000  -0.026631   0.431776   4.793621   0.327858  -0.068255
    11  O    0.000000   0.000501  -0.026957   0.327858   7.766596   0.353101
    12  C    0.000000  -0.000022   0.002309  -0.068255   0.353101   4.642149
    13  C   -0.000000   0.000004   0.000695  -0.006587  -0.044062   0.355660
    14  C    0.000000   0.000000  -0.000211   0.002385  -0.018270   0.334693
    15  C   -0.000000   0.000000   0.000001  -0.000203   0.001183  -0.029949
    16  O    0.000000   0.000000  -0.000000   0.000000  -0.000009   0.003235
    17  H    0.000000   0.000000  -0.000000   0.000000  -0.000000   0.000000
    18  H    0.000000   0.000000   0.000000   0.000000  -0.000000   0.000000
    19  H    0.000000  -0.000000   0.000000   0.000000  -0.000000   0.000000
    20  H    0.000209  -0.000023   0.000004  -0.000000  -0.000000  -0.000000
    21  H    0.000011   0.000017   0.000008   0.000000   0.000000   0.000000
    22  H    0.000005   0.001950   0.000092   0.000006   0.000000   0.000000
    23  H   -0.000015   0.001667   0.000072   0.000019   0.000000   0.000000
    24  H   -0.000125  -0.030733  -0.005966   0.000248   0.000005   0.000000
    25  H   -0.005732  -0.004317  -0.001248  -0.000013  -0.000009  -0.000000
    26  H   -0.002939   0.001581   0.000926  -0.000133   0.000001   0.000000
    27  H   -0.040544  -0.000011  -0.000002   0.000000   0.000000   0.000000
    28  H   -0.037119   0.000018   0.000023  -0.000000   0.000000  -0.000000
    29  H    0.379347  -0.000000   0.000001   0.000000  -0.000000  -0.000000
    30  H    0.372423   0.000000   0.000000  -0.000000  -0.000000  -0.000000
    31  H    0.373300  -0.000001  -0.000013  -0.000000   0.000000  -0.000000
    32  H    0.000073  -0.028471   0.343118  -0.032374   0.006850   0.000252
    33  H   -0.000004  -0.028888   0.344602  -0.029486   0.004703   0.000249
    34  H    0.000000   0.006408  -0.032938   0.345104  -0.028382  -0.005724
    35  H   -0.000000   0.004706  -0.027068   0.344485  -0.029269  -0.004965
    36  H    0.000000   0.000005   0.000281  -0.006298  -0.034396   0.355311
    37  H    0.000000   0.000001  -0.000112   0.000347   0.001255  -0.019494
    38  H   -0.000000  -0.000005   0.000024  -0.000390  -0.002966  -0.023100
    39  H   -0.000000  -0.000000  -0.000011   0.000163   0.002372  -0.014264
    40  H   -0.000000   0.000000   0.000009   0.000158   0.002006  -0.015127
    41  H    0.000000   0.000000   0.000015   0.000050   0.001135  -0.017105
    42  H    0.000000   0.000000   0.000000   0.000015  -0.000048   0.001386
    43  H    0.000000   0.000000  -0.000000   0.000001  -0.000043  -0.001834
    44  H    0.000000  -0.000000   0.000000  -0.000000  -0.000001  -0.000020
              13         14         15         16         17         18
     1  C    0.000000   0.000000   0.000000   0.000000   0.374185   0.377752
     2  C   -0.000000   0.000000   0.000000   0.000000  -0.022538  -0.027112
     3  C    0.000000   0.000000   0.000000   0.000000   0.003245  -0.004805
     4  C    0.000000  -0.000000   0.000000  -0.000000  -0.000123   0.000185
     5  C   -0.000000  -0.000000  -0.000000  -0.000000   0.000002  -0.000011
     6  C    0.000000   0.000000   0.000000  -0.000000   0.000039   0.000037
     7  C   -0.000000   0.000000  -0.000000   0.000000   0.000000   0.000000
     8  O    0.000004   0.000000   0.000000   0.000000   0.000000   0.000000
     9  C    0.000695  -0.000211   0.000001  -0.000000  -0.000000   0.000000
    10  C   -0.006587   0.002385  -0.000203   0.000000   0.000000   0.000000
    11  O   -0.044062  -0.018270   0.001183  -0.000009  -0.000000  -0.000000
    12  C    0.355660   0.334693  -0.029949   0.003235   0.000000   0.000000
    13  C    5.115474  -0.032516  -0.002389   0.000050  -0.000000  -0.000000
    14  C   -0.032516   5.037240   0.377944  -0.044650  -0.000000   0.000000
    15  C   -0.002389   0.377944   4.757745   0.360458   0.000000  -0.000000
    16  O    0.000050  -0.044650   0.360458   7.840584   0.000000   0.000000
    17  H   -0.000000  -0.000000   0.000000   0.000000   0.607708  -0.032703
    18  H   -0.000000   0.000000  -0.000000   0.000000  -0.032703   0.602712
    19  H   -0.000000   0.000000  -0.000000   0.000000  -0.031848  -0.032209
    20  H   -0.000000  -0.000000  -0.000000   0.000000  -0.005145  -0.006608
    21  H    0.000000  -0.000000  -0.000000   0.000000  -0.002522   0.005842
    22  H   -0.000000   0.000000   0.000000   0.000000  -0.000091  -0.000347
    23  H    0.000000   0.000000   0.000000   0.000000  -0.000057   0.004832
    24  H    0.000000   0.000000   0.000000   0.000000   0.000005   0.000008
    25  H   -0.000000   0.000000  -0.000000   0.000000  -0.000000  -0.000000
    26  H    0.000000   0.000000   0.000000   0.000000   0.000001  -0.000003
    27  H    0.000000  -0.000000  -0.000000   0.000000   0.000003   0.000017
    28  H   -0.000000   0.000000   0.000000   0.000000  -0.000001  -0.000000
    29  H   -0.000000   0.000000  -0.000000   0.000000   0.000000  -0.000000
    30  H    0.000000  -0.000000   0.000000   0.000000  -0.000000   0.000000
    31  H    0.000000  -0.000000   0.000000  -0.000000   0.000000   0.000000
    32  H    0.000039   0.000011   0.000000   0.000000   0.000000   0.000000
    33  H   -0.000056   0.000017   0.000000   0.000000   0.000000  -0.000000
    34  H    0.004916   0.000086   0.000022  -0.000000   0.000000   0.000000
    35  H   -0.003100   0.000259   0.000020  -0.000000  -0.000000  -0.000000
    36  H   -0.071392  -0.044675  -0.002063   0.000016  -0.000000   0.000000
    37  H    0.364071  -0.006244   0.000007  -0.000012  -0.000000  -0.000000
    38  H    0.372786   0.003694   0.000261  -0.000001  -0.000000   0.000000
    39  H    0.357542  -0.004379  -0.002238   0.000023   0.000000  -0.000000
    40  H    0.005959   0.348422  -0.025878   0.002814  -0.000000  -0.000000
    41  H   -0.010458   0.349232  -0.034596  -0.000345  -0.000000   0.000000
    42  H   -0.000461  -0.047753   0.369631  -0.029986   0.000000   0.000000
    43  H   -0.000976  -0.030748   0.356275  -0.013137   0.000000   0.000000
    44  H   -0.000020  -0.001772  -0.068753   0.307055   0.000000   0.000000
              19         20         21         22         23         24
     1  C    0.373400  -0.041786  -0.039205  -0.004084  -0.003159  -0.000059
     2  C   -0.027981   0.374461   0.376664  -0.035472  -0.030888  -0.001266
     3  C   -0.002724  -0.032608  -0.035585   0.351865   0.351961  -0.047296
     4  C    0.000004  -0.002950  -0.002307  -0.018843  -0.022419   0.345884
     5  C   -0.000003  -0.000368  -0.000952   0.004483  -0.009915  -0.067140
     6  C   -0.000011  -0.007494   0.000927  -0.000101   0.000191  -0.000285
     7  C    0.000000   0.000209   0.000011   0.000005  -0.000015  -0.000125
     8  O   -0.000000  -0.000023   0.000017   0.001950   0.001667  -0.030733
     9  C    0.000000   0.000004   0.000008   0.000092   0.000072  -0.005966
    10  C    0.000000  -0.000000   0.000000   0.000006   0.000019   0.000248
    11  O   -0.000000  -0.000000   0.000000   0.000000   0.000000   0.000005
    12  C    0.000000  -0.000000   0.000000   0.000000   0.000000   0.000000
    13  C   -0.000000  -0.000000   0.000000  -0.000000   0.000000   0.000000
    14  C    0.000000  -0.000000  -0.000000   0.000000   0.000000   0.000000
    15  C   -0.000000  -0.000000  -0.000000   0.000000   0.000000   0.000000
    16  O    0.000000   0.000000   0.000000   0.000000   0.000000   0.000000
    17  H   -0.031848  -0.005145  -0.002522  -0.000091  -0.000057   0.000005
    18  H   -0.032209  -0.006608   0.005842  -0.000347   0.004832   0.000008
    19  H    0.607805   0.006576  -0.003596   0.004221  -0.000381   0.000003
    20  H    0.006576   0.634280  -0.043091   0.006486  -0.006920  -0.000069
    21  H   -0.003596  -0.043091   0.646750  -0.004121   0.006260   0.005498
    22  H    0.004221   0.006486  -0.004121   0.640362  -0.040669  -0.004652
    23  H   -0.000381  -0.006920   0.006260  -0.040669   0.639329   0.006779
    24  H    0.000003  -0.000069   0.005498  -0.004652   0.006779   0.715145
    25  H   -0.000000  -0.000098  -0.000016  -0.000212  -0.000067  -0.004538
    26  H    0.000000   0.000336   0.000074  -0.000039   0.005059   0.006884
    27  H   -0.000000   0.009418   0.000489  -0.000081   0.000271  -0.000027
    28  H    0.000001   0.000282   0.000427  -0.000009   0.000064   0.005387
    29  H    0.000000   0.000009  -0.000000   0.000000  -0.000004   0.000007
    30  H    0.000000  -0.000014  -0.000001  -0.000000   0.000000   0.000006
    31  H   -0.000000   0.000007   0.000001  -0.000000   0.000000   0.000003
    32  H   -0.000000  -0.000001   0.000000   0.000037  -0.000015  -0.001678
    33  H    0.000000   0.000000  -0.000000  -0.000075   0.000035   0.014311
    34  H    0.000000  -0.000000   0.000000   0.000026  -0.000001  -0.000052
    35  H    0.000000  -0.000000  -0.000000  -0.000002   0.000003   0.000039
    36  H   -0.000000  -0.000000  -0.000000   0.000000  -0.000000  -0.000000
    37  H   -0.000000  -0.000000  -0.000000   0.000000  -0.000000  -0.000000
    38  H    0.000000   0.000000   0.000000  -0.000000   0.000000   0.000000
    39  H   -0.000000   0.000000   0.000000  -0.000000   0.000000  -0.000000
    40  H    0.000000  -0.000000  -0.000000   0.000000   0.000000   0.000000
    41  H    0.000000  -0.000000   0.000000   0.000000  -0.000000  -0.000000
    42  H   -0.000000   0.000000  -0.000000   0.000000  -0.000000  -0.000000
    43  H    0.000000   0.000000   0.000000   0.000000   0.000000  -0.000000
    44  H    0.000000  -0.000000   0.000000   0.000000   0.000000   0.000000
              25         26         27         28         29         30
     1  C    0.000004  -0.000017   0.000253  -0.000003   0.000000   0.000000
     2  C   -0.000016   0.000276  -0.010082   0.000929   0.000036   0.000025
     3  C    0.003931  -0.008743  -0.000330  -0.000798  -0.000013   0.000002
     4  C   -0.027931  -0.021893  -0.000919  -0.003064   0.000147  -0.000124
     5  C    0.365064   0.352686  -0.033931  -0.031546  -0.004559   0.003169
     6  C   -0.037967  -0.033525   0.375743   0.372851  -0.029436  -0.022851
     7  C   -0.005732  -0.002939  -0.040544  -0.037119   0.379347   0.372423
     8  O   -0.004317   0.001581  -0.000011   0.000018  -0.000000   0.000000
     9  C   -0.001248   0.000926  -0.000002   0.000023   0.000001   0.000000
    10  C   -0.000013  -0.000133   0.000000  -0.000000   0.000000  -0.000000
    11  O   -0.000009   0.000001   0.000000   0.000000  -0.000000  -0.000000
    12  C   -0.000000   0.000000   0.000000  -0.000000  -0.000000  -0.000000
    13  C   -0.000000   0.000000   0.000000  -0.000000  -0.000000   0.000000
    14  C    0.000000   0.000000  -0.000000   0.000000   0.000000  -0.000000
    15  C   -0.000000   0.000000  -0.000000   0.000000  -0.000000   0.000000
    16  O    0.000000   0.000000   0.000000   0.000000   0.000000   0.000000
    17  H   -0.000000   0.000001   0.000003  -0.000001   0.000000  -0.000000
    18  H   -0.000000  -0.000003   0.000017  -0.000000  -0.000000   0.000000
    19  H   -0.000000   0.000000  -0.000000   0.000001   0.000000   0.000000
    20  H   -0.000098   0.000336   0.009418   0.000282   0.000009  -0.000014
    21  H   -0.000016   0.000074   0.000489   0.000427  -0.000000  -0.000001
    22  H   -0.000212  -0.000039  -0.000081  -0.000009   0.000000  -0.000000
    23  H   -0.000067   0.005059   0.000271   0.000064  -0.000004   0.000000
    24  H   -0.004538   0.006884  -0.000027   0.005387   0.000007   0.000006
    25  H    0.642277  -0.043906   0.006910  -0.004979  -0.000468  -0.000053
    26  H   -0.043906   0.642108  -0.006726   0.006273   0.005040  -0.000049
    27  H    0.006910  -0.006726   0.632350  -0.042078  -0.006038  -0.004325
    28  H   -0.004979   0.006273  -0.042078   0.643171   0.005771  -0.002130
    29  H   -0.000468   0.005040  -0.006038   0.005771   0.602107  -0.031991
    30  H   -0.000053  -0.000049  -0.004325  -0.002130  -0.031991   0.608713
    31  H    0.006206  -0.000410   0.006369  -0.003944  -0.032528  -0.030916
    32  H    0.003283   0.000800  -0.000007   0.000028   0.000006  -0.000001
    33  H    0.000884   0.000262   0.000003   0.000031  -0.000000   0.000000
    34  H   -0.000010   0.000000  -0.000000   0.000000   0.000000  -0.000000
    35  H    0.000055   0.000036   0.000000   0.000000  -0.000000   0.000000
    36  H    0.000000  -0.000000  -0.000000  -0.000000   0.000000  -0.000000
    37  H    0.000000   0.000000  -0.000000   0.000000   0.000000  -0.000000
    38  H    0.000000   0.000000   0.000000   0.000000   0.000000   0.000000
    39  H    0.000000   0.000000  -0.000000   0.000000   0.000000   0.000000
    40  H   -0.000000   0.000000  -0.000000  -0.000000  -0.000000  -0.000000
    41  H    0.000000  -0.000000  -0.000000   0.000000   0.000000  -0.000000
    42  H    0.000000  -0.000000  -0.000000  -0.000000   0.000000  -0.000000
    43  H    0.000000   0.000000  -0.000000   0.000000   0.000000   0.000000
    44  H   -0.000000  -0.000000   0.000000  -0.000000  -0.000000  -0.000000
              31         32         33         34         35         36
[...]
 1553,-0.00003793,-0.00003297,-0.00005657,-0.00002766,-0.00005422,0.000
 24152,0.00017271,-0.00000525,-0.00011534,0.00034313,0.00010263,0.00007
 566,0.00038682,0.00027719,0.00016388,-0.00013641,0.00006696,0.01990611
 ,-0.08731435,0.08305629,0.00000018,-0.00000206,0.00000191,-0.00000133,
 0.00000162,-0.00000500,-0.00000186,-0.00000632,0.00000288,0.00000663,0
 .00000607,-0.00003947,0.00000383,-0.00000178,0.00000093,-0.00000490,-0
 .00000200,-0.00000530,0.00000147,0.00000030,0.00000183,0.00000291,0.00
 000656,0.00004334,0.00001216,0.00008108,0.00003492,0.00000797,-0.00024
 943,-0.00001322,0.00243181,0.00135468,0.00010474,-0.01264774,-0.023449
 88,-0.02636907,0.00186796,-0.00161356,0.00010154,-0.06468157,-0.042497
 02,-0.04660485,0.00328442,0.01246922,0.01383866,0.00265874,-0.00004602
 ,-0.00043132,-0.00000196,-0.00000017,0.00000114,0.00000075,0.00000069,
 0.00000014,-0.00000036,0.00000080,-0.00000076,-0.00000011,0.,0.0000003
 3,0.00000027,0.00000001,0.00000275,-0.00000021,0.00000063,-0.00000164,
 0.00000209,0.00000241,0.00000133,0.00000120,0.00000119,0.00000733,-0.0
 0000442,0.00000392,-0.00000024,0.00000056,-0.00000009,0.00000100,-0.00
 000049,-0.00000041,0.00000285,0.00000202,0.00000093,0.00000115,0.00000
 067,0.00000081,-0.00000047,0.00000028,-0.00000198,0.00000227,-0.000001
 35,0.00000032,-0.00000098,-0.00000055,-0.00000710,0.00000277,-0.000028
 98,-0.00001173,0.00008384,0.00005874,0.00004048,-0.00001029,0.00014115
 ,0.00025132,0.00025808,-0.00635249,0.00059648,-0.00027051,0.00000685,0
 .00108115,0.00033441,0.00025066,0.00005000,0.00048480,-0.00005236,0.00
 010159,0.00001205,0.00169201,0.00411668,0.00466994,0.07300346,-0.00000
 025,-0.00000108,0.00000145,-0.00000148,0.00000020,-0.00000554,-0.00000
 191,-0.00000179,0.00000374,-0.00000194,-0.00000292,-0.00004096,0.00000
 841,-0.00000108,-0.00000173,-0.00001138,-0.00000551,-0.00000736,0.0000
 0511,-0.00000060,0.00000007,-0.00000797,-0.00000543,0.00008525,-0.0000
 4999,-0.00004673,-0.00010350,0.00010084,0.00001317,0.00025938,-0.00028
 056,0.00025808,0.00050373,0.00076115,0.00007603,0.00054507,0.00021381,
 0.00094372,0.00108090,-0.04420563,-0.15681971,-0.11441752,0.00078483,0
 .00409816,0.00560338,0.00174775,0.00011199,0.00052900,-0.00000173,-0.0
 0000044,0.00000104,0.00000120,0.00000082,0.00000064,-0.00000013,0.0000
 0029,-0.00000096,-0.00000012,-0.00000030,0.00000030,0.00000046,0.00000
 071,0.00000337,-0.00000052,0.00000006,-0.00000165,0.00000302,0.0000019
 9,0.00000202,0.00000206,0.00000517,0.00001095,-0.00000555,0.00000177,-
 0.00000090,0.00000229,0.00000101,0.00000239,0.,0.00000069,0.00000373,0
 .00000459,0.00000310,0.00000316,0.00000197,0.00000231,0.00000010,-0.00
 000094,-0.00000256,0.00000397,-0.00000333,0.00000024,-0.00000187,-0.00
 000475,-0.00000700,-0.00000986,-0.00002520,0.00003309,0.00003767,0.000
 01230,0.00001583,0.00000970,0.00012918,0.00003722,0.00001993,0.0003596
 7,0.00114956,0.00046496,-0.00008491,0.00045824,-0.00021668,-0.00010512
 ,0.00006510,0.00003119,0.00007967,0.00001395,0.00009251,-0.00858152,-0
 .01910658,-0.02133477,0.04875773,0.16634570,0.00000024,-0.00000227,0.0
 0000180,-0.00000183,0.00000161,-0.00000443,-0.00000097,-0.00000632,0.0
 0000430,0.00000713,0.00000827,-0.00003448,0.00000118,-0.00000128,0.000
 00231,-0.00000203,-0.00000146,-0.00000376,0.00000057,0.00000030,0.0000
 0121,-0.00003951,-0.00002652,0.00005653,-0.00003067,0.00002638,-0.0000
 4404,0.00009532,0.00015818,0.00023490,0.00009309,0.00013730,0.00110851
 ,-0.00182262,-0.00398081,-0.00547107,0.00049250,-0.00034885,0.00000204
 ,-0.04784870,-0.11396633,-0.16874231,-0.00896403,-0.01989291,-0.023312
 27,-0.00061736,0.00133525,0.00271045,-0.00000189,-0.00000012,0.0000009
 1,0.00000045,0.00000049,0.00000011,-0.00000030,0.00000103,-0.00000057,
 -0.00000012,0.00000026,0.00000015,0.00000036,0.,0.00000187,-0.00000002
 ,0.00000094,-0.00000100,0.00000111,0.00000139,0.00000082,0.00000171,0.
 00000106,0.00000579,-0.00000300,0.00000273,0.00000055,0.00000023,-0.00
 000075,0.00000053,-0.00000084,-0.00000037,0.00000197,0.00000110,0.0000
 0070,0.00000015,0.00000060,0.00000024,-0.00000044,0.00000039,-0.000001
 62,0.00000191,-0.00000102,0.00000015,-0.00000067,0.00000135,-0.0000004
 2,-0.00000026,-0.00000561,-0.00000523,0.00001501,-0.00005819,0.0000073
 4,0.00000425,0.00013086,0.00005787,-0.00010237,-0.00096155,0.00024709,
 0.00046295,-0.00035115,0.00065759,0.00015729,0.00012734,0.00022907,0.0
 0026868,-0.00001387,-0.00003518,0.00002565,0.00315463,0.00691241,0.007
 29715,0.05221338,0.12682913,0.18782975,0.00000068,-0.00000114,0.000001
 52,-0.00000090,0.00000134,-0.00000296,0.00000029,-0.00000223,0.0000025
 8,0.00001324,0.00000972,-0.00002163,0.00000407,-0.00000202,-0.00000068
 ,-0.00000034,0.00000086,-0.00000197,0.00000103,0.00000044,0.00000003,-
 0.00004002,-0.00000820,0.00001747,0.00005000,0.00000637,-0.00000486,0.
 00001093,0.00003444,-0.00009847,0.00001295,0.00039979,-0.00003676,0.00
 088166,-0.00036044,-0.00051832,-0.00094372,0.00005656,0.00061374,0.004
 30521,-0.01643782,0.00547145,-0.04897553,0.01446253,-0.00804713,-0.024
 07761,0.03790463,-0.01446420,-0.00000163,-0.00000005,0.00000087,-0.000
 00005,0.00000009,-0.00000039,-0.00000011,0.00000050,-0.00000029,0.0000
 0006,-0.00000011,0.00000017,0.,0.,0.00000038,0.00000010,0.00000041,-0.
 00000017,-0.00000019,0.00000002,-0.00000020,0.00000003,-0.00000029,0.0
 0000249,-0.00000223,0.00000318,0.00000171,-0.00000185,-0.00000137,0.00
 000054,-0.00000111,-0.00000073,0.00000195,0.00000004,-0.00000045,-0.00
 000128,-0.00000066,-0.00000055,-0.00000036,0.00000018,-0.00000124,0.00
 000203,-0.00000062,0.00000110,-0.00000043,-0.00000183,0.00001406,-0.00
 000791,-0.00000308,-0.00000033,0.00000272,-0.00005991,-0.00002364,0.00
 001800,0.00000156,-0.00000280,0.00000079,-0.00005399,0.00003630,0.0000
 5479,0.00000877,0.00006385,-0.00001350,0.00003492,0.00007369,-0.000121
 36,-0.00138918,0.00040973,0.00000072,-0.00203670,-0.00022560,0.0034981
 4,0.00052090,0.00081139,-0.00039220,0.06687810,0.00000211,-0.00000268,
 0.00000272,-0.00000194,0.00000130,-0.00000389,0.00000223,-0.00000583,0
 .00000529,0.00001541,-0.00000207,-0.00002213,0.00000711,-0.00000032,-0
 .00000060,0.00000264,0.00000115,0.00000089,0.00000536,-0.00000090,-0.0
 0000448,-0.00006850,-0.00000725,0.00003104,0.00000562,0.00000063,-0.00
 001543,0.00020188,-0.00004279,0.00005271,-0.00076805,0.00029544,-0.000
 03521,0.00079195,-0.00108070,0.00094342,0.00068197,-0.00024982,0.00086
 408,-0.00011436,-0.00534342,0.00056151,0.01704931,-0.26320442,0.070060
 55,0.01151921,-0.00052640,0.00326184,-0.00000236,0.00000019,0.00000076
 ,-0.00000086,-0.00000069,-0.00000101,-0.00000095,0.00000263,0.00000004
 ,0.00000108,0.00000305,-0.00000043,-0.00000025,-0.00000120,-0.00000064
 ,-0.00000202,0.00000468,0.00000030,-0.00000080,-0.00000130,-0.00000064
 ,-0.00000017,0.00000011,0.00000246,-0.00000467,0.00000340,0.00000385,-
 0.00000266,-0.00000196,-0.00000077,-0.00000366,-0.00000003,0.00000404,
 -0.00000046,-0.00000230,-0.00000331,-0.00000255,-0.00000097,-0.0000006
 1,0.00000035,0.00000044,0.00000113,-0.00000302,0.00000275,0.00000295,-
 0.00000055,0.00002801,-0.00002126,-0.00000127,0.00000048,0.00000295,-0
 .00011244,0.00006974,-0.00000158,-0.00001230,0.00000151,-0.00000080,0.
 00000235,0.00008907,0.00006534,-0.00004190,-0.00000295,-0.00001641,0.0
 0019926,0.00029975,-0.00049446,0.00028138,0.00044519,-0.00101339,-0.00
 040243,0.00154157,0.00078751,-0.00006385,0.00113056,0.00032499,-0.0303
 1327,0.28474729,-0.00000169,0.00000280,-0.00000376,0.00000282,-0.00000
 266,0.00000609,-0.00000139,0.00000661,-0.00000839,-0.00002322,-0.00001
 626,0.00004429,-0.00000589,0.00000240,-0.00000187,-0.00000232,-0.00000
 074,0.00000231,-0.00000282,-0.00000059,0.00000092,0.00009314,0.0000310
 4,-0.00005553,-0.00004431,-0.00000825,0.00003569,-0.00012724,-0.000138
 78,-0.00002409,0.00078100,-0.00029034,0.00003130,-0.00128116,0.0007912
 1,-0.00050981,0.00007168,0.00020723,-0.00026056,-0.00050907,0.02804889
 ,-0.00930069,-0.00640984,0.06834687,-0.07836130,-0.00648459,0.00508420
 ,0.00171382,0.00000328,0.,-0.00000144,0.00000060,0.00000013,0.00000108
 ,0.00000054,-0.00000176,0.00000049,-0.00000044,-0.00000091,-0.00000038
 ,0.00000004,0.00000066,-0.00000016,0.00000014,-0.00000197,0.00000061,0
 .00000095,0.00000034,0.00000085,0.00000012,0.00000144,-0.00000440,0.00
 000312,-0.00000636,-0.00000458,0.00000481,0.00000326,-0.00000049,0.000
 00308,0.00000101,-0.00000344,0.00000079,0.00000225,0.00000379,0.000002
 62,0.00000146,0.00000056,-0.00000083,0.00000147,-0.00000191,0.00000111
 ,-0.00000258,-0.00000152,0.00000138,-0.00002669,0.00001375,0.00000213,
 0.00000027,-0.00000117,0.00014270,-0.00000875,-0.00000223,0.00001943,0
 .00002079,0.00001241,0.00017089,-0.00001876,0.00007309,0.00007383,-0.0
 0009476,-0.00016343,-0.00011616,-0.00027148,0.00020450,0.00010526,-0.0
 0016918,0.00071135,0.00317770,0.00104272,-0.00415536,-0.00112812,-0.00
 044630,0.00140602,0.00932410,-0.08143020,0.08052499,0.00000020,-0.0000
 0006,0.00000020,0.00000001,0.00000006,-0.00000042,0.00000028,0.,0.0000
 0008,0.00000290,0.00000178,-0.00000106,0.00000057,-0.00000021,-0.00000
 045,0.00000048,0.00000012,0.00000003,0.00000036,0.00000011,-0.00000064
 ,-0.00000943,-0.00000090,-0.00000381,0.00001746,0.,0.00000575,0.000023
 26,-0.00001180,-0.00006849,-0.00004644,-0.00014412,-0.00022129,0.00141
 929,0.00072827,0.00084529,-0.00005260,-0.00007840,0.00003013,0.0052108
 2,0.01138830,0.01286300,-0.06267522,-0.03850130,-0.04381484,-0.0247114
 8,-0.02218008,-0.03035112,-0.00000028,-0.00000005,0.00000015,-0.000000
 11,-0.00000007,-0.00000011,0.,0.00000012,-0.00000005,0.,0.00000008,0.,
 0.00000002,-0.00000002,-0.00000015,-0.00000001,0.00000017,0.00000010,-
 0.00000031,-0.00000024,-0.00000004,-0.00000008,-0.00000008,-0.00000022
 ,-0.00000029,0.00000026,0.00000061,-0.00000032,-0.00000039,0.00000005,
 -0.00000036,0.00000001,0.00000025,-0.00000019,0.,-0.00000048,0.0000000
 7,-0.00000011,0.,-0.00000009,-0.00000016,0.00000040,-0.00000041,0.0000
 0011,0.00000008,-0.00000064,0.00000310,-0.00000194,0.00000417,-0.00000
 003,-0.00000764,-0.00000648,0.00000216,-0.00000016,-0.00004053,-0.0000
 2791,-0.00000498,-0.00020436,-0.00033925,-0.00031668,0.00006979,-0.000
 11865,-0.00003953,-0.00003062,0.00003459,-0.00006574,0.00007937,0.0000
 1456,-0.00012003,0.00041839,-0.00027835,-0.00073205,-0.00173869,-0.000
 94299,0.00334543,0.00305236,0.00067716,0.00218843,0.08626242,-0.000000
 68,0.00000028,-0.00000096,0.00000070,-0.00000021,0.00000060,-0.0000010
 3,-0.00000061,-0.00000291,-0.00000458,-0.00000267,0.00000414,-0.000001
 20,-0.00000007,-0.00000010,-0.00000118,-0.00000036,-0.00000053,-0.0000
 0090,0.00000004,0.00000059,0.00002229,0.00000905,-0.00000460,-0.000004
 14,0.00000459,0.00000585,0.00003839,-0.00007716,-0.00011269,0.00023279
 ,0.00003798,0.00029095,-0.00025833,0.00015948,-0.00042129,0.00029560,0
 .00006626,-0.00000166,0.00149091,0.00397172,0.00461160,-0.04680841,-0.
 15797387,-0.11776798,0.00147562,0.00755333,0.00562328,0.00000060,-0.00
 000007,-0.00000011,0.00000047,0.00000037,0.00000050,0.00000003,-0.0000
 0040,-0.00000016,-0.00000023,-0.00000024,-0.00000006,0.00000028,0.0000
 0008,0.00000102,-0.00000031,-0.00000024,-0.00000038,0.00000110,0.00000
 137,0.00000115,0.00000099,0.00000088,0.00000126,-0.00000020,-0.0000011
 4,-0.00000131,0.00000191,0.00000124,-0.00000004,0.00000072,0.00000007,
 -0.00000054,0.00000054,0.00000091,0.00000130,0.00000131,0.00000075,0.0
 0000010,-0.00000028,-0.00000017,0.00000012,-0.00000006,-0.00000075,-0.
 00000083,0.00000090,-0.00000453,0.00000159,-0.00000043,-0.00000097,0.0
 0000479,0.00001335,0.00000890,-0.00000168,-0.00001014,0.00001835,-0.00
 000063,0.00040801,0.00024675,0.00001540,-0.00010977,0.00004870,0.00015
 577,0.00007782,0.00003673,-0.00002666,-0.00014440,-0.00016856,-0.00011
 860,0.00053555,0.00090992,-0.00019305,-0.00054216,0.00133875,0.0014156
 4,-0.00780143,-0.01930992,-0.02171317,0.04866343,0.16162767,-0.0000004
 4,-0.00000002,-0.00000115,0.00000073,-0.00000144,-0.00000011,-0.000000
 90,0.00000035,-0.00000414,-0.00000702,-0.00001640,0.00000264,0.0000036
 2,0.00000033,-0.00000293,-0.00000513,-0.00000165,-0.00000085,0.0000031
 0,-0.00000114,-0.00000226,0.00003705,0.00002735,-0.00000245,-0.0000179
 6,-0.00001706,-0.00000019,0.00006463,0.00000267,-0.00001336,0.00013995
 ,0.00038008,0.00070176,-0.00186142,-0.00075376,-0.00054051,0.00030934,
 0.00006663,0.00006749,-0.00537719,-0.01912209,-0.02147497,-0.05124585,
 -0.11404159,-0.18088147,-0.00678247,-0.00282127,-0.00291428,0.00000041
 ,-0.00000023,-0.00000003,0.00000079,0.00000038,0.00000085,-0.00000034,
 0.00000041,-0.00000024,0.00000026,0.00000108,-0.00000046,0.00000038,0.
 00000012,0.00000188,-0.00000164,0.00000131,-0.00000049,0.00000228,0.00
 000136,0.00000197,0.00000163,0.00000353,0.00000343,-0.00000371,-0.0000
 0215,-0.00000154,0.00000389,0.00000251,0.00000014,-0.00000013,0.000000
 81,0.00000157,0.00000267,0.00000181,0.00000228,0.00000183,0.00000174,0
 .00000018,-0.00000097,0.00000010,0.00000131,-0.00000274,-0.00000020,-0
 .00000036,-0.00000235,-0.00000242,-0.00000510,-0.00000879,0.00000897,0
 .00001822,0.00001226,0.00000478,0.00001108,0.00006760,0.00004577,-0.00
 000124,0.00109267,0.00048213,0.00060572,-0.00010076,0.00018308,0.00002
 722,0.00004238,-0.00006963,0.00003400,0.00007795,-0.00007840,0.0000121
 6,-0.00070866,0.00030565,0.00113847,0.00310297,0.00144061,-0.00390954,
 0.00341971,0.00665614,0.00816039,0.05816814,0.12649981,0.19789782,-0.0
 0000315,0.00000533,-0.00001010,0.00000478,-0.00000917,0.00001927,0.000
 00168,0.00001224,-0.00002095,-0.00006495,-0.00008306,0.00014595,-0.000
 00953,0.00000918,-0.00000665,0.00000071,0.00000093,0.00001616,-0.00000
 208,-0.00000507,-0.00000608,0.00021038,0.00013145,-0.00018503,-0.00009
 836,-0.00007303,0.00011232,-0.00038115,-0.00011465,-0.00009832,0.00078
 347,0.00027296,-0.00011668,-0.00084434,0.00039318,0.00001369,0.0001940
 2,0.00010256,-0.00005123,0.00174155,-0.00167300,-0.00063207,-0.0229241
 3,-0.02884870,-0.03486767,-0.08566692,-0.06708331,-0.09222947,0.000010
 52,0.00000116,-0.00000661,0.00000011,-0.00000088,0.00000308,-0.0000006
 8,-0.00000130,0.00000265,0.00000131,0.00000463,-0.00000275,0.00000014,
 -0.00000078,-0.00000283,-0.00000574,0.00000363,0.00000275,0.00000073,-
 0.00000112,0.00000158,0.00000091,0.00000358,-0.00001439,0.00000767,-0.
 00001687,-0.00000708,0.00000934,0.00000947,-0.00000284,0.00000418,0.00
 000287,-0.00000792,0.00000124,0.00000167,0.00000487,0.00000279,0.00000
 303,0.00000248,-0.00000269,0.00000862,-0.00000945,0.00000120,-0.000002
 81,0.00000238,0.00000408,0.00000302,-0.00000363,0.00001027,0.00000409,
 -0.00000706,0.00006831,-0.00000753,0.00001104,0.00004067,0.00002502,0.
 00001452,0.00048445,0.00011937,0.00017404,-0.00007134,0.00003039,0.000
 03379,0.00010244,-0.00007383,0.00002779,-0.00004870,-0.00000669,-0.000
 04563,-0.00008765,0.00002428,0.00022198,-0.00044035,0.00053042,0.00144
 845,0.00181420,0.00047891,-0.00003659,-0.00704332,0.00242653,-0.000427
 80,0.11219389,-0.00000186,0.00000316,-0.00000452,0.00000184,-0.0000021
 7,0.00000691,-0.00000276,0.00000625,-0.00000720,-0.00002584,-0.0000155
 7,0.00004284,-0.00000632,0.00000225,-0.00000161,-0.00000463,-0.0000014
 2,0.00000142,-0.00000510,-0.00000073,0.00000316,0.00008813,0.00002985,
 -0.00005186,-0.00004341,-0.00000458,0.00003327,-0.00013988,-0.00002024
 ,-0.00004229,0.00034947,0.00001450,-0.00002468,-0.00028677,0.00012198,
 -0.00018560,0.00012386,0.00010011,-0.00003648,0.00089625,0.00027271,0.
 00068706,0.00933122,0.00317447,0.00700143,-0.10518641,-0.21176962,-0.2
 3574857,0.00000418,0.00000030,-0.00000232,0.00000067,0.00000008,0.0000
 0170,0.00000039,-0.00000242,0.00000110,-0.00000058,-0.00000157,-0.0000
 0066,0.00000019,0.00000096,-0.00000008,0.00000080,-0.00000251,0.000000
 77,0.00000137,0.00000024,0.00000104,0.00000048,0.00000157,-0.00000406,
 0.00000415,-0.00000615,-0.00000543,0.00000502,0.00000351,0.00000038,0.
 00000445,0.00000052,-0.00000421,0.00000137,0.00000366,0.00000438,0.000
 00391,0.00000180,0.00000081,-0.00000121,0.00000090,-0.00000130,0.00000
 202,-0.00000295,-0.00000364,0.00000323,-0.00001623,0.00000311,0.000001
 58,0.00000221,-0.00000256,0.00004327,-0.00001461,0.00000645,0.00001089
 ,0.00000621,0.00000721,0.00012772,-0.00004218,0.00000927,0.00002390,-0
 .00003445,-0.00005482,0.00001383,-0.00009837,0.00001796,0.00001135,0.0
 0000527,0.00006851,-0.00031637,-0.00044898,-0.00002091,-0.00043112,-0.
 00010584,-0.00008697,0.00089272,0.00111898,0.00105344,0.00111075,0.001
 49776,0.00080996,0.09339327,0.20622135,0.00000267,-0.00000186,0.000002
 51,-0.00000053,0.00000207,-0.00000349,0.00000028,-0.00000219,0.0000042
 1,0.00002385,0.00001359,-0.00002114,0.00000425,-0.00000152,0.00000079,
 0.00000602,0.00000365,0.00000090,0.00000188,-0.00000018,-0.00000157,-0
 .00006415,-0.00001670,0.00001134,0.00005849,0.00000984,0.00001578,0.00
 007845,-0.00000876,-0.00005166,0.00006505,0.00006279,-0.00011947,0.000
 53913,-0.00015640,-0.00045198,-0.00006129,-0.00002782,0.00014870,0.001
 63869,0.00145809,0.00336564,0.00008534,-0.00535161,-0.00672672,-0.1279
 4750,-0.22298865,-0.26006536,-0.00000284,-0.00000016,0.00000172,-0.000
 00108,-0.00000051,-0.00000168,-0.00000045,0.00000160,-0.00000005,0.000
 00049,0.00000092,0.00000029,-0.00000060,-0.00000087,-0.00000136,0.0000
 0066,0.00000143,0.00000009,-0.00000149,-0.00000148,-0.00000156,-0.0000
 0129,-0.00000270,-0.00000034,-0.00000209,0.00000464,0.00000433,-0.0000
 0503,-0.00000342,-0.00000109,-0.00000324,-0.00000076,0.00000264,-0.000
 00224,-0.00000380,-0.00000456,-0.00000407,-0.00000236,-0.00000134,0.00
 000179,0.00000012,0.00000100,-0.00000048,0.00000289,0.00000257,-0.0000
 0276,0.00001539,-0.00000444,0.00000211,-0.00000730,-0.00000692,-0.0000
 2386,0.00001381,-0.00000029,-0.00001650,-0.00000594,0.00000051,-0.0001
 0383,-0.00001104,-0.00015633,0.00000632,-0.00001398,0.00001965,0.00001
 868,0.00006587,-0.00005952,-0.00005334,0.00003335,-0.00013925,0.000053
 51,0.00020693,-0.00004662,-0.00043206,-0.00097976,0.00002361,0.0012991
 9,-0.00056925,-0.00008180,-0.00169621,0.00173445,0.00106707,0.12654004
 ,0.22652759,0.26327524\\0.00000428,-0.00000241,-0.00000262,-0.00000360
 ,-0.00000091,0.00000257,0.00000931,0.00000019,-0.00000439,-0.00000738,
 0.00001258,0.00001064,0.00000205,-0.00001904,0.00000795,-0.00000604,0.
 00001263,-0.00001043,0.00000136,-0.00000697,0.00000182,-0.00000542,-0.
 00000427,0.00000037,0.00000624,0.00000071,0.00000108,-0.00000707,-0.00
 000484,0.00000290,-0.00000445,0.00000444,0.00000527,0.00000412,-0.0000
 0700,0.00000453,0.00000474,0.00000157,-0.00000472,-0.00000440,-0.00000
 182,0.00000257,0.00000442,0.00000083,-0.00001144,-0.00000180,0.0000013
 6,0.00000646,0.00000034,-0.00000020,0.00000045,-0.00000034,-0.00000042
 ,-0.00000020,-0.00000011,-0.00000015,-0.00000067,0.00000002,-0.0000002
 0,-0.00000093,-0.00000139,0.00000177,-0.00000275,-0.00000094,0.0000010
 7,-0.00000355,-0.00000425,0.00000015,0.00000134,0.00000333,0.00000054,
 -0.00000287,0.00000166,0.00000056,0.00000069,0.00000231,0.00000044,-0.
 00000407,0.00000099,0.00000156,0.00000322,0.00000031,-0.00000064,0.000
 00263,-0.00000153,0.00000180,0.00000200,0.00000012,0.00000218,-0.00000
 009,0.00000006,0.00000320,0.00000037,-0.00000082,0.00000309,-0.0000000
 5,-0.00000153,-0.00000039,-0.00000124,0.00000063,0.00000029,-0.0000010
 1,0.00000222,0.00000097,-0.00000006,0.00000383,0.00000241,-0.00000407,
 0.00000004,-0.00000358,0.00000124,0.00000049,-0.00000389,-0.00000025,0
 .00000136,0.00000165,-0.00000148,-0.00000313,-0.00000008,-0.00000094,0
 .00000152,-0.00000059,-0.00000243,-0.00000308,0.00000102,0.00000032,-0
 .00000275,-0.00000083,0.00000262,0.00000428,0.00000124,-0.00000081\\\@


 HAPPINESS IS NOT HAVING WHAT YOU WANT --
 HAPPINESS IS WANTING WHAT YOU HAVE!

              -- FROM MRS. SEVERN'S DESK
 Job cpu time:       0 days 13 hours 29 minutes 46.2 seconds.
 Elapsed time:       0 days  3 hours 22 minutes 28.3 seconds.
 File lengths (MBytes):  RWF=   1058 Int=      0 D2E=      0 Chk=     29 Scr=      1
 Normal termination of Gaussian 16 at Tue May 23 17:30:13 2023.
### All Done ###
