### Starting Gaussian ###
 Entering Gaussian System, Link 0=g16
 Initial command:
 /cluster/software/gaussian/gaussian-16-A.03/avx2/g16/l1.exe "/local/scratch/cz9n3/Gau-26548.inp" -scrdir="/local/scratch/cz9n3/"
 Entering Link 1 = /cluster/software/gaussian/gaussian-16-A.03/avx2/g16/l1.exe PID=     26555.
  
 Copyright (c) 1988,1990,1992,1993,1995,1998,2003,2009,2016,
            Gaussian, Inc.  All Rights Reserved.
  
 This is part of the Gaussian(R) 16 program.  It is based on
 the Gaussian(R) 09 system (copyright 2009, Gaussian, Inc.),
 the Gaussian(R) 03 system (copyright 2003, Gaussian, Inc.),
 the Gaussian(R) 98 system (copyright 1998, Gaussian, Inc.),
 the Gaussian(R) 94 system (copyright 1995, Gaussian, Inc.),
 the Gaussian 92(TM) system (copyright 1992, Gaussian, Inc.),
 the Gaussian 90(TM) system (copyright 1990, Gaussian, Inc.),
 the Gaussian 88(TM) system (copyright 1988, Gaussian, Inc.),
 the Gaussian 86(TM) system (copyright 1986, Carnegie Mellon
 University), and the Gaussian 82(TM) system (copyright 1983,
 Carnegie Mellon University). Gaussian is a federally registered
 trademark of Gaussian, Inc.
  
 This software contains proprietary and confidential information,
 including trade secrets, belonging to Gaussian, Inc.
  
 This software is provided under written license and may be
 used, copied, transmitted, or stored only in accord with that
 written license.
  
 The following legend is applicable only to US Government
 contracts under FAR:
  
                    RESTRICTED RIGHTS LEGEND
  
 Use, reproduction and disclosure by the US Government is
 subject to restrictions as set forth in subparagraphs (a)
 and (c) of the Commercial Computer Software - Restricted
 Rights clause in FAR 52.227-19.
  
 Gaussian, Inc.
 340 Quinnipiac St., Bldg. 40, Wallingford CT 06492
  
  
 ---------------------------------------------------------------
 Warning -- This program may not be used in any manner that
 competes with the business of Gaussian, Inc. or will provide
 assistance to any competitor of Gaussian, Inc.  The licensee
 of this program is prohibited from giving any competitor of
 Gaussian, Inc. access to this program.  By using this program,
 the user acknowledges that Gaussian, Inc. is engaged in the
 business of creating and licensing software in the field of
 computational chemistry and represents and warrants to the
 licensee that it is not a competitor of Gaussian, Inc. and that
 it will not use this program in any manner prohibited above.
 ---------------------------------------------------------------
  

 Cite this work as:
 Gaussian 16, Revision A.03,
 M. J. Frisch, G. W. Trucks, H. B. Schlegel, G. E. Scuseria, 
 M. A. Robb, J. R. Cheeseman, G. Scalmani, V. Barone, 
 G. A. Petersson, H. Nakatsuji, X. Li, M. Caricato, A. V. Marenich, 
 J. Bloino, B. G. Janesko, R. Gomperts, B. Mennucci, H. P. Hratchian, 
 J. V. Ortiz, A. F. Izmaylov, J. L. Sonnenberg, D. Williams-Young, 
 F. Ding, F. Lipparini, F. Egidi, J. Goings, B. Peng, A. Petrone, 
 T. Henderson, D. Ranasinghe, V. G. Zakrzewski, J. Gao, N. Rega, 
 G. Zheng, W. Liang, M. Hada, M. Ehara, K. Toyota, R. Fukuda, 
 J. Hasegawa, M. Ishida, T. Nakajima, Y. Honda, O. Kitao, H. Nakai, 
 T. Vreven, K. Throssell, J. A. Montgomery, Jr., J. E. Peralta, 
 F. Ogliaro, M. J. Bearpark, J. J. Heyd, E. N. Brothers, K. N. Kudin, 
 V. N. Staroverov, T. A. Keith, R. Kobayashi, J. Normand, 
 K. Raghavachari, A. P. Rendell, J. C. Burant, S. S. Iyengar, 
 J. Tomasi, M. Cossi, J. M. Millam, M. Klene, C. Adamo, R. Cammi, 
 J. W. Ochterski, R. L. Martin, K. Morokuma, O. Farkas, 
 J. B. Foresman, and D. J. Fox, Gaussian, Inc., Wallingford CT, 2016.
 
 ******************************************
 Gaussian 16:  ES64L-G16RevA.03 25-Dec-2016
                23-May-2023 
 ******************************************
 %chk=CCCCCCCCCCqCCrCOCqCrC.chk
 %NProcShared=20
 Will use up to   20 processors via shared memory.
 -----------------------------
 # opt freq b3lyp/6-31g(2df,p)
 -----------------------------
 1/18=20,19=15,26=3,38=1/1,3;
 2/9=110,12=2,17=6,18=5,40=1/2;
 3/5=1,6=6,7=104,11=2,25=1,30=1,71=1,74=-5/1,2,3;
 4//1;
 5/5=2,38=5/2;
 6/7=2,8=2,9=2,10=2,28=1/1;
 7//1,2,3,16;
 1/18=20,19=15,26=3/3(2);
 2/9=110/2;
 99//99;
 2/9=110/2;
 3/5=1,6=6,7=104,11=2,25=1,30=1,71=1,74=-5/1,2,3;
 4/5=5,16=3,69=1/1;
 5/5=2,38=5/2;
 7//1,2,3,16;
 1/18=20,19=15,26=3/3(-5);
 2/9=110/2;
 6/7=2,8=2,9=2,10=2,19=2,28=1/1;
 99/9=1/99;
 -------------------
 Title Card Required
 -------------------
 Symbolic Z-matrix:
 Charge =  0 Multiplicity = 1
 C                     0.86195   0.03061  -0.00184 
 C                     2.37809   0.02695  -0.00498 
 C                     2.89884  -0.97906  -1.01759 
 C                     4.41722  -0.9902   -1.03755 
 C                     4.8882   -1.99414  -2.0735 
 C                     6.39459  -2.00524  -2.14994 
 C                     6.84704  -2.98275  -3.22823 
 C                     8.35563  -2.98474  -3.21598 
 C                     8.98534  -4.02933  -4.1046 
 C                     10.5267  -4.03889  -4.01339 
 C                     11.10934  -4.42792  -2.6304 
 C                     10.88078  -3.45488  -1.47773 
 C                     11.01539  -5.03272  -5.08074 
 O                     12.43705  -5.02129  -5.18928 
 C                     12.92577  -5.99297  -6.12277 
 C                     12.48131  -5.66456  -7.54626 
 C                     14.44856  -5.98825  -6.04739 
 H                     0.48692   0.75424   0.72598 
 H                     0.4729   -0.95849   0.26067 
 H                     0.47342   0.29976  -0.98951 
 H                     2.74975  -0.22444   0.99512 
 H                     2.74929   1.02868  -0.25012 
 H                     2.52317  -0.73021  -2.0184 
 H                     2.52823  -1.98281  -0.77538 
 H                     4.80959  -1.25677  -0.04748 
 H                     4.801     0.0081   -1.28022 
 H                     4.47775  -1.73903  -3.05825 
 H                     4.52649  -2.99632  -1.81564 
 H                     6.80751  -2.30012  -1.17261 
 H                     6.78051  -1.00152  -2.36335 
 H                     6.45872  -2.69559  -4.21364 
 H                     6.47097  -3.98505  -2.99676 
 H                     8.58971  -3.22314  -2.18577 
 H                     8.75753  -1.99177  -3.43313 
 H                     8.67958  -3.82479  -5.14231 
 H                     8.59374  -5.02177  -3.85581 
 H                     10.91078  -3.04425  -4.27537 
 H                     12.19725  -4.51853  -2.73335 
 H                     10.73744  -5.41703  -2.34176 
 H                     10.98521  -2.41379  -1.79844 
 H                     11.59334  -3.64466  -0.67117 
 H                     9.90918  -3.59698  -1.0009 
 H                     10.58255  -4.72991  -6.03898 
 H                     10.67014  -6.04607  -4.84273 
 H                     12.56417  -6.9865   -5.82984 
 H                     12.7665  -4.6401   -7.8092 
 H                     11.39442  -5.72868  -7.654 
 H                     12.91717  -6.3579   -8.2699 
 H                     14.84852  -4.99542  -6.28155 
 H                     14.87895  -6.71179  -6.74737 
 H                     14.78956  -6.23703  -5.03705 
 

 GradGradGradGradGradGradGradGradGradGradGradGradGradGradGradGradGradGrad
 Berny optimization.
 Initialization pass.
                           ----------------------------
                           !    Initial Parameters    !
                           ! (Angstroms and Degrees)  !
 --------------------------                            --------------------------
 ! Name  Definition              Value          Derivative Info.                !
 --------------------------------------------------------------------------------
 ! R1    R(1,2)                  1.5161         estimate D2E/DX2                !
 ! R2    R(1,18)                 1.0927         estimate D2E/DX2                !
 ! R3    R(1,19)                 1.0948         estimate D2E/DX2                !
 ! R4    R(1,20)                 1.0949         estimate D2E/DX2                !
 ! R5    R(2,3)                  1.5194         estimate D2E/DX2                !
 ! R6    R(2,21)                 1.0961         estimate D2E/DX2                !
 ! R7    R(2,22)                 1.0961         estimate D2E/DX2                !
 ! R8    R(3,4)                  1.5186         estimate D2E/DX2                !
 ! R9    R(3,23)                 1.0976         estimate D2E/DX2                !
 ! R10   R(3,24)                 1.0971         estimate D2E/DX2                !
 ! R11   R(4,5)                  1.5175         estimate D2E/DX2                !
 ! R12   R(4,25)                 1.0978         estimate D2E/DX2                !
 ! R13   R(4,26)                 1.0967         estimate D2E/DX2                !
 ! R14   R(5,6)                  1.5084         estimate D2E/DX2                !
 ! R15   R(5,27)                 1.0969         estimate D2E/DX2                !
 ! R16   R(5,28)                 1.0962         estimate D2E/DX2                !
 ! R17   R(6,7)                  1.5241         estimate D2E/DX2                !
 ! R18   R(6,29)                 1.1012         estimate D2E/DX2                !
 ! R19   R(6,30)                 1.0963         estimate D2E/DX2                !
 ! R20   R(7,8)                  1.5086         estimate D2E/DX2                !
 ! R21   R(7,31)                 1.0974         estimate D2E/DX2                !
 ! R22   R(7,32)                 1.0953         estimate D2E/DX2                !
 ! R23   R(8,9)                  1.5091         estimate D2E/DX2                !
 ! R24   R(8,33)                 1.083          estimate D2E/DX2                !
 ! R25   R(8,34)                 1.093          estimate D2E/DX2                !
 ! R26   R(9,10)                 1.5441         estimate D2E/DX2                !
 ! R27   R(9,35)                 1.101          estimate D2E/DX2                !
 ! R28   R(9,36)                 1.0955         estimate D2E/DX2                !
 ! R29   R(10,11)                1.5503         estimate D2E/DX2                !
 ! R30   R(10,13)                1.5381         estimate D2E/DX2                !
 ! R31   R(10,37)                1.0979         estimate D2E/DX2                !
 ! R32   R(11,12)                1.5257         estimate D2E/DX2                !
 ! R33   R(11,38)                1.0965         estimate D2E/DX2                !
 ! R34   R(11,39)                1.0954         estimate D2E/DX2                !
 ! R35   R(12,40)                1.0944         estimate D2E/DX2                !
 ! R36   R(12,41)                1.0928         estimate D2E/DX2                !
 ! R37   R(12,42)                1.0916         estimate D2E/DX2                !
 ! R38   R(13,14)                1.4258         estimate D2E/DX2                !
 ! R39   R(13,43)                1.0942         estimate D2E/DX2                !
 ! R40   R(13,44)                1.0967         estimate D2E/DX2                !
 ! R41   R(14,15)                1.4333         estimate D2E/DX2                !
 ! R42   R(15,16)                1.527          estimate D2E/DX2                !
 ! R43   R(15,17)                1.5247         estimate D2E/DX2                !
 ! R44   R(15,45)                1.0971         estimate D2E/DX2                !
 ! R45   R(16,46)                1.0954         estimate D2E/DX2                !
 ! R46   R(16,47)                1.0941         estimate D2E/DX2                !
 ! R47   R(16,48)                1.0929         estimate D2E/DX2                !
 ! R48   R(17,49)                1.0957         estimate D2E/DX2                !
 ! R49   R(17,50)                1.0949         estimate D2E/DX2                !
 ! R50   R(17,51)                1.095          estimate D2E/DX2                !
 ! A1    A(2,1,18)             110.2543         estimate D2E/DX2                !
 ! A2    A(2,1,19)             110.7123         estimate D2E/DX2                !
 ! A3    A(2,1,20)             110.7055         estimate D2E/DX2                !
 ! A4    A(18,1,19)            108.4589         estimate D2E/DX2                !
 ! A5    A(18,1,20)            108.436          estimate D2E/DX2                !
 ! A6    A(19,1,20)            108.1962         estimate D2E/DX2                !
 ! A7    A(1,2,3)              110.225          estimate D2E/DX2                !
 ! A8    A(1,2,21)             109.7383         estimate D2E/DX2                !
 ! A9    A(1,2,22)             109.6895         estimate D2E/DX2                !
 ! A10   A(3,2,21)             109.8769         estimate D2E/DX2                !
 ! A11   A(3,2,22)             109.8766         estimate D2E/DX2                !
 ! A12   A(21,2,22)            107.3875         estimate D2E/DX2                !
 ! A13   A(2,3,4)              110.8737         estimate D2E/DX2                !
 ! A14   A(2,3,23)             109.8932         estimate D2E/DX2                !
 ! A15   A(2,3,24)             110.0518         estimate D2E/DX2                !
 ! A16   A(4,3,23)             109.3848         estimate D2E/DX2                !
 ! A17   A(4,3,24)             109.5102         estimate D2E/DX2                !
 ! A18   A(23,3,24)            107.0456         estimate D2E/DX2                !
 ! A19   A(3,4,5)              108.9141         estimate D2E/DX2                !
 ! A20   A(3,4,25)             110.3216         estimate D2E/DX2                !
 ! A21   A(3,4,26)             110.2507         estimate D2E/DX2                !
 ! A22   A(5,4,25)             110.1258         estimate D2E/DX2                !
 ! A23   A(5,4,26)             110.0316         estimate D2E/DX2                !
 ! A24   A(25,4,26)            107.1879         estimate D2E/DX2                !
 ! A25   A(4,5,6)              110.4515         estimate D2E/DX2                !
 ! A26   A(4,5,27)             110.0505         estimate D2E/DX2                !
 ! A27   A(4,5,28)             109.9881         estimate D2E/DX2                !
 ! A28   A(6,5,27)             109.2629         estimate D2E/DX2                !
 ! A29   A(6,5,28)             109.5557         estimate D2E/DX2                !
 ! A30   A(27,5,28)            107.4768         estimate D2E/DX2                !
 ! A31   A(5,6,7)              109.6968         estimate D2E/DX2                !
 ! A32   A(5,6,29)             109.3584         estimate D2E/DX2                !
 ! A33   A(5,6,30)             110.7737         estimate D2E/DX2                !
 ! A34   A(7,6,29)             110.1723         estimate D2E/DX2                !
 ! A35   A(7,6,30)             110.1798         estimate D2E/DX2                !
 ! A36   A(29,6,30)            106.6145         estimate D2E/DX2                !
 ! A37   A(6,7,8)              106.9748         estimate D2E/DX2                !
 ! A38   A(6,7,31)             111.2484         estimate D2E/DX2                !
 ! A39   A(6,7,32)             109.6013         estimate D2E/DX2                !
 ! A40   A(8,7,31)             111.1911         estimate D2E/DX2                !
 ! A41   A(8,7,32)             109.9027         estimate D2E/DX2                !
 ! A42   A(31,7,32)            107.9226         estimate D2E/DX2                !
 ! A43   A(7,8,9)              114.4183         estimate D2E/DX2                !
 ! A44   A(7,8,33)             102.9524         estimate D2E/DX2                !
 ! A45   A(7,8,34)             111.4            estimate D2E/DX2                !
 ! A46   A(9,8,33)             108.516          estimate D2E/DX2                !
 ! A47   A(9,8,34)             111.0035         estimate D2E/DX2                !
 ! A48   A(33,8,34)            108.0282         estimate D2E/DX2                !
 ! A49   A(8,9,10)             112.7086         estimate D2E/DX2                !
 ! A50   A(8,9,35)             108.0908         estimate D2E/DX2                !
 ! A51   A(8,9,36)             110.1319         estimate D2E/DX2                !
 ! A52   A(10,9,35)            109.5148         estimate D2E/DX2                !
 ! A53   A(10,9,36)            109.7428         estimate D2E/DX2                !
 ! A54   A(35,9,36)            106.4436         estimate D2E/DX2                !
 ! A55   A(9,10,11)            115.4299         estimate D2E/DX2                !
 ! A56   A(9,10,13)            106.2704         estimate D2E/DX2                !
 ! A57   A(9,10,37)            109.2384         estimate D2E/DX2                !
 ! A58   A(11,10,13)           109.7244         estimate D2E/DX2                !
 ! A59   A(11,10,37)           107.9819         estimate D2E/DX2                !
 ! A60   A(13,10,37)           107.9763         estimate D2E/DX2                !
 ! A61   A(10,11,12)           117.2342         estimate D2E/DX2                !
 ! A62   A(10,11,38)           108.0502         estimate D2E/DX2                !
 ! A63   A(10,11,39)           109.5145         estimate D2E/DX2                !
 ! A64   A(12,11,38)           105.7993         estimate D2E/DX2                !
 ! A65   A(12,11,39)           109.0226         estimate D2E/DX2                !
 ! A66   A(38,11,39)           106.6761         estimate D2E/DX2                !
 ! A67   A(11,12,40)           111.7789         estimate D2E/DX2                !
 ! A68   A(11,12,41)           110.4363         estimate D2E/DX2                !
 ! A69   A(11,12,42)           112.3549         estimate D2E/DX2                !
 ! A70   A(40,12,41)           108.6189         estimate D2E/DX2                !
 ! A71   A(40,12,42)           109.6814         estimate D2E/DX2                !
 ! A72   A(41,12,42)           103.6126         estimate D2E/DX2                !
 ! A73   A(10,13,14)           111.3729         estimate D2E/DX2                !
 ! A74   A(10,13,43)           107.651          estimate D2E/DX2                !
 ! A75   A(10,13,44)           110.2682         estimate D2E/DX2                !
 ! A76   A(14,13,43)           108.9979         estimate D2E/DX2                !
 ! A77   A(14,13,44)           109.7439         estimate D2E/DX2                !
 ! A78   A(43,13,44)           108.7379         estimate D2E/DX2                !
 ! A79   A(13,14,15)           112.5887         estimate D2E/DX2                !
 ! A80   A(14,15,16)           111.2283         estimate D2E/DX2                !
 ! A81   A(14,15,17)           107.8336         estimate D2E/DX2                !
 ! A82   A(14,15,45)           109.1257         estimate D2E/DX2                !
 ! A83   A(16,15,17)           109.6415         estimate D2E/DX2                !
 ! A84   A(16,15,45)           110.3486         estimate D2E/DX2                !
 ! A85   A(17,15,45)           108.5897         estimate D2E/DX2                !
 ! A86   A(15,16,46)           110.4333         estimate D2E/DX2                !
 ! A87   A(15,16,47)           111.6136         estimate D2E/DX2                !
 ! A88   A(15,16,48)           111.3914         estimate D2E/DX2                !
 ! A89   A(46,16,47)           106.8459         estimate D2E/DX2                !
 ! A90   A(46,16,48)           109.3021         estimate D2E/DX2                !
 ! A91   A(47,16,48)           107.0863         estimate D2E/DX2                !
 ! A92   A(15,17,49)           110.9053         estimate D2E/DX2                !
 ! A93   A(15,17,50)           111.0365         estimate D2E/DX2                !
 ! A94   A(15,17,51)           110.8521         estimate D2E/DX2                !
 ! A95   A(49,17,50)           108.5838         estimate D2E/DX2                !
 ! A96   A(49,17,51)           106.8214         estimate D2E/DX2                !
 ! A97   A(50,17,51)           108.5028         estimate D2E/DX2                !
 ! D1    D(18,1,2,3)          -179.9781         estimate D2E/DX2                !
 ! D2    D(18,1,2,21)           58.8805         estimate D2E/DX2                !
 ! D3    D(18,1,2,22)          -58.8685         estimate D2E/DX2                !
 ! D4    D(19,1,2,3)            59.9995         estimate D2E/DX2                !
 ! D5    D(19,1,2,21)          -61.1419         estimate D2E/DX2                !
 ! D6    D(19,1,2,22)         -178.891          estimate D2E/DX2                !
 ! D7    D(20,1,2,3)           -59.9885         estimate D2E/DX2                !
 ! D8    D(20,1,2,21)          178.87           estimate D2E/DX2                !
 ! D9    D(20,1,2,22)           61.121          estimate D2E/DX2                !
 ! D10   D(1,2,3,4)            179.7356         estimate D2E/DX2                !
 ! D11   D(1,2,3,23)            58.6875         estimate D2E/DX2                !
 ! D12   D(1,2,3,24)           -58.9533         estimate D2E/DX2                !
 ! D13   D(21,2,3,4)           -59.2057         estimate D2E/DX2                !
 ! D14   D(21,2,3,23)          179.7462         estimate D2E/DX2                !
 ! D15   D(21,2,3,24)           62.1053         estimate D2E/DX2                !
 ! D16   D(22,2,3,4)            58.7378         estimate D2E/DX2                !
 ! D17   D(22,2,3,23)          -62.3103         estimate D2E/DX2                !
 ! D18   D(22,2,3,24)         -179.9511         estimate D2E/DX2                !
 ! D19   D(2,3,4,5)           -179.2758         estimate D2E/DX2                !
 ! D20   D(2,3,4,25)            59.7428         estimate D2E/DX2                !
 ! D21   D(2,3,4,26)           -58.4547         estimate D2E/DX2                !
 ! D22   D(23,3,4,5)           -57.9282         estimate D2E/DX2                !
 ! D23   D(23,3,4,25)         -178.9095         estimate D2E/DX2                !
 ! D24   D(23,3,4,26)           62.893          estimate D2E/DX2                !
 ! D25   D(24,3,4,5)            59.0948         estimate D2E/DX2                !
 ! D26   D(24,3,4,25)          -61.8865         estimate D2E/DX2                !
 ! D27   D(24,3,4,26)          179.916          estimate D2E/DX2                !
 ! D28   D(3,4,5,6)            178.4012         estimate D2E/DX2                !
 ! D29   D(3,4,5,27)            57.6762         estimate D2E/DX2                !
 ! D30   D(3,4,5,28)           -60.5491         estimate D2E/DX2                !
 ! D31   D(25,4,5,6)           -60.4976         estimate D2E/DX2                !
 ! D32   D(25,4,5,27)          178.7774         estimate D2E/DX2                !
 ! D33   D(25,4,5,28)           60.5521         estimate D2E/DX2                !
 ! D34   D(26,4,5,6)            57.4457         estimate D2E/DX2                !
 ! D35   D(26,4,5,27)          -63.2793         estimate D2E/DX2                !
 ! D36   D(26,4,5,28)          178.4954         estimate D2E/DX2                !
 ! D37   D(4,5,6,7)           -178.039          estimate D2E/DX2                !
 ! D38   D(4,5,6,29)            61.0304         estimate D2E/DX2                !
 ! D39   D(4,5,6,30)           -56.1899         estimate D2E/DX2                !
 ! D40   D(27,5,6,7)           -56.845          estimate D2E/DX2                !
 ! D41   D(27,5,6,29)         -177.7756         estimate D2E/DX2                !
 ! D42   D(27,5,6,30)           65.0041         estimate D2E/DX2                !
 ! D43   D(28,5,6,7)            60.6544         estimate D2E/DX2                !
 ! D44   D(28,5,6,29)          -60.2762         estimate D2E/DX2                !
 ! D45   D(28,5,6,30)         -177.4965         estimate D2E/DX2                !
 ! D46   D(5,6,7,8)           -177.8749         estimate D2E/DX2                !
 ! D47   D(5,6,7,31)            60.5101         estimate D2E/DX2                !
 ! D48   D(5,6,7,32)           -58.7623         estimate D2E/DX2                !
 ! D49   D(29,6,7,8)           -57.4372         estimate D2E/DX2                !
 ! D50   D(29,6,7,31)         -179.0521         estimate D2E/DX2                !
 ! D51   D(29,6,7,32)           61.6755         estimate D2E/DX2                !
 ! D52   D(30,6,7,8)            59.9215         estimate D2E/DX2                !
 ! D53   D(30,6,7,31)          -61.6934         estimate D2E/DX2                !
 ! D54   D(30,6,7,32)          179.0342         estimate D2E/DX2                !
 ! D55   D(6,7,8,9)            172.6514         estimate D2E/DX2                !
 ! D56   D(6,7,8,33)            55.1165         estimate D2E/DX2                !
 ! D57   D(6,7,8,34)           -60.4281         estimate D2E/DX2                !
 ! D58   D(31,7,8,9)           -65.6975         estimate D2E/DX2                !
 ! D59   D(31,7,8,33)          176.7676         estimate D2E/DX2                !
 ! D60   D(31,7,8,34)           61.223          estimate D2E/DX2                !
 ! D61   D(32,7,8,9)            53.7339         estimate D2E/DX2                !
 ! D62   D(32,7,8,33)          -63.801          estimate D2E/DX2                !
 ! D63   D(32,7,8,34)         -179.3456         estimate D2E/DX2                !
 ! D64   D(7,8,9,10)          -177.3978         estimate D2E/DX2                !
 ! D65   D(7,8,9,35)            61.4267         estimate D2E/DX2                !
 ! D66   D(7,8,9,36)           -54.481          estimate D2E/DX2                !
 ! D67   D(33,8,9,10)          -63.0895         estimate D2E/DX2                !
 ! D68   D(33,8,9,35)          175.735          estimate D2E/DX2                !
 ! D69   D(33,8,9,36)           59.8273         estimate D2E/DX2                !
 ! D70   D(34,8,9,10)           55.4777         estimate D2E/DX2                !
 ! D71   D(34,8,9,35)          -65.6978         estimate D2E/DX2                !
 ! D72   D(34,8,9,36)          178.3946         estimate D2E/DX2                !
 ! D73   D(8,9,10,11)           64.3565         estimate D2E/DX2                !
 ! D74   D(8,9,10,13)         -173.7685         estimate D2E/DX2                !
 ! D75   D(8,9,10,37)          -57.5132         estimate D2E/DX2                !
 ! D76   D(35,9,10,11)        -175.2824         estimate D2E/DX2                !
 ! D77   D(35,9,10,13)         -53.4074         estimate D2E/DX2                !
 ! D78   D(35,9,10,37)          62.8479         estimate D2E/DX2                !
 ! D79   D(36,9,10,11)         -58.7774         estimate D2E/DX2                !
 ! D80   D(36,9,10,13)          63.0976         estimate D2E/DX2                !
 ! D81   D(36,9,10,37)         179.3529         estimate D2E/DX2                !
 ! D82   D(9,10,11,12)         -67.6482         estimate D2E/DX2                !
 ! D83   D(9,10,11,38)         173.0247         estimate D2E/DX2                !
 ! D84   D(9,10,11,39)          57.1945         estimate D2E/DX2                !
 ! D85   D(13,10,11,12)        172.3492         estimate D2E/DX2                !
 ! D86   D(13,10,11,38)         53.0222         estimate D2E/DX2                !
 ! D87   D(13,10,11,39)        -62.808          estimate D2E/DX2                !
 ! D88   D(37,10,11,12)         54.8933         estimate D2E/DX2                !
 ! D89   D(37,10,11,38)        -64.4338         estimate D2E/DX2                !
 ! D90   D(37,10,11,39)        179.736          estimate D2E/DX2                !
 ! D91   D(9,10,13,14)         173.7711         estimate D2E/DX2                !
 ! D92   D(9,10,13,43)          54.3402         estimate D2E/DX2                !
 ! D93   D(9,10,13,44)         -64.1406         estimate D2E/DX2                !
 ! D94   D(11,10,13,14)        -60.7894         estimate D2E/DX2                !
 ! D95   D(11,10,13,43)        179.7798         estimate D2E/DX2                !
 ! D96   D(11,10,13,44)         61.299          estimate D2E/DX2                !
 ! D97   D(37,10,13,14)         56.6701         estimate D2E/DX2                !
 ! D98   D(37,10,13,43)        -62.7607         estimate D2E/DX2                !
 ! D99   D(37,10,13,44)        178.7584         estimate D2E/DX2                !
 ! D100  D(10,11,12,40)        -39.8301         estimate D2E/DX2                !
 ! D101  D(10,11,12,41)       -160.8799         estimate D2E/DX2                !
 ! D102  D(10,11,12,42)         83.9813         estimate D2E/DX2                !
 ! D103  D(38,11,12,40)         80.6872         estimate D2E/DX2                !
 ! D104  D(38,11,12,41)        -40.3626         estimate D2E/DX2                !
 ! D105  D(38,11,12,42)       -155.5014         estimate D2E/DX2                !
 ! D106  D(39,11,12,40)       -164.9188         estimate D2E/DX2                !
 ! D107  D(39,11,12,41)         74.0314         estimate D2E/DX2                !
 ! D108  D(39,11,12,42)        -41.1074         estimate D2E/DX2                !
 ! D109  D(10,13,14,15)        176.6603         estimate D2E/DX2                !
 ! D110  D(43,13,14,15)        -64.7127         estimate D2E/DX2                !
 ! D111  D(44,13,14,15)         54.2693         estimate D2E/DX2                !
 ! D112  D(13,14,15,16)         65.5214         estimate D2E/DX2                !
 ! D113  D(13,14,15,17)       -174.2288         estimate D2E/DX2                !
 ! D114  D(13,14,15,45)        -56.4533         estimate D2E/DX2                !
 ! D115  D(14,15,16,46)         53.8473         estimate D2E/DX2                !
 ! D116  D(14,15,16,47)        -64.8548         estimate D2E/DX2                !
 ! D117  D(14,15,16,48)        175.5008         estimate D2E/DX2                !
 ! D118  D(17,15,16,46)        -65.3278         estimate D2E/DX2                !
 ! D119  D(17,15,16,47)        175.9701         estimate D2E/DX2                !
 ! D120  D(17,15,16,48)         56.3257         estimate D2E/DX2                !
 ! D121  D(45,15,16,46)        175.1092         estimate D2E/DX2                !
 ! D122  D(45,15,16,47)         56.4072         estimate D2E/DX2                !
 ! D123  D(45,15,16,48)        -63.2372         estimate D2E/DX2                !
 ! D124  D(14,15,17,49)        -58.8572         estimate D2E/DX2                !
 ! D125  D(14,15,17,50)       -179.6819         estimate D2E/DX2                !
 ! D126  D(14,15,17,51)         59.6318         estimate D2E/DX2                !
 ! D127  D(16,15,17,49)         62.3865         estimate D2E/DX2                !
 ! D128  D(16,15,17,50)        -58.4382         estimate D2E/DX2                !
 ! D129  D(16,15,17,51)       -179.1245         estimate D2E/DX2                !
 ! D130  D(45,15,17,49)       -176.9778         estimate D2E/DX2                !
 ! D131  D(45,15,17,50)         62.1975         estimate D2E/DX2                !
 ! D132  D(45,15,17,51)        -58.4889         estimate D2E/DX2                !
 --------------------------------------------------------------------------------
 Trust Radius=3.00D-01 FncErr=1.00D-07 GrdErr=1.00D-06 EigMax=2.50D+02 EigMin=1.00D-04
 Number of steps in this run=    289 maximum allowed number of steps=    306.
 GradGradGradGradGradGradGradGradGradGradGradGradGradGradGradGradGradGrad

 Stoichiometry    C16H34O
 Framework group  C1[X(C16H34O)]
 Deg. of freedom   147
 Full point group                 C1      NOp   1
 Largest Abelian subgroup         C1      NOp   1
 Largest concise Abelian subgroup C1      NOp   1
                         Standard orientation:                         
 ---------------------------------------------------------------------
 Center     Atomic      Atomic             Coordinates (Angstroms)
 Number     Number       Type             X           Y           Z
 ---------------------------------------------------------------------
      1          6           0       -8.758942   -0.497047    0.152272
      2          6           0       -7.513692    0.246721   -0.289165
      3          6           0       -6.269019   -0.492997    0.171510
      4          6           0       -5.012028    0.236463   -0.268787
      5          6           0       -3.799359   -0.547626    0.197636
      6          6           0       -2.528960    0.127277   -0.255983
      7          6           0       -1.324586   -0.699159    0.179254
      8          6           0       -0.092524    0.054353   -0.256914
      9          6           0        1.205785   -0.529626    0.243797
     10          6           0        2.435216    0.307118   -0.171604
     11          6           0        2.498499    1.737624    0.422639
     12          6           0        1.448769    2.737883   -0.051959
     13          6           0        3.671293   -0.494050    0.271109
     14          8           0        4.876486    0.114233   -0.187727
     15          6           0        6.048655   -0.568876    0.274654
     16          6           0        6.139452   -1.973665   -0.316993
     17          6           0        7.263691    0.246842   -0.152995
     18          1           0       -9.654384    0.034335   -0.179129
     19          1           0       -8.791499   -0.584423    1.243095
     20          1           0       -8.778085   -1.506139   -0.272294
     21          1           0       -7.520572    1.260398    0.127895
     22          1           0       -7.507950    0.341823   -1.381076
     23          1           0       -6.264121   -1.509574   -0.242279
     24          1           0       -6.272267   -0.590581    1.264212
     25          1           0       -4.991754    1.249832    0.153023
     26          1           0       -4.995625    0.339468   -1.360529
     27          1           0       -3.832071   -1.566731   -0.206885
     28          1           0       -3.802381   -0.627150    1.290960
     29          1           0       -2.475315    1.136307    0.181750
     30          1           0       -2.525009    0.257210   -1.344576
     31          1           0       -1.351667   -1.703982   -0.261068
     32          1           0       -1.328465   -0.808507    1.269043
     33          1           0       -0.229726    1.027791    0.197570
     34          1           0       -0.069652    0.187612   -1.341527
     35          1           0        1.300830   -1.549009   -0.161163
     36          1           0        1.178118   -0.630489    1.334322
     37          1           0        2.461273    0.393185   -1.265850
     38          1           0        3.468559    2.173730    0.155898
     39          1           0        2.469244    1.681205    1.516221
     40          1           0        1.251306    2.641310   -1.124018
     41          1           0        1.776369    3.760367    0.151765
     42          1           0        0.512898    2.652492    0.503397
     43          1           0        3.590303   -1.495472   -0.162323
     44          1           0        3.694385   -0.583941    1.363862
     45          1           0        6.027838   -0.617069    1.370514
     46          1           0        6.072974   -1.933469   -1.409675
     47          1           0        5.318645   -2.609833    0.027411
     48          1           0        7.070949   -2.467746   -0.029683
     49          1           0        7.292031    0.364475   -1.241972
     50          1           0        8.193005   -0.233272    0.170396
     51          1           0        7.226430    1.254558    0.273713
 ---------------------------------------------------------------------
 Rotational constants (GHZ):           1.5727543           0.0862078           0.0828286
 Standard basis: 6-31G(2df,p) (6D, 7F)
 There are   697 symmetry adapted cartesian basis functions of A   symmetry.
 There are   646 symmetry adapted basis functions of A   symmetry.
   646 basis functions,   986 primitive gaussians,   697 cartesian basis functions
    69 alpha electrons       69 beta electrons
       nuclear repulsion energy      1204.4108198383 Hartrees.
 NAtoms=   51 NActive=   51 NUniq=   51 SFac= 1.00D+00 NAtFMM=   60 NAOKFM=F Big=F
 Integral buffers will be    131072 words long.
 Raffenetti 2 integral format.
 Two-electron integral symmetry is turned on.
 One-electron integrals computed using PRISM.
 PrsmSu:  requested number of processors reduced to:  12 ShMem   1 Linda.
 NBasis=   646 RedAO= T EigKep=  4.22D-04  NBF=   646
 NBsUse=   646 1.00D-06 EigRej= -1.00D+00 NBFU=   646
 ExpMin= 1.61D-01 ExpMax= 5.48D+03 ExpMxC= 8.25D+02 IAcc=3 IRadAn=         5 AccDes= 0.00D+00
 Harris functional with IExCor=  402 and IRadAn=       5 diagonalized for initial guess.
 HarFok:  IExCor=  402 AccDes= 0.00D+00 IRadAn=         5 IDoV= 1 UseB2=F ITyADJ=14
 ICtDFT=  3500011 ScaDFX=  1.000000  1.000000  1.000000  1.000000
 FoFCou: FMM=F IPFlag=           0 FMFlag=      100000 FMFlg1=           0
         NFxFlg=           0 DoJE=T BraDBF=F KetDBF=T FulRan=T
         wScrn=  0.000000 ICntrl=       500 IOpCl=  0 I1Cent=   200000004 NGrid=           0
         NMat0=    1 NMatS0=      1 NMatT0=    0 NMatD0=    1 NMtDS0=    0 NMtDT0=    0
 Petite list used in FoFCou.
 Requested convergence on RMS density matrix=1.00D-08 within 128 cycles.
 Requested convergence on MAX density matrix=1.00D-06.
 Requested convergence on             energy=1.00D-06.
 No special actions if energy rises.
 Integral accuracy reduced to 1.0D-05 until final iterations.
 Initial convergence to 1.0D-05 achieved.  Increase integral accuracy.
 SCF Done:  E(RB3LYP) =  -705.466744266     A.U. after   12 cycles
            NFock= 12  Conv=0.28D-08     -V/T= 2.0082

 **********************************************************************

            Population analysis using the SCF density.

 **********************************************************************

 Orbital symmetries:
       Occupied  (A) (A) (A) (A) (A) (A) (A) (A) (A) (A) (A) (A)
                 (A) (A) (A) (A) (A) (A) (A) (A) (A) (A) (A) (A)
                 (A) (A) (A) (A) (A) (A) (A) (A) (A) (A) (A) (A)
                 (A) (A) (A) (A) (A) (A) (A) (A) (A) (A) (A) (A)
                 (A) (A) (A) (A) (A) (A) (A) (A) (A) (A) (A) (A)
                 (A) (A) (A) (A) (A) (A) (A) (A) (A)
       Virtual   (A) (A) (A) (A) (A) (A) (A) (A) (A) (A) (A) (A)
                 (A) (A) (A) (A) (A) (A) (A) (A) (A) (A) (A) (A)
                 (A) (A) (A) (A) (A) (A) (A) (A) (A) (A) (A) (A)
                 (A) (A) (A) (A) (A) (A) (A) (A) (A) (A) (A) (A)
                 (A) (A) (A) (A) (A) (A) (A) (A) (A) (A) (A) (A)
                 (A) (A) (A) (A) (A) (A) (A) (A) (A) (A) (A) (A)
                 (A) (A) (A) (A) (A) (A) (A) (A) (A) (A) (A) (A)
                 (A) (A) (A) (A) (A) (A) (A) (A) (A) (A) (A) (A)
                 (A) (A) (A) (A) (A) (A) (A) (A) (A) (A) (A) (A)
                 (A) (A) (A) (A) (A) (A) (A) (A) (A) (A) (A) (A)
                 (A) (A) (A) (A) (A) (A) (A) (A) (A) (A) (A) (A)
                 (A) (A) (A) (A) (A) (A) (A) (A) (A) (A) (A) (A)
                 (A) (A) (A) (A) (A) (A) (A) (A) (A) (A) (A) (A)
                 (A) (A) (A) (A) (A) (A) (A) (A) (A) (A) (A) (A)
                 (A) (A) (A) (A) (A) (A) (A) (A) (A) (A) (A) (A)
                 (A) (A) (A) (A) (A) (A) (A) (A) (A) (A) (A) (A)
                 (A) (A) (A) (A) (A) (A) (A) (A) (A) (A) (A) (A)
                 (A) (A) (A) (A) (A) (A) (A) (A) (A) (A) (A) (A)
                 (A) (A) (A) (A) (A) (A) (A) (A) (A) (A) (A) (A)
                 (A) (A) (A) (A) (A) (A) (A) (A) (A) (A) (A) (A)
                 (A) (A) (A) (A) (A) (A) (A) (A) (A) (A) (A) (A)
                 (A) (A) (A) (A) (A) (A) (A) (A) (A) (A) (A) (A)
                 (A) (A) (A) (A) (A) (A) (A) (A) (A) (A) (A) (A)
                 (A) (A) (A) (A) (A) (A) (A) (A) (A) (A) (A) (A)
                 (A) (A) (A) (A) (A) (A) (A) (A) (A) (A) (A) (A)
                 (A) (A) (A) (A) (A) (A) (A) (A) (A) (A) (A) (A)
                 (A) (A) (A) (A) (A) (A) (A) (A) (A) (A) (A) (A)
                 (A) (A) (A) (A) (A) (A) (A) (A) (A) (A) (A) (A)
                 (A) (A) (A) (A) (A) (A) (A) (A) (A) (A) (A) (A)
                 (A) (A) (A) (A) (A) (A) (A) (A) (A) (A) (A) (A)
                 (A) (A) (A) (A) (A) (A) (A) (A) (A) (A) (A) (A)
                 (A) (A) (A) (A) (A) (A) (A) (A) (A) (A) (A) (A)
                 (A) (A) (A) (A) (A) (A) (A) (A) (A) (A) (A) (A)
                 (A) (A) (A) (A) (A) (A) (A) (A) (A) (A) (A) (A)
                 (A) (A) (A) (A) (A) (A) (A) (A) (A) (A) (A) (A)
                 (A) (A) (A) (A) (A) (A) (A) (A) (A) (A) (A) (A)
                 (A) (A) (A) (A) (A) (A) (A) (A) (A) (A) (A) (A)
                 (A) (A) (A) (A) (A) (A) (A) (A) (A) (A) (A) (A)
                 (A) (A) (A) (A) (A) (A) (A) (A) (A) (A) (A) (A)
                 (A) (A) (A) (A) (A) (A) (A) (A) (A) (A) (A) (A)
                 (A) (A) (A) (A) (A) (A) (A) (A) (A) (A) (A) (A)
                 (A) (A) (A) (A) (A) (A) (A) (A) (A) (A) (A) (A)
                 (A) (A) (A) (A) (A) (A) (A) (A) (A) (A) (A) (A)
                 (A) (A) (A) (A) (A) (A) (A) (A) (A) (A) (A) (A)
                 (A) (A) (A) (A) (A) (A) (A) (A) (A) (A) (A) (A)
                 (A) (A) (A) (A) (A) (A) (A) (A) (A) (A) (A) (A)
                 (A) (A) (A) (A) (A) (A) (A) (A) (A) (A) (A) (A)
                 (A) (A) (A) (A) (A) (A) (A) (A) (A) (A) (A) (A)
                 (A)
 The electronic state is 1-A.
 Alpha  occ. eigenvalues --  -19.12756 -10.22686 -10.21315 -10.17813 -10.17013
 Alpha  occ. eigenvalues --  -10.16907 -10.16900 -10.16827 -10.16820 -10.16660
 Alpha  occ. eigenvalues --  -10.16611 -10.16595 -10.16565 -10.16479 -10.16445
 Alpha  occ. eigenvalues --  -10.16361 -10.16042  -1.01579  -0.81964  -0.80740
 Alpha  occ. eigenvalues --   -0.78721  -0.76899  -0.75190  -0.72591  -0.70176
 Alpha  occ. eigenvalues --   -0.68332  -0.65741  -0.62082  -0.60726  -0.57891
 Alpha  occ. eigenvalues --   -0.57403  -0.56824  -0.56440  -0.55088  -0.48856
 Alpha  occ. eigenvalues --   -0.48764  -0.47516  -0.45976  -0.45151  -0.44486
 Alpha  occ. eigenvalues --   -0.43210  -0.43064  -0.42462  -0.41281  -0.40445
 Alpha  occ. eigenvalues --   -0.39867  -0.39254  -0.38733  -0.38151  -0.38012
 Alpha  occ. eigenvalues --   -0.37161  -0.36913  -0.35848  -0.35005  -0.34496
 Alpha  occ. eigenvalues --   -0.34229  -0.34044  -0.33610  -0.33169  -0.32609
 Alpha  occ. eigenvalues --   -0.32418  -0.31988  -0.31886  -0.31512  -0.31017
 Alpha  occ. eigenvalues --   -0.29875  -0.28992  -0.27088  -0.24476
 Alpha virt. eigenvalues --    0.08219   0.08862   0.09346   0.10113   0.10553
 Alpha virt. eigenvalues --    0.10921   0.11821   0.12043   0.12438   0.12884
 Alpha virt. eigenvalues --    0.13657   0.14176   0.14757   0.15381   0.15506
 Alpha virt. eigenvalues --    0.16211   0.16555   0.17011   0.17333   0.17909
 Alpha virt. eigenvalues --    0.18173   0.18308   0.18784   0.19500   0.19834
 Alpha virt. eigenvalues --    0.19948   0.20104   0.20385   0.20736   0.21088
 Alpha virt. eigenvalues --    0.21416   0.21538   0.21909   0.22313   0.22482
 Alpha virt. eigenvalues --    0.23290   0.23453   0.23982   0.24583   0.25013
 Alpha virt. eigenvalues --    0.25626   0.26103   0.27006   0.28086   0.28825
 Alpha virt. eigenvalues --    0.29382   0.29884   0.30370   0.35464   0.36130
 Alpha virt. eigenvalues --    0.40591   0.43046   0.45944   0.47029   0.47104
 Alpha virt. eigenvalues --    0.47845   0.48584   0.48903   0.49810   0.51026
 Alpha virt. eigenvalues --    0.51777   0.51948   0.52388   0.53327   0.53571
 Alpha virt. eigenvalues --    0.53975   0.54121   0.55031   0.55440   0.56507
 Alpha virt. eigenvalues --    0.57252   0.57821   0.58972   0.59100   0.59571
 Alpha virt. eigenvalues --    0.60277   0.60444   0.61436   0.62093   0.63208
 Alpha virt. eigenvalues --    0.63604   0.64418   0.65092   0.65772   0.67192
 Alpha virt. eigenvalues --    0.67770   0.68300   0.68597   0.69410   0.69728
 Alpha virt. eigenvalues --    0.70164   0.70905   0.71712   0.72134   0.72539
 Alpha virt. eigenvalues --    0.72959   0.73545   0.73952   0.74297   0.74418
 Alpha virt. eigenvalues --    0.74901   0.75023   0.75608   0.76164   0.76284
 Alpha virt. eigenvalues --    0.76825   0.77368   0.77386   0.77970   0.78662
 Alpha virt. eigenvalues --    0.79355   0.79747   0.80276   0.80500   0.80859
 Alpha virt. eigenvalues --    0.81053   0.81717   0.81904   0.82805   0.82965
 Alpha virt. eigenvalues --    0.83190   0.84156   0.84856   0.85735   0.86231
 Alpha virt. eigenvalues --    0.87394   0.87447   0.87871   0.88648   0.88734
 Alpha virt. eigenvalues --    0.89242   0.89977   0.90940   0.91047   0.91929
 Alpha virt. eigenvalues --    0.92729   0.98036   1.00214   1.01093   1.03199
 Alpha virt. eigenvalues --    1.04924   1.06547   1.07386   1.08804   1.09870
 Alpha virt. eigenvalues --    1.10757   1.11763   1.12826   1.14490   1.16084
 Alpha virt. eigenvalues --    1.18646   1.19080   1.19292   1.20216   1.20967
 Alpha virt. eigenvalues --    1.21682   1.22227   1.23288   1.23654   1.24780
 Alpha virt. eigenvalues --    1.25304   1.25942   1.26793   1.27248   1.28349
 Alpha virt. eigenvalues --    1.30243   1.34358   1.34926   1.35411   1.36531
 Alpha virt. eigenvalues --    1.36936   1.37271   1.38313   1.39215   1.39662
 Alpha virt. eigenvalues --    1.40314   1.41228   1.41785   1.43769   1.45438
 Alpha virt. eigenvalues --    1.46274   1.46334   1.48154   1.48861   1.50763
 Alpha virt. eigenvalues --    1.51934   1.53642   1.54026   1.54380   1.56979
 Alpha virt. eigenvalues --    1.57557   1.57572   1.58874   1.59310   1.59930
 Alpha virt. eigenvalues --    1.60887   1.61557   1.62572   1.63501   1.65540
 Alpha virt. eigenvalues --    1.65931   1.67095   1.68391   1.69524   1.69844
 Alpha virt. eigenvalues --    1.71616   1.72363   1.74127   1.75933   1.76662
 Alpha virt. eigenvalues --    1.76900   1.80395   1.81578   1.82928   1.84246
 Alpha virt. eigenvalues --    1.84564   1.85294   1.86007   1.86750   1.87624
 Alpha virt. eigenvalues --    1.88375   1.89355   1.89673   1.90356   1.90983
 Alpha virt. eigenvalues --    1.92057   1.92952   1.93414   1.93819   1.95112
 Alpha virt. eigenvalues --    1.95653   1.96647   1.96709   1.97497   1.98833
 Alpha virt. eigenvalues --    1.99301   2.00054   2.01569   2.05783   2.08382
 Alpha virt. eigenvalues --    2.13845   2.15199   2.15418   2.17087   2.18502
 Alpha virt. eigenvalues --    2.19128   2.20116   2.21123   2.21534   2.21778
 Alpha virt. eigenvalues --    2.23018   2.24081   2.25465   2.27139   2.28102
 Alpha virt. eigenvalues --    2.28881   2.29530   2.31525   2.32402   2.34018
 Alpha virt. eigenvalues --    2.35003   2.35546   2.37445   2.39078   2.39989
 Alpha virt. eigenvalues --    2.40621   2.41471   2.42523   2.43388   2.46671
 Alpha virt. eigenvalues --    2.47428   2.48964   2.50659   2.51772   2.54134
 Alpha virt. eigenvalues --    2.54973   2.59024   2.60273   2.61365   2.62659
 Alpha virt. eigenvalues --    2.65757   2.67353   2.69785   2.70606   2.71296
 Alpha virt. eigenvalues --    2.73661   2.73998   2.74578   2.74742   2.75293
 Alpha virt. eigenvalues --    2.75537   2.75857   2.76872   2.77753   2.77944
 Alpha virt. eigenvalues --    2.78056   2.79139   2.79424   2.80642   2.81155
 Alpha virt. eigenvalues --    2.82061   2.82338   2.82647   2.83284   2.83549
 Alpha virt. eigenvalues --    2.83787   2.83908   2.84564   2.85019   2.85841
 Alpha virt. eigenvalues --    2.86412   2.87538   2.88399   2.88828   2.89350
 Alpha virt. eigenvalues --    2.90245   2.90938   2.92178   2.92640   2.93187
 Alpha virt. eigenvalues --    2.93661   2.94245   2.94952   2.95705   2.96109
 Alpha virt. eigenvalues --    2.96485   2.96995   2.97298   2.97993   2.99021
 Alpha virt. eigenvalues --    2.99269   3.00395   3.00996   3.01119   3.02043
 Alpha virt. eigenvalues --    3.02978   3.03906   3.05755   3.05906   3.07961
 Alpha virt. eigenvalues --    3.09317   3.09921   3.10322   3.13215   3.15964
 Alpha virt. eigenvalues --    3.16241   3.17531   3.18326   3.19113   3.21193
 Alpha virt. eigenvalues --    3.22119   3.23570   3.24083   3.24998   3.26646
 Alpha virt. eigenvalues --    3.27974   3.28249   3.29862   3.31057   3.32284
 Alpha virt. eigenvalues --    3.35407   3.35772   3.38041   3.38487   3.39595
 Alpha virt. eigenvalues --    3.40530   3.41079   3.41696   3.42884   3.43788
 Alpha virt. eigenvalues --    3.45963   3.47437   3.48514   3.50835   3.51434
 Alpha virt. eigenvalues --    3.52983   3.53556   3.54369   3.55565   3.55707
 Alpha virt. eigenvalues --    3.56402   3.57918   3.58166   3.59229   3.59895
 Alpha virt. eigenvalues --    3.59984   3.60924   3.61699   3.62581   3.62656
 Alpha virt. eigenvalues --    3.63219   3.63847   3.65079   3.67228   3.67536
 Alpha virt. eigenvalues --    3.68900   3.71106   3.71380   3.72700   3.73116
 Alpha virt. eigenvalues --    3.74513   3.75406   3.76028   3.78076   3.78482
 Alpha virt. eigenvalues --    3.79958   3.80184   3.80643   3.81858   3.82264
 Alpha virt. eigenvalues --    3.83111   3.83636   3.84479   3.87878   3.88196
 Alpha virt. eigenvalues --    3.89248   3.91055   3.92087   3.94225   3.95771
 Alpha virt. eigenvalues --    3.99366   3.99960   4.01681   4.03899   4.05015
 Alpha virt. eigenvalues --    4.06602   4.08785   4.14217   4.18096   4.21646
 Alpha virt. eigenvalues --    4.23828   4.26940   4.30106   4.32876   4.35415
 Alpha virt. eigenvalues --    4.35928   4.38874   4.39560   4.40665   4.41920
 Alpha virt. eigenvalues --    4.42638   4.43666   4.44275   4.44540   4.45136
 Alpha virt. eigenvalues --    4.45571   4.45961   4.47414   4.48716   4.50085
 Alpha virt. eigenvalues --    4.51293   4.51751   4.52398   4.52922   4.53469
 Alpha virt. eigenvalues --    4.53828   4.55222   4.55711   4.56762   4.58287
 Alpha virt. eigenvalues --    4.58537   4.58638   4.59441   4.60391   4.60702
 Alpha virt. eigenvalues --    4.61607   4.61932   4.63155   4.63228   4.63981
 Alpha virt. eigenvalues --    4.64194   4.64642   4.65401   4.66108   4.66470
 Alpha virt. eigenvalues --    4.67318   4.67768   4.68083   4.68554   4.69571
 Alpha virt. eigenvalues --    4.69923   4.70470   4.70704   4.71528   4.71596
 Alpha virt. eigenvalues --    4.72198   4.73231   4.74857   4.75303   4.75983
 Alpha virt. eigenvalues --    4.77456   4.77585   4.78485   4.79040   4.79494
 Alpha virt. eigenvalues --    4.80534   4.81091   4.81535   4.82496   4.82659
 Alpha virt. eigenvalues --    4.83573   4.84834   4.85078   4.85912   4.87637
 Alpha virt. eigenvalues --    4.88156   4.88612   4.88748   4.90709   4.90838
 Alpha virt. eigenvalues --    4.92901   4.93560   4.94604   4.95066   4.96228
 Alpha virt. eigenvalues --    4.96710   4.96979   4.98412   4.99291   5.00959
 Alpha virt. eigenvalues --    5.02735   5.03540   5.05506   5.07399   5.08450
 Alpha virt. eigenvalues --    5.10517   5.18673   5.22379   5.25173   5.27014
 Alpha virt. eigenvalues --    5.28552   5.30861   5.31457   5.35609   5.37348
 Alpha virt. eigenvalues --    5.39119   5.43204   5.44398   5.45712   5.47739
 Alpha virt. eigenvalues --    5.48842   5.50259   5.52538   5.54624   5.56048
 Alpha virt. eigenvalues --    5.60935   5.61788   5.66068   5.67488   5.71360
 Alpha virt. eigenvalues --    5.74151   5.90534   5.99746   6.04140   6.10111
 Alpha virt. eigenvalues --    6.11830   6.24550   6.29374   6.56908   7.16144
 Alpha virt. eigenvalues --   11.14134  11.22216  11.29995  11.43293  11.66419
 Alpha virt. eigenvalues --   11.74095  11.82447  11.91362  12.03652  12.13245
 Alpha virt. eigenvalues --   12.24163  12.28113  12.37534  12.57388  12.63865
 Alpha virt. eigenvalues --   12.77591  13.59812
          Condensed to atoms (all electrons):
 Mulliken charges:
               1
     1  C   -0.374853
     2  C   -0.162105
     3  C   -0.144704
     4  C   -0.179998
     5  C   -0.169293
     6  C   -0.167762
     7  C   -0.198073
     8  C   -0.155060
     9  C   -0.197037
    10  C   -0.027134
    11  C   -0.157176
    12  C   -0.387556
    13  C   -0.057342
    14  O   -0.277127
    15  C    0.164434
    16  C   -0.390777
    17  C   -0.391840
    18  H    0.103265
    19  H    0.109882
    20  H    0.109918
    21  H    0.090276
    22  H    0.090408
    23  H    0.088025
    24  H    0.087862
    25  H    0.088032
    26  H    0.088321
    27  H    0.087705
    28  H    0.087534
    29  H    0.087985
    30  H    0.089290
    31  H    0.084456
    32  H    0.087787
    33  H    0.101287
    34  H    0.084570
    35  H    0.085728
    36  H    0.087461
    37  H    0.075162
    38  H    0.116061
    39  H    0.083386
    40  H    0.111789
    41  H    0.101015
    42  H    0.121651
    43  H    0.084340
    44  H    0.079287
    45  H    0.063946
    46  H    0.120872
    47  H    0.116243
    48  H    0.110638
    49  H    0.121506
    50  H    0.111348
    51  H    0.116364
 Sum of Mulliken charges =  -0.00000
 Mulliken charges with hydrogens summed into heavy atoms:
               1
     1  C   -0.051789
     2  C    0.018580
     3  C    0.031183
     4  C   -0.003644
     5  C    0.005946
     6  C    0.009513
     7  C   -0.025830
     8  C    0.030797
     9  C   -0.023848
    10  C    0.048029
    11  C    0.042271
    12  C   -0.053101
    13  C    0.106286
    14  O   -0.277127
    15  C    0.228380
    16  C   -0.043023
    17  C   -0.042621
 Electronic spatial extent (au):  <R**2>=          13032.7171
 Charge=             -0.0000 electrons
 Dipole moment (field-independent basis, Debye):
    X=              0.0850    Y=             -0.7312    Z=              0.5107  Tot=              0.8959
 Quadrupole moment (field-independent basis, Debye-Ang):
   XX=           -113.7941   YY=           -112.7118   ZZ=           -110.8007
   XY=             -4.6697   XZ=              2.8514   YZ=              1.0706
 Traceless Quadrupole moment (field-independent basis, Debye-Ang):
   XX=             -1.3586   YY=             -0.2763   ZZ=              1.6348
   XY=             -4.6697   XZ=              2.8514   YZ=              1.0706
 Octapole moment (field-independent basis, Debye-Ang**2):
  XXX=            102.1954  YYY=              0.6521  ZZZ=             -1.7336  XYY=              9.6480
  XXY=            -16.7492  XXZ=             11.0602  XZZ=              6.2538  YZZ=              0.2620
  YYZ=             -0.1251  XYZ=             -3.7050
 Hexadecapole moment (field-independent basis, Debye-Ang**3):
 XXXX=         -16704.8697 YYYY=           -998.9339 ZZZZ=           -267.3959 XXXY=           -210.9438
 XXXZ=            115.9377 YYYX=             14.9738 YYYZ=              8.3589 ZZZX=            -12.0839
 ZZZY=             -0.9385 XXYY=          -2923.3017 XXZZ=          -2778.3771 YYZZ=           -214.6149
 XXYZ=             16.5368 YYXZ=              4.6153 ZZXY=              1.3952
 N-N= 1.204410819838D+03 E-N=-4.042977822061D+03  KE= 6.996944299530D+02
 PrsmSu:  requested number of processors reduced to:  12 ShMem   1 Linda.
 Calling FoFJK, ICntrl=      2127 FMM=F ISym2X=0 I1Cent= 0 IOpClX= 0 NMat=1 NMatS=1 NMatT=0.
 ***** Axes restored to original set *****
 -------------------------------------------------------------------
 Center     Atomic                   Forces (Hartrees/Bohr)
 Number     Number              X              Y              Z
 -------------------------------------------------------------------
      1        6          -0.004984179    0.005238347    0.005248993
      2        6          -0.007730098   -0.003085915   -0.002745807
      3        6           0.005935765    0.008931722    0.008612762
      4        6          -0.009507738   -0.007938220   -0.007067355
      5        6           0.006397373    0.009521218    0.006948323
      6        6          -0.007078234   -0.009856495   -0.007537551
      7        6           0.007276192    0.010461554    0.000847193
      8        6          -0.003553873   -0.012608041    0.002715336
      9        6           0.009927717    0.005461433   -0.003886579
     10        6           0.003260471   -0.013856393   -0.000830024
     11        6           0.003843217    0.002317200   -0.002844172
     12        6          -0.001191697   -0.001903570    0.009473578
     13        6           0.010542388    0.011671640    0.000908639
     14        8          -0.003219444   -0.006500652   -0.001503967
     15        6           0.006873608    0.009803559   -0.001674393
     16        6          -0.008559033   -0.000585764   -0.003283069
     17        6           0.003101679    0.001715128    0.007890607
     18        1          -0.004525351    0.000205288    0.000235052
     19        1          -0.001581638    0.000232120    0.000011889
     20        1          -0.001524026   -0.000028872    0.000290069
     21        1           0.001508259    0.000761283    0.000484370
     22        1           0.001599001    0.000457044    0.000695534
     23        1          -0.000973751   -0.000408471    0.000005590
     24        1          -0.001120291   -0.000263155   -0.000256935
     25        1           0.000167497    0.000607517    0.000021255
     26        1           0.000240341    0.000585805    0.000370498
     27        1          -0.001954450   -0.000490235    0.000116762
     28        1          -0.001436940   -0.000621051   -0.000819772
     29        1           0.000587050    0.000248673   -0.002521828
     30        1          -0.000211220    0.000781330   -0.000468254
     31        1          -0.002791527   -0.000037574    0.000556579
     32        1          -0.001044455   -0.001336671   -0.001347551
     33        1           0.006336283    0.003664391    0.002558799
     34        1           0.000172662    0.002096844   -0.000615826
     35        1           0.002168055   -0.002503671   -0.000285169
     36        1          -0.000436093   -0.001686523    0.001004863
     37        1          -0.000550927    0.000323560   -0.000968564
     38        1          -0.002006716   -0.003355939   -0.005840975
     39        1          -0.000122872   -0.002532044   -0.001032021
     40        1          -0.000814435    0.000244209    0.002172639
     41        1           0.005278463    0.001327441   -0.000949971
     42        1          -0.000767087    0.004094659   -0.001223810
     43        1          -0.003599978   -0.001935967   -0.001550990
     44        1          -0.002317193   -0.003274813    0.000604849
     45        1          -0.003152547   -0.002707643    0.000010954
     46        1           0.002515202   -0.000977785    0.000349628
     47        1           0.000513765   -0.001287270   -0.001430419
     48        1           0.001569339   -0.000072679   -0.000021047
     49        1          -0.001502829   -0.000331925   -0.001641607
     50        1          -0.001108725    0.000341210    0.000507697
     51        1          -0.000446982   -0.000905840   -0.000294805
 -------------------------------------------------------------------
 Cartesian Forces:  Max     0.013856393 RMS     0.004188353

 GradGradGradGradGradGradGradGradGradGradGradGradGradGradGradGradGradGrad
 Berny optimization.
 FormGI is forming the generalized inverse of G from B-inverse, IUseBI=4.
 Internal  Forces:  Max     0.028851587 RMS     0.005487023
 Search for a local minimum.
 Step number   1 out of a maximum of  289
 All quantities printed in internal units (Hartrees-Bohrs-Radians)
 Mixed Optimization -- RFO/linear search
 Second derivative matrix not updated -- first step.
 ITU=  0
     Eigenvalues ---    0.00230   0.00230   0.00262   0.00409   0.00426
     Eigenvalues ---    0.00440   0.00447   0.00509   0.00521   0.00534
     Eigenvalues ---    0.00552   0.00646   0.00652   0.00655   0.01251
     Eigenvalues ---    0.01350   0.03094   0.03496   0.03541   0.03571
     Eigenvalues ---    0.03826   0.03910   0.03937   0.03943   0.04017
     Eigenvalues ---    0.04228   0.04333   0.04637   0.04739   0.04879
     Eigenvalues ---    0.04916   0.04971   0.04990   0.05025   0.05028
     Eigenvalues ---    0.05043   0.05067   0.05139   0.05140   0.05165
     Eigenvalues ---    0.05253   0.05469   0.05532   0.05580   0.05637
     Eigenvalues ---    0.05663   0.05709   0.05747   0.05894   0.07058
     Eigenvalues ---    0.07494   0.07806   0.07963   0.08004   0.08071
     Eigenvalues ---    0.08111   0.08394   0.08704   0.09062   0.11427
     Eigenvalues ---    0.11525   0.11778   0.11898   0.11933   0.11975
     Eigenvalues ---    0.12017   0.12237   0.12507   0.12731   0.13861
     Eigenvalues ---    0.15710   0.16000   0.16000   0.16000   0.16000
     Eigenvalues ---    0.16000   0.16000   0.16000   0.16000   0.16000
     Eigenvalues ---    0.16000   0.16000   0.16000   0.16155   0.17282
     Eigenvalues ---    0.19732   0.21819   0.21837   0.21840   0.21882
     Eigenvalues ---    0.21884   0.21891   0.21904   0.22008   0.22017
     Eigenvalues ---    0.22083   0.25000   0.27624   0.28160   0.28688
     Eigenvalues ---    0.29702   0.29826   0.29922   0.29973   0.30423
     Eigenvalues ---    0.30506   0.30605   0.30741   0.31442   0.31487
     Eigenvalues ---    0.31515   0.33550   0.33573   0.33912   0.33922
     Eigenvalues ---    0.33952   0.33971   0.34003   0.34010   0.34023
     Eigenvalues ---    0.34048   0.34051   0.34070   0.34092   0.34104
     Eigenvalues ---    0.34112   0.34122   0.34165   0.34181   0.34191
     Eigenvalues ---    0.34193   0.34211   0.34245   0.34248   0.34257
     Eigenvalues ---    0.34264   0.34313   0.34332   0.34343   0.34467
     Eigenvalues ---    0.34484   0.34487   0.34502   0.34630   0.35630
     Eigenvalues ---    0.40516   0.41592
 RFO step:  Lambda=-3.72813566D-02 EMin= 2.30000000D-03
 Linear search not attempted -- first point.
 Maximum step size (   0.300) exceeded in Quadratic search.
    -- Step size scaled by   0.870
 Iteration  1 RMS(Cart)=  0.24659911 RMS(Int)=  0.00744939
 Iteration  2 RMS(Cart)=  0.03507078 RMS(Int)=  0.00035920
 Iteration  3 RMS(Cart)=  0.00062791 RMS(Int)=  0.00030629
 Iteration  4 RMS(Cart)=  0.00000048 RMS(Int)=  0.00030629
 Variable       Old X    -DE/DX   Delta X   Delta X   Delta X     New X
                                 (Linear)    (Quad)   (Total)
    R1        2.86510   0.01264   0.00000   0.03191   0.03191   2.89701
    R2        2.06492   0.00185   0.00000   0.00420   0.00420   2.06912
    R3        2.06887   0.00036   0.00000   0.00081   0.00081   2.06969
    R4        2.06913   0.00027   0.00000   0.00062   0.00062   2.06976
    R5        2.87127   0.01122   0.00000   0.02859   0.02859   2.89987
    R6        2.07141   0.00078   0.00000   0.00179   0.00179   2.07320
    R7        2.07125   0.00080   0.00000   0.00185   0.00185   2.07310
    R8        2.86965   0.01365   0.00000   0.03469   0.03469   2.90433
    R9        2.07412   0.00024   0.00000   0.00054   0.00054   2.07466
   R10        2.07314   0.00056   0.00000   0.00130   0.00130   2.07443
   R11        2.86772   0.01452   0.00000   0.03679   0.03679   2.90451
   R12        2.07462  -0.00007   0.00000  -0.00016  -0.00016   2.07446
   R13        2.07249   0.00054   0.00000   0.00123   0.00123   2.07372
   R14        2.85040   0.02018   0.00000   0.04982   0.04982   2.90023
   R15        2.07292   0.00051   0.00000   0.00118   0.00118   2.07410
   R16        2.07155   0.00085   0.00000   0.00195   0.00195   2.07350
   R17        2.88017   0.01205   0.00000   0.03112   0.03112   2.91129
   R18        2.08096  -0.00208   0.00000  -0.00487  -0.00487   2.07609
   R19        2.07176   0.00073   0.00000   0.00168   0.00168   2.07344
   R20        2.85092   0.02276   0.00000   0.05622   0.05622   2.90714
   R21        2.07378   0.00048   0.00000   0.00110   0.00110   2.07489
   R22        2.06976   0.00130   0.00000   0.00297   0.00297   2.07273
   R23        2.85176   0.01692   0.00000   0.04186   0.04186   2.89362
   R24        2.04664   0.00300   0.00000   0.00662   0.00662   2.05326
   R25        2.06549   0.00209   0.00000   0.00476   0.00476   2.07025
   R26        2.91790   0.00799   0.00000   0.02179   0.02179   2.93969
   R27        2.08056  -0.00080   0.00000  -0.00186  -0.00186   2.07870
   R28        2.07025   0.00191   0.00000   0.00439   0.00439   2.07464
   R29        2.92967   0.00132   0.00000   0.00366   0.00366   2.93333
   R30        2.90659  -0.00203   0.00000  -0.00545  -0.00545   2.90114
   R31        2.07480   0.00033   0.00000   0.00077   0.00077   2.07556
   R32        2.88311   0.00918   0.00000   0.02381   0.02381   2.90692
   R33        2.07212  -0.00117   0.00000  -0.00268  -0.00268   2.06944
   R34        2.07006   0.00206   0.00000   0.00472   0.00472   2.07478
   R35        2.06805  -0.00048   0.00000  -0.00110  -0.00110   2.06694
   R36        2.06517   0.00251   0.00000   0.00571   0.00571   2.07088
   R37        2.06280  -0.00038   0.00000  -0.00087  -0.00087   2.06193
   R38        2.69445  -0.00334   0.00000  -0.00640  -0.00640   2.68805
   R39        2.06773   0.00225   0.00000   0.00514   0.00514   2.07287
   R40        2.07244   0.00389   0.00000   0.00895   0.00895   2.08139
   R41        2.70859  -0.00372   0.00000  -0.00731  -0.00731   2.70127
   R42        2.88561   0.00461   0.00000   0.01200   0.01200   2.89761
   R43        2.88119   0.00036   0.00000   0.00094   0.00094   2.88214
   R44        2.07325   0.00349   0.00000   0.00806   0.00806   2.08131
   R45        2.07008  -0.00034   0.00000  -0.00079  -0.00079   2.06929
   R46        2.06754  -0.00029   0.00000  -0.00067  -0.00067   2.06687
   R47        2.06521   0.00069   0.00000   0.00156   0.00156   2.06677
   R48        2.07053  -0.00050   0.00000  -0.00114  -0.00114   2.06939
   R49        2.06898  -0.00099   0.00000  -0.00226  -0.00226   2.06673
   R50        2.06919  -0.00021   0.00000  -0.00047  -0.00047   2.06872
    A1        1.92430   0.00544   0.00000   0.02517   0.02507   1.94937
    A2        1.93229   0.00089   0.00000   0.00334   0.00329   1.93559
    A3        1.93218   0.00085   0.00000   0.00317   0.00313   1.93530
    A4        1.89296  -0.00301   0.00000  -0.01217  -0.01226   1.88070
    A5        1.89257  -0.00297   0.00000  -0.01197  -0.01206   1.88050
    A6        1.88838  -0.00149   0.00000  -0.00878  -0.00877   1.87961
    A7        1.92379   0.01255   0.00000   0.04662   0.04657   1.97036
    A8        1.91529  -0.00316   0.00000  -0.00686  -0.00686   1.90843
    A9        1.91444  -0.00304   0.00000  -0.00617  -0.00616   1.90828
   A10        1.91771  -0.00393   0.00000  -0.01294  -0.01312   1.90459
   A11        1.91771  -0.00403   0.00000  -0.01350  -0.01370   1.90401
   A12        1.87427   0.00124   0.00000  -0.00881  -0.00905   1.86522
   A13        1.93511   0.01383   0.00000   0.05061   0.05059   1.98570
   A14        1.91800  -0.00425   0.00000  -0.01365  -0.01383   1.90416
   A15        1.92077  -0.00448   0.00000  -0.01540  -0.01555   1.90521
   A16        1.90913  -0.00367   0.00000  -0.00860  -0.00862   1.90051
   A17        1.91131  -0.00368   0.00000  -0.00918  -0.00914   1.90217
   A18        1.86830   0.00175   0.00000  -0.00593  -0.00621   1.86209
   A19        1.90091   0.02013   0.00000   0.07340   0.07340   1.97431
   A20        1.92547  -0.00606   0.00000  -0.01889  -0.01902   1.90646
   A21        1.92424  -0.00591   0.00000  -0.01750  -0.01769   1.90654
   A22        1.92206  -0.00591   0.00000  -0.01748  -0.01754   1.90452
   A23        1.92041  -0.00579   0.00000  -0.01618  -0.01631   1.90411
   A24        1.87078   0.00297   0.00000  -0.00549  -0.00606   1.86472
   A25        1.92774   0.01596   0.00000   0.05886   0.05880   1.98655
   A26        1.92074  -0.00527   0.00000  -0.01767  -0.01806   1.90268
   A27        1.91965  -0.00482   0.00000  -0.01645  -0.01663   1.90303
   A28        1.90700  -0.00355   0.00000  -0.00531  -0.00531   1.90169
   A29        1.91211  -0.00454   0.00000  -0.01224  -0.01218   1.89992
   A30        1.87582   0.00176   0.00000  -0.00921  -0.00959   1.86624
   A31        1.91457   0.01909   0.00000   0.06893   0.06898   1.98355
   A32        1.90866  -0.00421   0.00000  -0.00715  -0.00711   1.90156
   A33        1.93337  -0.00657   0.00000  -0.02214  -0.02211   1.91126
   A34        1.92287  -0.00670   0.00000  -0.02299  -0.02341   1.89946
   A35        1.92300  -0.00545   0.00000  -0.01731  -0.01730   1.90570
   A36        1.86077   0.00311   0.00000  -0.00216  -0.00266   1.85811
   A37        1.86706   0.02570   0.00000   0.09490   0.09481   1.96187
   A38        1.94165  -0.00993   0.00000  -0.03796  -0.03844   1.90322
   A39        1.91290  -0.00604   0.00000  -0.01372  -0.01433   1.89858
   A40        1.94065  -0.00605   0.00000  -0.01336  -0.01289   1.92776
   A41        1.91816  -0.00742   0.00000  -0.01912  -0.01963   1.89853
   A42        1.88361   0.00342   0.00000  -0.01119  -0.01211   1.87149
   A43        1.99698  -0.00148   0.00000  -0.00344  -0.00402   1.99296
   A44        1.79686   0.00573   0.00000   0.04729   0.04710   1.84396
   A45        1.94430  -0.00232   0.00000  -0.02441  -0.02466   1.91964
   A46        1.89396   0.00051   0.00000   0.01559   0.01510   1.90906
   A47        1.93738  -0.00003   0.00000  -0.01519  -0.01563   1.92175
   A48        1.88545  -0.00199   0.00000  -0.01470  -0.01425   1.87120
   A49        1.96714   0.02885   0.00000   0.10413   0.10397   2.07111
   A50        1.88654  -0.00797   0.00000  -0.02799  -0.02667   1.85987
   A51        1.92216  -0.00769   0.00000  -0.01123  -0.01241   1.90976
   A52        1.91139  -0.01102   0.00000  -0.04933  -0.04894   1.86246
   A53        1.91537  -0.00786   0.00000  -0.01637  -0.01807   1.89730
   A54        1.85779   0.00427   0.00000  -0.00605  -0.00719   1.85061
   A55        2.01463   0.01279   0.00000   0.06722   0.06708   2.08171
   A56        1.85477  -0.00133   0.00000  -0.00557  -0.00484   1.84993
   A57        1.90657  -0.00369   0.00000  -0.00943  -0.01021   1.89636
   A58        1.91505  -0.00909   0.00000  -0.03991  -0.04005   1.87501
   A59        1.88464  -0.00046   0.00000   0.00205   0.00087   1.88551
   A60        1.88454   0.00120   0.00000  -0.01968  -0.02006   1.86448
   A61        2.04612   0.01475   0.00000   0.05428   0.05412   2.10024
   A62        1.88583  -0.00874   0.00000  -0.04821  -0.04841   1.83742
   A63        1.91139  -0.00482   0.00000  -0.01280  -0.01402   1.89737
   A64        1.84655  -0.00098   0.00000   0.00270   0.00363   1.85018
   A65        1.90280  -0.00254   0.00000   0.00811   0.00775   1.91056
   A66        1.86185   0.00142   0.00000  -0.00980  -0.01051   1.85134
   A67        1.95091   0.00195   0.00000   0.00392   0.00387   1.95478
   A68        1.92748  -0.00297   0.00000  -0.01220  -0.01224   1.91523
   A69        1.96096   0.00342   0.00000   0.01877   0.01875   1.97971
   A70        1.89576  -0.00130   0.00000  -0.01288  -0.01294   1.88282
   A71        1.91430  -0.00352   0.00000  -0.01704  -0.01706   1.89725
   A72        1.80838   0.00223   0.00000   0.01920   0.01918   1.82756
   A73        1.94382  -0.00821   0.00000  -0.02706  -0.02713   1.91669
   A74        1.87886   0.00327   0.00000   0.01682   0.01699   1.89586
   A75        1.92454   0.00017   0.00000  -0.00833  -0.00848   1.91606
   A76        1.90237   0.00427   0.00000   0.02566   0.02579   1.92817
   A77        1.91539   0.00270   0.00000   0.00311   0.00275   1.91814
   A78        1.89783  -0.00205   0.00000  -0.00926  -0.00925   1.88858
   A79        1.96504   0.01714   0.00000   0.05192   0.05192   2.01696
   A80        1.94130   0.00579   0.00000   0.02989   0.03012   1.97142
   A81        1.88205  -0.00774   0.00000  -0.03048  -0.03085   1.85120
   A82        1.90460   0.00002   0.00000  -0.00714  -0.00725   1.89735
   A83        1.91361   0.00445   0.00000   0.01943   0.01955   1.93315
   A84        1.92595  -0.00364   0.00000  -0.01342  -0.01338   1.91257
   A85        1.89525   0.00094   0.00000   0.00072   0.00061   1.89586
   A86        1.92742  -0.00184   0.00000  -0.00858  -0.00868   1.91875
   A87        1.94802   0.00267   0.00000   0.01531   0.01533   1.96335
   A88        1.94415  -0.00166   0.00000  -0.01043  -0.01049   1.93366
   A89        1.86481   0.00115   0.00000   0.01116   0.01114   1.87596
   A90        1.90768   0.00016   0.00000  -0.00596  -0.00613   1.90155
   A91        1.86901  -0.00034   0.00000  -0.00068  -0.00064   1.86837
   A92        1.93566  -0.00181   0.00000  -0.00767  -0.00770   1.92797
   A93        1.93795  -0.00101   0.00000  -0.00611  -0.00614   1.93181
   A94        1.93473   0.00016   0.00000   0.00204   0.00205   1.93679
   A95        1.89514   0.00084   0.00000   0.00113   0.00108   1.89623
   A96        1.86439   0.00168   0.00000   0.01063   0.01064   1.87503
   A97        1.89373   0.00030   0.00000   0.00074   0.00075   1.89448
    D1       -3.14121   0.00002   0.00000   0.00007   0.00006  -3.14115
    D2        1.02766  -0.00110   0.00000  -0.00931  -0.00934   1.01832
    D3       -1.02745   0.00107   0.00000   0.00914   0.00917  -1.01828
    D4        1.04719  -0.00034   0.00000  -0.00324  -0.00327   1.04391
    D5       -1.06713  -0.00146   0.00000  -0.01262  -0.01268  -1.07980
    D6       -3.12224   0.00071   0.00000   0.00583   0.00584  -3.11640
    D7       -1.04700   0.00039   0.00000   0.00351   0.00352  -1.04347
    D8        3.12187  -0.00073   0.00000  -0.00587  -0.00588   3.11599
    D9        1.06676   0.00145   0.00000   0.01258   0.01264   1.07940
   D10        3.13698   0.00008   0.00000   0.00094   0.00095   3.13793
   D11        1.02429  -0.00153   0.00000  -0.01222  -0.01215   1.01214
   D12       -1.02893   0.00157   0.00000   0.01247   0.01237  -1.01656
   D13       -1.03333   0.00167   0.00000   0.01403   0.01396  -1.01937
   D14        3.13716   0.00007   0.00000   0.00087   0.00087   3.13803
   D15        1.08394   0.00317   0.00000   0.02556   0.02538   1.10932
   D16        1.02517  -0.00160   0.00000  -0.01263  -0.01253   1.01264
   D17       -1.08752  -0.00321   0.00000  -0.02579  -0.02562  -1.11314
   D18       -3.14074  -0.00011   0.00000  -0.00110  -0.00111   3.14134
   D19       -3.12895  -0.00019   0.00000  -0.00246  -0.00248  -3.13143
   D20        1.04271  -0.00196   0.00000  -0.01594  -0.01584   1.02687
   D21       -1.02023   0.00178   0.00000   0.01330   0.01321  -1.00702
   D22       -1.01104   0.00099   0.00000   0.00741   0.00741  -1.00363
   D23       -3.12256  -0.00078   0.00000  -0.00607  -0.00595  -3.12851
   D24        1.09769   0.00296   0.00000   0.02317   0.02310   1.12079
   D25        1.03140  -0.00113   0.00000  -0.01000  -0.01003   1.02137
   D26       -1.08012  -0.00290   0.00000  -0.02347  -0.02338  -1.10351
   D27        3.14013   0.00084   0.00000   0.00577   0.00566  -3.13740
   D28        3.11369   0.00048   0.00000   0.00550   0.00549   3.11918
   D29        1.00664  -0.00197   0.00000  -0.01441  -0.01425   0.99239
   D30       -1.05678   0.00201   0.00000   0.01766   0.01755  -1.03923
   D31       -1.05588   0.00211   0.00000   0.01793   0.01784  -1.03804
   D32        3.12025  -0.00034   0.00000  -0.00198  -0.00190   3.11836
   D33        1.05683   0.00364   0.00000   0.03009   0.02990   1.08674
   D34        1.00262  -0.00136   0.00000  -0.00925  -0.00922   0.99339
   D35       -1.10443  -0.00381   0.00000  -0.02917  -0.02896  -1.13340
   D36        3.11533   0.00017   0.00000   0.00291   0.00284   3.11817
   D37       -3.10737  -0.00033   0.00000  -0.00337  -0.00327  -3.11063
   D38        1.06518  -0.00135   0.00000  -0.01358  -0.01372   1.05146
   D39       -0.98070   0.00128   0.00000   0.00647   0.00632  -0.97438
   D40       -0.99213   0.00095   0.00000   0.00859   0.00884  -0.98329
   D41       -3.10277  -0.00007   0.00000  -0.00162  -0.00162  -3.10439
   D42        1.13454   0.00256   0.00000   0.01843   0.01842   1.15296
   D43        1.05862  -0.00161   0.00000  -0.01271  -0.01256   1.04606
   D44       -1.05202  -0.00263   0.00000  -0.02293  -0.02302  -1.07503
   D45       -3.09790  -0.00000   0.00000  -0.00288  -0.00298  -3.10088
   D46       -3.10450  -0.00056   0.00000  -0.00756  -0.00781  -3.11231
   D47        1.05610  -0.00375   0.00000  -0.02962  -0.02907   1.02703
   D48       -1.02559   0.00212   0.00000   0.01691   0.01691  -1.00869
   D49       -1.00247   0.00215   0.00000   0.01296   0.01241  -0.99005
   D50       -3.12505  -0.00104   0.00000  -0.00910  -0.00885  -3.13390
   D51        1.07644   0.00483   0.00000   0.03742   0.03713   1.11357
   D52        1.04583  -0.00137   0.00000  -0.01402  -0.01427   1.03156
   D53       -1.07675  -0.00457   0.00000  -0.03608  -0.03553  -1.11228
   D54        3.12474   0.00130   0.00000   0.01045   0.01045   3.13519
   D55        3.01334   0.00354   0.00000   0.04390   0.04378   3.05711
   D56        0.96197   0.00004   0.00000  -0.00306  -0.00345   0.95851
   D57       -1.05467   0.00026   0.00000  -0.00093  -0.00089  -1.05556
   D58       -1.14664   0.00427   0.00000   0.05039   0.05055  -1.09609
   D59        3.08518   0.00077   0.00000   0.00343   0.00331   3.08849
   D60        1.06854   0.00100   0.00000   0.00556   0.00588   1.07442
   D61        0.93783  -0.00013   0.00000   0.01556   0.01563   0.95346
   D62       -1.11354  -0.00362   0.00000  -0.03141  -0.03160  -1.14514
   D63       -3.13017  -0.00340   0.00000  -0.02928  -0.02904   3.12398
   D64       -3.09618  -0.00638   0.00000  -0.07543  -0.07563   3.11138
   D65        1.07210  -0.00538   0.00000  -0.06036  -0.06031   1.01179
   D66       -0.95087  -0.00180   0.00000  -0.03120  -0.03099  -0.98186
   D67       -1.10112   0.00019   0.00000  -0.00870  -0.00888  -1.11000
   D68        3.06715   0.00119   0.00000   0.00637   0.00645   3.07360
   D69        1.04418   0.00477   0.00000   0.03553   0.03577   1.07995
   D70        0.96827  -0.00195   0.00000  -0.02599  -0.02628   0.94199
   D71       -1.14664  -0.00095   0.00000  -0.01092  -0.01095  -1.15760
   D72        3.11357   0.00263   0.00000   0.01824   0.01837   3.13194
   D73        1.12323   0.00614   0.00000   0.07135   0.07168   1.19492
   D74       -3.03283   0.00170   0.00000   0.05916   0.05973  -2.97310
   D75       -1.00379   0.00057   0.00000   0.02848   0.02898  -0.97481
   D76       -3.05925   0.00733   0.00000   0.07002   0.06925  -2.99001
   D77       -0.93213   0.00289   0.00000   0.05784   0.05730  -0.87484
   D78        1.09690   0.00176   0.00000   0.02715   0.02655   1.12345
   D79       -1.02586   0.00159   0.00000   0.02479   0.02483  -1.00103
   D80        1.10126  -0.00284   0.00000   0.01261   0.01288   1.11414
   D81        3.13030  -0.00398   0.00000  -0.01808  -0.01787   3.11242
   D82       -1.18068  -0.00356   0.00000  -0.05932  -0.06001  -1.24069
   D83        3.01985  -0.00531   0.00000  -0.06154  -0.06143   2.95842
   D84        0.99823   0.00039   0.00000  -0.01647  -0.01727   0.98096
   D85        3.00806  -0.00376   0.00000  -0.06816  -0.06812   2.93994
   D86        0.92541  -0.00551   0.00000  -0.07038  -0.06954   0.85587
   D87       -1.09621   0.00019   0.00000  -0.02532  -0.02538  -1.12159
   D88        0.95807   0.00008   0.00000  -0.02375  -0.02379   0.93428
   D89       -1.12458  -0.00167   0.00000  -0.02597  -0.02521  -1.14979
   D90        3.13699   0.00403   0.00000   0.01909   0.01895  -3.12725
   D91        3.03288  -0.00297   0.00000  -0.00898  -0.00911   3.02376
   D92        0.94842  -0.00544   0.00000  -0.03510  -0.03510   0.91332
   D93       -1.11947  -0.00501   0.00000  -0.02923  -0.02915  -1.14861
   D94       -1.06097   0.00628   0.00000   0.04539   0.04508  -1.01590
   D95        3.13775   0.00381   0.00000   0.01927   0.01909  -3.12634
   D96        1.06987   0.00424   0.00000   0.02514   0.02505   1.09492
   D97        0.98908   0.00141   0.00000   0.01455   0.01464   1.00372
   D98       -1.09538  -0.00107   0.00000  -0.01157  -0.01134  -1.10672
   D99        3.11992  -0.00063   0.00000  -0.00570  -0.00539   3.11453
   D100      -0.69517   0.00147   0.00000   0.01925   0.01937  -0.67580
   D101      -2.80788   0.00386   0.00000   0.04140   0.04150  -2.76639
   D102       1.46575   0.00090   0.00000   0.01395   0.01405   1.47980
   D103       1.40826  -0.00123   0.00000  -0.00658  -0.00637   1.40188
   D104      -0.70446   0.00116   0.00000   0.01557   0.01576  -0.68870
   D105      -2.71401  -0.00180   0.00000  -0.01189  -0.01169  -2.72570
[...]
 26,0.00000420,-0.00001146,0.00000432,0.00000036,0.00000320,-0.00000383
 ,-0.00000029,-0.00001243,0.00000194,-0.00000543,-0.00000280,-0.0001077
 2,-0.00008889,0.00004092,0.00002868,0.00003682,-0.00004677,-0.00022879
 ,0.00027542,-0.00075421,0.01325792,-0.01821702,-0.01740542,-0.00105097
 ,0.00054439,0.00156200,-0.08544273,0.18195281,-0.00000139,-0.00000241,
 -0.00000278,0.00000296,0.00000348,0.00000414,-0.00000459,-0.00000515,-
 0.00000620,0.00000859,0.00000586,0.00000707,-0.00000803,-0.00001073,-0
 .00001262,0.00002115,0.00001295,0.00001623,-0.00001933,-0.00003182,-0.
 00003437,0.00006374,0.00004038,0.00004233,-0.00005654,-0.00011039,-0.0
 0013953,0.00030091,0.00010436,0.00002225,0.00003181,0.00003736,0.00002
 467,0.00003299,0.00003057,0.00000791,-0.00322960,0.00002686,0.00004093
 ,0.00043488,0.00014580,-0.00962926,0.01478468,-0.02363093,-0.01304564,
 0.06572399,-0.10501194,-0.13870262,0.00066365,-0.00062131,0.00106796,0
 .00000286,-0.00000152,-0.00000138,0.00000038,0.00000099,0.00000038,0.0
 0000030,0.00000024,0.00000102,0.00000013,-0.00000028,-0.00000041,0.000
 00013,-0.00000043,-0.00000031,0.00000085,-0.00000027,0.00000071,0.0000
 0088,0.00000061,-0.00000012,-0.00000011,-0.00000035,-0.00000084,-0.000
 00018,-0.00000099,-0.00000045,0.00000152,-0.00000040,0.00000111,0.0000
 0145,0.00000091,-0.00000014,-0.00000041,-0.00000058,-0.00000176,-0.000
 00040,-0.00000225,-0.00000086,0.00000388,-0.00000108,0.00000371,0.0000
 0240,0.00000309,-0.00000045,-0.00000259,-0.00000169,-0.00000496,-0.000
 00099,-0.00000750,-0.00000152,0.00000397,0.00000123,0.00001201,0.00000
 728,0.00000755,-0.00000403,-0.00002941,0.00001784,0.00001706,0.0000480
 9,-0.00008884,0.00015792,0.00004782,-0.00002018,-0.00005934,-0.0000009
 1,0.00000454,0.00001403,-0.00001128,-0.00000583,-0.00003153,0.00000187
 ,-0.00002506,-0.00001780,0.00031688,-0.00004470,0.00055902,0.00031933,
 0.00009667,-0.00005394,0.00030506,0.00095033,0.00100048,-0.00455176,0.
 00594164,0.00509091,-0.00198334,0.00417206,0.00282440,-0.07237166,0.11
 718842,0.15055183,-0.00000018,-0.00000032,-0.00000006,0.00000004,-0.00
 000006,0.00000020,-0.00000048,-0.00000037,-0.00000004,0.00000008,-0.00
 000034,0.00000024,-0.00000057,-0.00000022,0.00000048,-0.00000025,-0.00
 000093,-0.00000010,-0.00000152,-0.00000143,0.00000229,-0.00000097,-0.0
 0000209,-0.00000151,0.00001404,-0.00001135,-0.00001119,0.00004018,0.00
 009588,-0.00005233,-0.00000631,0.00000912,-0.00000357,-0.00002026,-0.0
 0002103,0.00001359,-0.00017037,-0.00009419,0.00025124,0.00322129,0.000
 32902,-0.00096209,-0.01533464,-0.03359305,0.00760091,0.00166115,-0.000
 57162,0.00160714,-0.08255964,-0.08689464,0.02134070,0.00000013,-0.0000
 0004,-0.00000002,0.00000019,0.00000028,-0.00000004,-0.00000002,0.,0.,-
 0.00000001,-0.00000003,-0.00000008,0.00000012,0.00000031,0.00000002,-0
 .00000002,-0.00000012,-0.00000002,0.00000038,0.00000040,-0.00000014,-0
 .00000008,-0.00000008,-0.00000017,0.00000005,0.00000064,0.00000010,-0.
 00000013,-0.00000022,-0.00000017,0.00000070,0.00000052,-0.00000031,-0.
 00000012,-0.00000006,-0.00000006,0.00000005,0.00000159,0.00000035,-0.0
 0000004,-0.00000065,-0.00000027,0.00000199,0.00000180,-0.00000110,-0.0
 0000052,-0.00000046,0.00000099,-0.00000064,0.00000463,0.00000130,-0.00
 000277,-0.00000158,-0.00000103,0.00001025,0.00000467,-0.00000759,-0.00
 002769,0.00006718,0.00004907,-0.00001470,-0.00001958,0.00000766,0.0000
 1635,0.00000302,-0.00000872,0.00000816,0.00001969,0.00000521,0.0000047
 7,0.00000600,-0.00000075,0.00000709,0.00000536,-0.00000391,0.00008694,
 0.00000566,-0.00002692,0.00023484,0.00035153,-0.00010593,-0.00636360,0
 .00074532,-0.00116374,0.00009757,0.00071296,-0.00087277,0.00025625,0.0
 0044456,0.00016682,0.00000676,0.00008872,-0.00010494,0.09139076,0.0000
 0032,0.00000023,0.00000096,-0.00000103,-0.00000178,-0.00000132,0.00000
 096,0.00000114,0.00000203,-0.00000225,-0.00000241,-0.00000212,0.000002
 14,0.00000263,0.00000420,-0.00000539,-0.00000459,-0.00000411,0.0000040
 9,0.00000629,0.00000967,-0.00001414,-0.00001287,-0.00000850,0.00000486
 ,0.00002104,0.00003529,-0.00008689,-0.00003604,-0.00000894,0.00001048,
 -0.00000493,-0.00001648,-0.00001989,-0.00001880,0.00000663,0.00033734,
 0.00032619,-0.00002294,-0.00030737,0.00133609,0.00047327,-0.00023204,-
 0.00201762,-0.00011700,0.00037795,0.00045991,-0.00013942,-0.08881706,-
 0.25955972,0.05333537,-0.00000112,0.00000074,0.00000080,0.00000026,0.0
 0000021,-0.00000027,-0.00000016,-0.00000016,-0.00000053,-0.00000009,0.
 00000002,0.00000006,0.00000027,0.00000085,0.00000006,-0.00000030,-0.00
 000005,-0.00000023,0.00000020,0.00000044,-0.00000013,-0.00000013,-0.00
 000003,0.00000017,0.00000006,0.00000107,0.00000016,-0.00000065,0.00000
 003,-0.00000069,0.00000019,0.00000026,-0.00000017,-0.00000019,0.000000
 06,0.00000025,0.00000016,0.00000220,0.00000037,-0.00000089,-0.00000019
 ,-0.00000100,0.00000106,0.00000089,-0.00000056,-0.00000037,0.00000004,
 0.00000233,0.00000025,0.00000569,0.00000037,0.00000109,-0.00000133,-0.
 00000088,0.00000176,0.00000343,-0.00000139,-0.00000267,0.00000934,-0.0
 0000188,-0.00001442,-0.00000508,-0.00001800,0.00000686,0.00000385,0.00
 000436,0.00000395,0.00001548,-0.00000427,0.00000368,0.00000091,0.00000
 743,0.00000365,0.00001208,0.00000303,-0.00005368,0.00002077,-0.0000137
 6,0.00015451,-0.00012362,-0.00007540,-0.00000740,0.00135426,-0.0003059
 4,-0.00027279,0.00032916,-0.00054839,0.00007114,0.00027462,-0.00013313
 ,-0.00007019,0.00000040,0.00006037,0.09876821,0.28115785,0.00000047,0.
 00000049,0.00000051,-0.00000039,-0.00000027,-0.00000079,0.00000114,0.0
 0000094,0.00000105,-0.00000117,-0.00000034,-0.00000099,0.00000177,0.00
 000135,0.00000163,-0.00000171,-0.00000011,-0.00000211,0.00000413,0.000
 00151,0.00000243,-0.00000220,0.00000099,-0.00000197,0.00000966,-0.0000
 1527,0.00001111,0.00004381,0.00005050,-0.00002545,-0.00003208,0.000013
 62,0.00000910,0.00004017,0.00002827,-0.00002211,0.00012651,-0.00008385
 ,-0.00010072,0.00027189,0.00027026,0.00010241,-0.00191862,-0.00573918,
 0.00032766,0.00001497,-0.00125567,0.00055859,0.02142701,0.05381084,-0.
 06067252,-0.00000053,0.00000030,0.00000020,-0.00000026,-0.00000039,-0.
 00000004,-0.00000009,0.,-0.00000019,0.,0.00000012,0.,-0.00000013,-0.00
 000032,0.00000013,-0.00000028,0.00000018,-0.00000025,-0.00000049,-0.00
 000045,0.00000011,0.00000011,0.00000023,-0.00000018,0.00000005,-0.0000
 0051,0.00000025,-0.00000044,0.00000025,-0.00000038,-0.00000082,-0.0000
 0072,0.00000015,0.00000028,0.00000038,-0.00000035,0.00000010,-0.000001
 33,0.00000051,-0.00000163,0.00000073,-0.00000131,-0.00000219,-0.000001
 51,0.00000028,0.00000103,0.00000172,-0.00000218,0.00000075,-0.00000407
 ,0.00000150,-0.00000012,0.00000043,-0.00000280,-0.00000982,-0.00000449
 ,0.00000067,0.00000611,-0.00002477,0.00001805,0.00000828,0.00004289,-0
 .00000443,-0.00001977,-0.00000881,0.00000653,-0.00000612,-0.00003827,-
 0.00000127,-0.00000168,-0.00000061,0.00000506,-0.00001676,-0.00001406,
 0.00000502,-0.00005621,0.00000257,-0.00001046,-0.00004996,-0.00005092,
 -0.00002913,-0.00129934,-0.00011251,0.00063690,-0.00017475,0.00028157,
 0.00014342,0.00019804,0.00015143,-0.00001862,-0.00007363,-0.00008496,-
 0.00002819,-0.02234415,-0.05883886,0.06093927,0.00000120,0.00000223,0.
 00000258,-0.00000299,-0.00000329,-0.00000388,0.00000407,0.00000505,0.0
 0000622,-0.00000885,-0.00000578,-0.00000709,0.00000772,0.00001188,0.00
 001406,-0.00002587,-0.00001348,-0.00001778,0.00001868,0.00004007,0.000
 04751,-0.00009569,-0.00005738,-0.00004639,0.00004002,0.00019643,0.0002
 5304,-0.00063530,-0.00021360,-0.00011918,-0.00004188,0.00004765,-0.000
 06078,-0.00000974,-0.00004510,0.00001851,0.00096760,0.00176575,0.00031
 222,-0.00964839,0.00001651,0.00022200,-0.00813303,0.02315704,0.0195599
 7,0.00098804,0.00021945,0.00053144,-0.10076459,0.08038676,0.06514686,-
 0.00000261,0.00000134,0.00000124,-0.00000030,-0.00000083,-0.00000032,-
 0.00000025,-0.00000021,-0.00000089,-0.00000009,0.00000023,0.00000042,-
 0.00000006,0.00000048,0.00000027,-0.00000074,0.00000025,-0.00000072,-0
 .00000075,-0.00000055,0.00000009,0.00000002,0.00000029,0.00000090,0.00
 000015,0.00000106,0.00000036,-0.00000134,0.00000043,-0.00000134,-0.000
 00133,-0.00000102,0.00000013,0.00000016,0.00000035,0.00000207,0.000000
 40,0.00000249,0.00000062,-0.00000166,0.00000064,-0.00000369,-0.0000017
 7,-0.00000313,0.00000026,-0.00000172,0.00000269,0.00001580,0.00000138,
 0.00000985,-0.00000053,0.00002347,-0.00000506,-0.00000038,-0.00000266,
 -0.00001130,0.00000058,0.00003054,-0.00000373,-0.00002517,-0.00000428,
 -0.00000685,-0.00006025,-0.00000556,-0.00000165,0.00003044,-0.00000113
 ,0.00001395,-0.00000712,0.00001419,0.00001145,0.00003304,0.00000220,0.
 00001167,0.00000058,-0.00039964,0.00004517,-0.00006742,-0.00008039,-0.
 00017909,0.00006158,0.00099864,-0.00085154,0.00026877,-0.00001230,-0.0
 0004532,-0.00010442,0.00026627,-0.00043368,0.00008420,-0.00017023,-0.0
 0015771,-0.00093708,0.00565378,-0.00829707,-0.00816200,0.10863752,-0.0
 0000076,-0.00000126,-0.00000149,0.00000110,0.00000164,0.00000216,-0.00
 000241,-0.00000234,-0.00000303,0.00000328,0.00000251,0.00000317,-0.000
 00409,-0.00000399,-0.00000501,0.00000619,0.00000438,0.00000627,-0.0000
 0863,-0.00000769,-0.00000991,0.00000939,0.00000959,0.00001449,-0.00002
 530,-0.00001691,-0.00002971,0.00000668,-0.00001250,0.00004474,-0.00000
 255,-0.00000130,0.00000985,-0.00001467,-0.00001043,0.00001312,-0.00049
 120,0.00043507,0.00002259,0.00029055,0.00122983,-0.00008018,-0.0020817
 2,-0.00116474,0.00077042,-0.00006799,-0.00027523,-0.00033126,0.0824365
 1,-0.17226996,-0.10358407,0.00000151,-0.00000089,-0.00000081,0.0000002
 8,0.00000070,0.00000016,0.00000017,0.00000005,0.00000066,0.00000012,-0
 .00000023,-0.00000008,0.00000016,0.,-0.00000025,0.00000049,-0.00000021
 ,0.00000053,0.00000052,0.00000044,-0.00000009,0.00000004,-0.00000018,-
 0.00000016,-0.00000004,-0.00000024,-0.00000026,0.00000088,-0.00000035,
 0.00000067,0.00000100,0.00000066,-0.00000019,-0.00000007,-0.00000032,-
 0.00000048,-0.00000009,-0.00000015,-0.00000051,0.00000196,-0.00000080,
 0.00000170,0.00000209,0.00000159,-0.00000029,-0.00000092,-0.00000108,-
 0.00000085,-0.00000019,-0.00000011,-0.00000129,0.00000034,0.00000023,0
 .00000539,0.00000362,0.00000328,-0.00000045,-0.00001372,0.00000986,-0.
 00000783,0.00000830,-0.00002180,0.00002079,0.00001272,0.00000589,-0.00
 001035,0.00000467,0.00001897,0.00000521,-0.00000159,0.00000217,-0.0000
 1023,0.00001038,-0.00000163,-0.00000769,0.00007060,-0.00002403,0.00000
 474,0.00015075,-0.00000188,-0.00002431,0.00052729,0.00040052,0.0002171
 1,0.00008020,-0.00000613,-0.00008106,-0.00012996,0.00015105,0.00026445
 ,0.00002897,0.00048789,0.00039836,0.01367814,-0.01846061,-0.01689990,-
 0.09030624,0.18467891,-0.00000072,-0.00000137,-0.00000141,0.00000114,0
 .00000177,0.00000204,-0.00000241,-0.00000243,-0.00000276,0.00000290,0.
 00000244,0.00000308,-0.00000413,-0.00000367,-0.00000390,0.00000370,0.0
 0000466,0.00000456,-0.00000884,-0.00000443,-0.00000129,-0.00000711,0.0
 0001234,-0.00000009,-0.00001429,0.00000461,0.00003390,-0.00012065,-0.0
 0003372,-0.00002823,-0.00008463,0.00005742,0.00002445,0.00002208,-0.00
 001093,0.00001737,-0.00046617,-0.00000432,0.00079442,-0.00068777,0.000
 20568,0.00071943,-0.00239736,0.00452067,0.00109931,-0.00008415,0.00001
 940,-0.00020371,0.06757797,-0.10423449,-0.13225340,0.00000148,-0.00000
 086,-0.00000081,0.00000027,0.00000070,0.00000015,0.00000017,0.00000009
 ,0.00000064,0.00000007,-0.00000024,-0.00000013,0.00000014,-0.00000003,
 -0.00000022,0.00000042,-0.00000016,0.00000043,0.00000060,0.00000053,-0
 .00000008,-0.00000005,-0.00000027,-0.00000037,0.00000006,-0.00000008,-
 0.00000019,0.00000094,-0.00000030,0.00000060,0.00000113,0.00000068,-0.
 00000018,-0.00000025,-0.00000072,-0.00000014,-0.00000002,-0.00000022,-
 0.00000050,0.00000308,-0.00000046,0.00000129,0.00000242,0.00000175,-0.
 00000042,-0.00000330,-0.00000254,0.00000358,0.00000022,0.00000083,-0.0
 0000119,0.00000851,0.00000088,0.00000179,0.00000548,0.00000305,-0.0000
 0330,0.00000183,0.00000234,-0.00000240,-0.00000837,-0.00004475,0.00003
 520,0.00004059,-0.00000869,-0.00001706,-0.00000423,0.00002389,0.000000
 60,-0.00000657,0.00000298,0.00000250,0.00001200,-0.00001804,-0.0000182
 6,0.00022010,0.00001636,-0.00004707,-0.00000264,0.00003746,-0.00001475
 ,0.00043234,0.00012147,0.00008404,-0.00005321,0.00008149,0.00001747,0.
 00015571,0.00006715,0.00017803,-0.00059892,0.00019262,-0.00001555,-0.0
 0444369,0.00587785,0.00411541,-0.07366519,0.11497777,0.14115870,-0.000
 00066,-0.00000082,-0.00000133,0.00000117,0.00000146,0.00000146,-0.0000
 0209,-0.00000181,-0.00000293,0.00000321,0.00000244,0.00000229,-0.00000
 394,-0.00000339,-0.00000545,0.00000644,0.00000482,0.00000444,-0.000009
 68,-0.00000626,-0.00000879,0.00000982,0.00001378,0.00000276,-0.0000091
 5,-0.00003061,-0.00000405,0.00005911,0.00000575,0.00000915,-0.00022486
 ,0.00015469,0.00006585,0.00006509,-0.00001393,0.00002284,-0.00014758,-
 0.00017724,0.00004152,0.00313935,-0.00121441,0.00048278,-0.00691266,0.
 00738797,-0.03460204,-0.00688283,-0.00005270,0.00078178,-0.05518128,0.
 00907096,-0.04502048,0.00000118,-0.00000061,-0.00000056,0.00000012,0.0
 0000036,0.00000009,0.00000028,-0.00000006,0.00000068,0.00000012,-0.000
 00016,0.00000028,0.,-0.00000018,-0.00000020,0.00000070,-0.00000037,0.0
 0000080,0.00000030,0.00000021,-0.00000014,0.00000002,-0.00000014,0.000
 00065,-0.00000012,-0.00000040,-0.00000031,0.00000153,-0.00000079,0.000
 00153,0.00000060,0.00000043,-0.00000030,-0.00000030,-0.00000023,0.0000
 0177,-0.00000031,-0.00000067,-0.00000060,0.00000527,-0.00000233,0.0000
 0394,0.00000153,0.00000116,-0.00000098,-0.00000535,0.00000033,0.000009
 66,-0.00000029,-0.00000127,-0.00000113,0.00002548,-0.00000821,0.000010
 14,-0.00000190,0.00000049,-0.00000424,-0.00000127,-0.00001126,0.000010
 10,-0.00001405,-0.00001637,0.00011293,0.00003339,-0.00001584,-0.000010
 97,-0.00000732,0.00000335,0.00000323,-0.00000298,0.00000854,0.00000275
 ,0.00000125,-0.00003511,-0.00002738,0.00030936,-0.00006864,0.00006742,
 0.00000133,0.00001536,-0.00004240,0.00155061,-0.00021596,0.00046674,-0
 .00001528,0.00017014,0.00010640,-0.00053327,0.00049729,-0.00216595,0.0
 0011154,-0.00025491,0.00018016,0.00179162,-0.00154727,0.01202105,0.002
 39908,-0.00418673,0.01416931,0.06043766,0.00000067,0.00000085,0.000001
 03,-0.00000097,-0.00000122,-0.00000124,0.00000192,0.00000173,0.0000021
 1,-0.00000242,-0.00000159,-0.00000191,0.00000325,0.00000284,0.00000336
 ,-0.00000406,-0.00000340,-0.00000299,0.00000762,0.00000569,0.00000300,
 -0.00000672,-0.00000757,-0.00000097,0.00001389,0.00001537,-0.00000786,
 -0.00000640,-0.00002305,0.00003929,0.00011247,-0.00009184,-0.00001696,
 -0.00000115,0.00002239,-0.00002358,0.00015769,0.00005281,-0.00012285,-
 0.00008038,0.00002343,0.00019127,-0.00032662,-0.00122684,-0.00137649,0
 .00003528,0.00034894,-0.00016832,0.00910993,-0.05765439,0.05149717,-0.
 00000103,0.00000052,0.00000051,-0.00000021,-0.00000040,-0.00000011,-0.
 00000022,-0.00000004,-0.00000051,-0.00000004,0.00000020,-0.00000010,-0
 .00000003,0.,0.00000016,-0.00000049,0.00000023,-0.00000048,-0.00000057
 ,-0.00000045,0.00000011,0.00000015,0.00000037,-0.00000017,0.00000005,-
 0.00000024,0.00000029,-0.00000101,0.00000040,-0.00000087,-0.00000100,-
 0.00000068,0.00000018,0.00000051,0.00000083,-0.00000097,0.00000026,-0.
 00000051,0.00000062,-0.00000391,0.00000091,-0.00000221,-0.00000278,-0.
 00000201,0.00000060,0.00000512,0.00000215,-0.00000799,0.00000085,-0.00
 000301,0.00000193,-0.00001547,0.00000204,-0.00000701,-0.00000665,-0.00
 000479,0.00000358,0.00000560,-0.00001224,-0.00000272,0.00005950,0.0000
 9423,-0.00008908,-0.00005639,0.00000980,0.00001799,0.00000486,-0.00004
 553,0.00000357,0.00000605,-0.00000111,-0.00001065,-0.00002234,0.000007
 44,0.00001752,-0.00010797,-0.00002567,-0.00001227,-0.00005131,-0.00006
 506,0.00001320,0.00034725,0.00019525,-0.00058117,-0.00015873,0.0003596
 4,-0.00040801,-0.00002491,0.00059081,0.00003035,-0.00007993,0.00009771
 ,0.00037414,0.00586922,-0.00509833,0.02852059,-0.00530755,0.00484174,-
 0.02186614,-0.00947085,0.05759166,-0.00000002,0.00000046,-0.00000013,-
 0.00000047,-0.00000037,-0.00000120,-0.00000008,0.00000100,0.00000009,-
 0.00000071,-0.00000056,-0.00000195,0.00000023,0.00000209,0.00000076,-0
 .00000303,-0.00000135,-0.00000339,-0.00000054,0.00000680,0.00000632,-0
 .00001543,-0.00000402,-0.00001199,0.00001292,0.00002765,0.00003548,-0.
 00007338,-0.00002966,-0.00005164,-0.00004414,0.00004453,-0.00000373,0.
 00001240,-0.00002541,0.00001866,-0.00003557,0.00013520,0.00025103,0.00
 074077,0.00006545,0.00154097,0.00042280,0.00046117,-0.00645009,-0.0019
 5863,-0.00067092,0.00093189,-0.04827953,0.05160939,-0.29369098,-0.0000
 0045,0.00000042,0.00000035,-0.00000006,-0.00000018,-0.00000018,0.00000
 030,-0.00000031,0.00000045,0.00000020,-0.00000015,0.00000098,-0.000000
 05,0.00000010,-0.00000010,0.00000046,-0.00000035,0.00000076,-0.0000001
 4,-0.00000013,-0.00000016,0.00000002,-0.00000014,0.00000158,-0.0000001
 6,0.00000018,-0.00000023,0.00000084,-0.00000057,0.00000106,-0.00000026
 ,-0.00000019,-0.00000021,-0.00000026,-0.00000006,0.00000289,-0.0000003
 0,0.00000040,-0.00000031,0.00000367,-0.00000184,0.00000266,0.00000026,
 -0.00000005,-0.00000080,-0.00000325,-0.00000014,0.00001174,-0.00000046
 ,0.00000160,-0.00000153,0.00001686,-0.00000663,0.00000735,-0.00000220,
 -0.00000268,-0.00000233,0.00000059,0.00000018,0.00000376,0.00001964,-0
 .00001880,-0.00002048,0.00001475,-0.00000485,0.00000682,-0.00000595,0.
 00001506,-0.00000429,0.00000344,0.00000570,0.00001826,0.00000756,-0.00
 000797,-0.00001181,0.00015591,-0.00005483,0.00006298,-0.00001580,-0.00
 001717,-0.00001635,-0.00034988,-0.00045273,0.00058606,0.00017195,-0.00
 009363,0.00018688,-0.00004527,0.00020347,-0.00043613,0.00018979,0.0000
 7513,0.00032852,-0.00093092,0.00044130,-0.00596148,-0.00332414,0.00430
 740,-0.01568156,0.05331571,-0.05600897,0.31834479\\0.00000050,-0.00000
 049,-0.00000022,0.00000091,0.00000026,0.00000118,-0.00000077,-0.000000
 78,-0.00000118,0.00000148,0.00000081,0.00000203,-0.00000064,-0.0000005
 1,-0.00000134,-0.00000119,-0.00000081,0.00000237,-0.00000185,0.0000000
 4,0.00000091,0.00000067,-0.00000078,0.00000152,0.00000718,0.00000411,0
 .00000253,-0.00000700,-0.00000073,0.00000124,0.00000143,0.00000255,0.0
 0000598,-0.00000559,-0.00000053,0.00000210,0.00000442,0.00000080,-0.00
 001082,0.00000218,-0.00000042,0.00000067,-0.00000548,0.00000287,-0.000
 00101,-0.00000051,0.00000105,-0.00000017,0.00000030,0.00000010,0.00000
 251,0.00000003,0.00000002,0.00000062,0.00000036,-0.00000013,0.00000058
 ,0.00000017,0.00000008,0.00000062,-0.00000031,-0.00000061,-0.00000005,
 -0.00000048,-0.00000021,-0.00000041,0.00000034,0.00000058,0.00000109,0
 .00000046,0.,0.00000081,-0.00000058,-0.00000078,-0.00000010,-0.0000004
 0,-0.00000043,-0.00000061,0.00000032,0.00000103,0.00000119,0.00000041,
 -0.00000030,0.00000028,-0.00000013,-0.00000011,-0.00000045,-0.00000018
 ,-0.00000053,-0.00000183,0.00000173,0.00000273,0.00000204,0.00000079,0
 .00000002,-0.00000062,-0.00000042,0.00000292,-0.00000124,-0.00000025,-
 0.00000153,-0.00000273,-0.00000142,-0.00000173,0.00000139,-0.00000226,
 -0.00000157,0.00000094,0.00000233,0.00000158,-0.00000226,0.00000024,0.
 00000196,0.00000184,-0.00000020,-0.00000455,-0.00000066,0.00000168,-0.
 00000031,-0.00000126,0.00000158,0.00000029,-0.00000175,-0.00000055,-0.
 00000064,-0.00000266,0.00000108,-0.00000298,-0.00000122,0.00000223,-0.
 00000028,0.00000012,0.00000018,-0.00000268,0.00000003,-0.00000120,0.00
 000020,-0.00000175,0.00000071,0.00000084,0.00000077,-0.00000051,-0.000
 00106,-0.00000021,-0.00000103,0.00000066,0.00000016,-0.00000144,0.0000
 0066,-0.00000046,0.00000066,-0.00000067,-0.00000052\\\@


 ASKING DUMB QUESTIONS IS EASIER THAN CORECTING DUMB MISTAKES.
 Job cpu time:       0 days 17 hours 53 minutes  6.5 seconds.
 Elapsed time:       0 days  4 hours 28 minutes 18.6 seconds.
 File lengths (MBytes):  RWF=   1460 Int=      0 D2E=      0 Chk=     35 Scr=      1
 Normal termination of Gaussian 16 at Wed May 24 08:55:13 2023.
### All Done ###
