### Starting Gaussian ###
 Entering Gaussian System, Link 0=g16
 Initial command:
 /cluster/software/gaussian/gaussian-16-A.03/avx2/g16/l1.exe "/local/scratch/cz9n3/Gau-22399.inp" -scrdir="/local/scratch/cz9n3/"
 Entering Link 1 = /cluster/software/gaussian/gaussian-16-A.03/avx2/g16/l1.exe PID=     22400.
  
 Copyright (c) 1988,1990,1992,1993,1995,1998,2003,2009,2016,
            Gaussian, Inc.  All Rights Reserved.
  
 This is part of the Gaussian(R) 16 program.  It is based on
 the Gaussian(R) 09 system (copyright 2009, Gaussian, Inc.),
 the Gaussian(R) 03 system (copyright 2003, Gaussian, Inc.),
 the Gaussian(R) 98 system (copyright 1998, Gaussian, Inc.),
 the Gaussian(R) 94 system (copyright 1995, Gaussian, Inc.),
 the Gaussian 92(TM) system (copyright 1992, Gaussian, Inc.),
 the Gaussian 90(TM) system (copyright 1990, Gaussian, Inc.),
 the Gaussian 88(TM) system (copyright 1988, Gaussian, Inc.),
 the Gaussian 86(TM) system (copyright 1986, Carnegie Mellon
 University), and the Gaussian 82(TM) system (copyright 1983,
 Carnegie Mellon University). Gaussian is a federally registered
 trademark of Gaussian, Inc.
  
 This software contains proprietary and confidential information,
 including trade secrets, belonging to Gaussian, Inc.
  
 This software is provided under written license and may be
 used, copied, transmitted, or stored only in accord with that
 written license.
  
 The following legend is applicable only to US Government
 contracts under FAR:
  
                    RESTRICTED RIGHTS LEGEND
  
 Use, reproduction and disclosure by the US Government is
 subject to restrictions as set forth in subparagraphs (a)
 and (c) of the Commercial Computer Software - Restricted
 Rights clause in FAR 52.227-19.
  
 Gaussian, Inc.
 340 Quinnipiac St., Bldg. 40, Wallingford CT 06492
  
  
 ---------------------------------------------------------------
 Warning -- This program may not be used in any manner that
 competes with the business of Gaussian, Inc. or will provide
 assistance to any competitor of Gaussian, Inc.  The licensee
 of this program is prohibited from giving any competitor of
 Gaussian, Inc. access to this program.  By using this program,
 the user acknowledges that Gaussian, Inc. is engaged in the
 business of creating and licensing software in the field of
 computational chemistry and represents and warrants to the
 licensee that it is not a competitor of Gaussian, Inc. and that
 it will not use this program in any manner prohibited above.
 ---------------------------------------------------------------
  

 Cite this work as:
 Gaussian 16, Revision A.03,
 M. J. Frisch, G. W. Trucks, H. B. Schlegel, G. E. Scuseria, 
 M. A. Robb, J. R. Cheeseman, G. Scalmani, V. Barone, 
 G. A. Petersson, H. Nakatsuji, X. Li, M. Caricato, A. V. Marenich, 
 J. Bloino, B. G. Janesko, R. Gomperts, B. Mennucci, H. P. Hratchian, 
 J. V. Ortiz, A. F. Izmaylov, J. L. Sonnenberg, D. Williams-Young, 
 F. Ding, F. Lipparini, F. Egidi, J. Goings, B. Peng, A. Petrone, 
 T. Henderson, D. Ranasinghe, V. G. Zakrzewski, J. Gao, N. Rega, 
 G. Zheng, W. Liang, M. Hada, M. Ehara, K. Toyota, R. Fukuda, 
 J. Hasegawa, M. Ishida, T. Nakajima, Y. Honda, O. Kitao, H. Nakai, 
 T. Vreven, K. Throssell, J. A. Montgomery, Jr., J. E. Peralta, 
 F. Ogliaro, M. J. Bearpark, J. J. Heyd, E. N. Brothers, K. N. Kudin, 
 V. N. Staroverov, T. A. Keith, R. Kobayashi, J. Normand, 
 K. Raghavachari, A. P. Rendell, J. C. Burant, S. S. Iyengar, 
 J. Tomasi, M. Cossi, J. M. Millam, M. Klene, C. Adamo, R. Cammi, 
 J. W. Ochterski, R. L. Martin, K. Morokuma, O. Farkas, 
 J. B. Foresman, and D. J. Fox, Gaussian, Inc., Wallingford CT, 2016.
 
 ******************************************
 Gaussian 16:  ES64L-G16RevA.03 25-Dec-2016
                26-May-2023 
 ******************************************
 %chk=CCCCCCqOrCCqCCrSCCN.chk
 %NProcShared=20
 Will use up to   20 processors via shared memory.
 ----------------------------------------------------------------
 # opt freq b3lyp/6-31+g(2df,p) Geom=AllCheckpoint TD(NStates=10)
 ----------------------------------------------------------------
 1/18=20,19=15,26=3,29=7,38=1/1,3;
 2/9=110,12=2,40=1/2;
 3/5=1,6=6,7=114,11=9,14=-4,25=1,30=1,71=1,74=-5/1,2,3,8;
 4//1;
 5/5=2,38=5/2;
 8/6=1,10=2,108=10/1;
 9/15=2,41=10,42=1,70=2/14;
 10/5=4/2;
 6/7=2,8=2,9=2,10=2/1;
 7/12=6,13=5/1,2,3,16;
 1/18=20,19=15,26=3/3(2);
 2/9=110/2;
 99//99;
 2/9=110/2;
 3/5=1,6=6,7=114,11=9,14=-2,25=1,30=1,71=1,74=-5/1,2,3,8;
 4/5=5,16=3,69=1/1;
 5/5=2,38=5/2;
 8/6=1,10=2,108=10/1;
 9/15=2,41=10,42=1,49=4,70=2/14;
 10/5=4/2;
 7/12=6,13=5/1,2,3,16;
 1/18=20,19=15,26=3/3(-8);
 2/9=110/2;
 6/7=2,8=2,9=2,10=2/1;
 99//99;
 Structure from the checkpoint file:  "CCCCCCqOrCCqCCrSCCN.chk"
 -------------------
 Title Card Required
 -------------------
 Charge =  0 Multiplicity = 1
 Redundant internal coordinates found in file.  (old form).
 C,0,0.63683804,-0.2836253658,0.4861301031
 C,0,2.1403316559,-0.129077166,0.2419866465
 C,0,2.811645686,0.854556471,1.2067175378
 C,0,4.3151274862,1.0167280145,0.9617055773
 C,0,4.9863044444,1.9954907648,1.9302649013
 C,0,6.4829275331,2.2057901917,1.652081801
 O,0,6.6958487783,2.6258159577,0.3030285803
 C,0,7.1122815818,3.1700444044,2.6713137102
 C,0,8.6486690805,3.1553440113,2.8007774876
 C,0,9.4430003179,3.5575400507,1.5377993881
 C,0,9.8278475818,2.3823560801,0.6292733163
 S,0,9.0209969585,4.2645284843,4.2371292108
 C,0,10.7305057635,3.7566922934,4.6389167087
 C,0,11.2585024081,4.5774574313,5.8166348414
 N,0,12.6322342344,4.1635182082,6.1231990402
 H,0,0.1872165251,-0.9917201147,-0.2170965025
 H,0,0.1165376479,0.6740702629,0.3721202829
 H,0,0.4355206425,-0.648257316,1.4997326526
 H,0,2.3127509406,0.2038130335,-0.7900982142
 H,0,2.6285513476,-1.1089533459,0.3278668434
 H,0,2.6410764965,0.5213358938,2.2403886055
 H,0,2.3207585755,1.834790007,1.1233410617
 H,0,4.4921257047,1.3553611788,-0.0653713377
 H,0,4.8055226196,0.0365523179,1.0447294785
 H,0,4.8646924986,1.6405636088,2.9617990836
 H,0,4.4790656449,2.9717678648,1.8840129116
 H,0,6.9890052227,1.233344665,1.7133123617
 H,0,6.2970094276,3.4975926489,0.203281979
 H,0,6.6939917331,2.9401851053,3.657343004
 H,0,6.7783468041,4.1908052045,2.4319655007
 H,0,8.9583463352,2.1506854777,3.1157783138
 H,0,10.3603761456,4.0677844903,1.8462951374
 H,0,8.8641459828,4.2954648241,0.9718461486
 H,0,10.4020385197,1.6306379488,1.1833857476
 H,0,10.4572822568,2.7319262369,-0.1958678494
 H,0,8.9484397027,1.9046110396,0.1951636088
 H,0,11.3880084751,3.9010244047,3.7777163215
 H,0,10.7306384256,2.6900955216,4.893080163
 H,0,10.5599188883,4.4878684726,6.6648311974
 H,0,11.2796582966,5.6356463607,5.5341773802
 H,0,12.6251009313,3.2404663369,6.5486116355
 H,0,13.0299726589,4.7875280406,6.8186156342
 Recover connectivity data from disk.

 GradGradGradGradGradGradGradGradGradGradGradGradGradGradGradGradGradGrad
 Berny optimization.
 Initialization pass.
                           ----------------------------
                           !    Initial Parameters    !
                           ! (Angstroms and Degrees)  !
 --------------------------                            --------------------------
 ! Name  Definition              Value          Derivative Info.                !
 --------------------------------------------------------------------------------
 ! R1    R(1,2)                  1.531          estimate D2E/DX2                !
 ! R2    R(1,16)                 1.0946         estimate D2E/DX2                !
 ! R3    R(1,17)                 1.0959         estimate D2E/DX2                !
 ! R4    R(1,18)                 1.0958         estimate D2E/DX2                !
 ! R5    R(2,3)                  1.5326         estimate D2E/DX2                !
 ! R6    R(2,19)                 1.0981         estimate D2E/DX2                !
 ! R7    R(2,20)                 1.0981         estimate D2E/DX2                !
 ! R8    R(3,4)                  1.5319         estimate D2E/DX2                !
 ! R9    R(3,21)                 1.0994         estimate D2E/DX2                !
 ! R10   R(3,22)                 1.0994         estimate D2E/DX2                !
 ! R11   R(4,5)                  1.5318         estimate D2E/DX2                !
 ! R12   R(4,23)                 1.0959         estimate D2E/DX2                !
 ! R13   R(4,24)                 1.0991         estimate D2E/DX2                !
 ! R14   R(5,6)                  1.5367         estimate D2E/DX2                !
 ! R15   R(5,25)                 1.0976         estimate D2E/DX2                !
 ! R16   R(5,26)                 1.1012         estimate D2E/DX2                !
 ! R17   R(6,7)                  1.4289         estimate D2E/DX2                !
 ! R18   R(6,8)                  1.5378         estimate D2E/DX2                !
 ! R19   R(6,27)                 1.098          estimate D2E/DX2                !
 ! R20   R(7,28)                 0.9639         estimate D2E/DX2                !
 ! R21   R(8,9)                  1.5419         estimate D2E/DX2                !
 ! R22   R(8,29)                 1.0955         estimate D2E/DX2                !
 ! R23   R(8,30)                 1.1003         estimate D2E/DX2                !
 ! R24   R(9,10)                 1.5453         estimate D2E/DX2                !
 ! R25   R(9,12)                 1.8526         estimate D2E/DX2                !
 ! R26   R(9,31)                 1.0975         estimate D2E/DX2                !
 ! R27   R(10,11)                1.5345         estimate D2E/DX2                !
 ! R28   R(10,32)                1.0941         estimate D2E/DX2                !
 ! R29   R(10,33)                1.0954         estimate D2E/DX2                !
 ! R30   R(11,34)                1.0963         estimate D2E/DX2                !
 ! R31   R(11,35)                1.0951         estimate D2E/DX2                !
 ! R32   R(11,36)                1.0909         estimate D2E/DX2                !
 ! R33   R(12,13)                1.828          estimate D2E/DX2                !
 ! R34   R(13,14)                1.5295         estimate D2E/DX2                !
 ! R35   R(13,37)                1.0931         estimate D2E/DX2                !
 ! R36   R(13,38)                1.0965         estimate D2E/DX2                !
 ! R37   R(14,15)                1.4671         estimate D2E/DX2                !
 ! R38   R(14,39)                1.1025         estimate D2E/DX2                !
 ! R39   R(14,40)                1.0954         estimate D2E/DX2                !
 ! R40   R(15,41)                1.0164         estimate D2E/DX2                !
 ! R41   R(15,42)                1.0155         estimate D2E/DX2                !
 ! A1    A(2,1,16)             111.4841         estimate D2E/DX2                !
 ! A2    A(2,1,17)             111.1892         estimate D2E/DX2                !
 ! A3    A(2,1,18)             111.192          estimate D2E/DX2                !
 ! A4    A(16,1,17)            107.667          estimate D2E/DX2                !
 ! A5    A(16,1,18)            107.6699         estimate D2E/DX2                !
 ! A6    A(17,1,18)            107.4454         estimate D2E/DX2                !
 ! A7    A(1,2,3)              113.2383         estimate D2E/DX2                !
 ! A8    A(1,2,19)             109.5535         estimate D2E/DX2                !
 ! A9    A(1,2,20)             109.5151         estimate D2E/DX2                !
 ! A10   A(3,2,19)             109.1655         estimate D2E/DX2                !
 ! A11   A(3,2,20)             109.1911         estimate D2E/DX2                !
 ! A12   A(19,2,20)            105.915          estimate D2E/DX2                !
 ! A13   A(2,3,4)              113.4004         estimate D2E/DX2                !
 ! A14   A(2,3,21)             109.23           estimate D2E/DX2                !
 ! A15   A(2,3,22)             109.2024         estimate D2E/DX2                !
 ! A16   A(4,3,21)             109.5567         estimate D2E/DX2                !
 ! A17   A(4,3,22)             109.3711         estimate D2E/DX2                !
 ! A18   A(21,3,22)            105.7992         estimate D2E/DX2                !
 ! A19   A(3,4,5)              113.3613         estimate D2E/DX2                !
 ! A20   A(3,4,23)             109.9458         estimate D2E/DX2                !
 ! A21   A(3,4,24)             109.3533         estimate D2E/DX2                !
 ! A22   A(5,4,23)             108.9286         estimate D2E/DX2                !
 ! A23   A(5,4,24)             109.0589         estimate D2E/DX2                !
 ! A24   A(23,4,24)            105.9202         estimate D2E/DX2                !
 ! A25   A(4,5,6)              113.5593         estimate D2E/DX2                !
 ! A26   A(4,5,25)             109.8191         estimate D2E/DX2                !
 ! A27   A(4,5,26)             109.7608         estimate D2E/DX2                !
 ! A28   A(6,5,25)             108.8006         estimate D2E/DX2                !
 ! A29   A(6,5,26)             108.6442         estimate D2E/DX2                !
 ! A30   A(25,5,26)            105.9691         estimate D2E/DX2                !
 ! A31   A(5,6,7)              110.8709         estimate D2E/DX2                !
 ! A32   A(5,6,8)              111.3717         estimate D2E/DX2                !
 ! A33   A(5,6,27)             108.5178         estimate D2E/DX2                !
 ! A34   A(7,6,8)              112.3624         estimate D2E/DX2                !
 ! A35   A(7,6,27)             104.1416         estimate D2E/DX2                !
 ! A36   A(8,6,27)             109.2545         estimate D2E/DX2                !
 ! A37   A(6,7,28)             107.5728         estimate D2E/DX2                !
 ! A38   A(6,8,9)              117.2244         estimate D2E/DX2                !
 ! A39   A(6,8,29)             107.9834         estimate D2E/DX2                !
 ! A40   A(6,8,30)             108.2595         estimate D2E/DX2                !
 ! A41   A(9,8,29)             107.6315         estimate D2E/DX2                !
 ! A42   A(9,8,30)             109.2388         estimate D2E/DX2                !
 ! A43   A(29,8,30)            105.9359         estimate D2E/DX2                !
 ! A44   A(8,9,10)             116.1739         estimate D2E/DX2                !
 ! A45   A(8,9,12)             105.0494         estimate D2E/DX2                !
 ! A46   A(8,9,31)             108.2998         estimate D2E/DX2                !
 ! A47   A(10,9,12)            111.9963         estimate D2E/DX2                !
 ! A48   A(10,9,31)            109.1356         estimate D2E/DX2                !
 ! A49   A(12,9,31)            105.5953         estimate D2E/DX2                !
 ! A50   A(9,10,11)            114.4254         estimate D2E/DX2                !
 ! A51   A(9,10,32)            108.7799         estimate D2E/DX2                !
 ! A52   A(9,10,33)            109.0247         estimate D2E/DX2                !
 ! A53   A(11,10,32)           108.2892         estimate D2E/DX2                !
 ! A54   A(11,10,33)           110.0325         estimate D2E/DX2                !
 ! A55   A(32,10,33)           105.9377         estimate D2E/DX2                !
 ! A56   A(10,11,34)           110.9312         estimate D2E/DX2                !
 ! A57   A(10,11,35)           110.231          estimate D2E/DX2                !
 ! A58   A(10,11,36)           111.6435         estimate D2E/DX2                !
 ! A59   A(34,11,35)           107.3788         estimate D2E/DX2                !
 ! A60   A(34,11,36)           108.8486         estimate D2E/DX2                !
 ! A61   A(35,11,36)           107.6559         estimate D2E/DX2                !
 ! A62   A(9,12,13)            101.0712         estimate D2E/DX2                !
 ! A63   A(12,13,14)           110.0586         estimate D2E/DX2                !
 ! A64   A(12,13,37)           110.6504         estimate D2E/DX2                !
 ! A65   A(12,13,38)           108.7414         estimate D2E/DX2                !
 ! A66   A(14,13,37)           109.1565         estimate D2E/DX2                !
 ! A67   A(14,13,38)           110.0884         estimate D2E/DX2                !
 ! A68   A(37,13,38)           108.1198         estimate D2E/DX2                !
 ! A69   A(13,14,15)           109.4339         estimate D2E/DX2                !
 ! A70   A(13,14,39)           109.2717         estimate D2E/DX2                !
 ! A71   A(13,14,40)           109.056          estimate D2E/DX2                !
 ! A72   A(15,14,39)           114.1809         estimate D2E/DX2                !
 ! A73   A(15,14,40)           107.9594         estimate D2E/DX2                !
 ! A74   A(39,14,40)           106.8046         estimate D2E/DX2                !
 ! A75   A(14,15,41)           109.7015         estimate D2E/DX2                !
 ! A76   A(14,15,42)           109.6615         estimate D2E/DX2                !
 ! A77   A(41,15,42)           105.9134         estimate D2E/DX2                !
 ! D1    D(16,1,2,3)          -179.9719         estimate D2E/DX2                !
 ! D2    D(16,1,2,19)           57.9107         estimate D2E/DX2                !
 ! D3    D(16,1,2,20)          -57.8495         estimate D2E/DX2                !
 ! D4    D(17,1,2,3)            59.871          estimate D2E/DX2                !
 ! D5    D(17,1,2,19)          -62.2464         estimate D2E/DX2                !
 ! D6    D(17,1,2,20)         -178.0066         estimate D2E/DX2                !
 ! D7    D(18,1,2,3)           -59.8092         estimate D2E/DX2                !
 ! D8    D(18,1,2,19)          178.0734         estimate D2E/DX2                !
 ! D9    D(18,1,2,20)           62.3133         estimate D2E/DX2                !
 ! D10   D(1,2,3,4)           -179.7447         estimate D2E/DX2                !
 ! D11   D(1,2,3,21)            57.7591         estimate D2E/DX2                !
 ! D12   D(1,2,3,22)           -57.5078         estimate D2E/DX2                !
 ! D13   D(19,2,3,4)           -57.4111         estimate D2E/DX2                !
 ! D14   D(19,2,3,21)         -179.9073         estimate D2E/DX2                !
 ! D15   D(19,2,3,22)           64.8259         estimate D2E/DX2                !
 ! D16   D(20,2,3,4)            57.9522         estimate D2E/DX2                !
 ! D17   D(20,2,3,21)          -64.544          estimate D2E/DX2                !
 ! D18   D(20,2,3,22)         -179.8108         estimate D2E/DX2                !
 ! D19   D(2,3,4,5)           -179.7531         estimate D2E/DX2                !
 ! D20   D(2,3,4,23)            58.0619         estimate D2E/DX2                !
 ! D21   D(2,3,4,24)           -57.8344         estimate D2E/DX2                !
 ! D22   D(21,3,4,5)           -57.4381         estimate D2E/DX2                !
 ! D23   D(21,3,4,23)         -179.6231         estimate D2E/DX2                !
 ! D24   D(21,3,4,24)           64.4806         estimate D2E/DX2                !
 ! D25   D(22,3,4,5)            58.1037         estimate D2E/DX2                !
 ! D26   D(22,3,4,23)          -64.0813         estimate D2E/DX2                !
 ! D27   D(22,3,4,24)         -179.9776         estimate D2E/DX2                !
 ! D28   D(3,4,5,6)           -177.6218         estimate D2E/DX2                !
 ! D29   D(3,4,5,25)            60.3142         estimate D2E/DX2                !
 ! D30   D(3,4,5,26)           -55.8032         estimate D2E/DX2                !
 ! D31   D(23,4,5,6)           -54.8726         estimate D2E/DX2                !
 ! D32   D(23,4,5,25)         -176.9366         estimate D2E/DX2                !
 ! D33   D(23,4,5,26)           66.946          estimate D2E/DX2                !
 ! D34   D(24,4,5,6)            60.2954         estimate D2E/DX2                !
 ! D35   D(24,4,5,25)          -61.7686         estimate D2E/DX2                !
 ! D36   D(24,4,5,26)         -177.886          estimate D2E/DX2                !
 ! D37   D(4,5,6,7)             55.4092         estimate D2E/DX2                !
 ! D38   D(4,5,6,8)           -178.6851         estimate D2E/DX2                !
 ! D39   D(4,5,6,27)           -58.3854         estimate D2E/DX2                !
 ! D40   D(25,5,6,7)           178.0367         estimate D2E/DX2                !
 ! D41   D(25,5,6,8)           -56.0576         estimate D2E/DX2                !
 ! D42   D(25,5,6,27)           64.2421         estimate D2E/DX2                !
 ! D43   D(26,5,6,7)           -67.0287         estimate D2E/DX2                !
 ! D44   D(26,5,6,8)            58.8771         estimate D2E/DX2                !
 ! D45   D(26,5,6,27)          179.1767         estimate D2E/DX2                !
 ! D46   D(5,6,7,28)            65.5953         estimate D2E/DX2                !
 ! D47   D(8,6,7,28)           -59.7556         estimate D2E/DX2                !
 ! D48   D(27,6,7,28)         -177.8796         estimate D2E/DX2                !
 ! D49   D(5,6,8,9)            161.925          estimate D2E/DX2                !
 ! D50   D(5,6,8,29)            40.2487         estimate D2E/DX2                !
 ! D51   D(5,6,8,30)           -74.0231         estimate D2E/DX2                !
 ! D52   D(7,6,8,9)            -72.9981         estimate D2E/DX2                !
 ! D53   D(7,6,8,29)           165.3255         estimate D2E/DX2                !
 ! D54   D(7,6,8,30)            51.0537         estimate D2E/DX2                !
 ! D55   D(27,6,8,9)            42.0605         estimate D2E/DX2                !
 ! D56   D(27,6,8,29)          -79.6159         estimate D2E/DX2                !
 ! D57   D(27,6,8,30)          166.1123         estimate D2E/DX2                !
 ! D58   D(6,8,9,10)            62.3839         estimate D2E/DX2                !
 ! D59   D(6,8,9,12)          -173.2615         estimate D2E/DX2                !
 ! D60   D(6,8,9,31)           -60.7953         estimate D2E/DX2                !
 ! D61   D(29,8,9,10)         -175.7572         estimate D2E/DX2                !
 ! D62   D(29,8,9,12)          -51.4026         estimate D2E/DX2                !
 ! D63   D(29,8,9,31)           61.0636         estimate D2E/DX2                !
 ! D64   D(30,8,9,10)          -61.1715         estimate D2E/DX2                !
 ! D65   D(30,8,9,12)           63.1832         estimate D2E/DX2                !
 ! D66   D(30,8,9,31)          175.6494         estimate D2E/DX2                !
 ! D67   D(8,9,10,11)          -91.76           estimate D2E/DX2                !
 ! D68   D(8,9,10,32)          147.0103         estimate D2E/DX2                !
 ! D69   D(8,9,10,33)           31.9205         estimate D2E/DX2                !
 ! D70   D(12,9,10,11)         147.5381         estimate D2E/DX2                !
 ! D71   D(12,9,10,32)          26.3084         estimate D2E/DX2                !
 ! D72   D(12,9,10,33)         -88.7814         estimate D2E/DX2                !
 ! D73   D(31,9,10,11)          30.9825         estimate D2E/DX2                !
 ! D74   D(31,9,10,32)         -90.2473         estimate D2E/DX2                !
 ! D75   D(31,9,10,33)         154.6629         estimate D2E/DX2                !
 ! D76   D(8,9,12,13)          162.3375         estimate D2E/DX2                !
 ! D77   D(10,9,12,13)         -70.7042         estimate D2E/DX2                !
 ! D78   D(31,9,12,13)          47.9683         estimate D2E/DX2                !
 ! D79   D(9,10,11,34)         -56.4436         estimate D2E/DX2                !
 ! D80   D(9,10,11,35)        -175.2452         estimate D2E/DX2                !
 ! D81   D(9,10,11,36)          65.1509         estimate D2E/DX2                !
 ! D82   D(32,10,11,34)         65.0561         estimate D2E/DX2                !
 ! D83   D(32,10,11,35)        -53.7456         estimate D2E/DX2                !
 ! D84   D(32,10,11,36)       -173.3494         estimate D2E/DX2                !
 ! D85   D(33,10,11,34)       -179.5821         estimate D2E/DX2                !
 ! D86   D(33,10,11,35)         61.6163         estimate D2E/DX2                !
 ! D87   D(33,10,11,36)        -57.9876         estimate D2E/DX2                !
 ! D88   D(9,12,13,14)         179.3138         estimate D2E/DX2                !
 ! D89   D(9,12,13,37)          58.5876         estimate D2E/DX2                !
 ! D90   D(9,12,13,38)         -60.0219         estimate D2E/DX2                !
 ! D91   D(12,13,14,15)       -179.7365         estimate D2E/DX2                !
 ! D92   D(12,13,14,39)         54.5656         estimate D2E/DX2                !
 ! D93   D(12,13,14,40)        -61.8449         estimate D2E/DX2                !
 ! D94   D(37,13,14,15)        -58.1162         estimate D2E/DX2                !
 ! D95   D(37,13,14,39)        176.1859         estimate D2E/DX2                !
 ! D96   D(37,13,14,40)         59.7754         estimate D2E/DX2                !
 ! D97   D(38,13,14,15)         60.4131         estimate D2E/DX2                !
 ! D98   D(38,13,14,39)        -65.2847         estimate D2E/DX2                !
 ! D99   D(38,13,14,40)        178.3047         estimate D2E/DX2                !
 ! D100  D(13,14,15,41)        -71.6407         estimate D2E/DX2                !
 ! D101  D(13,14,15,42)        172.4337         estimate D2E/DX2                !
 ! D102  D(39,14,15,41)         51.1841         estimate D2E/DX2                !
 ! D103  D(39,14,15,42)        -64.7415         estimate D2E/DX2                !
 ! D104  D(40,14,15,41)        169.7841         estimate D2E/DX2                !
 ! D105  D(40,14,15,42)         53.8585         estimate D2E/DX2                !
 --------------------------------------------------------------------------------
 Trust Radius=3.00D-01 FncErr=1.00D-07 GrdErr=1.00D-06 EigMax=2.50D+02 EigMin=1.00D-04
 Number of steps in this run=    233 maximum allowed number of steps=    252.
 GradGradGradGradGradGradGradGradGradGradGradGradGradGradGradGradGradGrad

                          Input orientation:                          
 ---------------------------------------------------------------------
 Center     Atomic      Atomic             Coordinates (Angstroms)
 Number     Number       Type             X           Y           Z
 ---------------------------------------------------------------------
      1          6           0        0.636838   -0.283625    0.486130
      2          6           0        2.140332   -0.129077    0.241987
      3          6           0        2.811646    0.854556    1.206718
      4          6           0        4.315127    1.016728    0.961706
      5          6           0        4.986304    1.995491    1.930265
      6          6           0        6.482928    2.205790    1.652082
      7          8           0        6.695849    2.625816    0.303029
      8          6           0        7.112282    3.170044    2.671314
      9          6           0        8.648669    3.155344    2.800777
     10          6           0        9.443000    3.557540    1.537799
     11          6           0        9.827848    2.382356    0.629273
     12         16           0        9.020997    4.264528    4.237129
     13          6           0       10.730506    3.756692    4.638917
     14          6           0       11.258502    4.577457    5.816635
     15          7           0       12.632234    4.163518    6.123199
     16          1           0        0.187217   -0.991720   -0.217097
     17          1           0        0.116538    0.674070    0.372120
     18          1           0        0.435521   -0.648257    1.499733
     19          1           0        2.312751    0.203813   -0.790098
     20          1           0        2.628551   -1.108953    0.327867
     21          1           0        2.641076    0.521336    2.240389
     22          1           0        2.320759    1.834790    1.123341
     23          1           0        4.492126    1.355361   -0.065371
     24          1           0        4.805523    0.036552    1.044729
     25          1           0        4.864692    1.640564    2.961799
     26          1           0        4.479066    2.971768    1.884013
     27          1           0        6.989005    1.233345    1.713312
     28          1           0        6.297009    3.497593    0.203282
     29          1           0        6.693992    2.940185    3.657343
     30          1           0        6.778347    4.190805    2.431966
     31          1           0        8.958346    2.150685    3.115778
     32          1           0       10.360376    4.067784    1.846295
     33          1           0        8.864146    4.295465    0.971846
     34          1           0       10.402039    1.630638    1.183386
     35          1           0       10.457282    2.731926   -0.195868
     36          1           0        8.948440    1.904611    0.195164
     37          1           0       11.388008    3.901024    3.777716
     38          1           0       10.730638    2.690096    4.893080
     39          1           0       10.559919    4.487868    6.664831
     40          1           0       11.279658    5.635646    5.534177
     41          1           0       12.625101    3.240466    6.548612
     42          1           0       13.029973    4.787528    6.818616
 ---------------------------------------------------------------------
                    Distance matrix (angstroms):
                    1          2          3          4          5
     1  C    0.000000
     2  C    1.531008   0.000000
     3  C    2.558221   1.532613   0.000000
     4  C    3.930255   2.561367   1.531923   0.000000
     5  C    5.118374   3.932383   2.560155   1.531849   0.000000
     6  C    6.460139   5.128169   3.937320   2.567069   1.536715
     7  O    6.723837   5.324087   4.363605   2.948025   2.442898
     8  C    7.657299   6.442524   5.099215   3.922194   2.539391
     9  C    9.020728   7.726143   6.473445   5.170633   3.939031
    10  C    9.664836   8.282466   7.168724   5.751755   4.738794
    11  C    9.570925   8.096616   7.203798   5.689071   5.028199
    12  S   10.249381   9.088921   7.705021   6.589523   5.171934
    13  C   11.638382  10.403042   9.105533   7.885833   6.590484
    14  C   12.839944  11.677723  10.317980   9.190190   7.817345
    15  N   13.980099  12.770867  11.470178  10.281905   8.985615
    16  H    1.094571   2.183934   3.510500   4.739524   6.046969
    17  H    1.095852   2.181220   2.827143   4.253608   5.280965
    18  H    1.095845   2.181250   2.826708   4.255937   5.280568
    19  H    2.162184   1.098064   2.158619   2.781934   4.214068
    20  H    2.161744   1.098131   2.158998   2.786541   4.214766
    21  H    2.782509   2.160415   1.099366   2.163999   2.787365
    22  H    2.780164   2.160119   1.099445   2.161680   2.789639
    23  H    4.225361   2.798028   2.166340   1.095850   2.153263
    24  H    4.218113   2.788382   2.161230   1.099147   2.157381
    25  H    5.263667   4.236880   2.813027   2.166002   1.097645
    26  H    5.226316   4.216772   2.778777   2.167881   1.101157
    27  H    6.645089   5.246964   4.224979   2.785939   2.153775
    28  H    6.812867   5.516539   4.487793   3.264621   2.637561
    29  H    7.559012   6.466904   5.042621   4.077394   2.606040
    30  H    7.843783   6.705861   5.326022   4.278303   2.877938
    31  H    9.060266   7.742178   6.565546   5.242649   4.148089
    32  H   10.739274   9.367848   8.229048   6.829090   5.760391
    33  H    9.428286   8.082014   6.966188   5.607476   4.609349
    34  H    9.975455   8.499331   7.630001   6.121806   5.479153
    35  H   10.295620   8.806175   7.996719   6.481354   5.915604
    36  H    8.599754   7.105520   6.307622   4.779488   4.326355
    37  H   11.997229  10.689370   9.457537   8.140929   6.930076
    38  H   11.408288  10.167290   8.925745   7.708090   6.500625
    39  H   12.625808  11.552427  10.150256   9.141766   7.726140
    40  H   13.182950  12.031900  10.643917   9.526101   8.114507
    41  H   13.888533  12.690852  11.425073  10.257397   9.012786
    42  H   14.812385  13.638524  12.303490  11.156651   9.817945
                    6          7          8          9         10
     6  C    0.000000
     7  O    1.428881   0.000000
     8  C    1.537760   2.465436   0.000000
     9  C    2.628990   3.214445   1.541903   0.000000
    10  C    3.256120   3.152715   2.620545   1.545263   0.000000
    11  C    3.502257   3.158342   3.487790   2.589093   1.534466
    12  S    4.166854   4.854775   2.700531   1.852572   2.822109
    13  C    5.419262   6.029699   4.160188   2.841552   3.363668
    14  C    6.765680   7.417989   5.391197   4.234269   4.758646
    15  N    7.850959   8.454560   6.585771   5.284287   5.618213
    16  H    7.304374   7.464542   8.580194   9.894538  10.461595
    17  H    6.671985   6.863047   7.775385   9.211534   9.831384
    18  H    6.688791   7.165428   7.780178   9.144173   9.941070
    19  H    5.230920   5.125678   6.619320   7.858103   8.216267
    20  H    5.253312   5.521959   6.626115   7.780831   8.347264
    21  H    4.235955   4.962195   5.214693   6.583556   7.481867
    22  H    4.211990   4.521067   5.209397   6.678331   7.339344
    23  H    2.763361   2.570247   4.200921   5.360187   5.650744
    24  H    2.808586   3.290553   4.217308   5.251699   5.843515
    25  H    2.157203   3.375339   2.734109   4.079089   5.163669
    26  H    2.157771   2.744690   2.755537   4.273143   5.010353
    27  H    1.097959   2.003451   2.164202   2.762453   3.384491
    28  H    1.949959   0.963855   2.619759   3.520571   3.417863
    29  H    2.145916   3.369014   1.095470   2.144939   3.525711
    30  H    2.153085   2.643552   1.100342   2.169403   2.881135
    31  H    2.876307   3.640907   2.155133   1.097481   2.168905
    32  H    4.305734   4.229622   3.469396   2.161834   1.094119
    33  H    3.240318   2.817190   2.687711   2.165940   1.095403
    34  H    3.988722   3.937163   3.925074   2.831076   2.181356
    35  H    4.414435   3.795858   4.427382   3.525656   2.171637
    36  H    2.879595   2.367686   3.332284   2.905756   2.186192
    37  H    5.608205   5.976284   4.476639   3.002404   2.986347
    38  H    5.364855   6.111647   4.273067   2.988107   3.697077
    39  H    6.852547   7.672732   5.437927   4.512140   5.329116
    40  H    7.059972   7.578608   5.625141   4.532712   4.864450
    41  H    7.922932   8.633721   6.740147   5.464935   5.944286
    42  H    8.730535   9.340610   7.405095   6.164647   6.501251
                   11         12         13         14         15
    11  C    0.000000
    12  S    4.148518   0.000000
    13  C    4.333686   1.828046   0.000000
    14  C    5.811537   2.756663   1.529528   0.000000
    15  N    6.420307   4.075352   2.446461   1.467129   0.000000
    16  H   10.249024  11.202855  12.541500  13.783868  14.888059
    17  H    9.863767  10.349835  11.847550  13.000867  14.208934
    18  H    9.907478  10.263489  11.629479  12.770304  13.902858
    19  H    7.952191   9.314665  10.628064  11.950069  13.037050
    20  H    8.006869   9.220629  10.387556  11.702047  12.706632
    21  H    7.596629   7.661713   9.036555  10.173578  11.320996
    22  H    7.543230   7.777692   9.315408  10.460999  11.693934
    23  H    5.477881   6.890968   8.173989   9.527001  10.604033
    24  H    5.558700   6.770334   7.865307   9.221272  10.201966
    25  H    5.533881   5.078043   6.457437   7.593170   8.757537
    26  H    5.525509   5.276128   6.876489   8.000282   9.266344
    27  H    3.248753   4.436972   5.378222   6.800658   7.738156
    28  H    3.727203   4.927497   6.276773   7.569164   8.696203
    29  H    4.393339   2.739524   4.233629   5.308292   6.545205
    30  H    3.977391   2.879849   4.547378   5.628257   6.920545
    31  H    2.644317   2.393676   2.835447   4.298205   5.156891
    32  H    2.146019   2.747496   2.834168   4.102438   4.843801
    33  H    2.169346   3.269195   4.149817   5.411510   6.383756
    34  H    1.096274   4.262629   4.070466   5.557362   5.982559
    35  H    1.095101   4.905430   4.949741   6.340199   6.834506
    36  H    1.090894   4.681021   5.133508   6.639385   7.335844
    37  H    3.827943   2.438430   1.093073   2.152097   2.668012
    38  H    4.369186   2.414950   1.096461   2.166501   2.701894
    39  H    6.434055   2.883036   2.160567   1.102489   2.166347
    40  H    6.062156   2.943442   2.152563   1.095442   2.084123
    41  H    6.602995   4.402411   2.739145   2.047175   1.016391
    42  H    7.372002   4.796820   3.331855   2.046021   1.015474
                   16         17         18         19         20
    16  H    0.000000
    17  H    1.768341   0.000000
    18  H    1.768368   1.766864   0.000000
    19  H    2.505100   2.528882   3.081127   0.000000
    20  H    2.504165   3.080803   2.528813   1.752978   0.000000
    21  H    3.788139   3.144368   2.604035   3.064713   2.513113
    22  H    3.786546   2.601959   3.140273   2.514239   3.064823
    23  H    4.905513   4.449868   4.787492   2.569235   3.114545
    24  H    4.896764   4.779687   4.446674   3.099755   2.562280
    25  H    6.238035   5.494135   5.195566   4.759558   4.415628
    26  H    6.208371   5.157217   5.440819   4.416488   4.743235
    27  H    7.412268   7.024414   6.821598   5.403180   5.139978
    28  H    7.593432   6.796986   7.295609   5.264039   5.890108
    29  H    8.532836   7.693560   7.529984   6.816358   6.633908
    30  H    8.793128   7.809615   8.032249   6.798481   7.052338
    31  H    9.895225   9.374734   9.115056   7.950479   7.646176
    32  H   11.547699  10.891589  10.993812   9.308336   9.427903
    33  H   10.230201   9.486560   9.785744   7.922553   8.276780
    34  H   10.638642  10.361694  10.228632   8.447902   8.286397
    35  H   10.924296  10.558806  10.711508   8.548559   8.735885
    36  H    9.236759   8.918971   8.982696   6.920681   7.002869
    37  H   12.859052  12.208905  12.076513  10.811781  10.664400
    38  H   12.281426  11.711643  11.342348  10.456622  10.045783
    39  H   13.600727  12.775268  12.472428  11.914062  11.592589
    40  H   14.143599  13.261951  13.166606  12.243639  12.142362
    41  H   14.777929  14.184484  13.754971  13.016239  12.551738
    42  H   15.742850  15.007819  14.712529  13.919835  13.604701
                   21         22         23         24         25
    21  H    0.000000
    22  H    1.753728   0.000000
    23  H    3.072216   2.521453   0.000000
    24  H    2.519810   3.068206   1.752084   0.000000
    25  H    2.591828   3.144718   3.063316   2.500302   0.000000
    26  H    3.083800   2.555314   2.532398   3.070254   1.755687
    27  H    4.437257   4.743662   3.068063   2.578160   2.497449
    28  H    5.135538   4.407039   2.814060   3.861524   3.620705
    29  H    4.927952   5.173803   4.606352   4.338565   2.349284
    30  H    5.533418   5.208973   4.416247   4.803569   3.232109
    31  H    6.582476   6.937375   5.540702   5.099485   4.128188
    32  H    8.504128   8.375224   6.741519   6.910119   6.110506
    33  H    7.387817   6.992409   5.369785   5.883542   5.196541
    34  H    7.910774   8.084081   6.046672   5.820767   5.815931
    35  H    8.480279   8.291452   6.123320   6.383299   6.514522
    36  H    6.773421   6.692723   4.497587   4.623329   4.939735
    37  H    9.502341   9.671094   8.294753   8.107557   6.951910
    38  H    8.785289   9.255731   8.080025   7.547058   6.264239
    39  H    9.900360  10.277680   9.587823   9.193086   7.365813
    40  H   10.565525  10.684749   9.785008   9.665373   7.983082
    41  H   11.208711  11.729832  10.650994  10.084820   8.697635
    42  H   12.128055  12.483673  11.491905  11.115355   9.562961
                   26         27         28         29         30
    26  H    0.000000
    27  H    3.057949   0.000000
    28  H    2.531061   2.808179   0.000000
    29  H    2.837533   2.603765   3.521198   0.000000
    30  H    2.659511   3.050805   2.383120   1.752917   0.000000
    31  H    4.717561   2.585871   4.168874   2.458435   3.063019
    32  H    5.982682   4.406572   4.419905   4.241904   3.631677
    33  H    4.670455   3.666402   2.795976   3.709211   2.548227
    34  H    6.113192   3.476703   4.614909   4.645965   4.609181
    35  H    6.334233   4.233162   4.248933   5.390080   4.750621
    36  H    4.895543   2.568026   3.093176   4.259300   3.865135
    37  H    7.223789   5.543420   6.233587   4.792859   4.810821
    38  H    6.943773   5.121803   6.504101   4.228961   4.891812
    39  H    7.882358   6.918156   7.804144   5.136701   5.683809
    40  H    8.165048   7.238023   7.603717   5.640599   5.654475
    41  H    9.390877   7.692479   8.965158   6.605124   7.213491
    42  H   10.038192   8.671195   9.526771   7.317853   7.660392
                   31         32         33         34         35
    31  H    0.000000
    32  H    2.693055   0.000000
    33  H    3.034040   1.747914   0.000000
    34  H    2.467557   2.526038   3.084018   0.000000
    35  H    3.681257   2.442199   2.519185   1.765851   0.000000
    36  H    2.930980   3.065798   2.515258   1.778931   1.764642
    37  H    3.066775   2.194134   3.794519   3.585714   4.245281
    38  H    2.567252   3.364227   4.630020   3.871984   5.096456
    39  H    4.541281   4.840927   5.943294   6.183441   7.082588
    40  H    4.835504   4.111417   5.333447   5.978269   6.476211
    41  H    5.139753   5.284431   6.808680   6.026542   7.102539
    42  H    6.102629   5.689354   7.195898   6.973364   7.749014
                   36         37         38         39         40
    36  H    0.000000
    37  H    4.771986   0.000000
    38  H    5.085631   1.772716   0.000000
    39  H    7.150293   3.060319   2.529868   0.000000
    40  H    6.918112   2.470993   3.064098   1.764595   0.000000
    41  H    7.461143   3.105575   2.575399   2.415470   2.928512
    42  H    8.297002   3.567773   3.659761   2.492912   2.330812
                   41         42
    41  H    0.000000
    42  H    1.621796   0.000000
 Stoichiometry    C12H27NOS
 Framework group  C1[X(C12H27NOS)]
 Deg. of freedom   120
 Full point group                 C1      NOp   1
 Largest Abelian subgroup         C1      NOp   1
 Largest concise Abelian subgroup C1      NOp   1
                         Standard orientation:                         
 ---------------------------------------------------------------------
 Center     Atomic      Atomic             Coordinates (Angstroms)
 Number     Number       Type             X           Y           Z
 ---------------------------------------------------------------------
      1          6           0       -7.372809   -1.102769   -0.262133
      2          6           0       -6.156117   -0.214628   -0.535724
      3          6           0       -4.844423   -0.806833   -0.008794
      4          6           0       -3.625347    0.081827   -0.275111
      5          6           0       -2.313961   -0.513697    0.246596
      6          6           0       -1.096831    0.399920    0.033542
      7          8           0       -1.317909    1.686281    0.615006
      8          6           0        0.194954   -0.259155    0.545028
      9          6           0        1.530811    0.315733    0.032726
     10          6           0        1.825982    1.786941    0.401860
     11          6           0        1.353772    2.809582   -0.640161
     12         16           0        2.829732   -0.835970    0.679572
     13          6           0        4.244166   -0.410283   -0.397423
     14          6           0        5.463959   -1.251673   -0.018447
     15          7           0        6.591803   -0.894847   -0.886265
     16          1           0       -8.292428   -0.653543   -0.650182
     17          1           0       -7.510304   -1.266102    0.812720
     18          1           0       -7.259055   -2.086224   -0.731976
     19          1           0       -6.313099    0.773393   -0.083050
     20          1           0       -6.065011   -0.039858   -1.616024
     21          1           0       -4.685361   -1.795429   -0.462648
     22          1           0       -4.936614   -0.985049    1.072187
     23          1           0       -3.774373    1.067245    0.180554
     24          1           0       -3.533692    0.260135   -1.355820
     25          1           0       -2.122548   -1.477685   -0.242193
     26          1           0       -2.406125   -0.732274    1.321899
     27          1           0       -0.998140    0.604475   -1.040670
     28          1           0       -1.378715    1.567584    1.569590
     29          1           0        0.164112   -1.319861    0.272986
     30          1           0        0.185270   -0.228951    1.644913
     31          1           0        1.556866    0.206558   -1.059000
     32          1           0        2.905225    1.906731    0.535955
     33          1           0        1.375522    2.008059    1.375565
     34          1           0        1.790511    2.597396   -1.623040
     35          1           0        1.670551    3.817529   -0.352170
     36          1           0        0.266772    2.817934   -0.731874
     37          1           0        4.495740    0.649208   -0.302570
     38          1           0        3.963477   -0.602122   -1.439843
     39          1           0        5.192367   -2.319801   -0.047132
     40          1           0        5.747908   -1.024734    1.014929
     41          1           0        6.426740   -1.247569   -1.825091
     42          1           0        7.434406   -1.357639   -0.559106
 ---------------------------------------------------------------------
 Rotational constants (GHZ):           1.2326875           0.1323991           0.1242152
 Standard basis: 6-31+G(2df,p) (6D, 7F)
 There are   664 symmetry adapted cartesian basis functions of A   symmetry.
 There are   619 symmetry adapted basis functions of A   symmetry.
   619 basis functions,   933 primitive gaussians,   664 cartesian basis functions
    65 alpha electrons       65 beta electrons
       nuclear repulsion energy      1127.1511445225 Hartrees.
 NAtoms=   42 NActive=   42 NUniq=   42 SFac= 1.00D+00 NAtFMM=   60 NAOKFM=F Big=F
 Integral buffers will be    131072 words long.
 Regular integral format.
 Two-electron integral symmetry is turned on.
 One-electron integrals computed using PRISM.
 PrsmSu:  requested number of processors reduced to:  12 ShMem   1 Linda.
 NBasis=   619 RedAO= T EigKep=  3.89D-06  NBF=   619
 NBsUse=   619 1.00D-06 EigRej= -1.00D+00 NBFU=   619
 ExpMin= 4.05D-02 ExpMax= 2.19D+04 ExpMxC= 3.30D+03 IAcc=3 IRadAn=         5 AccDes= 0.00D+00
 Harris functional with IExCor=  402 and IRadAn=       5 diagonalized for initial guess.
 HarFok:  IExCor=  402 AccDes= 0.00D+00 IRadAn=         5 IDoV= 1 UseB2=F ITyADJ=14
 ICtDFT=  3500011 ScaDFX=  1.000000  1.000000  1.000000  1.000000
 FoFCou: FMM=F IPFlag=           0 FMFlag=      100000 FMFlg1=           0
         NFxFlg=           0 DoJE=T BraDBF=F KetDBF=T FulRan=T
         wScrn=  0.000000 ICntrl=       500 IOpCl=  0 I1Cent=   200000004 NGrid=           0
         NMat0=    1 NMatS0=      1 NMatT0=    0 NMatD0=    1 NMtDS0=    0 NMtDT0=    0
 Petite list used in FoFCou.
 Requested convergence on RMS density matrix=1.00D-08 within 128 cycles.
 Requested convergence on MAX density matrix=1.00D-06.
 Requested convergence on             energy=1.00D-06.
 No special actions if energy rises.
 SCF Done:  E(RB3LYP) =  -1001.78145797     A.U. after   13 cycles
            NFock= 13  Conv=0.48D-08     -V/T= 2.0064
 DoSCS=F DFT=T ScalE2(SS,OS)=  1.000000  1.000000
 ExpMin= 4.05D-02 ExpMax= 2.19D+04 ExpMxC= 3.30D+03 IAcc=3 IRadAn=         5 AccDes= 0.00D+00
 HarFok:  IExCor=  205 AccDes= 0.00D+00 IRadAn=         5 IDoV=-2 UseB2=F ITyADJ=14
 ICtDFT= 12500011 ScaDFX=  1.000000  1.000000  1.000000  1.000000
 Range of M.O.s used for correlation:    20   619
 NBasis=   619 NAE=    65 NBE=    65 NFC=    19 NFV=     0
 NROrb=    600 NOA=    46 NOB=    46 NVA=   554 NVB=   554

 **** Warning!!: The largest alpha MO coefficient is  0.12419150D+03

 Orbital symmetries:
       Occupied  (A) (A) (A) (A) (A) (A) (A) (A) (A) (A) (A) (A)
                 (A) (A) (A) (A) (A) (A) (A) (A) (A) (A) (A) (A)
                 (A) (A) (A) (A) (A) (A) (A) (A) (A) (A) (A) (A)
                 (A) (A) (A) (A) (A) (A) (A) (A) (A) (A) (A) (A)
                 (A) (A) (A) (A) (A) (A) (A) (A) (A) (A) (A) (A)
                 (A) (A) (A) (A) (A)
       Virtual   (A) (A) (A) (A) (A) (A) (A) (A) (A) (A) (A) (A)
                 (A) (A) (A) (A) (A) (A) (A) (A) (A) (A) (A) (A)
                 (A) (A) (A) (A) (A) (A) (A) (A) (A) (A) (A) (A)
                 (A) (A) (A) (A) (A) (A) (A) (A) (A) (A) (A) (A)
                 (A) (A) (A) (A) (A) (A) (A) (A) (A) (A) (A) (A)
                 (A) (A) (A) (A) (A) (A) (A) (A) (A) (A) (A) (A)
                 (A) (A) (A) (A) (A) (A) (A) (A) (A) (A) (A) (A)
                 (A) (A) (A) (A) (A) (A) (A) (A) (A) (A) (A) (A)
                 (A) (A) (A) (A) (A) (A) (A) (A) (A) (A) (A) (A)
                 (A) (A) (A) (A) (A) (A) (A) (A) (A) (A) (A) (A)
                 (A) (A) (A) (A) (A) (A) (A) (A) (A) (A) (A) (A)
                 (A) (A) (A) (A) (A) (A) (A) (A) (A) (A) (A) (A)
                 (A) (A) (A) (A) (A) (A) (A) (A) (A) (A) (A) (A)
                 (A) (A) (A) (A) (A) (A) (A) (A) (A) (A) (A) (A)
                 (A) (A) (A) (A) (A) (A) (A) (A) (A) (A) (A) (A)
                 (A) (A) (A) (A) (A) (A) (A) (A) (A) (A) (A) (A)
                 (A) (A) (A) (A) (A) (A) (A) (A) (A) (A) (A) (A)
                 (A) (A) (A) (A) (A) (A) (A) (A) (A) (A) (A) (A)
                 (A) (A) (A) (A) (A) (A) (A) (A) (A) (A) (A) (A)
                 (A) (A) (A) (A) (A) (A) (A) (A) (A) (A) (A) (A)
                 (A) (A) (A) (A) (A) (A) (A) (A) (A) (A) (A) (A)
                 (A) (A) (A) (A) (A) (A) (A) (A) (A) (A) (A) (A)
                 (A) (A) (A) (A) (A) (A) (A) (A) (A) (A) (A) (A)
                 (A) (A) (A) (A) (A) (A) (A) (A) (A) (A) (A) (A)
                 (A) (A) (A) (A) (A) (A) (A) (A) (A) (A) (A) (A)
                 (A) (A) (A) (A) (A) (A) (A) (A) (A) (A) (A) (A)
                 (A) (A) (A) (A) (A) (A) (A) (A) (A) (A) (A) (A)
                 (A) (A) (A) (A) (A) (A) (A) (A) (A) (A) (A) (A)
                 (A) (A) (A) (A) (A) (A) (A) (A) (A) (A) (A) (A)
                 (A) (A) (A) (A) (A) (A) (A) (A) (A) (A) (A) (A)
                 (A) (A) (A) (A) (A) (A) (A) (A) (A) (A) (A) (A)
                 (A) (A) (A) (A) (A) (A) (A) (A) (A) (A) (A) (A)
                 (A) (A) (A) (A) (A) (A) (A) (A) (A) (A) (A) (A)
                 (A) (A) (A) (A) (A) (A) (A) (A) (A) (A) (A) (A)
                 (A) (A) (A) (A) (A) (A) (A) (A) (A) (A) (A) (A)
                 (A) (A) (A) (A) (A) (A) (A) (A) (A) (A) (A) (A)
                 (A) (A) (A) (A) (A) (A) (A) (A) (A) (A) (A) (A)
                 (A) (A) (A) (A) (A) (A) (A) (A) (A) (A) (A) (A)
                 (A) (A) (A) (A) (A) (A) (A) (A) (A) (A) (A) (A)
                 (A) (A) (A) (A) (A) (A) (A) (A) (A) (A) (A) (A)
                 (A) (A) (A) (A) (A) (A) (A) (A) (A) (A) (A) (A)
                 (A) (A) (A) (A) (A) (A) (A) (A) (A) (A) (A) (A)
                 (A) (A) (A) (A) (A) (A) (A) (A) (A) (A) (A) (A)
                 (A) (A) (A) (A) (A) (A) (A) (A) (A) (A) (A) (A)
                 (A) (A) (A) (A) (A) (A) (A) (A) (A) (A) (A) (A)
                 (A) (A) (A) (A) (A) (A) (A) (A) (A) (A) (A) (A)
                 (A) (A)
    40 initial guesses have been made.
 Convergence on wavefunction:    0.000001000000000
 Iteration     1 Dimension    40 NMult     0 NNew     40
 CISAX will form     2 AO SS matrices at one time.
 New state      4 was old state      8
 New state      6 was old state      4
 New state      7 was old state     10
 New state      8 was old state      9
 New state      9 was old state      6
 New state     10 was old state     20
 Iteration     2 Dimension    60 NMult    40 NNew     20
 Iteration     3 Dimension    80 NMult    60 NNew     20
 Iteration     4 Dimension   100 NMult    80 NNew     20
 Iteration     5 Dimension   120 NMult   100 NNew     20
 Iteration     6 Dimension   140 NMult   120 NNew     20
 Iteration     7 Dimension   160 NMult   140 NNew     20
 Iteration     8 Dimension   180 NMult   160 NNew     20
 Iteration     9 Dimension   200 NMult   180 NNew     20
 Iteration    10 Dimension   216 NMult   200 NNew     16
 Iteration    11 Dimension   222 NMult   216 NNew      6
 ***********************************************************************
 Excited states from <AA,BB:AA,BB> singles matrix:
 ***********************************************************************
 
 Ground to excited state transition densities written to RWF  633
 Ground to excited state transition electric dipole moments (Au):
       state          X           Y           Z        Dip. S.      Osc.
         1         0.0092      0.1306     -0.0054      0.0172      0.0021
         2        -0.0389     -0.1899     -0.0766      0.0434      0.0056
         3        -0.0323     -0.0604     -0.2400      0.0623      0.0084
         4        -0.1253      0.1304      0.0122      0.0329      0.0045
         5        -0.1116      0.1961      0.0372      0.0523      0.0073
         6         0.0340      0.3716      0.0764      0.1451      0.0205
         7        -0.0210     -0.1371     -0.2851      0.1005      0.0149
         8         0.0540     -0.0162      0.1513      0.0261      0.0039
         9         0.0317     -0.0281      0.0829      0.0087      0.0013
        10         0.0186     -0.1320     -0.0621      0.0216      0.0033
 Ground to excited state transition velocity dipole moments (Au):
       state          X           Y           Z        Dip. S.      Osc.
         1        -0.0017     -0.0247      0.0009      0.0006      0.0022
         2         0.0087      0.0363      0.0136      0.0016      0.0054
         3         0.0056      0.0118      0.0439      0.0021      0.0069
         4         0.0250     -0.0307     -0.0021      0.0016      0.0051
         5         0.0238     -0.0440     -0.0061      0.0025      0.0080
         6        -0.0072     -0.0789     -0.0155      0.0065      0.0205
         7         0.0049      0.0318      0.0602      0.0047      0.0140
         8        -0.0125      0.0047     -0.0297      0.0011      0.0031
         9        -0.0073      0.0051     -0.0178      0.0004      0.0012
        10        -0.0025      0.0310      0.0149      0.0012      0.0035
 Ground to excited state transition magnetic dipole moments (Au):
       state          X           Y           Z
         1         0.1862     -0.2725      0.0496
         2        -0.4959     -0.1254      0.6544
         3         0.0942     -0.2705      0.0569
         4        -0.4497      0.2668     -0.8946
         5        -0.3615      0.0091     -0.5722
         6         0.1796      0.0796     -0.5809
         7        -0.3236     -0.2666      0.1617
         8        -0.1097      0.1305      0.0009
         9         0.0931      0.0452      0.0322
        10        -0.2116     -0.1366      0.1610
 Ground to excited state transition velocity quadrupole moments (Au):
       state          XX          YY          ZZ          XY          XZ          YZ
         1        -0.0199      0.1329     -0.0915     -0.2146     -0.0672      0.0539
         2         0.0203     -0.2497      0.2360      0.1892      0.0696      0.0205
         3        -0.0319      0.0177      0.0590      0.1277      0.2607      0.0461
         4         0.3122     -0.0284      0.2169     -0.7291     -0.0268      0.1751
         5         0.5154      0.0735      0.0001     -0.7318     -0.1043      0.1494
         6        -0.0555      0.2237     -0.1387     -0.4155     -0.1459      0.1376
         7        -0.0197     -0.1286      0.3333      0.0834      0.4492      0.0515
         8        -0.0668      0.0925     -0.0415     -0.0214     -0.2453     -0.0471
         9        -0.0090     -0.0347     -0.0485      0.1080     -0.1658     -0.0356
        10        -0.1224     -0.0788      0.2268      0.1749      0.0543     -0.0252
 <0|del|b> * <b|rxdel|0> + <0|del|b> * <b|delr+rdel|0>
 Rotatory Strengths (R) in cgs (10**-40 erg-esu-cm/Gauss)
       state          XX          YY          ZZ    R(velocity)    E-M Angle
         1         9.4077     -0.3272     15.5937      8.2247       38.60
         2         8.0687      3.9840    -11.9528      0.0333       90.00
         3         3.2514     -4.0542      0.2719     -0.1770       90.65
         4        -9.4519    -11.1063    -39.2028    -19.9203      115.25
         5         4.9366    -10.1229    -13.4136     -6.2000       99.34
         6        -3.8987      0.4782      8.2270      1.6022       88.33
         7       -12.7662      5.3682      6.3051     -0.3643       90.64
         8         3.7657      2.0443      0.3734      2.0611       69.26
         9        -2.2130      1.4434     -2.4307     -1.0668      118.40
        10        -1.4113      0.5943     -3.2053     -1.3408       97.29
 1/2[<0|r|b>*<b|rxdel|0> + (<0|rxdel|b>*<b|r|0>)*]
 Rotatory Strengths (R) in cgs (10**-40 erg-esu-cm/Gauss)
       state          XX          YY          ZZ     R(length)
         1        -1.2175     25.1674      0.1880      8.0459
         2       -13.6262    -16.8374     35.4401      1.6588
         3         2.1499    -11.5566      9.6599      0.0844
         4       -39.8542    -24.6080      7.6973    -18.9216
         5       -28.5247     -1.2624     15.0369     -4.9167
         6        -4.3238    -20.9161     31.3761      2.0454
         7        -4.8028    -25.8469     32.6088      0.6531
         8         4.1918      1.4913     -0.0926      1.8635
         9        -2.0878      0.8989     -1.8893     -1.0261
        10         2.7896    -12.7461      7.0644     -0.9640
  1/2[<0|del|b>*<b|r|0> + (<0|r|b>*<b|del|0>)*] (Au)
       state          X           Y           Z        Dip. S.   Osc.(frdel)
         1        -0.0000     -0.0032     -0.0000      0.0032      0.0022
         2        -0.0003     -0.0069     -0.0010      0.0083      0.0055
         3        -0.0002     -0.0007     -0.0105      0.0114      0.0076
         4        -0.0031     -0.0040     -0.0000      0.0072      0.0048
         5        -0.0027     -0.0086     -0.0002      0.0115      0.0077
         6        -0.0002     -0.0293     -0.0012      0.0308      0.0205
         7        -0.0001     -0.0044     -0.0172      0.0216      0.0144
         8        -0.0007     -0.0001     -0.0045      0.0052      0.0035
         9        -0.0002     -0.0001     -0.0015      0.0018      0.0012
        10        -0.0000     -0.0041     -0.0009      0.0051      0.0034

 Excitation energies and oscillator strengths:
 
 Excited State   1:      Singlet-A      5.0463 eV  245.69 nm  f=0.0021  <S**2>=0.000
      65 -> 66         0.62171
      65 -> 67         0.15878
      65 -> 72         0.26157
 This state for optimization and/or second-order correction.
 Total Energy, E(TD-HF/TD-DFT) =  -1001.59600925    
 Copying the excited state density for this state as the 1-particle RhoCI density.
 
 Excited State   2:      Singlet-A      5.2612 eV  235.66 nm  f=0.0056  <S**2>=0.000
      65 -> 66        -0.28266
      65 -> 67         0.46670
      65 -> 68        -0.30045
      65 -> 70        -0.17686
      65 -> 72         0.23872
 
 Excited State   3:      Singlet-A      5.5075 eV  225.12 nm  f=0.0084  <S**2>=0.000
      65 -> 67         0.40090
      65 -> 68         0.55965
      65 -> 73        -0.10127
 
 Excited State   4:      Singlet-A      5.6495 eV  219.46 nm  f=0.0045  <S**2>=0.000
      64 -> 66         0.46748
      65 -> 67         0.21883
      65 -> 68        -0.17014
      65 -> 72        -0.41105
 
 Excited State   5:      Singlet-A      5.7269 eV  216.49 nm  f=0.0073  <S**2>=0.000
      64 -> 66         0.49788
      65 -> 66        -0.13433
      65 -> 67        -0.17347
      65 -> 68         0.19615
      65 -> 70        -0.16951
      65 -> 72         0.34131
 
 Excited State   6:      Singlet-A      5.7665 eV  215.01 nm  f=0.0205  <S**2>=0.000
      64 -> 66         0.10386
      65 -> 69         0.38264
      65 -> 70         0.43778
      65 -> 71        -0.25224
      65 -> 72         0.16952
      65 -> 74        -0.17118
      65 -> 75        -0.12345
 
 Excited State   7:      Singlet-A      6.0521 eV  204.86 nm  f=0.0149  <S**2>=0.000
      65 -> 67        -0.11076
      65 -> 69         0.32413
      65 -> 70        -0.19024
      65 -> 71        -0.18926
      65 -> 73        -0.37347
      65 -> 74         0.37639
      65 -> 76        -0.11417
 
 Excited State   8:      Singlet-A      6.1109 eV  202.89 nm  f=0.0039  <S**2>=0.000
      65 -> 68         0.11762
      65 -> 70        -0.25461
      65 -> 71        -0.41769
      65 -> 72        -0.14921
      65 -> 73         0.44388
      65 -> 75        -0.10478
 
 Excited State   9:      Singlet-A      6.1604 eV  201.26 nm  f=0.0013  <S**2>=0.000
      65 -> 69         0.47526
      65 -> 70        -0.15667
      65 -> 71         0.38453
      65 -> 73         0.22521
      65 -> 75         0.17419
      65 -> 76         0.12816
 
 Excited State  10:      Singlet-A      6.2588 eV  198.09 nm  f=0.0033  <S**2>=0.000
      65 -> 70         0.32392
      65 -> 73         0.24378
      65 -> 74         0.49308
      65 -> 75         0.14470
      65 -> 79        -0.17520
 SavETr:  write IOETrn=   770 NScale= 10 NData=  16 NLR=1 NState=   10 LETran=     190.
          IDoAtm=111111111111111111111111111111111111111111
          Differentiating once with respect to electric field.
                with respect to dipole field.
          Differentiating once with respect to nuclear coordinates.
          There are     1 degrees of freedom in the 1st order CPHF.  IDoFFX=0 NUNeed=     1.
 LinEq1:  Iter=  0 NonCon=     1 RMS=5.18D-03 Max=1.41D-01 NDo=     1
 AX will form     1 AO Fock derivatives at one time.
 LinEq1:  Iter=  1 NonCon=     1 RMS=1.42D-03 Max=2.47D-02 NDo=     1
 LinEq1:  Iter=  2 NonCon=     1 RMS=8.66D-04 Max=2.56D-02 NDo=     1
 LinEq1:  Iter=  3 NonCon=     1 RMS=2.81D-04 Max=8.76D-03 NDo=     1
 LinEq1:  Iter=  4 NonCon=     1 RMS=1.56D-04 Max=4.08D-03 NDo=     1
 LinEq1:  Iter=  5 NonCon=     1 RMS=7.91D-05 Max=2.66D-03 NDo=     1
 LinEq1:  Iter=  6 NonCon=     1 RMS=3.69D-05 Max=6.10D-04 NDo=     1
 LinEq1:  Iter=  7 NonCon=     1 RMS=1.76D-05 Max=5.57D-04 NDo=     1
 LinEq1:  Iter=  8 NonCon=     1 RMS=6.15D-06 Max=1.81D-04 NDo=     1
 LinEq1:  Iter=  9 NonCon=     1 RMS=3.43D-06 Max=1.16D-04 NDo=     1
 LinEq1:  Iter= 10 NonCon=     1 RMS=1.22D-06 Max=3.81D-05 NDo=     1
 LinEq1:  Iter= 11 NonCon=     1 RMS=6.11D-07 Max=2.97D-05 NDo=     1
 LinEq1:  Iter= 12 NonCon=     1 RMS=3.29D-07 Max=1.42D-05 NDo=     1
 LinEq1:  Iter= 13 NonCon=     1 RMS=1.67D-07 Max=6.37D-06 NDo=     1
 LinEq1:  Iter= 14 NonCon=     1 RMS=7.99D-08 Max=4.00D-06 NDo=     1
 LinEq1:  Iter= 15 NonCon=     1 RMS=4.17D-08 Max=1.77D-06 NDo=     1
 LinEq1:  Iter= 16 NonCon=     1 RMS=1.82D-08 Max=4.82D-07 NDo=     1
 LinEq1:  Iter= 17 NonCon=     1 RMS=7.55D-09 Max=1.94D-07 NDo=     1
 LinEq1:  Iter= 18 NonCon=     1 RMS=3.71D-09 Max=1.33D-07 NDo=     1
 LinEq1:  Iter= 19 NonCon=     1 RMS=1.12D-09 Max=6.32D-08 NDo=     1
 LinEq1:  Iter= 20 NonCon=     1 RMS=3.69D-10 Max=2.00D-08 NDo=     1
 LinEq1:  Iter= 21 NonCon=     1 RMS=1.55D-10 Max=6.53D-09 NDo=     1
 LinEq1:  Iter= 22 NonCon=     1 RMS=6.83D-11 Max=2.56D-09 NDo=     1
 LinEq1:  Iter= 23 NonCon=     0 RMS=2.31D-11 Max=6.88D-10 NDo=     1
 Linear equations converged to 1.000D-10 1.000D-09 after    23 iterations.
 End of Minotr F.D. properties file   721 does not exist.
 End of Minotr F.D. properties file   722 does not exist.
 End of Minotr F.D. properties file   788 does not exist.

 **********************************************************************

            Population analysis using the SCF density.

 **********************************************************************

 Orbital symmetries:
       Occupied  (A) (A) (A) (A) (A) (A) (A) (A) (A) (A) (A) (A)
                 (A) (A) (A) (A) (A) (A) (A) (A) (A) (A) (A) (A)
                 (A) (A) (A) (A) (A) (A) (A) (A) (A) (A) (A) (A)
                 (A) (A) (A) (A) (A) (A) (A) (A) (A) (A) (A) (A)
                 (A) (A) (A) (A) (A) (A) (A) (A) (A) (A) (A) (A)
                 (A) (A) (A) (A) (A)
       Virtual   (A) (A) (A) (A) (A) (A) (A) (A) (A) (A) (A) (A)
                 (A) (A) (A) (A) (A) (A) (A) (A) (A) (A) (A) (A)
                 (A) (A) (A) (A) (A) (A) (A) (A) (A) (A) (A) (A)
                 (A) (A) (A) (A) (A) (A) (A) (A) (A) (A) (A) (A)
                 (A) (A) (A) (A) (A) (A) (A) (A) (A) (A) (A) (A)
                 (A) (A) (A) (A) (A) (A) (A) (A) (A) (A) (A) (A)
                 (A) (A) (A) (A) (A) (A) (A) (A) (A) (A) (A) (A)
                 (A) (A) (A) (A) (A) (A) (A) (A) (A) (A) (A) (A)
                 (A) (A) (A) (A) (A) (A) (A) (A) (A) (A) (A) (A)
                 (A) (A) (A) (A) (A) (A) (A) (A) (A) (A) (A) (A)
                 (A) (A) (A) (A) (A) (A) (A) (A) (A) (A) (A) (A)
                 (A) (A) (A) (A) (A) (A) (A) (A) (A) (A) (A) (A)
                 (A) (A) (A) (A) (A) (A) (A) (A) (A) (A) (A) (A)
                 (A) (A) (A) (A) (A) (A) (A) (A) (A) (A) (A) (A)
                 (A) (A) (A) (A) (A) (A) (A) (A) (A) (A) (A) (A)
                 (A) (A) (A) (A) (A) (A) (A) (A) (A) (A) (A) (A)
                 (A) (A) (A) (A) (A) (A) (A) (A) (A) (A) (A) (A)
                 (A) (A) (A) (A) (A) (A) (A) (A) (A) (A) (A) (A)
                 (A) (A) (A) (A) (A) (A) (A) (A) (A) (A) (A) (A)
                 (A) (A) (A) (A) (A) (A) (A) (A) (A) (A) (A) (A)
                 (A) (A) (A) (A) (A) (A) (A) (A) (A) (A) (A) (A)
                 (A) (A) (A) (A) (A) (A) (A) (A) (A) (A) (A) (A)
                 (A) (A) (A) (A) (A) (A) (A) (A) (A) (A) (A) (A)
                 (A) (A) (A) (A) (A) (A) (A) (A) (A) (A) (A) (A)
                 (A) (A) (A) (A) (A) (A) (A) (A) (A) (A) (A) (A)
                 (A) (A) (A) (A) (A) (A) (A) (A) (A) (A) (A) (A)
                 (A) (A) (A) (A) (A) (A) (A) (A) (A) (A) (A) (A)
                 (A) (A) (A) (A) (A) (A) (A) (A) (A) (A) (A) (A)
                 (A) (A) (A) (A) (A) (A) (A) (A) (A) (A) (A) (A)
                 (A) (A) (A) (A) (A) (A) (A) (A) (A) (A) (A) (A)
                 (A) (A) (A) (A) (A) (A) (A) (A) (A) (A) (A) (A)
                 (A) (A) (A) (A) (A) (A) (A) (A) (A) (A) (A) (A)
                 (A) (A) (A) (A) (A) (A) (A) (A) (A) (A) (A) (A)
                 (A) (A) (A) (A) (A) (A) (A) (A) (A) (A) (A) (A)
                 (A) (A) (A) (A) (A) (A) (A) (A) (A) (A) (A) (A)
                 (A) (A) (A) (A) (A) (A) (A) (A) (A) (A) (A) (A)
                 (A) (A) (A) (A) (A) (A) (A) (A) (A) (A) (A) (A)
                 (A) (A) (A) (A) (A) (A) (A) (A) (A) (A) (A) (A)
                 (A) (A) (A) (A) (A) (A) (A) (A) (A) (A) (A) (A)
                 (A) (A) (A) (A) (A) (A) (A) (A) (A) (A) (A) (A)
                 (A) (A) (A) (A) (A) (A) (A) (A) (A) (A) (A) (A)
                 (A) (A) (A) (A) (A) (A) (A) (A) (A) (A) (A) (A)
                 (A) (A) (A) (A) (A) (A) (A) (A) (A) (A) (A) (A)
                 (A) (A) (A) (A) (A) (A) (A) (A) (A) (A) (A) (A)
                 (A) (A) (A) (A) (A) (A) (A) (A) (A) (A) (A) (A)
                 (A) (A) (A) (A) (A) (A) (A) (A) (A) (A) (A) (A)
                 (A) (A)
 The electronic state is 1-A.
 Alpha  occ. eigenvalues --  -88.86232 -19.15153 -14.32520 -10.24087 -10.21948
 Alpha  occ. eigenvalues --  -10.21754 -10.21025 -10.19233 -10.18666 -10.18172
 Alpha  occ. eigenvalues --  -10.18163 -10.18083 -10.17976 -10.17546 -10.16806
 Alpha  occ. eigenvalues --   -7.92528  -5.89002  -5.88676  -5.88059  -1.03140
 Alpha  occ. eigenvalues --   -0.89284  -0.82681  -0.80806  -0.77769  -0.76488
 Alpha  occ. eigenvalues --   -0.74074  -0.70735  -0.67355  -0.63647  -0.61775
 Alpha  occ. eigenvalues --   -0.59845  -0.59538  -0.57875  -0.56416  -0.49876
 Alpha  occ. eigenvalues --   -0.49309  -0.48351  -0.47325  -0.46532  -0.45670
 Alpha  occ. eigenvalues --   -0.44508  -0.43899  -0.43212  -0.41854  -0.41254
 Alpha  occ. eigenvalues --   -0.40766  -0.40579  -0.39131  -0.37682  -0.37000
 Alpha  occ. eigenvalues --   -0.36547  -0.36257  -0.35846  -0.34938  -0.33929
 Alpha  occ. eigenvalues --   -0.33596  -0.33342  -0.32874  -0.32390  -0.32086
 Alpha  occ. eigenvalues --   -0.31523  -0.29945  -0.27466  -0.25364  -0.21955
 Alpha virt. eigenvalues --   -0.00535   0.00368   0.00845   0.01579   0.01749
 Alpha virt. eigenvalues --    0.02436   0.02559   0.03103   0.03155   0.03828
 Alpha virt. eigenvalues --    0.04172   0.04612   0.05073   0.05310   0.05878
 Alpha virt. eigenvalues --    0.06308   0.06468   0.06658   0.07145   0.07659
 Alpha virt. eigenvalues --    0.08105   0.08319   0.08594   0.09181   0.09454
 Alpha virt. eigenvalues --    0.10106   0.10368   0.10800   0.11103   0.11631
 Alpha virt. eigenvalues --    0.11933   0.12129   0.12634   0.13495   0.13762
 Alpha virt. eigenvalues --    0.14098   0.14773   0.15200   0.15557   0.15917
 Alpha virt. eigenvalues --    0.16190   0.16725   0.16767   0.17463   0.17965
 Alpha virt. eigenvalues --    0.18299   0.18620   0.19134   0.19379   0.19820
 Alpha virt. eigenvalues --    0.19917   0.20329   0.20539   0.20905   0.21276
 Alpha virt. eigenvalues --    0.21453   0.21584   0.22248   0.22482   0.22698
 Alpha virt. eigenvalues --    0.23320   0.23950   0.24336   0.24683   0.25179
 Alpha virt. eigenvalues --    0.25463   0.25838   0.26081   0.26544   0.26855
 Alpha virt. eigenvalues --    0.27008   0.27580   0.27753   0.28273   0.28456
 Alpha virt. eigenvalues --    0.28745   0.29720   0.30163   0.30440   0.30990
 Alpha virt. eigenvalues --    0.31710   0.31801   0.32377   0.32980   0.33803
 Alpha virt. eigenvalues --    0.34095   0.34542   0.35295   0.35601   0.36056
 Alpha virt. eigenvalues --    0.36512   0.36984   0.37846   0.38956   0.39162
 Alpha virt. eigenvalues --    0.39800   0.40573   0.40864   0.41258   0.43557
 Alpha virt. eigenvalues --    0.44712   0.45843   0.47468   0.49613   0.50665
 Alpha virt. eigenvalues --    0.51520   0.53558   0.53935   0.56421   0.57379
 Alpha virt. eigenvalues --    0.58822   0.59983   0.60048   0.61205   0.61683
 Alpha virt. eigenvalues --    0.62379   0.63270   0.63963   0.64554   0.64585
 Alpha virt. eigenvalues --    0.65110   0.65717   0.66073   0.66403   0.67589
 Alpha virt. eigenvalues --    0.67840   0.69474   0.70278   0.70426   0.70877
 Alpha virt. eigenvalues --    0.71669   0.71851   0.72947   0.73464   0.74091
 Alpha virt. eigenvalues --    0.74928   0.75422   0.75833   0.76438   0.77027
 Alpha virt. eigenvalues --    0.78061   0.78615   0.79070   0.79938   0.80817
 Alpha virt. eigenvalues --    0.81219   0.81614   0.82318   0.82706   0.83408
 Alpha virt. eigenvalues --    0.83452   0.83938   0.84354   0.84808   0.85897
 Alpha virt. eigenvalues --    0.86049   0.86347   0.87402   0.88391   0.89552
 Alpha virt. eigenvalues --    0.90285   0.90594   0.91172   0.91908   0.93050
 Alpha virt. eigenvalues --    0.94058   0.94352   0.94997   0.95640   0.97019
 Alpha virt. eigenvalues --    0.98192   0.98733   0.99371   0.99934   1.01605
 Alpha virt. eigenvalues --    1.01861   1.02379   1.03761   1.04330   1.04870
 Alpha virt. eigenvalues --    1.06278   1.06947   1.09137   1.09732   1.10556
 Alpha virt. eigenvalues --    1.12736   1.13643   1.14756   1.15524   1.17493
 Alpha virt. eigenvalues --    1.17762   1.20583   1.21067   1.21206   1.21644
 Alpha virt. eigenvalues --    1.21732   1.22261   1.23305   1.23795   1.24285
 Alpha virt. eigenvalues --    1.25269   1.26621   1.29209   1.30091   1.31530
 Alpha virt. eigenvalues --    1.32457   1.34919   1.36253   1.37396   1.38218
 Alpha virt. eigenvalues --    1.39116   1.40717   1.42370   1.42911   1.43826
 Alpha virt. eigenvalues --    1.46236   1.46525   1.47422   1.49244   1.51682
 Alpha virt. eigenvalues --    1.52852   1.53705   1.54895   1.56188   1.56602
 Alpha virt. eigenvalues --    1.57801   1.58933   1.60252   1.62111   1.62675
 Alpha virt. eigenvalues --    1.64786   1.65199   1.65570   1.67949   1.68293
 Alpha virt. eigenvalues --    1.70275   1.71258   1.72068   1.72456   1.73106
 Alpha virt. eigenvalues --    1.74602   1.76183   1.76521   1.76921   1.78778
 Alpha virt. eigenvalues --    1.79813   1.80635   1.81359   1.83454   1.84432
 Alpha virt. eigenvalues --    1.85389   1.87043   1.88912   1.89146   1.90608
 Alpha virt. eigenvalues --    1.91244   1.92336   1.93142   1.93544   1.94841
 Alpha virt. eigenvalues --    1.95248   1.95553   1.96751   1.98707   1.99332
 Alpha virt. eigenvalues --    2.01251   2.02684   2.05306   2.07406   2.08153
 Alpha virt. eigenvalues --    2.09956   2.10655   2.14972   2.16157   2.17472
 Alpha virt. eigenvalues --    2.18729   2.19461   2.19898   2.20320   2.21277
 Alpha virt. eigenvalues --    2.23853   2.24653   2.25227   2.28765   2.30180
 Alpha virt. eigenvalues --    2.31190   2.32834   2.34375   2.35070   2.35871
 Alpha virt. eigenvalues --    2.36655   2.37878   2.38183   2.40135   2.42668
 Alpha virt. eigenvalues --    2.44305   2.45234   2.46227   2.47669   2.49846
 Alpha virt. eigenvalues --    2.50303   2.52811   2.53747   2.54387   2.56944
 Alpha virt. eigenvalues --    2.58335   2.60266   2.62457   2.63290   2.65695
 Alpha virt. eigenvalues --    2.67241   2.70419   2.72751   2.75673   2.76524
 Alpha virt. eigenvalues --    2.77687   2.77836   2.78529   2.78789   2.79169
 Alpha virt. eigenvalues --    2.80067   2.81080   2.81572   2.82146   2.82662
 Alpha virt. eigenvalues --    2.83427   2.84291   2.85015   2.85999   2.86235
 Alpha virt. eigenvalues --    2.87869   2.88076   2.89064   2.89651   2.90907
 Alpha virt. eigenvalues --    2.93320   2.94169   2.94996   2.95097   2.95634
 Alpha virt. eigenvalues --    2.96153   2.97403   2.98043   2.98712   2.98866
 Alpha virt. eigenvalues --    2.99751   3.00596   3.00795   3.03030   3.03358
 Alpha virt. eigenvalues --    3.03974   3.04525   3.05018   3.06150   3.07020
 Alpha virt. eigenvalues --    3.08948   3.10467   3.10748   3.13271   3.14967
 Alpha virt. eigenvalues --    3.16773   3.18456   3.20388   3.21526   3.23171
 Alpha virt. eigenvalues --    3.24579   3.25925   3.27859   3.28373   3.29057
 Alpha virt. eigenvalues --    3.29693   3.32371   3.32922   3.33568   3.35935
 Alpha virt. eigenvalues --    3.36333   3.36815   3.38758   3.42068   3.43430
 Alpha virt. eigenvalues --    3.43576   3.45960   3.47574   3.48409   3.49341
 Alpha virt. eigenvalues --    3.50620   3.52618   3.52958   3.53668   3.56414
 Alpha virt. eigenvalues --    3.57398   3.57587   3.58426   3.59206   3.59530
 Alpha virt. eigenvalues --    3.60924   3.61609   3.62178   3.65783   3.66953
 Alpha virt. eigenvalues --    3.68065   3.69854   3.70512   3.70776   3.72724
 Alpha virt. eigenvalues --    3.73215   3.73774   3.75145   3.76208   3.77632
 Alpha virt. eigenvalues --    3.79986   3.80355   3.81113   3.81442   3.82546
 Alpha virt. eigenvalues --    3.83736   3.86302   3.89733   3.91515   3.92425
 Alpha virt. eigenvalues --    3.95278   3.98820   4.01150   4.05193   4.05394
 Alpha virt. eigenvalues --    4.09425   4.11065   4.13552   4.17613   4.22141
 Alpha virt. eigenvalues --    4.23849   4.24738   4.28369   4.29493   4.32021
 Alpha virt. eigenvalues --    4.33908   4.36056   4.38590   4.38828   4.40618
 Alpha virt. eigenvalues --    4.44470   4.45140   4.45406   4.46119   4.47149
 Alpha virt. eigenvalues --    4.48951   4.50226   4.50752   4.51586   4.51791
 Alpha virt. eigenvalues --    4.53677   4.54000   4.55186   4.55511   4.56055
 Alpha virt. eigenvalues --    4.56788   4.58102   4.58925   4.59761   4.60653
 Alpha virt. eigenvalues --    4.60956   4.61267   4.62186   4.62460   4.63699
 Alpha virt. eigenvalues --    4.65586   4.65738   4.66840   4.67106   4.67948
 Alpha virt. eigenvalues --    4.68502   4.68896   4.69826   4.70452   4.70580
 Alpha virt. eigenvalues --    4.71341   4.71962   4.73314   4.74457   4.75262
 Alpha virt. eigenvalues --    4.76002   4.76304   4.76524   4.77331   4.78063
 Alpha virt. eigenvalues --    4.79137   4.79623   4.80436   4.81625   4.82806
 Alpha virt. eigenvalues --    4.83154   4.86025   4.86268   4.87124   4.87886
 Alpha virt. eigenvalues --    4.89823   4.90836   4.91092   4.92488   4.93877
 Alpha virt. eigenvalues --    4.94948   4.95677   4.96783   4.97853   5.00142
 Alpha virt. eigenvalues --    5.00541   5.02441   5.02963   5.04349   5.08456
 Alpha virt. eigenvalues --    5.11474   5.15927   5.20900   5.22079   5.27830
 Alpha virt. eigenvalues --    5.31067   5.33028   5.36894   5.38326   5.38853
 Alpha virt. eigenvalues --    5.40575   5.42206   5.44323   5.46441   5.48324
 Alpha virt. eigenvalues --    5.48668   5.50223   5.57923   5.59266   5.63151
 Alpha virt. eigenvalues --    5.71746   5.75489   5.96495   5.97776   6.02924
 Alpha virt. eigenvalues --    6.12010   6.24022   6.67887   7.17483  11.23217
 Alpha virt. eigenvalues --   11.24485  11.64021  11.71094  11.75736  11.90391
 Alpha virt. eigenvalues --   12.07853  12.15120  12.26748  12.36948  12.50670
 Alpha virt. eigenvalues --   12.81350  12.89351  13.48808  16.31285
          Condensed to atoms (all electrons):
               1          2          3          4          5          6
     1  C    5.761779  -0.376215   0.276442  -0.105249  -0.202544   0.002872
     2  C   -0.376215   6.322183  -0.158668   0.169244   0.037028  -0.331927
     3  C    0.276442  -0.158668   6.618428   0.167159  -0.654286  -0.097075
     4  C   -0.105249   0.169244   0.167159   8.073527  -0.413183  -0.559518
     5  C   -0.202544   0.037028  -0.654286  -0.413183   8.740682  -1.393887
     6  C    0.002872  -0.331927  -0.097075  -0.559518  -1.393887  11.661755
     7  O   -0.001624  -0.010679  -0.015070  -0.216486   0.154432   0.068885
     8  C   -0.013046  -0.021730  -0.429102  -0.491968   0.612296  -3.057076
     9  C   -0.001918  -0.027080  -0.092163  -0.921902  -0.776243   0.154583
    10  C    0.000011  -0.000649  -0.004769  -0.056052   0.036910  -0.439931
    11  C    0.000002  -0.000490   0.001932   0.007063  -0.034716   0.226869
    12  S   -0.000085  -0.000444  -0.011449  -0.044855  -0.073936  -0.630824
    13  C   -0.000006  -0.000217  -0.001182  -0.022800  -0.041708  -0.137008
    14  C   -0.000001  -0.000004  -0.000179  -0.000668  -0.012269   0.013778
    15  N    0.000000   0.000000   0.000001   0.000005   0.000061   0.000560
    16  H    0.458363  -0.078404  -0.005385  -0.006544  -0.005033   0.000005
    17  H    0.465687  -0.136838   0.028748  -0.001835  -0.000285   0.000795
    18  H    0.477067  -0.140428   0.028747  -0.006717  -0.002761   0.000590
    19  H    0.038702   0.398963  -0.073359  -0.021645  -0.026813  -0.000938
    20  H    0.040818   0.409641  -0.063741  -0.030980  -0.030047  -0.010718
    21  H    0.006003   0.018993   0.423489  -0.079418  -0.019054  -0.033513
    22  H    0.012256   0.026308   0.448595  -0.097770  -0.034087  -0.035282
    23  H   -0.001174   0.010302   0.015297   0.465110  -0.086150  -0.039355
    24  H   -0.001352   0.008893   0.030528   0.383923  -0.087175   0.015221
    25  H   -0.000378  -0.003747   0.021051  -0.039149   0.406858   0.005739
    26  H   -0.000637   0.000330   0.041712  -0.050615   0.516411  -0.116001
    27  H   -0.000025   0.002979  -0.006803   0.034069   0.074101   0.293791
    28  H    0.000009   0.000340  -0.002130   0.028846  -0.048802   0.136436
    29  H    0.000013   0.000334   0.005719   0.027709   0.076289   0.112213
    30  H    0.000007   0.000214   0.001768   0.006175   0.056068  -0.115133
    31  H   -0.000000   0.000000   0.000117   0.004497  -0.005679   0.050856
    32  H    0.000000   0.000001   0.000007   0.001191  -0.002653   0.062535
    33  H    0.000000   0.000020   0.000182   0.006819   0.005378   0.061104
[...]
    13  C    5.313901   6.018832   4.086936   2.793089   3.412932
    14  C    6.705321   7.441817   5.368589   4.211511   4.793897
    15  N    7.707463   8.418201   6.501454   5.213280   5.627392
    16  H    7.313198   7.518110   8.577344   9.884477  10.542699
    17  H    6.681010   6.908121   7.774806   9.208948   9.920557
    18  H    6.690815   7.206525   7.763613   9.110682   9.991028
    19  H    5.246604   5.185284   6.632078   7.875165   8.322993
    20  H    5.259963   5.574535   6.620088   7.761953   8.407156
    21  H    4.231507   4.987281   5.191446   6.542177   7.512290
    22  H    4.217869   4.551098   5.209272   6.678935   7.421033
    23  H    2.784864   2.628144   4.225540   5.394084   5.761805
    24  H    2.811510   3.330360   4.210528   5.230979   5.885024
    25  H    2.153640   3.379206   2.713587   4.040106   5.175279
    26  H    2.160104   2.743069   2.758169   4.281251   5.079282
    27  H    1.098119   2.010671   2.168201   2.752151   3.401647
    28  H    1.967383   0.965041   2.645983   3.584316   3.550915
    29  H    2.139491   3.357158   1.096540   2.150223   3.549507
    30  H    2.162771   2.633720   1.099979   2.175596   2.915204
    31  H    2.899563   3.692719   2.172576   1.096986   2.173893
    32  H    4.348574   4.305093   3.492683   2.182086   1.094308
    33  H    3.262870   2.855307   2.705473   2.167213   1.094845
    34  H    4.095219   4.115012   3.978054   2.829236   2.181371
    35  H    4.488960   3.944049   4.461449   3.516398   2.161535
    36  H    2.974992   2.558997   3.381714   2.886811   2.185580
    37  H    5.473048   5.953149   4.388351   2.899822   2.998855
    38  H    5.124537   5.993692   4.074163   2.896761   3.760359
    39  H    6.817641   7.704549   5.436914   4.529079   5.386875
    40  H    7.073183   7.664817   5.665665   4.523261   4.882500
    41  H    7.729016   8.553821   6.619015   5.395427   5.971147
    42  H    8.623483   9.332163   7.354729   6.110799   6.506257
                   11         12         13         14         15
    11  C    0.000000
    12  S    4.112451   0.000000
    13  C    4.267448   1.852736   0.000000
    14  C    5.723462   2.796580   1.532145   0.000000
    15  N    6.272127   4.095369   2.431029   1.457889   0.000000
    16  H   10.389677  11.191354  12.308145  13.583991  14.540031
    17  H   10.012218  10.347881  11.654928  12.855542  13.935619
    18  H   10.008603  10.225006  11.341373  12.514506  13.493921
    19  H    8.124009   9.336808  10.480704  11.843246  12.807225
    20  H    8.120435   9.202581  10.134702  11.476174  12.330043
    21  H    7.671212   7.620437   8.758981   9.936646  10.948365
    22  H    7.678385   7.784342   9.159766  10.360832  11.485718
    23  H    5.651521   6.934403   8.086739   9.483703  10.460065
    24  H    5.646915   6.757554   7.637557   9.026306   9.874844
    25  H    5.575776   5.048732   6.214272   7.401394   8.455282
    26  H    5.636046   5.296842   6.781272   7.967797   9.152494
    27  H    3.293941   4.445362   5.214315   6.672520   7.507095
    28  H    3.924306   4.994166   6.347547   7.684207   8.765153
    29  H    4.424727   2.762282   4.100777   5.234172   6.400430
    30  H    4.034555   2.896858   4.552011   5.689749   6.938564
    31  H    2.628017   2.379924   2.637233   4.133113   4.919072
    32  H    2.137271   2.724591   2.990477   4.199962   4.954034
    33  H    2.175295   3.281171   4.264748   5.539171   6.492839
    34  H    1.096292   4.205017   3.912224   5.357551   5.699244
    35  H    1.094369   4.865873   4.947150   6.301722   6.759314
    36  H    1.090782   4.656298   5.023518   6.529688   7.140271
    37  H    3.667087   2.438782   1.099437   2.179472   2.659612
    38  H    4.344811   2.418434   1.102557   2.184116   2.735029
    39  H    6.396424   2.957361   2.166783   1.104684   2.162099
    40  H    5.954760   2.964833   2.161562   1.097545   2.074790
    41  H    6.479082   4.442977   2.726459   2.048379   1.023367
    42  H    7.218942   4.823523   3.324298   2.038568   1.025806
                   16         17         18         19         20
    16  H    0.000000
    17  H    1.769216   0.000000
    18  H    1.769178   1.768575   0.000000
    19  H    2.505633   2.529763   3.082814   0.000000
    20  H    2.504736   3.082456   2.529642   1.754657   0.000000
    21  H    3.789218   3.146382   2.605393   3.065761   2.513089
    22  H    3.788070   2.603881   3.143003   2.514194   3.065770
    23  H    4.905154   4.450265   4.788110   2.568550   3.114234
    24  H    4.898854   4.782456   4.448625   3.102635   2.563860
    25  H    6.226330   5.483459   5.181677   4.752985   4.405307
    26  H    6.213469   5.162219   5.444046   4.423447   4.747799
    27  H    7.407469   7.021591   6.813515   5.403513   5.133367
    28  H    7.632410   6.829171   7.324527   5.308477   5.928403
    29  H    8.480895   7.641504   7.465297   6.784328   6.587874
    30  H    8.828849   7.848512   8.054062   6.845577   7.079507
    31  H    9.873967   9.360105   9.067502   7.963892   7.621622
    32  H   11.622950  10.971736  11.031990   9.413601   9.484169
    33  H   10.322725   9.591982   9.852647   8.030659   8.338801
    34  H   10.780400  10.504991  10.325727   8.627430   8.410820
    35  H   11.096064  10.735967  10.837150   8.748423   8.872129
    36  H    9.397797   9.093552   9.109514   7.110669   7.131710
    37  H   12.624023  12.034590  11.786935  10.661900  10.384787
    38  H   11.825771  11.285764  10.822618  10.110514   9.595990
    39  H   13.398745  12.615084  12.217019  11.806075  11.384226
    40  H   14.095086  13.275612  13.064875  12.269792  12.044342
    41  H   14.299453  13.779598  13.213811  12.675688  12.064196
    42  H   15.442580  14.788462  14.352420  13.736399  13.270622
                   21         22         23         24         25
    21  H    0.000000
    22  H    1.755630   0.000000
    23  H    3.071973   2.519960   0.000000
    24  H    2.519373   3.068844   1.753629   0.000000
    25  H    2.576566   3.136108   3.065180   2.495700   0.000000
    26  H    3.084155   2.558460   2.540761   3.073205   1.756675
    27  H    4.426468   4.740332   3.073851   2.569767   2.498147
    28  H    5.152344   4.427620   2.857655   3.890188   3.626626
    29  H    4.862146   5.127342   4.596064   4.305651   2.299717
    30  H    5.544933   5.245134   4.466619   4.821419   3.236731
    31  H    6.531730   6.931038   5.579975   5.082803   4.089481
    32  H    8.522138   8.446526   6.850662   6.950059   6.111596
    33  H    7.430943   7.086289   5.470678   5.915827   5.212392
    34  H    7.984476   8.215791   6.232850   5.930108   5.863302
    35  H    8.569158   8.444417   6.309873   6.480318   6.557339
    36  H    6.873803   6.855422   4.691592   4.722739   5.001207
    37  H    9.218933   9.532905   8.197939   7.838011   6.694785
    38  H    8.287644   8.881024   7.822054   7.148975   5.824948
    39  H    9.671779  10.167069   9.550259   9.029243   7.195900
    40  H   10.467082  10.728079   9.849825   9.572759   7.903398
    41  H   10.722576  11.408833  10.421708   9.673400   8.312006
    42  H   11.805424  12.329184  11.390417  10.829240   9.309779
                   26         27         28         29         30
    26  H    0.000000
    27  H    3.059144   0.000000
    28  H    2.529475   2.825110   0.000000
    29  H    2.805768   2.613487   3.526626   0.000000
    30  H    2.690214   3.057092   2.407402   1.749910   0.000000
    31  H    4.727457   2.603490   4.249667   2.471936   3.077015
    32  H    6.039654   4.430928   4.543197   4.261683   3.650834
    33  H    4.744167   3.652586   2.908044   3.728874   2.584765
    34  H    6.223306   3.564819   4.814784   4.683990   4.663783
    35  H    6.447045   4.267522   4.441921   5.414633   4.797892
    36  H    5.030966   2.600448   3.312704   4.295081   3.940473
    37  H    7.144599   5.311230   6.322356   4.650226   4.834690
    38  H    6.656495   4.843784   6.448379   3.940745   4.763079
    39  H    7.845387   6.839676   7.906962   5.088644   5.742213
    40  H    8.251263   7.168788   7.796099   5.643482   5.791549
    41  H    9.191861   7.420385   8.979491   6.414058   7.186571
    42  H    9.974228   8.474145   9.627582   7.214781   7.713050
                   31         32         33         34         35
    31  H    0.000000
    32  H    2.711214   0.000000
    33  H    3.033048   1.750233   0.000000
    34  H    2.461639   2.510704   3.088649   0.000000
    35  H    3.668304   2.425181   2.513415   1.765805   0.000000
    36  H    2.896906   3.059913   2.524964   1.782211   1.766270
    37  H    2.766003   2.360072   3.920092   3.269164   4.176795
    38  H    2.340786   3.587723   4.705648   3.809237   5.159008
    39  H    4.451114   4.944564   6.068226   6.064340   7.080669
    40  H    4.681034   4.140905   5.477821   5.739056   6.400744
    41  H    4.912875   5.438869   6.908694   5.791136   7.061639
    42  H    5.888116   5.769154   7.311042   6.680608   7.655781
                   36         37         38         39         40
    36  H    0.000000
    37  H    4.573134   0.000000
    38  H    4.958400   1.783280   0.000000
    39  H    7.091955   3.086350   2.523743   0.000000
    40  H    6.824089   2.521316   3.084371   1.769971   0.000000
    41  H    7.260721   3.082506   2.605400   2.419991   2.930843
    42  H    8.111199   3.570038   3.699540   2.493746   2.309025
                   41         42
    41  H    0.000000
    42  H    1.649752   0.000000
 Stoichiometry    C12H27NOS
 Framework group  C1[X(C12H27NOS)]
 Deg. of freedom   120
 Full point group                 C1      NOp   1
 Largest Abelian subgroup         C1      NOp   1
 Largest concise Abelian subgroup C1      NOp   1
                         Standard orientation:                         
 ---------------------------------------------------------------------
 Center     Atomic      Atomic             Coordinates (Angstroms)
 Number     Number       Type             X           Y           Z
 ---------------------------------------------------------------------
      1          6           0       -7.291368   -1.259605   -0.301725
      2          6           0       -6.094020   -0.361721   -0.629960
      3          6           0       -4.790131   -0.827367    0.029374
      4          6           0       -3.590504    0.071188   -0.291487
      5          6           0       -2.288533   -0.406569    0.362054
      6          6           0       -1.080945    0.502952    0.082742
      7          8           0       -1.328338    1.843189    0.516572
      8          6           0        0.200189   -0.076514    0.709731
      9          6           0        1.548322    0.411749    0.133986
     10          6           0        1.896542    1.915774    0.293937
     11          6           0        1.514977    2.765642   -0.923895
     12         16           0        2.847293   -0.643195    0.951476
     13          6           0        4.093686   -0.596798   -0.418554
     14          6           0        5.349790   -1.391784   -0.047515
     15          7           0        6.326781   -1.252742   -1.120640
     16          1           0       -8.205173   -0.901152   -0.787160
     17          1           0       -7.478815   -1.291350    0.778175
     18          1           0       -7.118575   -2.289211   -0.636872
     19          1           0       -6.309885    0.668118   -0.314432
     20          1           0       -5.953501   -0.321671   -1.718758
     21          1           0       -4.573018   -1.858033   -0.287158
     22          1           0       -4.931925   -0.870379    1.119243
     23          1           0       -3.800770    1.098673    0.026758
     24          1           0       -3.449572    0.113873   -1.381093
     25          1           0       -2.051358   -1.418168    0.006843
     26          1           0       -2.423668   -0.491299    1.451906
     27          1           0       -0.951309    0.583680   -1.004706
     28          1           0       -1.451901    1.843961    1.473670
     29          1           0        0.159289   -1.165524    0.588144
     30          1           0        0.177893    0.101516    1.794979
     31          1           0        1.612816    0.139448   -0.926708
     32          1           0        2.972148    2.033336    0.457520
     33          1           0        1.407613    2.295009    1.197163
     34          1           0        2.005752    2.394854   -1.831370
     35          1           0        1.847228    3.796885   -0.769653
     36          1           0        0.435817    2.781921   -1.081866
     37          1           0        4.345126    0.452203   -0.631008
     38          1           0        3.608300   -1.021736   -1.312679
     39          1           0        5.070105   -2.435586    0.181788
     40          1           0        5.792653   -0.971054    0.864332
     41          1           0        6.020436   -1.777296   -1.944214
     42          1           0        7.218825   -1.657903   -0.816699
 ---------------------------------------------------------------------
 Rotational constants (GHZ):           1.0693519           0.1354339           0.1269017
 Standard basis: 6-31+G(2df,p) (6D, 7F)
 There are   664 symmetry adapted cartesian basis functions of A   symmetry.
 There are   619 symmetry adapted basis functions of A   symmetry.
   619 basis functions,   933 primitive gaussians,   664 cartesian basis functions
    65 alpha electrons       65 beta electrons
       nuclear repulsion energy      1125.5510450505 Hartrees.
 NAtoms=   42 NActive=   42 NUniq=   42 SFac= 1.00D+00 NAtFMM=   60 NAOKFM=F Big=F
 Integral buffers will be    131072 words long.
 Regular integral format.
 Two-electron integral symmetry is turned on.
 One-electron integrals computed using PRISM.
 PrsmSu:  requested number of processors reduced to:  12 ShMem   1 Linda.
 NBasis=   619 RedAO= T EigKep=  4.10D-06  NBF=   619
 NBsUse=   619 1.00D-06 EigRej= -1.00D+00 NBFU=   619
 Initial guess from the checkpoint file:  "CCCCCCqOrCCqCCrSCCN.chk"
 B after Tr=     0.000000    0.000000   -0.000000
         Rot=    0.998662    0.051595   -0.000805    0.003447 Ang=   5.93 deg.
 ExpMin= 4.05D-02 ExpMax= 2.19D+04 ExpMxC= 3.30D+03 IAcc=2 IRadAn=         4 AccDes= 0.00D+00
 Harris functional with IExCor=  402 and IRadAn=       4 diagonalized for initial guess.
 HarFok:  IExCor=  402 AccDes= 0.00D+00 IRadAn=         4 IDoV= 1 UseB2=F ITyADJ=14
 ICtDFT=  3500011 ScaDFX=  1.000000  1.000000  1.000000  1.000000
 FoFCou: FMM=F IPFlag=           0 FMFlag=      100000 FMFlg1=           0
         NFxFlg=           0 DoJE=T BraDBF=F KetDBF=T FulRan=T
         wScrn=  0.000000 ICntrl=       500 IOpCl=  0 I1Cent=   200000004 NGrid=           0
         NMat0=    1 NMatS0=      1 NMatT0=    0 NMatD0=    1 NMtDS0=    0 NMtDT0=    0
 Petite list used in FoFCou.
 Requested convergence on RMS density matrix=1.00D-08 within 128 cycles.
 Requested convergence on MAX density matrix=1.00D-06.
 Requested convergence on             energy=1.00D-06.
 No special actions if energy rises.
 SCF Done:  E(RB3LYP) =  -1001.77969253     A.U. after   14 cycles
            NFock= 14  Conv=0.18D-08     -V/T= 2.0065
 DoSCS=F DFT=T ScalE2(SS,OS)=  1.000000  1.000000
 ExpMin= 4.05D-02 ExpMax= 2.19D+04 ExpMxC= 3.30D+03 IAcc=3 IRadAn=         5 AccDes= 0.00D+00
 HarFok:  IExCor=  205 AccDes= 0.00D+00 IRadAn=         5 IDoV=-2 UseB2=F ITyADJ=14
 ICtDFT= 12500011 ScaDFX=  1.000000  1.000000  1.000000  1.000000
 Range of M.O.s used for correlation:    20   619
 NBasis=   619 NAE=    65 NBE=    65 NFC=    19 NFV=     0
 NROrb=    600 NOA=    46 NOB=    46 NVA=   554 NVB=   554

 **** Warning!!: The largest alpha MO coefficient is  0.98249613D+02

 Orbital symmetries:
       Occupied  (A) (A) (A) (A) (A) (A) (A) (A) (A) (A) (A) (A)
                 (A) (A) (A) (A) (A) (A) (A) (A) (A) (A) (A) (A)
                 (A) (A) (A) (A) (A) (A) (A) (A) (A) (A) (A) (A)
                 (A) (A) (A) (A) (A) (A) (A) (A) (A) (A) (A) (A)
                 (A) (A) (A) (A) (A) (A) (A) (A) (A) (A) (A) (A)
                 (A) (A) (A) (A) (A)
       Virtual   (A) (A) (A) (A) (A) (A) (A) (A) (A) (A) (A) (A)
                 (A) (A) (A) (A) (A) (A) (A) (A) (A) (A) (A) (A)
                 (A) (A) (A) (A) (A) (A) (A) (A) (A) (A) (A) (A)
                 (A) (A) (A) (A) (A) (A) (A) (A) (A) (A) (A) (A)
                 (A) (A) (A) (A) (A) (A) (A) (A) (A) (A) (A) (A)
                 (A) (A) (A) (A) (A) (A) (A) (A) (A) (A) (A) (A)
                 (A) (A) (A) (A) (A) (A) (A) (A) (A) (A) (A) (A)
                 (A) (A) (A) (A) (A) (A) (A) (A) (A) (A) (A) (A)
                 (A) (A) (A) (A) (A) (A) (A) (A) (A) (A) (A) (A)
                 (A) (A) (A) (A) (A) (A) (A) (A) (A) (A) (A) (A)
                 (A) (A) (A) (A) (A) (A) (A) (A) (A) (A) (A) (A)
                 (A) (A) (A) (A) (A) (A) (A) (A) (A) (A) (A) (A)
                 (A) (A) (A) (A) (A) (A) (A) (A) (A) (A) (A) (A)
                 (A) (A) (A) (A) (A) (A) (A) (A) (A) (A) (A) (A)
                 (A) (A) (A) (A) (A) (A) (A) (A) (A) (A) (A) (A)
                 (A) (A) (A) (A) (A) (A) (A) (A) (A) (A) (A) (A)
                 (A) (A) (A) (A) (A) (A) (A) (A) (A) (A) (A) (A)
                 (A) (A) (A) (A) (A) (A) (A) (A) (A) (A) (A) (A)
                 (A) (A) (A) (A) (A) (A) (A) (A) (A) (A) (A) (A)
                 (A) (A) (A) (A) (A) (A) (A) (A) (A) (A) (A) (A)
                 (A) (A) (A) (A) (A) (A) (A) (A) (A) (A) (A) (A)
                 (A) (A) (A) (A) (A) (A) (A) (A) (A) (A) (A) (A)
                 (A) (A) (A) (A) (A) (A) (A) (A) (A) (A) (A) (A)
                 (A) (A) (A) (A) (A) (A) (A) (A) (A) (A) (A) (A)
                 (A) (A) (A) (A) (A) (A) (A) (A) (A) (A) (A) (A)
                 (A) (A) (A) (A) (A) (A) (A) (A) (A) (A) (A) (A)
                 (A) (A) (A) (A) (A) (A) (A) (A) (A) (A) (A) (A)
                 (A) (A) (A) (A) (A) (A) (A) (A) (A) (A) (A) (A)
                 (A) (A) (A) (A) (A) (A) (A) (A) (A) (A) (A) (A)
                 (A) (A) (A) (A) (A) (A) (A) (A) (A) (A) (A) (A)
                 (A) (A) (A) (A) (A) (A) (A) (A) (A) (A) (A) (A)
                 (A) (A) (A) (A) (A) (A) (A) (A) (A) (A) (A) (A)
                 (A) (A) (A) (A) (A) (A) (A) (A) (A) (A) (A) (A)
                 (A) (A) (A) (A) (A) (A) (A) (A) (A) (A) (A) (A)
                 (A) (A) (A) (A) (A) (A) (A) (A) (A) (A) (A) (A)
                 (A) (A) (A) (A) (A) (A) (A) (A) (A) (A) (A) (A)
                 (A) (A) (A) (A) (A) (A) (A) (A) (A) (A) (A) (A)
                 (A) (A) (A) (A) (A) (A) (A) (A) (A) (A) (A) (A)
                 (A) (A) (A) (A) (A) (A) (A) (A) (A) (A) (A) (A)
                 (A) (A) (A) (A) (A) (A) (A) (A) (A) (A) (A) (A)
                 (A) (A) (A) (A) (A) (A) (A) (A) (A) (A) (A) (A)
                 (A) (A) (A) (A) (A) (A) (A) (A) (A) (A) (A) (A)
                 (A) (A) (A) (A) (A) (A) (A) (A) (A) (A) (A) (A)
                 (A) (A) (A) (A) (A) (A) (A) (A) (A) (A) (A) (A)
                 (A) (A) (A) (A) (A) (A) (A) (A) (A) (A) (A) (A)
                 (A) (A) (A) (A) (A) (A) (A) (A) (A) (A) (A) (A)
                 (A) (A)
 Generating guess from densities on rwf.
 Convergence on wavefunction:    0.000001000000000
 Iteration     1 Dimension    20 NMult     0 NNew     20
 CISAX will form     2 AO SS matrices at one time.
 New state      1 was old state      2
 New state      2 was old state      8
 New state      3 was old state      5
 New state      4 was old state      6
 New state      5 was old state      7
 New state      6 was old state      9
 New state      7 was old state      4
 New state      8 was old state     10
 New state      9 was old state      1
 New state     10 was old state      3
 Iteration     2 Dimension    40 NMult    20 NNew     20
slurmstepd: error: *** JOB 27501052 ON lewis4-r630-hpc4-node237 CANCELLED AT 2023-05-26T18:10:35 DUE TO TIME LIMIT ***
