### Starting Gaussian ###
 Entering Gaussian System, Link 0=g16
 Initial command:
 /cluster/software/gaussian/gaussian-16-A.03/avx2/g16/l1.exe "/local/scratch/cz9n3/Gau-30581.inp" -scrdir="/local/scratch/cz9n3/"
 Entering Link 1 = /cluster/software/gaussian/gaussian-16-A.03/avx2/g16/l1.exe PID=     30582.
  
 Copyright (c) 1988,1990,1992,1993,1995,1998,2003,2009,2016,
            Gaussian, Inc.  All Rights Reserved.
  
 This is part of the Gaussian(R) 16 program.  It is based on
 the Gaussian(R) 09 system (copyright 2009, Gaussian, Inc.),
 the Gaussian(R) 03 system (copyright 2003, Gaussian, Inc.),
 the Gaussian(R) 98 system (copyright 1998, Gaussian, Inc.),
 the Gaussian(R) 94 system (copyright 1995, Gaussian, Inc.),
 the Gaussian 92(TM) system (copyright 1992, Gaussian, Inc.),
 the Gaussian 90(TM) system (copyright 1990, Gaussian, Inc.),
 the Gaussian 88(TM) system (copyright 1988, Gaussian, Inc.),
 the Gaussian 86(TM) system (copyright 1986, Carnegie Mellon
 University), and the Gaussian 82(TM) system (copyright 1983,
 Carnegie Mellon University). Gaussian is a federally registered
 trademark of Gaussian, Inc.
  
 This software contains proprietary and confidential information,
 including trade secrets, belonging to Gaussian, Inc.
  
 This software is provided under written license and may be
 used, copied, transmitted, or stored only in accord with that
 written license.
  
 The following legend is applicable only to US Government
 contracts under FAR:
  
                    RESTRICTED RIGHTS LEGEND
  
 Use, reproduction and disclosure by the US Government is
 subject to restrictions as set forth in subparagraphs (a)
 and (c) of the Commercial Computer Software - Restricted
 Rights clause in FAR 52.227-19.
  
 Gaussian, Inc.
 340 Quinnipiac St., Bldg. 40, Wallingford CT 06492
  
  
 ---------------------------------------------------------------
 Warning -- This program may not be used in any manner that
 competes with the business of Gaussian, Inc. or will provide
 assistance to any competitor of Gaussian, Inc.  The licensee
 of this program is prohibited from giving any competitor of
 Gaussian, Inc. access to this program.  By using this program,
 the user acknowledges that Gaussian, Inc. is engaged in the
 business of creating and licensing software in the field of
 computational chemistry and represents and warrants to the
 licensee that it is not a competitor of Gaussian, Inc. and that
 it will not use this program in any manner prohibited above.
 ---------------------------------------------------------------
  

 Cite this work as:
 Gaussian 16, Revision A.03,
 M. J. Frisch, G. W. Trucks, H. B. Schlegel, G. E. Scuseria, 
 M. A. Robb, J. R. Cheeseman, G. Scalmani, V. Barone, 
 G. A. Petersson, H. Nakatsuji, X. Li, M. Caricato, A. V. Marenich, 
 J. Bloino, B. G. Janesko, R. Gomperts, B. Mennucci, H. P. Hratchian, 
 J. V. Ortiz, A. F. Izmaylov, J. L. Sonnenberg, D. Williams-Young, 
 F. Ding, F. Lipparini, F. Egidi, J. Goings, B. Peng, A. Petrone, 
 T. Henderson, D. Ranasinghe, V. G. Zakrzewski, J. Gao, N. Rega, 
 G. Zheng, W. Liang, M. Hada, M. Ehara, K. Toyota, R. Fukuda, 
 J. Hasegawa, M. Ishida, T. Nakajima, Y. Honda, O. Kitao, H. Nakai, 
 T. Vreven, K. Throssell, J. A. Montgomery, Jr., J. E. Peralta, 
 F. Ogliaro, M. J. Bearpark, J. J. Heyd, E. N. Brothers, K. N. Kudin, 
 V. N. Staroverov, T. A. Keith, R. Kobayashi, J. Normand, 
 K. Raghavachari, A. P. Rendell, J. C. Burant, S. S. Iyengar, 
 J. Tomasi, M. Cossi, J. M. Millam, M. Klene, C. Adamo, R. Cammi, 
 J. W. Ochterski, R. L. Martin, K. Morokuma, O. Farkas, 
 J. B. Foresman, and D. J. Fox, Gaussian, Inc., Wallingford CT, 2016.
 
 ******************************************
 Gaussian 16:  ES64L-G16RevA.03 25-Dec-2016
                24-May-2023 
 ******************************************
 %chk=CCCCCCqCrCCCqNrCCCN.chk
 %NProcShared=20
 Will use up to   20 processors via shared memory.
 -----------------------------
 # opt freq b3lyp/6-31g(2df,p)
 -----------------------------
 1/18=20,19=15,26=3,38=1/1,3;
 2/9=110,12=2,17=6,18=5,40=1/2;
 3/5=1,6=6,7=104,11=2,25=1,30=1,71=1,74=-5/1,2,3;
 4//1;
 5/5=2,38=5/2;
 6/7=2,8=2,9=2,10=2,28=1/1;
 7//1,2,3,16;
 1/18=20,19=15,26=3/3(2);
 2/9=110/2;
 99//99;
 2/9=110/2;
 3/5=1,6=6,7=104,11=2,25=1,30=1,71=1,74=-5/1,2,3;
 4/5=5,16=3,69=1/1;
 5/5=2,38=5/2;
 7//1,2,3,16;
 1/18=20,19=15,26=3/3(-5);
 2/9=110/2;
 6/7=2,8=2,9=2,10=2,19=2,28=1/1;
 99/9=1/99;
 -------------------
 Title Card Required
 -------------------
 Symbolic Z-matrix:
 Charge =  0 Multiplicity = 1
 C                     0.8841    0.05434  -0.01863 
 C                     2.39792   0.0656   -0.00048 
 C                     2.91498   1.2287    0.8373 
 C                     4.43236   1.22647   0.82238 
 C                     4.99745   2.39919   1.60933 
 C                     6.53259   2.41646   1.56963 
 C                     7.06336   2.53098   0.13653 
 C                     7.02384   3.57551   2.44241 
 C                     8.54668   3.62036   2.53367 
 C                     9.04871   4.78247   3.38893 
 N                     8.57736   4.66813   4.76772 
 C                     10.58202   4.79999   3.35845 
 C                     11.14008   5.97542   4.15566 
 C                     12.6607   5.96631   4.14625 
 N                     13.15012   7.08255   4.94264 
 H                     0.51976  -0.7851   -0.61638 
 H                     0.49707   0.98185  -0.45221 
 H                     0.4878   -0.04383   0.99658 
 H                     2.77575   0.14712  -1.02722 
 H                     2.7716   -0.88169   0.40592 
 H                     2.5484    1.15227   1.8673 
 H                     2.54569   2.17657   0.42636 
 H                     4.75357   1.2787   -0.2217 
 H                     4.81634   0.28678   1.23743 
 H                     4.65618   2.33033   2.65143 
 H                     4.60249   3.34344   1.21292 
 H                     6.90054   1.47696   2.00348 
 H                     6.71942   3.45955  -0.33048 
 H                     6.74521   1.6915   -0.48519 
 H                     8.15497   2.51099   0.10351 
 H                     6.59416   3.45369   3.44391 
 H                     6.64929   4.52982   2.05086 
 H                     8.97503   3.74506   1.53352 
 H                     8.92045   2.66378   2.92105 
 H                     8.67661   5.72266   2.96472 
 H                     8.84941   3.76837   5.15289 
 H                     7.55776   4.70155   4.79689 
 H                     10.92638   4.87284   2.31747 
 H                     10.97845   3.85492   3.75213 
 H                     10.78764   5.92516   5.19261 
 H                     10.75999   6.91207   3.72901 
 H                     13.03468   6.04914   3.12011 
 H                     13.03366   5.027     4.56656 
 H                     12.80675   7.95626   4.55397 
 H                     14.16838   7.11488   4.89574 
 

 GradGradGradGradGradGradGradGradGradGradGradGradGradGradGradGradGradGrad
 Berny optimization.
 Initialization pass.
                           ----------------------------
                           !    Initial Parameters    !
                           ! (Angstroms and Degrees)  !
 --------------------------                            --------------------------
 ! Name  Definition              Value          Derivative Info.                !
 --------------------------------------------------------------------------------
 ! R1    R(1,2)                  1.514          estimate D2E/DX2                !
 ! R2    R(1,16)                 1.093          estimate D2E/DX2                !
 ! R3    R(1,17)                 1.0946         estimate D2E/DX2                !
 ! R4    R(1,18)                 1.0942         estimate D2E/DX2                !
 ! R5    R(2,3)                  1.5238         estimate D2E/DX2                !
 ! R6    R(2,19)                 1.0971         estimate D2E/DX2                !
 ! R7    R(2,20)                 1.0964         estimate D2E/DX2                !
 ! R8    R(3,4)                  1.5175         estimate D2E/DX2                !
 ! R9    R(3,21)                 1.096          estimate D2E/DX2                !
 ! R10   R(3,22)                 1.0971         estimate D2E/DX2                !
 ! R11   R(4,5)                  1.5211         estimate D2E/DX2                !
 ! R12   R(4,23)                 1.0936         estimate D2E/DX2                !
 ! R13   R(4,24)                 1.0967         estimate D2E/DX2                !
 ! R14   R(5,6)                  1.5358         estimate D2E/DX2                !
 ! R15   R(5,25)                 1.0987         estimate D2E/DX2                !
 ! R16   R(5,26)                 1.0976         estimate D2E/DX2                !
 ! R17   R(6,7)                  1.5325         estimate D2E/DX2                !
 ! R18   R(6,8)                  1.5318         estimate D2E/DX2                !
 ! R19   R(6,27)                 1.0983         estimate D2E/DX2                !
 ! R20   R(7,28)                 1.0948         estimate D2E/DX2                !
 ! R21   R(7,29)                 1.092          estimate D2E/DX2                !
 ! R22   R(7,30)                 1.0923         estimate D2E/DX2                !
 ! R23   R(8,9)                  1.5262         estimate D2E/DX2                !
 ! R24   R(8,31)                 1.0966         estimate D2E/DX2                !
 ! R25   R(8,32)                 1.0974         estimate D2E/DX2                !
 ! R26   R(9,10)                 1.5277         estimate D2E/DX2                !
 ! R27   R(9,33)                 1.0951         estimate D2E/DX2                !
 ! R28   R(9,34)                 1.0976         estimate D2E/DX2                !
 ! R29   R(10,11)                1.4616         estimate D2E/DX2                !
 ! R30   R(10,12)                1.5337         estimate D2E/DX2                !
 ! R31   R(10,35)                1.0965         estimate D2E/DX2                !
 ! R32   R(11,36)                1.0158         estimate D2E/DX2                !
 ! R33   R(11,37)                1.0206         estimate D2E/DX2                !
 ! R34   R(12,13)                1.526          estimate D2E/DX2                !
 ! R35   R(12,38)                1.0989         estimate D2E/DX2                !
 ! R36   R(12,39)                1.0979         estimate D2E/DX2                !
 ! R37   R(13,14)                1.5207         estimate D2E/DX2                !
 ! R38   R(13,40)                1.0964         estimate D2E/DX2                !
 ! R39   R(13,41)                1.0972         estimate D2E/DX2                !
 ! R40   R(14,15)                1.4559         estimate D2E/DX2                !
 ! R41   R(14,42)                1.0953         estimate D2E/DX2                !
 ! R42   R(14,43)                1.0946         estimate D2E/DX2                !
 ! R43   R(15,44)                1.016          estimate D2E/DX2                !
 ! R44   R(15,45)                1.0199         estimate D2E/DX2                !
 ! A1    A(2,1,16)             110.2164         estimate D2E/DX2                !
 ! A2    A(2,1,17)             110.6101         estimate D2E/DX2                !
 ! A3    A(2,1,18)             110.5901         estimate D2E/DX2                !
 ! A4    A(16,1,17)            108.4388         estimate D2E/DX2                !
 ! A5    A(16,1,18)            108.5274         estimate D2E/DX2                !
 ! A6    A(17,1,18)            108.3897         estimate D2E/DX2                !
 ! A7    A(1,2,3)              110.5823         estimate D2E/DX2                !
 ! A8    A(1,2,19)             109.4931         estimate D2E/DX2                !
 ! A9    A(1,2,20)             109.8037         estimate D2E/DX2                !
 ! A10   A(3,2,19)             109.9354         estimate D2E/DX2                !
 ! A11   A(3,2,20)             109.8785         estimate D2E/DX2                !
 ! A12   A(19,2,20)            107.0805         estimate D2E/DX2                !
 ! A13   A(2,3,4)              109.4372         estimate D2E/DX2                !
 ! A14   A(2,3,21)             110.4858         estimate D2E/DX2                !
 ! A15   A(2,3,22)             109.8339         estimate D2E/DX2                !
 ! A16   A(4,3,21)             110.0967         estimate D2E/DX2                !
 ! A17   A(4,3,22)             109.5218         estimate D2E/DX2                !
 ! A18   A(21,3,22)            107.4384         estimate D2E/DX2                !
 ! A19   A(3,4,5)              111.4231         estimate D2E/DX2                !
 ! A20   A(3,4,23)             107.6388         estimate D2E/DX2                !
 ! A21   A(3,4,24)             110.3435         estimate D2E/DX2                !
 ! A22   A(5,4,23)             110.3634         estimate D2E/DX2                !
 ! A23   A(5,4,24)             109.5555         estimate D2E/DX2                !
 ! A24   A(23,4,24)            107.4215         estimate D2E/DX2                !
 ! A25   A(4,5,6)              111.5084         estimate D2E/DX2                !
 ! A26   A(4,5,25)             109.0853         estimate D2E/DX2                !
 ! A27   A(4,5,26)             110.0421         estimate D2E/DX2                !
 ! A28   A(6,5,25)             109.6156         estimate D2E/DX2                !
 ! A29   A(6,5,26)             109.9185         estimate D2E/DX2                !
 ! A30   A(25,5,26)            106.5407         estimate D2E/DX2                !
 ! A31   A(5,6,7)              111.7906         estimate D2E/DX2                !
 ! A32   A(5,6,8)              108.3216         estimate D2E/DX2                !
 ! A33   A(5,6,27)             108.364          estimate D2E/DX2                !
 ! A34   A(7,6,8)              111.4195         estimate D2E/DX2                !
 ! A35   A(7,6,27)             108.4988         estimate D2E/DX2                !
 ! A36   A(8,6,27)             108.345          estimate D2E/DX2                !
 ! A37   A(6,7,28)             110.6995         estimate D2E/DX2                !
 ! A38   A(6,7,29)             111.9658         estimate D2E/DX2                !
 ! A39   A(6,7,30)             111.9022         estimate D2E/DX2                !
 ! A40   A(28,7,29)            108.5196         estimate D2E/DX2                !
 ! A41   A(28,7,30)            108.4564         estimate D2E/DX2                !
 ! A42   A(29,7,30)            105.0631         estimate D2E/DX2                !
 ! A43   A(6,8,9)              112.104          estimate D2E/DX2                !
 ! A44   A(6,8,31)             108.0984         estimate D2E/DX2                !
 ! A45   A(6,8,32)             110.1964         estimate D2E/DX2                !
 ! A46   A(9,8,31)             109.8539         estimate D2E/DX2                !
 ! A47   A(9,8,32)             109.6532         estimate D2E/DX2                !
 ! A48   A(31,8,32)            106.782          estimate D2E/DX2                !
 ! A49   A(8,9,10)             112.5634         estimate D2E/DX2                !
 ! A50   A(8,9,33)             109.8163         estimate D2E/DX2                !
 ! A51   A(8,9,34)             109.5882         estimate D2E/DX2                !
 ! A52   A(10,9,33)            107.2244         estimate D2E/DX2                !
 ! A53   A(10,9,34)            110.6982         estimate D2E/DX2                !
 ! A54   A(33,9,34)            106.7593         estimate D2E/DX2                !
 ! A55   A(9,10,11)            111.2611         estimate D2E/DX2                !
 ! A56   A(9,10,12)            109.0314         estimate D2E/DX2                !
 ! A57   A(9,10,35)            108.913          estimate D2E/DX2                !
 ! A58   A(11,10,12)           110.0014         estimate D2E/DX2                !
 ! A59   A(11,10,35)           108.8194         estimate D2E/DX2                !
 ! A60   A(12,10,35)           108.7701         estimate D2E/DX2                !
 ! A61   A(10,11,36)           109.9136         estimate D2E/DX2                !
 ! A62   A(10,11,37)           110.2784         estimate D2E/DX2                !
 ! A63   A(36,11,37)           106.602          estimate D2E/DX2                !
 ! A64   A(10,12,13)           111.3477         estimate D2E/DX2                !
 ! A65   A(10,12,38)           109.4434         estimate D2E/DX2                !
 ! A66   A(10,12,39)           110.1231         estimate D2E/DX2                !
 ! A67   A(13,12,38)           109.2221         estimate D2E/DX2                !
 ! A68   A(13,12,39)           110.1018         estimate D2E/DX2                !
 ! A69   A(38,12,39)           106.4756         estimate D2E/DX2                !
 ! A70   A(12,13,14)           110.9679         estimate D2E/DX2                !
 ! A71   A(12,13,40)           109.9526         estimate D2E/DX2                !
 ! A72   A(12,13,41)           109.1315         estimate D2E/DX2                !
 ! A73   A(14,13,40)           109.0886         estimate D2E/DX2                !
 ! A74   A(14,13,41)           110.4334         estimate D2E/DX2                !
 ! A75   A(40,13,41)           107.1911         estimate D2E/DX2                !
 ! A76   A(13,14,15)           109.1574         estimate D2E/DX2                !
 ! A77   A(13,14,42)           110.29           estimate D2E/DX2                !
 ! A78   A(13,14,43)           110.0897         estimate D2E/DX2                !
 ! A79   A(15,14,42)           109.8586         estimate D2E/DX2                !
 ! A80   A(15,14,43)           109.4722         estimate D2E/DX2                !
 ! A81   A(42,14,43)           107.9572         estimate D2E/DX2                !
 ! A82   A(14,15,44)           109.6598         estimate D2E/DX2                !
 ! A83   A(14,15,45)           109.5591         estimate D2E/DX2                !
 ! A84   A(44,15,45)           107.0119         estimate D2E/DX2                !
 ! D1    D(16,1,2,3)          -179.6896         estimate D2E/DX2                !
 ! D2    D(16,1,2,19)           59.0263         estimate D2E/DX2                !
 ! D3    D(16,1,2,20)          -58.2723         estimate D2E/DX2                !
 ! D4    D(17,1,2,3)            60.4034         estimate D2E/DX2                !
 ! D5    D(17,1,2,19)          -60.8808         estimate D2E/DX2                !
 ! D6    D(17,1,2,20)         -178.1794         estimate D2E/DX2                !
 ! D7    D(18,1,2,3)           -59.6849         estimate D2E/DX2                !
 ! D8    D(18,1,2,19)          179.0309         estimate D2E/DX2                !
 ! D9    D(18,1,2,20)           61.7324         estimate D2E/DX2                !
 ! D10   D(1,2,3,4)           -179.2381         estimate D2E/DX2                !
 ! D11   D(1,2,3,21)            59.3752         estimate D2E/DX2                !
 ! D12   D(1,2,3,22)           -58.9738         estimate D2E/DX2                !
 ! D13   D(19,2,3,4)           -58.2162         estimate D2E/DX2                !
 ! D14   D(19,2,3,21)         -179.6028         estimate D2E/DX2                !
 ! D15   D(19,2,3,22)           62.0482         estimate D2E/DX2                !
 ! D16   D(20,2,3,4)            59.3888         estimate D2E/DX2                !
 ! D17   D(20,2,3,21)          -61.9978         estimate D2E/DX2                !
 ! D18   D(20,2,3,22)          179.6532         estimate D2E/DX2                !
 ! D19   D(2,3,4,5)            178.1195         estimate D2E/DX2                !
 ! D20   D(2,3,4,23)            56.9884         estimate D2E/DX2                !
 ! D21   D(2,3,4,24)           -59.9454         estimate D2E/DX2                !
 ! D22   D(21,3,4,5)           -60.2592         estimate D2E/DX2                !
 ! D23   D(21,3,4,23)          178.6098         estimate D2E/DX2                !
 ! D24   D(21,3,4,24)           61.6759         estimate D2E/DX2                !
 ! D25   D(22,3,4,5)            57.6645         estimate D2E/DX2                !
 ! D26   D(22,3,4,23)          -63.4665         estimate D2E/DX2                !
 ! D27   D(22,3,4,24)          179.5996         estimate D2E/DX2                !
 ! D28   D(3,4,5,6)           -178.744          estimate D2E/DX2                !
 ! D29   D(3,4,5,25)            60.0463         estimate D2E/DX2                !
 ! D30   D(3,4,5,26)           -56.4984         estimate D2E/DX2                !
 ! D31   D(23,4,5,6)           -59.2169         estimate D2E/DX2                !
 ! D32   D(23,4,5,25)          179.5734         estimate D2E/DX2                !
 ! D33   D(23,4,5,26)           63.0287         estimate D2E/DX2                !
 ! D34   D(24,4,5,6)            58.866          estimate D2E/DX2                !
 ! D35   D(24,4,5,25)          -62.3437         estimate D2E/DX2                !
 ! D36   D(24,4,5,26)         -178.8884         estimate D2E/DX2                !
 ! D37   D(4,5,6,7)             59.8723         estimate D2E/DX2                !
 ! D38   D(4,5,6,8)           -176.9882         estimate D2E/DX2                !
 ! D39   D(4,5,6,27)           -59.6489         estimate D2E/DX2                !
 ! D40   D(25,5,6,7)          -179.2272         estimate D2E/DX2                !
 ! D41   D(25,5,6,8)           -56.0877         estimate D2E/DX2                !
 ! D42   D(25,5,6,27)           61.2516         estimate D2E/DX2                !
 ! D43   D(26,5,6,7)           -62.4445         estimate D2E/DX2                !
 ! D44   D(26,5,6,8)            60.6951         estimate D2E/DX2                !
 ! D45   D(26,5,6,27)          178.0343         estimate D2E/DX2                !
 ! D46   D(5,6,7,28)            60.7307         estimate D2E/DX2                !
 ! D47   D(5,6,7,29)           -60.5028         estimate D2E/DX2                !
 ! D48   D(5,6,7,30)          -178.16           estimate D2E/DX2                !
 ! D49   D(8,6,7,28)           -60.6341         estimate D2E/DX2                !
 ! D50   D(8,6,7,29)           178.1323         estimate D2E/DX2                !
 ! D51   D(8,6,7,30)            60.4751         estimate D2E/DX2                !
 ! D52   D(27,6,7,28)         -179.8275         estimate D2E/DX2                !
 ! D53   D(27,6,7,29)           58.9389         estimate D2E/DX2                !
 ! D54   D(27,6,7,30)          -58.7183         estimate D2E/DX2                !
 ! D55   D(5,6,8,9)            176.484          estimate D2E/DX2                !
 ! D56   D(5,6,8,31)            55.2605         estimate D2E/DX2                !
 ! D57   D(5,6,8,32)           -61.0914         estimate D2E/DX2                !
 ! D58   D(7,6,8,9)            -60.1523         estimate D2E/DX2                !
 ! D59   D(7,6,8,31)           178.6241         estimate D2E/DX2                !
 ! D60   D(7,6,8,32)            62.2722         estimate D2E/DX2                !
 ! D61   D(27,6,8,9)            59.1326         estimate D2E/DX2                !
 ! D62   D(27,6,8,31)          -62.091          estimate D2E/DX2                !
 ! D63   D(27,6,8,32)         -178.4428         estimate D2E/DX2                !
 ! D64   D(6,8,9,10)           179.3403         estimate D2E/DX2                !
 ! D65   D(6,8,9,33)            59.9622         estimate D2E/DX2                !
 ! D66   D(6,8,9,34)           -57.01           estimate D2E/DX2                !
 ! D67   D(31,8,9,10)          -60.4522         estimate D2E/DX2                !
 ! D68   D(31,8,9,33)         -179.8303         estimate D2E/DX2                !
 ! D69   D(31,8,9,34)           63.1975         estimate D2E/DX2                !
 ! D70   D(32,8,9,10)           56.6076         estimate D2E/DX2                !
 ! D71   D(32,8,9,33)          -62.7705         estimate D2E/DX2                !
 ! D72   D(32,8,9,34)         -179.7427         estimate D2E/DX2                !
 ! D73   D(8,9,10,11)           61.7907         estimate D2E/DX2                !
 ! D74   D(8,9,10,12)         -176.7118         estimate D2E/DX2                !
 ! D75   D(8,9,10,35)          -58.1576         estimate D2E/DX2                !
 ! D76   D(33,9,10,11)        -177.3348         estimate D2E/DX2                !
 ! D77   D(33,9,10,12)         -55.8373         estimate D2E/DX2                !
 ! D78   D(33,9,10,35)          62.7168         estimate D2E/DX2                !
 ! D79   D(34,9,10,11)         -61.2401         estimate D2E/DX2                !
 ! D80   D(34,9,10,12)          60.2574         estimate D2E/DX2                !
 ! D81   D(34,9,10,35)         178.8115         estimate D2E/DX2                !
 ! D82   D(9,10,11,36)          55.4447         estimate D2E/DX2                !
 ! D83   D(9,10,11,37)         -61.802          estimate D2E/DX2                !
 ! D84   D(12,10,11,36)        -65.4854         estimate D2E/DX2                !
 ! D85   D(12,10,11,37)        177.2678         estimate D2E/DX2                !
 ! D86   D(35,10,11,36)        175.4484         estimate D2E/DX2                !
 ! D87   D(35,10,11,37)         58.2017         estimate D2E/DX2                !
 ! D88   D(9,10,12,13)         177.8561         estimate D2E/DX2                !
 ! D89   D(9,10,12,38)          57.0033         estimate D2E/DX2                !
 ! D90   D(9,10,12,39)         -59.7183         estimate D2E/DX2                !
 ! D91   D(11,10,12,13)        -59.8838         estimate D2E/DX2                !
 ! D92   D(11,10,12,38)        179.2635         estimate D2E/DX2                !
 ! D93   D(11,10,12,39)         62.5419         estimate D2E/DX2                !
 ! D94   D(35,10,12,13)         59.2125         estimate D2E/DX2                !
 ! D95   D(35,10,12,38)        -61.6402         estimate D2E/DX2                !
 ! D96   D(35,10,12,39)       -178.3618         estimate D2E/DX2                !
 ! D97   D(10,12,13,14)        178.7015         estimate D2E/DX2                !
 ! D98   D(10,12,13,40)         57.9238         estimate D2E/DX2                !
 ! D99   D(10,12,13,41)        -59.3827         estimate D2E/DX2                !
 ! D100  D(38,12,13,14)        -60.3161         estimate D2E/DX2                !
 ! D101  D(38,12,13,40)        178.9062         estimate D2E/DX2                !
 ! D102  D(38,12,13,41)         61.5997         estimate D2E/DX2                !
 ! D103  D(39,12,13,14)         56.2636         estimate D2E/DX2                !
 ! D104  D(39,12,13,40)        -64.5141         estimate D2E/DX2                !
 ! D105  D(39,12,13,41)        178.1793         estimate D2E/DX2                !
 ! D106  D(12,13,14,15)       -178.6476         estimate D2E/DX2                !
 ! D107  D(12,13,14,42)         60.5656         estimate D2E/DX2                !
 ! D108  D(12,13,14,43)        -58.4612         estimate D2E/DX2                !
 ! D109  D(40,13,14,15)        -57.3608         estimate D2E/DX2                !
 ! D110  D(40,13,14,42)       -178.1475         estimate D2E/DX2                !
 ! D111  D(40,13,14,43)         62.8257         estimate D2E/DX2                !
 ! D112  D(41,13,14,15)         60.1998         estimate D2E/DX2                !
 ! D113  D(41,13,14,42)        -60.587          estimate D2E/DX2                !
 ! D114  D(41,13,14,43)       -179.6138         estimate D2E/DX2                !
 ! D115  D(13,14,15,44)        -59.5267         estimate D2E/DX2                !
 ! D116  D(13,14,15,45)       -176.6967         estimate D2E/DX2                !
 ! D117  D(42,14,15,44)         61.5233         estimate D2E/DX2                !
 ! D118  D(42,14,15,45)        -55.6468         estimate D2E/DX2                !
 ! D119  D(43,14,15,44)        179.9079         estimate D2E/DX2                !
 ! D120  D(43,14,15,45)         62.7379         estimate D2E/DX2                !
 --------------------------------------------------------------------------------
 Trust Radius=3.00D-01 FncErr=1.00D-07 GrdErr=1.00D-06 EigMax=2.50D+02 EigMin=1.00D-04
 Number of steps in this run=    258 maximum allowed number of steps=    270.
 GradGradGradGradGradGradGradGradGradGradGradGradGradGradGradGradGradGrad

                          Input orientation:                          
 ---------------------------------------------------------------------
 Center     Atomic      Atomic             Coordinates (Angstroms)
 Number     Number       Type             X           Y           Z
 ---------------------------------------------------------------------
      1          6           0        0.884100    0.054340   -0.018630
      2          6           0        2.397920    0.065600   -0.000480
      3          6           0        2.914980    1.228700    0.837300
      4          6           0        4.432360    1.226470    0.822380
      5          6           0        4.997450    2.399190    1.609330
      6          6           0        6.532590    2.416460    1.569630
      7          6           0        7.063360    2.530980    0.136530
      8          6           0        7.023840    3.575510    2.442410
      9          6           0        8.546680    3.620360    2.533670
     10          6           0        9.048710    4.782470    3.388930
     11          7           0        8.577360    4.668130    4.767720
     12          6           0       10.582020    4.799990    3.358450
     13          6           0       11.140080    5.975420    4.155660
     14          6           0       12.660700    5.966310    4.146250
     15          7           0       13.150120    7.082550    4.942640
     16          1           0        0.519760   -0.785100   -0.616380
     17          1           0        0.497070    0.981850   -0.452210
     18          1           0        0.487800   -0.043830    0.996580
     19          1           0        2.775750    0.147120   -1.027220
     20          1           0        2.771600   -0.881690    0.405920
     21          1           0        2.548400    1.152270    1.867300
     22          1           0        2.545690    2.176570    0.426360
     23          1           0        4.753570    1.278700   -0.221700
     24          1           0        4.816340    0.286780    1.237430
     25          1           0        4.656180    2.330330    2.651430
     26          1           0        4.602490    3.343440    1.212920
     27          1           0        6.900540    1.476960    2.003480
     28          1           0        6.719420    3.459550   -0.330480
     29          1           0        6.745210    1.691500   -0.485190
     30          1           0        8.154970    2.510990    0.103510
     31          1           0        6.594160    3.453690    3.443910
     32          1           0        6.649290    4.529820    2.050860
     33          1           0        8.975030    3.745060    1.533520
     34          1           0        8.920450    2.663780    2.921050
     35          1           0        8.676610    5.722660    2.964720
     36          1           0        8.849410    3.768370    5.152890
     37          1           0        7.557760    4.701550    4.796890
     38          1           0       10.926380    4.872840    2.317470
     39          1           0       10.978450    3.854920    3.752130
     40          1           0       10.787640    5.925160    5.192610
     41          1           0       10.759990    6.912070    3.729010
     42          1           0       13.034680    6.049140    3.120110
     43          1           0       13.033660    5.027000    4.566560
     44          1           0       12.806750    7.956260    4.553970
     45          1           0       14.168380    7.114880    4.895740
 ---------------------------------------------------------------------
                    Distance matrix (angstroms):
                    1          2          3          4          5
     1  C    0.000000
     2  C    1.513971   0.000000
     3  C    2.497241   1.523820   0.000000
     4  C    3.830318   2.482673   1.517455   0.000000
     5  C    5.006818   3.846386   2.510530   1.521147   0.000000
     6  C    6.325158   5.008721   3.877394   2.526940   1.535750
     7  C    6.658909   5.278560   4.404097   3.015675   2.540569
     8  C    7.493448   6.299708   4.996661   3.854641   2.486766
     9  C    8.828696   7.540921   6.349311   5.058345   3.865578
    10  C   10.031328   8.830061   7.534105   6.367339   5.025904
    11  N   10.167716   9.061153   7.703274   6.677706   5.285761
    12  C   11.312626  10.033761   8.825747   7.551160   6.325400
    13  C   12.556632  11.341289  10.059579   8.868866   7.550174
    14  C   13.819766  12.543461  11.330188  10.060804   8.825288
    15  N   14.982162  13.757973  12.485170  11.281381   9.975512
    16  H    1.093027   2.151862   3.450457   4.628702   5.928170
    17  H    1.094559   2.157963   2.751374   4.143782   5.149002
    18  H    1.094231   2.157467   2.745160   4.147718   5.165341
    19  H    2.145740   1.097085   2.160008   2.707466   4.118151
    20  H    2.149198   1.096429   2.158794   2.715861   4.143281
    21  H    2.744463   2.166125   1.095957   2.155613   2.760291
    22  H    2.731805   2.158755   1.097135   2.149196   2.731319
    23  H    4.063631   2.658879   2.122356   1.093621   2.160474
    24  H    4.134516   2.725820   2.159279   1.096688   2.152530
    25  H    5.151499   4.154680   2.745257   2.148028   1.098717
    26  H    5.114814   4.132397   2.731466   2.159404   1.097608
    27  H    6.504639   5.126537   4.160084   2.747664   2.151189
    28  H    6.763406   5.504831   4.562254   3.397996   2.802215
    29  H    6.103325   4.666629   4.078459   2.697270   2.818245
    30  H    7.675650   6.255747   5.444282   4.003073   3.499989
    31  H    7.493300   6.399329   5.028057   4.062796   2.650875
    32  H    7.586180   6.497030   5.129834   4.163660   2.731869
    33  H    9.027388   7.690901   6.598560   5.242601   4.199792
    34  H    8.946162   7.604556   6.516682   5.158801   4.144942
    35  H   10.087291   8.956377   7.610386   6.543623   5.139918
    36  H   10.197294   9.049279   7.764773   6.687668   5.410089
    37  H    9.451113   8.433904   7.021000   6.135229   4.692184
    38  H   11.380804  10.060670   8.924864   7.596289   6.463174
    39  H   11.426239  10.102798   8.967319   7.638290   6.517906
    40  H   12.637391  11.475628  10.149100   9.031400   7.668028
    41  H   12.593906  11.432736  10.109741   8.989630   7.620105
    42  H   13.907764  12.596884  11.439239  10.126086   8.955538
    43  H   13.905507  12.593344  11.433379  10.121525   8.957191
    44  H   15.016611  13.832905  12.526804  11.373005  10.026819
    45  H   15.826382  14.567397  13.332556  12.085351  10.823316
                    6          7          8          9         10
     6  C    0.000000
     7  C    1.532517   0.000000
     8  C    1.531819   2.531736   0.000000
     9  C    2.536791   3.022130   1.526231   0.000000
    10  C    3.903680   4.425938   2.540227   1.527745   0.000000
    11  N    4.413489   5.320482   3.002384   2.467740   1.461611
    12  C    5.027820   5.283005   3.872870   2.492869   1.533713
    13  C    6.370456   6.681109   5.063420   3.860425   2.526823
    14  C    7.536189   7.694775   6.355563   5.002905   3.875756
    15  N    8.771619   8.992449   7.488777   6.243521   4.952368
    16  H    7.154212   7.374413   8.406793   9.683095  10.944557
    17  H    6.524833   6.772192   7.596356   8.981839  10.115810
    18  H    6.551404   7.113882   7.609853   8.985237  10.114628
    19  H    5.099743   5.041895   6.468266   7.618856   8.963196
    20  H    5.135860   5.489817   6.488102   7.625439   8.965666
    21  H    4.190531   5.028048   5.121758   6.520344   7.599193
    22  H    4.154514   4.540809   5.106400   6.522052   7.606366
    23  H    2.769165   2.651728   4.186519   5.240527   6.615231
    24  H    2.755251   3.361177   4.140142   5.168020   6.538588
    25  H    2.167631   3.487047   2.683277   4.100492   5.084409
    26  H    2.170673   2.806170   2.725516   4.168657   5.155065
    27  H    1.098305   2.150109   2.147504   2.754095   4.178577
    28  H    2.175629   1.094822   2.791959   3.401190   4.583636
    29  H    2.189306   1.092008   3.492559   4.009902   5.465255
    30  H    2.188735   1.092292   2.807688   2.699966   4.092967
    31  H    2.143026   3.465589   1.096571   2.160706   2.791683
    32  H    2.170597   2.798477   1.097409   2.158776   2.758891
    33  H    2.780647   2.660837   2.159160   1.095141   2.127015
    34  H    2.754883   3.349622   2.158119   1.097640   2.173525
    35  H    4.180198   4.559392   2.759476   2.149965   1.096526
    36  H    4.476055   5.466715   3.273622   2.640808   2.044425
    37  H    4.085072   5.164761   2.663947   2.696127   2.052275
    38  H    5.089053   5.016346   4.114425   2.697855   2.163756
    39  H    5.157339   5.491203   4.175210   2.730049   2.171672
    40  H    6.598667   7.138254   5.220215   4.171806   2.753703
    41  H    6.537916   6.764979   5.171730   4.142817   2.753058
    42  H    7.607728   7.545586   6.535160   5.136636   4.191023
    43  H    7.619739   7.842179   6.537337   5.122916   4.162503
    44  H    8.885986   9.051738   7.555905   6.405454   5.055010
    45  H    9.562607   9.702759   8.342087   7.028126   5.824228
                   11         12         13         14         15
    11  N    0.000000
    12  C    2.453995   0.000000
    13  C    2.941285   1.525979   0.000000
    14  C    4.329568   2.510347   1.520676   0.000000
    15  N    5.173988   3.783500   2.425971   1.455940   0.000000
    16  H   11.119855  12.175450  13.463588  14.685592  15.884855
    17  H   10.301816  11.437025  12.627029  13.926398  15.047346
    18  H   10.092821  11.442653  12.636543  13.936345  15.056262
    19  H    9.363735  10.090647  11.436492  12.583322  13.833545
    20  H    9.139620  10.099583  11.450413  12.596804  13.846466
    21  H    7.557914   8.948097  10.115154  11.429226  12.530858
    22  H    7.838132   8.947742  10.109524  11.424235  12.526746
    23  H    7.141703   7.693360   9.055825  10.177199  11.439280
    24  H    6.767898   7.623048   8.992574  10.111987  11.373784
    25  H    5.031863   6.458690   7.588830   8.917801   9.999013
    26  H    5.494634   6.517639   7.637219   8.967643  10.047574
    27  H    4.542721   5.141183   6.545359   7.610859   8.894861
    28  H    5.559159   5.506783   6.782130   7.850081   9.071154
    29  H    6.309530   6.257587   7.694436   8.643915   9.977356
    30  H    5.156212   4.660979   6.110080   6.970264   8.322732
    31  H    2.675896   4.209852   5.247009   6.603745   7.641690
    32  H    3.334353   4.153209   5.165959   6.526194   7.559075
    33  H    3.386776   2.650597   4.066641   5.034329   6.339741
    34  H    2.746875   2.741446   4.173485   5.137829   6.442241
    35  H    2.091099   2.153353   2.747892   4.162734   5.076786
    36  H    1.015842   2.699295   3.333573   4.513335   5.433608
    37  H    1.020565   3.350365   3.855767   5.297447   6.079876
    38  H    3.400519   1.098877   2.154134   2.747359   4.088931
    39  H    2.730928   1.097861   2.164597   2.728234   4.068299
    40  H    2.577982   2.161580   1.096360   2.145907   2.642603
    41  H    3.298190   2.151713   1.097184   2.163620   2.686016
    42  H    4.948688   2.762738   2.160395   1.095301   2.098304
    43  H    4.475250   2.742554   2.157310   1.094561   2.092913
    44  H    5.361458   4.042367   2.619192   2.036533   1.016040
    45  H    6.104300   4.536954   3.319140   2.038148   1.019852
                   16         17         18         19         20
    16  H    0.000000
    17  H    1.774705   0.000000
    18  H    1.775427   1.775133   0.000000
    19  H    2.475341   2.493951   3.060546   0.000000
    20  H    2.474916   3.063112   2.503324   1.764187   0.000000
    21  H    3.746658   3.101149   2.536707   3.072501   2.514447
    22  H    3.736735   2.529048   3.080623   2.506888   3.066661
    23  H    4.726541   4.273061   4.629264   2.416838   2.998232
    24  H    4.800639   4.689787   4.347824   3.051582   2.497537
    25  H    6.123272   5.361826   5.074501   4.672782   4.348681
    26  H    6.087681   5.020382   5.333955   4.309486   4.674947
    27  H    7.259128   6.876044   6.667075   5.288432   5.016331
    28  H    7.518948   6.698616   7.271028   5.197131   5.913876
    29  H    6.701267   6.288398   6.660495   4.293660   4.817153
    30  H    8.347388   7.828827   8.130816   5.983514   6.370432
    31  H    8.446989   7.646192   7.450483   6.745714   6.529691
    32  H    8.540122   7.530157   7.745563   6.609610   6.857605
    33  H    9.830362   9.135330   9.310052   7.611415   7.820540
    34  H    9.745757   9.228277   9.063351   7.725267   7.530245
    35  H   11.032199  10.052640  10.206987   9.046678   9.221390
    36  H   11.108629  10.437597  10.085847   9.391302   9.005363
    37  H   10.437445   9.552097   9.324448   8.805152   8.565075
    38  H   12.203176  11.470895  11.613886   9.997607  10.162139
    39  H   12.247361  11.652911  11.525929  10.191872  10.049128
    40  H   13.572078  12.735625  12.622290  11.673149  11.554328
    41  H   13.527422  12.568916  12.703094  11.494971  11.644741
    42  H   14.740808  13.986800  14.108787  12.541126  12.678093
    43  H   14.739100  14.096715  13.994880  12.662082  12.551232
    44  H   15.940954  15.007746  15.113338  13.883563  14.000711
    45  H   16.705627  15.909725  15.925101  14.609009  14.628404
                   21         22         23         24         25
    21  H    0.000000
    22  H    1.767910   0.000000
    23  H    3.040178   2.469997   0.000000
    24  H    2.507860   3.063493   1.765476   0.000000
    25  H    2.538784   3.070626   3.061092   2.490210   0.000000
    26  H    3.073878   2.492125   2.518752   3.064230   1.760280
    27  H    4.366359   4.684173   3.098421   2.519375   2.487013
    28  H    5.248922   4.431576   2.938113   4.018274   3.797879
    29  H    4.841301   4.324602   2.050966   2.942991   3.822373
    30  H    6.032471   5.628507   3.632330   4.168853   4.331982
    31  H    4.914306   5.208335   4.642742   4.249531   2.376074
    32  H    5.315904   5.001632   4.396369   4.693055   3.028354
    33  H    6.937978   6.709872   5.194656   5.416832   4.680133
    34  H    6.633104   6.862829   5.399835   5.032735   4.285777
    35  H    7.723196   7.523710   6.729955   6.887235   5.269716
    36  H    7.572437   8.038084   7.201429   6.611955   5.090033
    37  H    6.802468   7.113220   6.690712   6.298836   4.317968
    38  H    9.178009   9.004562   7.580819   7.715635   6.774311
    39  H    9.051113   9.218950   7.821596   7.551618   6.595985
    40  H   10.085794  10.232243   9.344214   9.115438   7.548192
    41  H   10.201543  10.040278   9.133458   9.242803   7.707789
    42  H   11.640916  11.500956  10.124306  10.212267   9.178697
    43  H   11.499575  11.630293  10.273124  10.053713   9.006771
    44  H   12.599453  12.479236  11.500023  11.561445  10.084768
    45  H   13.407017  13.395865  12.201960  12.143592  10.881672
                   26         27         28         29         30
    26  H    0.000000
    27  H    3.064273   0.000000
    28  H    2.622395   3.067709   0.000000
    29  H    3.194328   2.502725   1.774993   0.000000
    30  H    3.813644   2.500540   1.774519   1.733654   0.000000
    31  H    2.992695   2.464989   3.776472   4.308823   3.805665
    32  H    2.509787   3.063548   2.611738   3.807468   3.183539
    33  H    4.402634   3.109445   2.940032   3.642032   2.059212
    34  H    4.693019   2.516051   4.006274   4.156858   2.923668
    35  H    5.032688   4.701529   4.450910   5.646453   4.332835
    36  H    5.808637   4.355162   5.890634   6.366239   5.249713
    37  H    4.839724   4.316603   5.341844   6.133597   5.213735
    38  H    6.599294   5.276171   5.167934   5.954663   4.261533
    39  H    6.882010   5.034066   5.912982   6.368327   4.805270
    40  H    7.794825   6.713165   7.289319   8.154908   6.669816
    41  H    7.548552   6.885726   6.687717   7.818714   6.268962
    42  H    9.058698   7.731712   7.648206   8.458407   6.740174
    43  H    9.228537   7.535736   8.142943   8.728708   7.074655
    44  H    9.987522   9.130698   9.007432  10.068894   8.431881
    45  H   10.922141   9.642241   9.806213  10.652273   8.962275
                   31         32         33         34         35
    31  H    0.000000
    32  H    1.761160   0.000000
    33  H    3.066436   2.508497   0.000000
    34  H    2.511765   3.065535   1.759939   0.000000
    35  H    3.116801   2.523496   2.459327   3.068894   0.000000
    36  H    2.847067   3.878521   3.621624   2.491240   2.938911
    37  H    2.077555   2.897497   3.684170   3.086779   2.377254
    38  H    4.695848   4.299098   2.386259   3.044341   2.490500
    39  H    4.413387   4.700153   2.991319   2.518903   3.067073
    40  H    5.172175   5.379917   4.628966   4.391239   3.075865
    41  H    5.421791   5.038765   4.246906   4.699433   2.517798
    42  H    6.951367   6.650176   4.930194   5.331714   4.373043
    43  H    6.723303   6.880125   5.226393   5.021057   4.694009
    44  H    7.752525   7.477992   6.445107   6.766099   4.957090
    45  H    8.537033   8.444678   7.044934   7.159082   5.985537
                   36         37         38         39         40
    36  H    0.000000
    37  H    1.632765   0.000000
    38  H    3.684191   4.186223   0.000000
    39  H    2.549986   3.675517   1.759864   0.000000
    40  H    2.900010   3.476484   3.064809   2.529285   0.000000
    41  H    3.944693   4.034977   2.485677   3.065033   1.765469
    42  H    5.181756   5.884237   2.544178   3.072805   3.059382
    43  H    4.408614   5.490396   3.085903   2.502190   2.498647
    44  H    5.792898   6.180942   4.247965   4.561427   2.934286
    45  H    6.289412   7.038056   4.710073   4.702216   3.596244
                   41         42         43         44         45
    41  H    0.000000
    42  H    2.507912   0.000000
    43  H    3.069944   1.771155   0.000000
    44  H    2.441335   2.396876   2.938062   0.000000
    45  H    3.608256   2.360919   2.398998   1.636693   0.000000
 Stoichiometry    C13H30N2
 Framework group  C1[X(C13H30N2)]
 Deg. of freedom   129
 Full point group                 C1      NOp   1
 Largest Abelian subgroup         C1      NOp   1
 Largest concise Abelian subgroup C1      NOp   1
                         Standard orientation:                         
 ---------------------------------------------------------------------
 Center     Atomic      Atomic             Coordinates (Angstroms)
 Number     Number       Type             X           Y           Z
 ---------------------------------------------------------------------
      1          6           0       -7.581097   -0.510060    0.188723
      2          6           0       -6.345798    0.225736   -0.285352
      3          6           0       -5.083991   -0.484097    0.190053
      4          6           0       -3.863815    0.284224   -0.282728
      5          6           0       -2.576521   -0.361384    0.207121
      6          6           0       -1.341496    0.432041   -0.244233
      7          6           0       -1.362411    1.868819    0.288532
      8          6           0       -0.090155   -0.318990    0.221133
      9          6           0        1.194008    0.352445   -0.257907
     10          6           0        2.449346   -0.379265    0.214036
     11          7           0        2.499274   -1.741075   -0.314440
     12          6           0        3.686252    0.405478   -0.240404
     13          6           0        4.972753   -0.252833    0.249651
     14          6           0        6.194236    0.514069   -0.232321
     15          7           0        7.397017   -0.164167    0.229280
     16          1           0       -8.482208    0.000873   -0.160066
     17          1           0       -7.608428   -0.552472    1.282118
     18          1           0       -7.590738   -1.534078   -0.196812
     19          1           0       -6.363002    1.254018    0.096664
     20          1           0       -6.348157    0.288769   -1.379964
     21          1           0       -5.054143   -1.510672   -0.192537
     22          1           0       -5.079407   -0.541281    1.285687
     23          1           0       -3.946715    1.305536    0.099447
     24          1           0       -3.851218    0.343409   -1.377745
     25          1           0       -2.518385   -1.387215   -0.182069
     26          1           0       -2.589284   -0.442671    1.301640
     27          1           0       -1.335154    0.467475   -1.341948
     28          1           0       -1.366170    1.875578    1.383327
     29          1           0       -2.234637    2.422805   -0.064744
     30          1           0       -0.501131    2.444407   -0.057874
     31          1           0       -0.142767   -1.342739   -0.168276
     32          1           0       -0.079962   -0.396487    1.315755
     33          1           0        1.247380    1.373742    0.133804
     34          1           0        1.180646    0.433562   -1.352464
     35          1           0        2.443366   -0.424988    1.309592
     36          1           0        2.429747   -1.721760   -1.327716
     37          1           0        1.701187   -2.280674    0.022371
     38          1           0        3.632892    1.430997    0.150740
     39          1           0        3.698856    0.489968   -1.334937
     40          1           0        5.028832   -1.284177   -0.118031
     41          1           0        4.957784   -0.299681    1.345731
     42          1           0        6.174749    1.539632    0.151769
     43          1           0        6.199956    0.563280   -1.325760
     44          1           0        7.395365   -0.210090    1.244280
     45          1           0        8.218834    0.374535   -0.043693
 ---------------------------------------------------------------------
 Rotational constants (GHZ):           2.6530799           0.1159963           0.1130308
 Standard basis: 6-31G(2df,p) (6D, 7F)
 There are   615 symmetry adapted cartesian basis functions of A   symmetry.
 There are   570 symmetry adapted basis functions of A   symmetry.
   570 basis functions,   870 primitive gaussians,   615 cartesian basis functions
    61 alpha electrons       61 beta electrons
       nuclear repulsion energy      1001.2209942409 Hartrees.
 NAtoms=   45 NActive=   45 NUniq=   45 SFac= 1.00D+00 NAtFMM=   60 NAOKFM=F Big=F
 Integral buffers will be    131072 words long.
 Raffenetti 2 integral format.
 Two-electron integral symmetry is turned on.
 One-electron integrals computed using PRISM.
 PrsmSu:  requested number of processors reduced to:  12 ShMem   1 Linda.
 NBasis=   570 RedAO= T EigKep=  4.18D-04  NBF=   570
 NBsUse=   570 1.00D-06 EigRej= -1.00D+00 NBFU=   570
 ExpMin= 1.61D-01 ExpMax= 4.17D+03 ExpMxC= 6.27D+02 IAcc=3 IRadAn=         5 AccDes= 0.00D+00
 Harris functional with IExCor=  402 and IRadAn=       5 diagonalized for initial guess.
 HarFok:  IExCor=  402 AccDes= 0.00D+00 IRadAn=         5 IDoV= 1 UseB2=F ITyADJ=14
 ICtDFT=  3500011 ScaDFX=  1.000000  1.000000  1.000000  1.000000
 FoFCou: FMM=F IPFlag=           0 FMFlag=      100000 FMFlg1=           0
         NFxFlg=           0 DoJE=T BraDBF=F KetDBF=T FulRan=T
         wScrn=  0.000000 ICntrl=       500 IOpCl=  0 I1Cent=   200000004 NGrid=           0
         NMat0=    1 NMatS0=      1 NMatT0=    0 NMatD0=    1 NMtDS0=    0 NMtDT0=    0
 Petite list used in FoFCou.
 Requested convergence on RMS density matrix=1.00D-08 within 128 cycles.
 Requested convergence on MAX density matrix=1.00D-06.
 Requested convergence on             energy=1.00D-06.
 No special actions if energy rises.
 Integral accuracy reduced to 1.0D-05 until final iterations.
 Initial convergence to 1.0D-05 achieved.  Increase integral accuracy.
 SCF Done:  E(RB3LYP) =  -623.008984607     A.U. after   11 cycles
            NFock= 11  Conv=0.95D-08     -V/T= 2.0083

 **********************************************************************

            Population analysis using the SCF density.

 **********************************************************************

 Orbital symmetries:
       Occupied  (A) (A) (A) (A) (A) (A) (A) (A) (A) (A) (A) (A)
                 (A) (A) (A) (A) (A) (A) (A) (A) (A) (A) (A) (A)
                 (A) (A) (A) (A) (A) (A) (A) (A) (A) (A) (A) (A)
                 (A) (A) (A) (A) (A) (A) (A) (A) (A) (A) (A) (A)
                 (A) (A) (A) (A) (A) (A) (A) (A) (A) (A) (A) (A)
                 (A)
       Virtual   (A) (A) (A) (A) (A) (A) (A) (A) (A) (A) (A) (A)
                 (A) (A) (A) (A) (A) (A) (A) (A) (A) (A) (A) (A)
                 (A) (A) (A) (A) (A) (A) (A) (A) (A) (A) (A) (A)
                 (A) (A) (A) (A) (A) (A) (A) (A) (A) (A) (A) (A)
                 (A) (A) (A) (A) (A) (A) (A) (A) (A) (A) (A) (A)
                 (A) (A) (A) (A) (A) (A) (A) (A) (A) (A) (A) (A)
                 (A) (A) (A) (A) (A) (A) (A) (A) (A) (A) (A) (A)
                 (A) (A) (A) (A) (A) (A) (A) (A) (A) (A) (A) (A)
                 (A) (A) (A) (A) (A) (A) (A) (A) (A) (A) (A) (A)
                 (A) (A) (A) (A) (A) (A) (A) (A) (A) (A) (A) (A)
                 (A) (A) (A) (A) (A) (A) (A) (A) (A) (A) (A) (A)
                 (A) (A) (A) (A) (A) (A) (A) (A) (A) (A) (A) (A)
                 (A) (A) (A) (A) (A) (A) (A) (A) (A) (A) (A) (A)
                 (A) (A) (A) (A) (A) (A) (A) (A) (A) (A) (A) (A)
                 (A) (A) (A) (A) (A) (A) (A) (A) (A) (A) (A) (A)
                 (A) (A) (A) (A) (A) (A) (A) (A) (A) (A) (A) (A)
                 (A) (A) (A) (A) (A) (A) (A) (A) (A) (A) (A) (A)
                 (A) (A) (A) (A) (A) (A) (A) (A) (A) (A) (A) (A)
                 (A) (A) (A) (A) (A) (A) (A) (A) (A) (A) (A) (A)
                 (A) (A) (A) (A) (A) (A) (A) (A) (A) (A) (A) (A)
                 (A) (A) (A) (A) (A) (A) (A) (A) (A) (A) (A) (A)
                 (A) (A) (A) (A) (A) (A) (A) (A) (A) (A) (A) (A)
                 (A) (A) (A) (A) (A) (A) (A) (A) (A) (A) (A) (A)
                 (A) (A) (A) (A) (A) (A) (A) (A) (A) (A) (A) (A)
                 (A) (A) (A) (A) (A) (A) (A) (A) (A) (A) (A) (A)
                 (A) (A) (A) (A) (A) (A) (A) (A) (A) (A) (A) (A)
                 (A) (A) (A) (A) (A) (A) (A) (A) (A) (A) (A) (A)
                 (A) (A) (A) (A) (A) (A) (A) (A) (A) (A) (A) (A)
                 (A) (A) (A) (A) (A) (A) (A) (A) (A) (A) (A) (A)
                 (A) (A) (A) (A) (A) (A) (A) (A) (A) (A) (A) (A)
                 (A) (A) (A) (A) (A) (A) (A) (A) (A) (A) (A) (A)
                 (A) (A) (A) (A) (A) (A) (A) (A) (A) (A) (A) (A)
                 (A) (A) (A) (A) (A) (A) (A) (A) (A) (A) (A) (A)
                 (A) (A) (A) (A) (A) (A) (A) (A) (A) (A) (A) (A)
                 (A) (A) (A) (A) (A) (A) (A) (A) (A) (A) (A) (A)
                 (A) (A) (A) (A) (A) (A) (A) (A) (A) (A) (A) (A)
                 (A) (A) (A) (A) (A) (A) (A) (A) (A) (A) (A) (A)
                 (A) (A) (A) (A) (A) (A) (A) (A) (A) (A) (A) (A)
                 (A) (A) (A) (A) (A) (A) (A) (A) (A) (A) (A) (A)
                 (A) (A) (A) (A) (A) (A) (A) (A) (A) (A) (A) (A)
                 (A) (A) (A) (A) (A) (A) (A) (A) (A) (A) (A) (A)
                 (A) (A) (A) (A) (A) (A) (A) (A) (A) (A) (A) (A)
                 (A) (A) (A) (A) (A)
 The electronic state is 1-A.
 Alpha  occ. eigenvalues --  -14.29855 -14.29266 -10.19895 -10.18900 -10.17881
 Alpha  occ. eigenvalues --  -10.17134 -10.17078 -10.16928 -10.16910 -10.16855
 Alpha  occ. eigenvalues --  -10.16746 -10.16682 -10.16577 -10.16568 -10.16001
 Alpha  occ. eigenvalues --   -0.88213  -0.86738  -0.81943  -0.79302  -0.76623
 Alpha  occ. eigenvalues --   -0.74835  -0.71928  -0.67956  -0.66959  -0.62933
 Alpha  occ. eigenvalues --   -0.59285  -0.57465  -0.57086  -0.56736  -0.55243
 Alpha  occ. eigenvalues --   -0.49019  -0.48016  -0.47126  -0.46517  -0.45070
 Alpha  occ. eigenvalues --   -0.44502  -0.44020  -0.42725  -0.42176  -0.41347
 Alpha  occ. eigenvalues --   -0.40594  -0.39108  -0.38824  -0.38015  -0.37464
 Alpha  occ. eigenvalues --   -0.36896  -0.35578  -0.34737  -0.34380  -0.33757
 Alpha  occ. eigenvalues --   -0.33130  -0.32793  -0.32646  -0.32153  -0.31979
 Alpha  occ. eigenvalues --   -0.31773  -0.31166  -0.30995  -0.27694  -0.22362
 Alpha  occ. eigenvalues --   -0.21980
 Alpha virt. eigenvalues --    0.07664   0.08953   0.09191   0.09992   0.10093
 Alpha virt. eigenvalues --    0.10783   0.11626   0.12006   0.12718   0.13441
 Alpha virt. eigenvalues --    0.13909   0.14819   0.14936   0.15984   0.16200
 Alpha virt. eigenvalues --    0.16736   0.17346   0.17596   0.18415   0.18806
 Alpha virt. eigenvalues --    0.18872   0.19562   0.19769   0.20338   0.20560
 Alpha virt. eigenvalues --    0.21189   0.21435   0.21853   0.22236   0.22927
 Alpha virt. eigenvalues --    0.23300   0.23634   0.23813   0.24488   0.25196
 Alpha virt. eigenvalues --    0.25612   0.27065   0.27389   0.28612   0.29019
 Alpha virt. eigenvalues --    0.29562   0.30348   0.34865   0.35999   0.41759
 Alpha virt. eigenvalues --    0.44922   0.46357   0.47887   0.48699   0.49115
 Alpha virt. eigenvalues --    0.49695   0.51730   0.51989   0.52444   0.52724
 Alpha virt. eigenvalues --    0.53166   0.53532   0.53956   0.54774   0.56058
 Alpha virt. eigenvalues --    0.57385   0.58599   0.58993   0.59738   0.60168
 Alpha virt. eigenvalues --    0.61067   0.61579   0.61632   0.62439   0.62927
 Alpha virt. eigenvalues --    0.64042   0.64305   0.65120   0.66149   0.66936
 Alpha virt. eigenvalues --    0.67609   0.68755   0.69156   0.69828   0.70824
 Alpha virt. eigenvalues --    0.71905   0.72467   0.72856   0.73202   0.73427
 Alpha virt. eigenvalues --    0.73692   0.74365   0.75039   0.75148   0.75722
 Alpha virt. eigenvalues --    0.76186   0.76391   0.76881   0.77360   0.78005
 Alpha virt. eigenvalues --    0.78939   0.79651   0.79874   0.80181   0.80487
 Alpha virt. eigenvalues --    0.81197   0.81857   0.82165   0.82748   0.83420
 Alpha virt. eigenvalues --    0.83735   0.84247   0.84869   0.85477   0.85803
 Alpha virt. eigenvalues --    0.86398   0.86717   0.87289   0.88288   0.88645
 Alpha virt. eigenvalues --    0.89497   0.90084   0.90694   0.91256   0.92437
 Alpha virt. eigenvalues --    0.94725   0.96477   1.02124   1.03634   1.05627
 Alpha virt. eigenvalues --    1.06632   1.07953   1.08690   1.09713   1.10199
 Alpha virt. eigenvalues --    1.11909   1.14086   1.15878   1.17255   1.17530
 Alpha virt. eigenvalues --    1.18466   1.20476   1.21948   1.22305   1.23720
 Alpha virt. eigenvalues --    1.25055   1.25100   1.25941   1.26904   1.28102
 Alpha virt. eigenvalues --    1.29137   1.32815   1.33515   1.34228   1.34661
 Alpha virt. eigenvalues --    1.36885   1.37842   1.38706   1.39293   1.39981
 Alpha virt. eigenvalues --    1.41051   1.42244   1.43195   1.45138   1.47508
 Alpha virt. eigenvalues --    1.48350   1.48953   1.51421   1.51972   1.54003
 Alpha virt. eigenvalues --    1.54978   1.55645   1.56489   1.56894   1.58219
 Alpha virt. eigenvalues --    1.59827   1.60888   1.61761   1.62581   1.65955
 Alpha virt. eigenvalues --    1.67311   1.67799   1.68454   1.69616   1.70292
 Alpha virt. eigenvalues --    1.71915   1.72985   1.74643   1.75680   1.78187
 Alpha virt. eigenvalues --    1.79436   1.80778   1.81542   1.82231   1.83358
 Alpha virt. eigenvalues --    1.85326   1.85739   1.87178   1.87620   1.89715
 Alpha virt. eigenvalues --    1.90092   1.90931   1.91629   1.92604   1.93700
 Alpha virt. eigenvalues --    1.94195   1.96128   1.96632   1.97356   1.97483
 Alpha virt. eigenvalues --    1.98243   2.01435   2.01890   2.06467   2.08159
 Alpha virt. eigenvalues --    2.12619   2.14489   2.16727   2.17480   2.17604
 Alpha virt. eigenvalues --    2.20160   2.20459   2.21243   2.21301   2.22624
 Alpha virt. eigenvalues --    2.22964   2.26262   2.27191   2.28028   2.30150
 Alpha virt. eigenvalues --    2.30496   2.30970   2.32787   2.33985   2.35495
 Alpha virt. eigenvalues --    2.35971   2.37045   2.37984   2.40108   2.43286
 Alpha virt. eigenvalues --    2.43800   2.44948   2.47453   2.47959   2.49615
 Alpha virt. eigenvalues --    2.52568   2.54059   2.57473   2.57585   2.61370
 Alpha virt. eigenvalues --    2.62675   2.66380   2.68716   2.70982   2.71673
 Alpha virt. eigenvalues --    2.73306   2.74644   2.74766   2.75305   2.75553
 Alpha virt. eigenvalues --    2.76114   2.77119   2.77300   2.77746   2.79481
 Alpha virt. eigenvalues --    2.79635   2.80054   2.81110   2.81738   2.82457
 Alpha virt. eigenvalues --    2.83194   2.83229   2.83714   2.84050   2.84606
 Alpha virt. eigenvalues --    2.84871   2.85878   2.86897   2.88254   2.88633
 Alpha virt. eigenvalues --    2.89296   2.90011   2.90368   2.90876   2.91515
 Alpha virt. eigenvalues --    2.91746   2.92436   2.92975   2.93427   2.94167
 Alpha virt. eigenvalues --    2.95238   2.95616   2.96392   2.98013   2.98381
 Alpha virt. eigenvalues --    2.99574   3.00226   3.01356   3.02858   3.03375
 Alpha virt. eigenvalues --    3.04942   3.05913   3.07256   3.07418   3.09923
 Alpha virt. eigenvalues --    3.11528   3.13417   3.13981   3.15037   3.15456
 Alpha virt. eigenvalues --    3.17996   3.19324   3.20027   3.21020   3.22415
 Alpha virt. eigenvalues --    3.24026   3.24772   3.26029   3.26154   3.28413
 Alpha virt. eigenvalues --    3.31658   3.32692   3.34877   3.36036   3.37640
 Alpha virt. eigenvalues --    3.38386   3.40857   3.42401   3.42839   3.43917
 Alpha virt. eigenvalues --    3.46168   3.47128   3.48138   3.48757   3.50132
 Alpha virt. eigenvalues --    3.52159   3.54101   3.54663   3.56347   3.57236
 Alpha virt. eigenvalues --    3.58074   3.59127   3.59373   3.60414   3.62099
 Alpha virt. eigenvalues --    3.62637   3.63344   3.66304   3.66745   3.68926
 Alpha virt. eigenvalues --    3.70342   3.71048   3.71736   3.73136   3.74778
 Alpha virt. eigenvalues --    3.75140   3.75891   3.76394   3.77006   3.77597
 Alpha virt. eigenvalues --    3.79527   3.80424   3.80642   3.82035   3.83275
 Alpha virt. eigenvalues --    3.83438   3.84198   3.88181   3.89730   3.92484
 Alpha virt. eigenvalues --    3.94503   3.98003   3.98478   3.99012   4.00825
 Alpha virt. eigenvalues --    4.04646   4.05450   4.08882   4.14632   4.15678
 Alpha virt. eigenvalues --    4.16673   4.22624   4.23526   4.25372   4.26231
 Alpha virt. eigenvalues --    4.29039   4.30646   4.34914   4.35072   4.35877
 Alpha virt. eigenvalues --    4.36808   4.38506   4.39014   4.40209   4.41596
 Alpha virt. eigenvalues --    4.42991   4.43877   4.44604   4.45433   4.45747
 Alpha virt. eigenvalues --    4.46679   4.47712   4.48864   4.50761   4.51278
 Alpha virt. eigenvalues --    4.53011   4.53691   4.54823   4.55309   4.55442
 Alpha virt. eigenvalues --    4.56909   4.57028   4.58188   4.58880   4.59438
 Alpha virt. eigenvalues --    4.59807   4.61082   4.61242   4.62081   4.62424
 Alpha virt. eigenvalues --    4.63613   4.64319   4.65283   4.65755   4.65934
 Alpha virt. eigenvalues --    4.67424   4.68198   4.69319   4.69586   4.70459
 Alpha virt. eigenvalues --    4.70607   4.71071   4.72961   4.73839   4.74391
 Alpha virt. eigenvalues --    4.75617   4.75904   4.76104   4.76679   4.77827
 Alpha virt. eigenvalues --    4.79091   4.79300   4.80295   4.80502   4.81538
 Alpha virt. eigenvalues --    4.83325   4.83866   4.84327   4.84839   4.85157
 Alpha virt. eigenvalues --    4.86603   4.87532   4.89086   4.90061   4.90110
 Alpha virt. eigenvalues --    4.92044   4.92435   4.93222   4.93829   4.95154
 Alpha virt. eigenvalues --    4.96060   4.96952   4.97602   4.98338   4.99977
 Alpha virt. eigenvalues --    5.00571   5.00956   5.06078   5.07933   5.10062
 Alpha virt. eigenvalues --    5.10594   5.13498   5.17820   5.20955   5.23088
 Alpha virt. eigenvalues --    5.27228   5.28986   5.30544   5.33350   5.37598
 Alpha virt. eigenvalues --    5.40808   5.42230   5.43724   5.46023   5.50664
 Alpha virt. eigenvalues --    5.51900   5.53165   5.54972   5.59188   5.59717
 Alpha virt. eigenvalues --    5.62744   5.65333   5.75441   5.76311   5.82763
 Alpha virt. eigenvalues --    6.10931   6.54205   9.64794  10.24821  11.16945
 Alpha virt. eigenvalues --   11.36884  11.42403  11.45396  11.63009  11.69738
 Alpha virt. eigenvalues --   12.00492  12.01023  12.18275  12.26895  12.43158
 Alpha virt. eigenvalues --   12.46598  12.68850  12.81593  13.27901
          Condensed to atoms (all electrons):
               1          2          3          4          5          6
     1  C    4.958291   0.403822  -0.038021   0.002293  -0.000184   0.000001
     2  C    0.403822   4.768471   0.432293  -0.034711   0.002255  -0.000149
     3  C   -0.038021   0.432293   4.786003   0.427538  -0.036451   0.001971
     4  C    0.002293  -0.034711   0.427538   4.802323   0.426188  -0.032142
     5  C   -0.000184   0.002255  -0.036451   0.426188   4.857943   0.422191
     6  C    0.000001  -0.000149   0.001971  -0.032142   0.422191   4.602815
     7  C    0.000000   0.000009   0.000625  -0.004936  -0.034125   0.405367
     8  C   -0.000000   0.000001  -0.000159   0.001713  -0.034215   0.415292
     9  C    0.000000  -0.000000   0.000001  -0.000144   0.001785  -0.032186
    10  C   -0.000000   0.000000  -0.000000   0.000000  -0.000122   0.001116
    11  N    0.000000  -0.000000   0.000000   0.000000   0.000007   0.000686
    12  C    0.000000  -0.000000   0.000000  -0.000000   0.000001  -0.000116
    13  C    0.000000   0.000000  -0.000000   0.000000  -0.000000   0.000000
    14  C    0.000000   0.000000   0.000000  -0.000000   0.000000  -0.000000
    15  N    0.000000   0.000000   0.000000   0.000000  -0.000000   0.000000
    16  H    0.369785  -0.022059   0.003616  -0.000187   0.000001  -0.000000
    17  H    0.378848  -0.028900  -0.004759   0.000249   0.000006   0.000000
    18  H    0.379042  -0.029230  -0.004690   0.000214   0.000006   0.000000
    19  H   -0.036363   0.370641  -0.032967  -0.003310   0.000219   0.000016
    20  H   -0.036367   0.370997  -0.033864  -0.001800   0.000209   0.000009
    21  H   -0.002470  -0.034639   0.364241  -0.031902  -0.002103   0.000101
    22  H   -0.002786  -0.035137   0.364014  -0.030750  -0.002766   0.000258
    23  H    0.000183  -0.003941  -0.032501   0.364965  -0.031273  -0.005655
    24  H    0.000107  -0.003295  -0.033482   0.362135  -0.032206  -0.001655
    25  H    0.000010   0.000103  -0.002685  -0.032090   0.352129  -0.024790
    26  H    0.000006   0.000131  -0.003681  -0.034017   0.355379  -0.025320
    27  H    0.000000   0.000006   0.000128  -0.004315  -0.040943   0.359181
    28  H   -0.000000   0.000001  -0.000046  -0.000308  -0.005496  -0.025812
    29  H   -0.000000   0.000009  -0.000080  -0.000653  -0.004402  -0.023602
    30  H    0.000000  -0.000000  -0.000008   0.000201   0.003992  -0.022834
    31  H    0.000000   0.000000   0.000011   0.000272  -0.003821  -0.020468
    32  H    0.000000   0.000000   0.000006   0.000155  -0.004881  -0.024516
    33  H    0.000000   0.000000   0.000000   0.000009   0.000138  -0.004028
    34  H    0.000000   0.000000   0.000000   0.000008   0.000200  -0.001736
    35  H    0.000000   0.000000   0.000000   0.000000   0.000006   0.000232
    36  H    0.000000  -0.000000   0.000000   0.000000   0.000001   0.000010
    37  H    0.000000  -0.000000   0.000000  -0.000000   0.000005  -0.000111
    38  H    0.000000   0.000000   0.000000   0.000000   0.000000   0.000014
    39  H    0.000000   0.000000   0.000000   0.000000   0.000000   0.000006
    40  H    0.000000   0.000000   0.000000   0.000000   0.000000   0.000000
    41  H    0.000000   0.000000   0.000000   0.000000   0.000000   0.000000
    42  H    0.000000   0.000000   0.000000   0.000000   0.000000   0.000000
    43  H    0.000000   0.000000   0.000000   0.000000  -0.000000   0.000000
    44  H    0.000000   0.000000   0.000000  -0.000000  -0.000000   0.000000
    45  H    0.000000   0.000000   0.000000  -0.000000   0.000000  -0.000000
               7          8          9         10         11         12
     1  C    0.000000  -0.000000   0.000000  -0.000000   0.000000   0.000000
     2  C    0.000009   0.000001  -0.000000   0.000000  -0.000000  -0.000000
     3  C    0.000625  -0.000159   0.000001  -0.000000   0.000000   0.000000
     4  C   -0.004936   0.001713  -0.000144   0.000000   0.000000  -0.000000
     5  C   -0.034125  -0.034215   0.001785  -0.000122   0.000007   0.000001
     6  C    0.405367   0.415292  -0.032186   0.001116   0.000686  -0.000116
     7  C    5.010340  -0.033598  -0.004573   0.000541  -0.000020   0.000002
     8  C   -0.033598   4.897187   0.417492  -0.029322  -0.006402   0.002287
     9  C   -0.004573   0.417492   4.947275   0.420899  -0.061773  -0.044326
    10  C    0.000541  -0.029322   0.420899   4.665199   0.390438   0.418019
    11  N   -0.000020  -0.006402  -0.061773   0.390438   6.542536  -0.028949
    12  C    0.000002   0.002287  -0.044326   0.418019  -0.028949   4.871735
    13  C    0.000000  -0.000162   0.002797  -0.030032  -0.008467   0.393837
    14  C    0.000000   0.000000  -0.000100   0.001049   0.000553  -0.036418
    15  N    0.000000  -0.000000   0.000000  -0.000045   0.000001   0.002362
    16  H   -0.000000   0.000000  -0.000000   0.000000  -0.000000  -0.000000
    17  H    0.000000   0.000000   0.000000   0.000000  -0.000000   0.000000
    18  H   -0.000000   0.000000   0.000000   0.000000  -0.000000   0.000000
    19  H   -0.000014   0.000000   0.000000   0.000000  -0.000000   0.000000
    20  H    0.000000   0.000000   0.000000   0.000000  -0.000000   0.000000
    21  H   -0.000005   0.000003   0.000000   0.000000   0.000000   0.000000
    22  H   -0.000015   0.000010   0.000000   0.000000   0.000000   0.000000
    23  H    0.000127   0.000148   0.000007   0.000000   0.000000   0.000000
    24  H   -0.001093   0.000258   0.000008   0.000000   0.000000   0.000000
    25  H    0.005359  -0.004367   0.000230   0.000017  -0.000010   0.000000
    26  H   -0.008911  -0.004466   0.000174   0.000006  -0.000000   0.000000
    27  H   -0.052459  -0.041309  -0.004309   0.000231   0.000007   0.000006
    28  H    0.370700  -0.005700  -0.000378  -0.000030   0.000001   0.000001
    29  H    0.370910   0.004094   0.000161  -0.000006   0.000000  -0.000000
    30  H    0.371301  -0.004613  -0.000863  -0.000015   0.000001   0.000007
    31  H    0.005256   0.337991  -0.037375  -0.006500   0.008074   0.000168
    32  H   -0.009191   0.352806  -0.035841  -0.001806  -0.000271   0.000199
    33  H   -0.000957  -0.029559   0.336441  -0.023465   0.005821  -0.001944
    34  H   -0.001242  -0.035760   0.346848  -0.022984  -0.005171  -0.005375
    35  H   -0.000031  -0.003334  -0.052714   0.358323  -0.033570  -0.039833
    36  H    0.000000  -0.000260  -0.005597  -0.053599   0.339145  -0.004236
    37  H    0.000005   0.001476  -0.004056  -0.051077   0.350358   0.005713
    38  H   -0.000011   0.000171  -0.001925  -0.025751   0.003134   0.358043
    39  H   -0.000000   0.000159  -0.005783  -0.023186  -0.006726   0.353283
    40  H    0.000000   0.000005   0.000519  -0.003458   0.013546  -0.025549
    41  H    0.000000   0.000005   0.000273  -0.001889   0.000067  -0.035187
    42  H   -0.000000   0.000000   0.000011   0.000131  -0.000017   0.003991
    43  H    0.000000  -0.000000   0.000008   0.000088   0.000020  -0.006766
    44  H   -0.000000  -0.000000   0.000000   0.000001   0.000001  -0.000318
    45  H   -0.000000   0.000000  -0.000000   0.000001   0.000000  -0.000338
              13         14         15         16         17         18
     1  C    0.000000   0.000000   0.000000   0.369785   0.378848   0.379042
     2  C    0.000000   0.000000   0.000000  -0.022059  -0.028900  -0.029230
     3  C   -0.000000   0.000000   0.000000   0.003616  -0.004759  -0.004690
     4  C    0.000000  -0.000000   0.000000  -0.000187   0.000249   0.000214
     5  C   -0.000000   0.000000  -0.000000   0.000001   0.000006   0.000006
     6  C    0.000000  -0.000000   0.000000  -0.000000   0.000000   0.000000
     7  C    0.000000   0.000000   0.000000  -0.000000   0.000000  -0.000000
     8  C   -0.000162   0.000000  -0.000000   0.000000   0.000000   0.000000
     9  C    0.002797  -0.000100   0.000000  -0.000000   0.000000   0.000000
    10  C   -0.030032   0.001049  -0.000045   0.000000   0.000000   0.000000
    11  N   -0.008467   0.000553   0.000001  -0.000000  -0.000000  -0.000000
    12  C    0.393837  -0.036418   0.002362  -0.000000   0.000000   0.000000
    13  C    4.826520   0.415184  -0.041101   0.000000   0.000000   0.000000
    14  C    0.415184   4.826467   0.389656   0.000000   0.000000   0.000000
    15  N   -0.041101   0.389656   6.549452   0.000000   0.000000   0.000000
    16  H    0.000000   0.000000   0.000000   0.613836  -0.032036  -0.031864
    17  H    0.000000   0.000000   0.000000  -0.032036   0.604089  -0.033524
    18  H    0.000000   0.000000   0.000000  -0.031864  -0.033524   0.603838
    19  H    0.000000   0.000000   0.000000  -0.002329  -0.004708   0.005818
    20  H    0.000000   0.000000   0.000000  -0.002524   0.005806  -0.004514
    21  H    0.000000   0.000000   0.000000  -0.000049  -0.000409   0.004977
    22  H    0.000000   0.000000   0.000000  -0.000048   0.005106  -0.000422
    23  H    0.000000   0.000000   0.000000   0.000004   0.000001   0.000014
    24  H    0.000000   0.000000   0.000000   0.000004   0.000010   0.000005
    25  H    0.000000   0.000000   0.000000   0.000000   0.000001  -0.000002
    26  H    0.000000   0.000000   0.000000   0.000000  -0.000002   0.000001
    27  H    0.000000   0.000000  -0.000000   0.000000  -0.000000   0.000000
    28  H   -0.000000  -0.000000  -0.000000   0.000000  -0.000000   0.000000
    29  H   -0.000000  -0.000000   0.000000   0.000000   0.000000  -0.000000
    30  H   -0.000000   0.000000  -0.000000  -0.000000   0.000000   0.000000
    31  H    0.000004  -0.000000  -0.000000   0.000000  -0.000000  -0.000000
    32  H    0.000004   0.000000   0.000000   0.000000  -0.000000  -0.000000
    33  H    0.000004  -0.000009   0.000000  -0.000000  -0.000000   0.000000
    34  H    0.000082   0.000002   0.000000  -0.000000   0.000000  -0.000000
    35  H   -0.004554   0.000043   0.000002   0.000000   0.000000  -0.000000
    36  H    0.000053  -0.000069   0.000000  -0.000000  -0.000000  -0.000000
    37  H    0.000261  -0.000001  -0.000000  -0.000000   0.000000   0.000000
    38  H   -0.033098  -0.003603   0.000009  -0.000000   0.000000   0.000000
    39  H   -0.034563  -0.004226   0.000095  -0.000000   0.000000   0.000000
    40  H    0.362129  -0.032678   0.004514   0.000000   0.000000  -0.000000
    41  H    0.363700  -0.039628  -0.002032   0.000000  -0.000000   0.000000
    42  H   -0.044216   0.369919  -0.048335   0.000000   0.000000   0.000000
    43  H   -0.018571   0.354073  -0.021390   0.000000   0.000000   0.000000
    44  H   -0.003596  -0.054388   0.341861   0.000000   0.000000   0.000000
    45  H    0.005407  -0.044702   0.334993   0.000000   0.000000   0.000000
              19         20         21         22         23         24
     1  C   -0.036363  -0.036367  -0.002470  -0.002786   0.000183   0.000107
     2  C    0.370641   0.370997  -0.034639  -0.035137  -0.003941  -0.003295
     3  C   -0.032967  -0.033864   0.364241   0.364014  -0.032501  -0.033482
     4  C   -0.003310  -0.001800  -0.031902  -0.030750   0.364965   0.362135
     5  C    0.000219   0.000209  -0.002103  -0.002766  -0.031273  -0.032206
     6  C    0.000016   0.000009   0.000101   0.000258  -0.005655  -0.001655
     7  C   -0.000014   0.000000  -0.000005  -0.000015   0.000127  -0.001093
     8  C    0.000000   0.000000   0.000003   0.000010   0.000148   0.000258
     9  C    0.000000   0.000000   0.000000   0.000000   0.000007   0.000008
    10  C    0.000000   0.000000   0.000000   0.000000   0.000000   0.000000
    11  N   -0.000000  -0.000000   0.000000   0.000000   0.000000   0.000000
    12  C    0.000000   0.000000   0.000000   0.000000   0.000000   0.000000
    13  C    0.000000   0.000000   0.000000   0.000000   0.000000   0.000000
    14  C    0.000000   0.000000   0.000000   0.000000   0.000000   0.000000
    15  N    0.000000   0.000000   0.000000   0.000000   0.000000   0.000000
    16  H   -0.002329  -0.002524  -0.000049  -0.000048   0.000004   0.000004
    17  H   -0.004708   0.005806  -0.000409   0.005106   0.000001   0.000010
    18  H    0.005818  -0.004514   0.004977  -0.000422   0.000014   0.000005
    19  H    0.647542  -0.042021   0.006200  -0.005630   0.006143  -0.000463
    20  H   -0.042021   0.647812  -0.005564   0.006252  -0.000605   0.005100
    21  H    0.006200  -0.005564   0.652089  -0.043327   0.006469  -0.005843
    22  H   -0.005630   0.006252  -0.043327   0.650897  -0.005961   0.006358
    23  H    0.006143  -0.000605   0.006469  -0.005961   0.644116  -0.043986
    24  H   -0.000463   0.005100  -0.005843   0.006358  -0.043986   0.653691
    25  H    0.000007   0.000006   0.004952  -0.000427   0.006400  -0.005796
    26  H    0.000004   0.000008  -0.000495   0.005411  -0.005006   0.006423
    27  H    0.000001  -0.000003   0.000002   0.000011  -0.000096   0.005768
    28  H    0.000000  -0.000000   0.000001   0.000005   0.000989   0.000103
    29  H   -0.000007   0.000003   0.000001   0.000027   0.003824   0.001040
    30  H    0.000000   0.000000   0.000000  -0.000000  -0.000210  -0.000046
    31  H   -0.000000   0.000000  -0.000001   0.000001   0.000005  -0.000008
    32  H    0.000000  -0.000000   0.000001  -0.000002   0.000007   0.000010
    33  H    0.000000  -0.000000  -0.000000  -0.000000  -0.000001   0.000000
    34  H    0.000000  -0.000000   0.000000  -0.000000   0.000000  -0.000002
    35  H   -0.000000   0.000000   0.000000  -0.000000  -0.000000  -0.000000
    36  H   -0.000000   0.000000   0.000000   0.000000  -0.000000  -0.000000
    37  H    0.000000  -0.000000   0.000000   0.000000  -0.000000   0.000000
    38  H   -0.000000   0.000000  -0.000000   0.000000  -0.000000   0.000000
    39  H   -0.000000   0.000000  -0.000000   0.000000  -0.000000   0.000000
    40  H    0.000000   0.000000  -0.000000  -0.000000  -0.000000  -0.000000
    41  H    0.000000   0.000000  -0.000000   0.000000  -0.000000   0.000000
    42  H    0.000000  -0.000000   0.000000  -0.000000   0.000000  -0.000000
    43  H    0.000000  -0.000000   0.000000   0.000000  -0.000000   0.000000
    44  H    0.000000   0.000000   0.000000   0.000000   0.000000   0.000000
    45  H    0.000000   0.000000   0.000000   0.000000   0.000000   0.000000
              25         26         27         28         29         30
     1  C    0.000010   0.000006   0.000000  -0.000000  -0.000000   0.000000
     2  C    0.000103   0.000131   0.000006   0.000001   0.000009  -0.000000
     3  C   -0.002685  -0.003681   0.000128  -0.000046  -0.000080  -0.000008
     4  C   -0.032090  -0.034017  -0.004315  -0.000308  -0.000653   0.000201
     5  C    0.352129   0.355379  -0.040943  -0.005496  -0.004402   0.003992
     6  C   -0.024790  -0.025320   0.359181  -0.025812  -0.023602  -0.022834
     7  C    0.005359  -0.008911  -0.052459   0.370700   0.370910   0.371301
     8  C   -0.004367  -0.004466  -0.041309  -0.005700   0.004094  -0.004613
     9  C    0.000230   0.000174  -0.004309  -0.000378   0.000161  -0.000863
    10  C    0.000017   0.000006   0.000231  -0.000030  -0.000006  -0.000015
    11  N   -0.000010  -0.000000   0.000007   0.000001   0.000000   0.000001
    12  C    0.000000   0.000000   0.000006   0.000001  -0.000000   0.000007
    13  C    0.000000   0.000000   0.000000  -0.000000  -0.000000  -0.000000
    14  C    0.000000   0.000000   0.000000  -0.000000  -0.000000   0.000000
    15  N    0.000000   0.000000  -0.000000  -0.000000   0.000000  -0.000000
[...]
 27513,0.00122823,0.00185966,-0.01655251,-0.00066894,0.03216525,-0.0878
 9118,0.00333623,0.08204096,0.00658018,-0.00423952,-0.01389857,-0.00000
 211,-0.00000159,-0.00000076,-0.00000008,0.00000060,0.00000034,0.000000
 30,0.00000058,-0.00000014,-0.00000003,-0.00000048,-0.00000171,-0.00000
 006,-0.00000066,0.00000026,0.00000078,0.00000052,-0.00000142,-0.000000
 40,0.00000035,0.00000023,-0.00000057,-0.00000176,-0.00000434,-0.000000
 27,-0.00000074,0.00000056,0.00000620,0.00000217,-0.00000435,-0.0000014
 6,0.00000092,0.00000030,0.00000032,-0.00000186,-0.00000245,-0.00000210
 ,0.00000343,-0.00000079,-0.00000185,-0.00000340,-0.00001152,0.00000208
 ,0.00000087,0.00000726,0.00003879,0.00001263,-0.00001102,-0.00000359,0
 .00000469,0.00000069,-0.00000338,-0.00001481,-0.00007003,-0.00000686,-
 0.00000523,-0.00000331,0.00002387,0.00001466,0.00002301,0.00002490,0.0
 0001444,0.00002156,-0.00002063,-0.00008411,-0.00012654,-0.00006029,-0.
 00056440,-0.00114676,-0.00004204,-0.00014849,-0.00009988,-0.00646987,0
 .00043022,-0.00109995,0.00173732,0.00041886,-0.00047679,0.09622798,0.0
 0000058,-0.00000111,-0.00000081,-0.00000076,0.00000179,0.00000130,0.00
 000190,-0.00000216,-0.00000135,-0.00000213,0.00000251,0.00000105,0.000
 00223,-0.00000306,-0.00000209,-0.00000050,0.00000544,0.00000356,-0.000
 00173,-0.00000207,-0.00000064,0.00000859,-0.00000291,-0.00000580,-0.00
 001164,-0.00000479,-0.00000217,0.00011614,-0.00000705,0.00001072,-0.00
 007940,-0.00000551,0.00004992,-0.00011618,0.00020688,0.00055207,0.0016
 6516,0.00075248,-0.00129524,0.00394934,-0.05210340,-0.00108265,0.00575
 591,-0.01014060,-0.03409257,-0.00000125,-0.00000087,-0.00000038,-0.000
 00014,0.00000047,0.,-0.00000009,0.00000018,0.00000044,-0.00000011,-0.0
 0000014,-0.00000014,-0.00000008,-0.00000018,-0.00000007,-0.00000025,-0
 .00000009,0.00000031,-0.00000034,0.00000027,-0.00000025,0.00000008,-0.
 00000010,-0.00000029,-0.00000012,-0.00000025,0.00000014,0.00000055,-0.
 00000005,0.00000013,-0.00000039,0.00000024,-0.00000064,-0.00000024,-0.
 00000059,0.00000021,0.00000210,0.00000030,0.00000054,-0.00000119,-0.00
 000248,-0.00000279,-0.00000254,0.00000265,0.00000191,0.00000292,0.0000
 0028,0.00000335,0.00000054,-0.00000011,-0.00000102,-0.00000580,0.00000
 336,-0.00000567,-0.00000267,-0.00000070,0.00000317,0.00001832,-0.00001
 231,0.00000097,0.00002445,0.00001265,0.00001477,-0.00003098,-0.0000302
 3,-0.00002014,-0.00016200,0.00017946,-0.00008394,0.00002367,0.00006220
 ,0.00013144,-0.00008861,0.00069867,-0.00065874,-0.00036298,0.00027977,
 -0.00072862,-0.00152232,0.05635812,0.00000109,-0.00000085,-0.00000125,
 -0.00000007,0.00000083,-0.00000018,0.00000299,-0.00000053,-0.00000195,
 0.00000086,0.00000035,-0.00000270,0.00000349,0.00000369,0.00000473,0.0
 0001161,-0.00000726,-0.00001154,0.00001547,0.00000457,0.00000185,0.000
 00250,0.00003481,0.00003186,0.00010526,0.00000328,-0.00005539,0.000345
 35,0.00018108,0.00038477,-0.00027298,0.00011240,0.00020682,-0.00027926
 ,0.00003630,0.00009186,-0.00065863,0.00045182,0.00048916,0.08408975,-0
 .00060386,-0.23558115,0.00073059,-0.01350593,-0.01828766,-0.00000085,-
 0.00000030,-0.00000013,-0.00000037,0.00000043,-0.00000029,-0.00000075,
 -0.00000007,0.00000137,-0.00000014,-0.00000004,0.00000196,0.,0.0000003
 4,-0.00000071,-0.00000187,-0.00000051,0.00000275,-0.00000072,0.0000004
 5,-0.00000073,0.00000108,0.00000090,0.00000478,0.00000011,0.00000049,-
 0.00000099,-0.00000559,-0.00000128,0.00000524,-0.00000031,0.00000014,-
 0.00000178,0.00000015,0.00000120,0.00000137,0.00000128,-0.00000047,0.0
 0000118,-0.00000006,-0.00000074,0.00000330,-0.00000936,0.00000171,-0.0
 0000122,-0.00001912,-0.00000272,0.00001105,-0.00000102,-0.00000057,-0.
 00000439,0.00000024,0.00000024,0.00004924,0.00000363,0.00001113,-0.000
 00300,-0.00001860,0.00001389,-0.00001824,-0.00001862,-0.00002871,-0.00
 002707,-0.00007570,-0.00009278,0.00001385,0.00036195,0.00044034,0.0006
 8136,0.00002762,-0.00004811,-0.00002524,-0.00073289,-0.00058060,0.0012
 6909,0.00036123,-0.00037298,0.00073429,-0.09080172,0.01270589,0.263889
 28,0.00000012,-0.00000038,-0.00000081,-0.00000088,0.00000172,0.0000005
 1,0.00000061,-0.00000095,-0.00000166,-0.00000169,0.00000316,0.00000048
 ,0.00000048,-0.00000041,-0.00000377,0.00000042,0.00000648,0.00000251,-
 0.00000336,-0.00000060,-0.00000168,0.00001182,0.00001266,0.00000093,0.
 00000630,-0.00008492,0.00004698,-0.00012143,-0.00001796,0.00018223,0.0
 0003785,-0.00008214,0.00005575,0.00140168,0.00176681,0.00029034,-0.011
 73847,0.02774363,-0.01840829,-0.06793412,0.05865254,-0.03462716,0.0041
 6297,-0.01278752,0.00420854,-0.00000076,-0.00000056,-0.00000031,0.0000
 0035,-0.00000025,0.00000039,-0.00000016,0.00000032,0.00000034,-0.00000
 007,-0.00000002,0.00000002,0.00000027,-0.00000103,0.00000013,-0.000000
 39,0.00000027,0.00000026,0.00000057,-0.00000067,0.00000058,0.00000001,
 -0.00000023,-0.00000005,0.00000027,-0.00000209,0.00000013,-0.00000003,
 0.00000085,0.00000019,0.00000106,-0.00000150,0.00000151,0.,-0.00000474
 ,-0.00000030,0.00000252,-0.00000119,0.00000215,-0.00000127,-0.00000239
 ,-0.00000203,-0.00000059,0.00000266,0.00000179,-0.00000267,0.00000022,
 0.00000188,0.00000719,-0.00000241,0.00000684,0.00000166,0.00000757,0.0
 0000379,-0.00001798,-0.00005522,-0.00001975,0.00025860,-0.00018501,0.0
 0011521,-0.00009495,-0.00006907,-0.00002543,0.00001426,0.00001184,0.00
 001784,-0.00007302,-0.00015246,-0.00002074,-0.00000063,-0.00113215,0.0
 0000848,0.00169944,-0.00013334,0.00042237,-0.00675860,-0.00001019,-0.0
 0060813,0.00425824,-0.01047845,0.00803521,0.07491449,0.00000010,0.0000
 0014,0.00000072,0.00000077,-0.00000155,-0.00000015,-0.00000033,0.00000
 066,0.00000174,0.00000225,-0.00000353,-0.00000002,0.00000006,0.0000022
 7,0.00000407,0.00000895,-0.00000923,0.00000046,0.00000259,0.00000035,0
 .00000066,0.00000024,0.00001196,0.00001696,0.00007634,0.00000445,-0.00
 000969,-0.00007684,0.00036972,-0.00012227,0.00006197,0.00001141,-0.000
 02209,-0.00025685,0.00051626,-0.00028755,0.00116946,-0.00085737,0.0006
 4095,0.05524936,-0.20833996,0.10121005,0.00752707,-0.03006884,0.008828
 18,0.00000047,0.00000035,0.00000024,-0.00000044,0.00000044,-0.00000039
 ,0.00000018,-0.00000028,-0.00000031,0.00000016,-0.00000003,-0.00000019
 ,-0.00000029,0.00000114,-0.00000011,0.00000049,-0.00000038,-0.00000041
 ,-0.00000083,0.00000104,-0.00000069,0.00000003,0.,-0.00000038,-0.00000
 046,0.00000228,-0.00000030,0.00000032,-0.00000068,-0.00000036,-0.00000
 129,0.00000174,-0.00000114,-0.00000071,0.00000455,-0.00000148,-0.00000
 282,0.00000179,-0.00000149,0.00000119,0.00000168,0.00000170,0.00000037
 ,-0.00000298,-0.00000048,0.00000033,-0.00000015,-0.00000165,-0.0000016
 2,0.00000282,-0.00000098,-0.00000239,-0.00000742,-0.00000369,0.0000078
 7,0.00001121,-0.00000006,-0.00019010,-0.00009180,-0.00002430,0.0000438
 4,0.00003114,0.00002969,0.00000121,0.00001341,-0.00001368,-0.00002081,
 0.00004232,-0.00005330,0.00017000,0.00056305,0.00026390,0.00016276,0.0
 0014897,-0.00024083,-0.00019725,0.00086772,-0.00045840,0.00032716,0.00
 116465,0.00156948,-0.06048375,0.23901556,0.00000006,-0.00000067,-0.000
 00058,-0.00000098,0.00000211,0.00000062,0.00000075,-0.00000164,-0.0000
 0126,-0.00000286,0.00000441,0.00000013,0.00000062,-0.00000434,-0.00000
 296,-0.00000717,0.00001390,-0.00000041,-0.00000378,-0.00000292,-0.0000
 0149,0.00000289,-0.00002509,-0.00000961,-0.00006307,0.00001564,-0.0000
 1598,0.00000007,-0.00031799,0.00011532,-0.00007742,-0.00002155,-0.0000
 5420,0.00012571,0.00074658,-0.00008598,-0.00059584,0.00139368,-0.00135
 528,-0.03615583,0.10811598,-0.11824009,0.00587143,-0.01896702,0.009670
 35,-0.00000088,-0.00000064,-0.00000038,0.00000033,-0.00000013,0.000000
 30,-0.00000003,0.00000032,0.00000018,-0.00000012,-0.00000004,-0.000000
 23,0.00000015,-0.00000103,0.00000025,-0.00000028,0.00000031,0.00000001
 ,0.00000066,-0.00000076,0.00000042,-0.00000001,-0.00000015,-0.00000034
 ,0.00000023,-0.00000220,0.00000065,0.00000050,0.00000066,-0.00000029,0
 .00000135,-0.00000140,0.00000065,-0.00000021,-0.00000575,0.00000212,0.
 00000459,-0.00000199,0.00000182,-0.00000219,-0.00000281,-0.00000321,-0
 .00000112,0.00000570,0.00000064,0.00000324,0.00000168,0.00000138,0.000
 00745,-0.00000193,0.00000149,0.00000057,0.00000920,0.00000278,-0.00001
 310,-0.00002954,0.00000918,0.00014590,-0.00002915,0.00001558,-0.000013
 89,-0.00000268,0.00001369,-0.00001398,-0.00000687,0.00000007,-0.000002
 59,0.00009643,0.00004429,-0.00031651,-0.00057803,0.00010749,-0.0001629
 6,-0.00067845,0.00079719,-0.00053526,-0.00073794,0.00131792,-0.0080697
 9,0.02377150,-0.01630819,0.04079859,-0.10904674,0.12372171,-0.00000034
 ,0.00000164,0.00000061,0.00000147,-0.00000353,-0.00000260,-0.00000174,
 0.00000302,0.00000181,0.00000402,-0.00000513,-0.00000267,-0.00000135,0
 .00000511,0.00000526,0.00000254,-0.00001470,-0.00000982,0.00000553,0.0
 0000582,0.00000288,-0.00000593,0.00000665,0.00001277,0.00002219,0.0000
 1086,-0.00001674,-0.00002721,-0.00003680,-0.00005218,0.00000820,0.0000
 7517,0.00004488,-0.00042012,0.00002975,-0.00042245,0.00186409,-0.00187
 152,0.00142417,0.00350262,-0.00925828,0.00935149,-0.06636847,0.0469162
 8,-0.04782030,0.00000207,0.00000163,0.00000075,-0.00000009,-0.00000040
 ,-0.00000053,-0.00000017,-0.00000068,0.00000032,0.00000001,0.00000032,
 0.00000140,-0.00000013,0.00000113,-0.00000023,-0.00000014,-0.00000048,
 0.00000092,-0.00000031,0.00000055,-0.00000063,0.00000017,0.00000093,0.
 00000248,-0.00000010,0.00000201,-0.00000049,-0.00000268,-0.00000141,0.
 00000261,-0.00000017,0.00000095,-0.00000153,-0.00000053,0.00000425,0.0
 0000112,-0.00000125,-0.00000099,-0.00000155,0.00000292,0.00000457,0.00
 000667,0.00000025,-0.00000348,-0.00000533,-0.00000633,-0.00000275,0.00
 000144,-0.00000103,0.00000210,-0.00000444,-0.00000134,-0.00000251,0.00
 000964,0.00000565,0.00001488,0.00000257,-0.00006081,0.00001789,-0.0000
 3472,0.00000919,0.00001219,0.00000388,-0.00000799,-0.00002092,-0.00000
 706,0.00000582,0.00007451,0.00013452,-0.00002941,0.00036518,0.00003458
 ,-0.00016358,-0.00008907,0.00006972,-0.00039187,0.00073801,-0.00086939
 ,-0.00005395,0.00023956,-0.00088342,-0.00043051,-0.00330070,-0.0011883
 3,0.07353496,-0.00000066,0.00000146,0.00000150,0.00000120,-0.00000205,
 -0.00000159,-0.00000246,0.00000298,0.00000217,0.00000331,-0.00000418,-
 0.00000170,-0.00000301,0.00000656,0.00000438,0.00000581,-0.00001055,-0
 .00000406,-0.00000013,0.00000359,0.,-0.00000990,0.00001426,0.00001256,
 0.00004457,-0.00000999,-0.00000315,-0.00009751,0.00012954,-0.00004562,
 0.00004558,0.00000239,-0.00001244,0.00000609,0.00017212,-0.00037102,0.
 00064087,0.00097542,0.00071669,0.00627576,-0.02998398,0.01890351,0.069
 05880,-0.29836435,0.14363858,0.00000128,0.00000110,0.00000048,0.000000
 12,-0.00000071,-0.00000001,0.00000008,-0.00000018,-0.00000092,0.000000
 15,0.00000021,-0.00000003,0.00000030,0.00000016,0.00000025,0.00000071,
 -0.00000006,-0.00000061,0.00000042,-0.00000025,0.,-0.00000024,0.000000
 19,0.00000011,0.00000004,0.00000071,0.,-0.00000002,-0.00000023,-0.0000
 0073,0.00000045,-0.00000049,0.00000092,-0.00000005,0.00000152,0.000000
 28,-0.00000153,-0.00000084,-0.00000032,0.00000170,0.00000278,0.0000035
 6,0.00000360,-0.00000321,-0.00000298,0.00000162,-0.00000034,-0.0000035
 9,0.00000057,-0.00000064,0.00000111,-0.00000162,-0.00000573,-0.0000069
 3,0.00000319,0.00000465,-0.00000247,-0.00004950,-0.00001133,-0.0000115
 1,0.00000777,0.00000785,0.00000860,0.00001177,0.00001227,-0.00000110,-
 0.00000104,-0.00005441,-0.00003504,0.00015181,0.00035091,0.00008247,-0
 .00002218,0.00002649,-0.00008750,-0.00125794,0.00037778,-0.00032866,0.
 00109535,0.00191978,0.00001779,-0.00277860,-0.00380430,-0.00457706,-0.
 07090717,0.32967722,-0.00000106,0.00000166,0.00000108,0.00000121,-0.00
 000220,-0.00000117,-0.00000341,0.00000363,0.00000260,0.00000381,-0.000
 00257,-0.00000045,-0.00000407,0.00000633,0.00000414,0.00000633,-0.0000
 0734,-0.00000116,-0.00000400,0.00000129,-0.00000063,-0.00000922,0.0000
 1525,0.00000919,0.00004472,-0.00001064,0.00000095,-0.00009231,0.000114
 02,0.00004138,0.00005943,-0.00005162,-0.00006808,0.00027492,-0.0001400
 1,0.00004993,0.00079474,0.00019661,0.00083245,0.00454763,-0.02461175,0
 .00436136,-0.07244081,0.18599117,-0.12729551,0.00000167,0.00000076,0.0
 0000032,0.00000041,-0.00000058,0.00000028,0.00000043,-0.00000004,-0.00
 000086,0.00000010,0.00000014,-0.00000069,0.,-0.00000016,0.00000029,0.0
 0000084,0.00000042,-0.00000159,0.00000084,-0.00000087,0.00000089,-0.00
 000043,-0.00000017,-0.00000169,0.00000025,-0.00000073,0.00000036,0.000
 00133,0.00000080,-0.00000274,0.00000103,-0.00000098,0.00000178,-0.0000
 0008,-0.00000087,-0.00000077,-0.00000166,-0.00000063,-0.00000060,0.000
 00138,0.00000273,0.00000241,0.00000598,-0.00000290,-0.00000244,0.00000
 706,0.00000203,-0.00000698,0.00000098,-0.00000259,0.00000421,-0.000000
 39,-0.00000732,-0.00001780,0.00000235,-0.00000006,-0.00000135,-0.00001
 646,-0.00000306,0.00000931,-0.00000824,-0.00000536,-0.00000041,0.00002
 197,0.00003596,0.00001164,0.00000656,-0.00009749,-0.00010206,-0.000049
 33,0.00002620,-0.00009451,0.00004234,0.00029051,-0.00019770,-0.0000383
 4,0.00047864,0.00007104,0.00055251,-0.00051146,0.00168376,-0.00111662,
 -0.00283560,-0.00043310,0.06245451,-0.16073787,0.12651955,0.00000120,-
 0.00000323,-0.00000184,-0.00000295,0.00000499,0.00000392,0.00000457,-0
 .00000796,-0.00000459,-0.00001039,0.00000899,0.00000454,0.00000574,-0.
 00001901,-0.00001442,-0.00002750,0.00003022,0.00001657,-0.00000190,-0.
 00001068,-0.00000051,0.00002741,-0.00007026,-0.00004685,-0.00021043,0.
 00006110,0.00003800,0.00018677,-0.00033869,-0.00028072,-0.00005140,0.0
 0000225,0.00003279,-0.00085517,0.00077601,0.00030109,0.00033969,-0.004
 27730,-0.00217989,-0.01191392,0.00355226,0.00582128,-0.41889627,0.0168
 2248,-0.04901753,-0.00000314,-0.00000194,-0.00000073,-0.00000036,0.000
 00097,0.00000025,-0.00000014,0.00000063,0.00000039,-0.00000012,-0.0000
 0053,-0.00000078,-0.00000010,-0.00000049,-0.00000024,-0.00000050,0.000
 00024,0.00000017,-0.00000078,0.00000058,-0.00000014,0.00000029,-0.0000
 0106,-0.00000175,0.00000010,-0.00000119,0.00000015,0.00000227,0.000000
 87,-0.00000069,-0.00000169,0.00000091,-0.00000068,0.00000151,-0.000001
 93,-0.00000097,0.,0.00000319,0.00000022,-0.00000388,-0.00000540,-0.000
 00976,-0.00000456,0.00000495,0.00000889,-0.00000202,0.00000210,0.00000
 609,-0.00000420,0.00000439,-0.00000243,0.00000754,0.00001076,0.0000085
 9,0.00000346,-0.00000652,0.00000510,0.00000481,0.00002361,0.00000111,0
 .00000661,-0.00000134,-0.00001196,-0.00001912,-0.00002328,-0.00000028,
 -0.00000807,-0.00007179,-0.00013413,-0.00001276,-0.00010799,0.00002668
 ,0.00049849,0.00013685,-0.00004046,0.00042200,0.00007283,0.00014058,0.
 00140206,0.00106084,-0.00031939,0.00040041,-0.00027805,0.00026306,-0.0
 1099414,-0.00222935,0.00495110,0.43971060,0.00000070,-0.00000249,-0.00
 000183,-0.00000314,0.00000422,0.00000272,0.00000346,-0.00000668,-0.000
 00465,-0.00001070,0.00000889,0.00000389,0.00000485,-0.00001986,-0.0000
 1628,-0.00003673,0.00003119,0.00001414,-0.00000327,-0.00000926,0.00000
 064,0.00002262,-0.00009305,-0.00006322,-0.00026904,0.00006603,0.000049
 95,0.00009386,-0.00057405,-0.00040787,-0.00003186,0.00002971,0.0000361
 4,-0.00205271,0.00081850,-0.00007262,-0.00035503,-0.00573387,-0.003305
 22,-0.03465840,0.00144244,-0.00173870,0.01420462,-0.06063005,0.0025015
 4,-0.00000232,-0.00000135,-0.00000060,-0.00000003,0.00000046,0.0000002
 5,-0.00000015,0.00000047,0.00000061,-0.00000011,-0.00000028,-0.0000004
 5,0.00000012,-0.00000093,0.00000004,-0.00000059,0.00000025,0.00000050,
 -0.00000030,0.00000004,0.00000009,0.00000017,-0.00000077,-0.00000146,0
 .00000037,-0.00000179,0.00000050,0.00000185,0.00000077,0.00000014,-0.0
 0000112,0.00000049,-0.00000059,0.00000160,-0.00000298,0.00000022,0.000
 00063,0.00000185,0.,-0.00000355,-0.00000424,-0.00000873,-0.00000302,0.
 00000505,0.00000741,-0.00000184,0.00000140,0.00000704,-0.00000141,0.00
 000424,-0.00000249,0.00000739,0.00001408,0.00000578,0.00000088,-0.0000
 1596,0.00000793,0.00002420,0.00001684,-0.00000753,-0.00000311,-0.00000
 468,-0.00001205,-0.00002270,-0.00003063,0.00000335,0.00002487,0.000020
 14,-0.00005326,0.00004479,0.00000297,0.00012441,0.00037368,-0.00006725
 ,0.00011621,-0.00000346,0.00034050,-0.00031226,0.00053294,0.00066861,-
 0.00034523,0.00025947,0.00039542,0.00086841,0.03698556,-0.00143415,0.0
 0186670,-0.01512403,0.06475975,-0.00000129,0.00000251,0.00000233,0.000
 00189,-0.00000454,-0.00000212,-0.00000443,0.00000416,0.00000406,0.0000
 0449,-0.00000621,-0.00000091,-0.00000483,0.00000507,0.00000465,-0.0000
 0238,-0.00001172,-0.00000228,-0.00000380,0.00000384,0.00000097,-0.0000
 0474,0.00000105,-0.00000825,-0.00003234,0.00001405,0.00000844,-0.00011
 740,-0.00025027,-0.00008110,0.00010147,0.00002832,-0.00002753,-0.00080
 291,-0.00011351,0.00075775,0.00038060,-0.00247980,-0.00153078,-0.02294
 425,-0.00333614,-0.00769632,0.00507915,0.00080378,-0.01454424,0.000002
 82,0.00000191,0.00000100,0.00000013,-0.00000075,-0.00000018,0.00000044
 ,-0.00000057,-0.00000153,0.00000029,0.00000034,-0.00000053,-0.00000012
 ,0.00000095,0.00000022,0.00000138,-0.00000002,-0.00000165,0.00000046,-
 0.00000002,0.00000007,-0.00000056,0.00000024,-0.00000096,-0.00000026,0
 .00000153,0.00000004,0.00000101,-0.00000033,-0.00000209,0.00000058,0.0
 0000041,0.00000055,-0.00000053,0.00000274,-0.00000009,-0.00000229,-0.0
 0000062,-0.00000152,0.00000269,0.00000477,0.00000554,0.00000771,-0.000
 00452,-0.00000474,0.00000532,-0.00000144,-0.00000494,0.00000073,0.0000
 0076,0.00000065,0.00000054,-0.00000395,-0.00002182,-0.00000013,0.00000
 632,0.00000288,0.00000635,0.00001356,-0.00000957,-0.00000503,0.0000077
 7,0.00001512,0.00001551,0.00002027,0.00000942,0.00003730,0.00016298,0.
 00000129,-0.00001074,0.00000657,-0.00001393,-0.00037630,-0.00015188,0.
 00029405,0.00037762,-0.00011000,0.00002028,-0.00053854,0.00124406,0.00
 076891,0.00063080,0.00055993,0.00068735,-0.02224658,0.00284196,-0.0053
 7663,0.04044015,0.00073644,0.02674814\\-0.00000425,0.00000059,0.000001
 08,0.00000355,-0.00000645,-0.00000625,0.00000155,0.00000930,0.00000845
 ,0.00000170,-0.00001268,-0.00000754,0.00000544,0.00000958,0.00000593,-
 0.00000066,-0.00000434,0.00000490,0.00000188,0.00000627,-0.00001383,-0
 .00001445,-0.00000121,-0.00000219,0.00001732,0.00000606,0.00000213,0.0
 0000246,-0.00000934,-0.00001093,-0.00000227,0.00000586,0.00001729,0.00
 000590,-0.00000500,-0.00000544,-0.00000261,0.00000788,0.00000586,0.000
 00384,0.00000461,-0.00000648,0.00000372,-0.00000220,-0.00000298,0.0000
 0014,-0.00000057,-0.00000102,0.00000064,-0.00000037,0.00000039,0.00000
 102,-0.00000127,-0.00000081,-0.00000074,0.00000100,0.00000166,0.000000
 05,0.00000237,0.00000142,0.00000006,-0.00000247,-0.00000268,0.00000081
 ,-0.00000267,-0.00000057,-0.00000120,0.00000303,-0.00000099,0.00000071
 ,0.00000342,-0.00000017,-0.00000020,-0.00000021,0.00000020,0.00000190,
 -0.00000105,-0.00000147,-0.00000144,-0.00000037,0.00000237,-0.00000011
 ,-0.00000099,0.00000287,-0.00000229,-0.00000117,0.00000240,-0.00000198
 ,-0.00000120,0.00000323,0.00000018,-0.00000100,0.00000011,0.00000150,-
 0.00000058,-0.00000042,-0.00000166,0.00000011,-0.00000250,-0.00000213,
 0.00000209,-0.00000072,0.00000065,-0.00000159,0.00000233,-0.00000128,-
 0.00000152,-0.00000152,-0.00000231,0.00000024,0.00000140,0.00000029,0.
 00000258,-0.00000107,-0.00000312,0.00000221,-0.00000024,-0.00000206,-0
 .00000181,0.00000226,0.00000202,-0.00000207,-0.00000141,0.00000137,-0.
 00000079,0.00000103,-0.00000345,0.00000330,0.00000202,-0.00000524,-0.0
 0000613,0.00000316,-0.00000526,-0.00000142,-0.00000124\\\@


 I FIND THAT THE THREE TRULY GREAT TIMES FOR THINKING THOUGHTS
 ARE WHEN I AM STANDING IN THE SHOWER, SITTING ON THE JOHN, OR WALKING.

                                    -- COLIN FLETCHER
 Job cpu time:       0 days 11 hours 36 minutes  6.1 seconds.
 Elapsed time:       0 days  2 hours 54 minutes  2.6 seconds.
 File lengths (MBytes):  RWF=    994 Int=      0 D2E=      0 Chk=     28 Scr=      1
 Normal termination of Gaussian 16 at Thu May 25 02:53:50 2023.
### All Done ###
