### Starting Gaussian ###
 Entering Gaussian System, Link 0=g16
 Initial command:
 /cluster/software/gaussian/gaussian-16-A.03/avx2/g16/l1.exe "/local/scratch/yxie/Gau-10936.inp" -scrdir="/local/scratch/yxie/"
 Entering Link 1 = /cluster/software/gaussian/gaussian-16-A.03/avx2/g16/l1.exe PID=     10938.
  
 Copyright (c) 1988,1990,1992,1993,1995,1998,2003,2009,2016,
            Gaussian, Inc.  All Rights Reserved.
  
 This is part of the Gaussian(R) 16 program.  It is based on
 the Gaussian(R) 09 system (copyright 2009, Gaussian, Inc.),
 the Gaussian(R) 03 system (copyright 2003, Gaussian, Inc.),
 the Gaussian(R) 98 system (copyright 1998, Gaussian, Inc.),
 the Gaussian(R) 94 system (copyright 1995, Gaussian, Inc.),
 the Gaussian 92(TM) system (copyright 1992, Gaussian, Inc.),
 the Gaussian 90(TM) system (copyright 1990, Gaussian, Inc.),
 the Gaussian 88(TM) system (copyright 1988, Gaussian, Inc.),
 the Gaussian 86(TM) system (copyright 1986, Carnegie Mellon
 University), and the Gaussian 82(TM) system (copyright 1983,
 Carnegie Mellon University). Gaussian is a federally registered
 trademark of Gaussian, Inc.
  
 This software contains proprietary and confidential information,
 including trade secrets, belonging to Gaussian, Inc.
  
 This software is provided under written license and may be
 used, copied, transmitted, or stored only in accord with that
 written license.
  
 The following legend is applicable only to US Government
 contracts under FAR:
  
                    RESTRICTED RIGHTS LEGEND
  
 Use, reproduction and disclosure by the US Government is
 subject to restrictions as set forth in subparagraphs (a)
 and (c) of the Commercial Computer Software - Restricted
 Rights clause in FAR 52.227-19.
  
 Gaussian, Inc.
 340 Quinnipiac St., Bldg. 40, Wallingford CT 06492
  
  
 ---------------------------------------------------------------
 Warning -- This program may not be used in any manner that
 competes with the business of Gaussian, Inc. or will provide
 assistance to any competitor of Gaussian, Inc.  The licensee
 of this program is prohibited from giving any competitor of
 Gaussian, Inc. access to this program.  By using this program,
 the user acknowledges that Gaussian, Inc. is engaged in the
 business of creating and licensing software in the field of
 computational chemistry and represents and warrants to the
 licensee that it is not a competitor of Gaussian, Inc. and that
 it will not use this program in any manner prohibited above.
 ---------------------------------------------------------------
  

 Cite this work as:
 Gaussian 16, Revision A.03,
 M. J. Frisch, G. W. Trucks, H. B. Schlegel, G. E. Scuseria, 
 M. A. Robb, J. R. Cheeseman, G. Scalmani, V. Barone, 
 G. A. Petersson, H. Nakatsuji, X. Li, M. Caricato, A. V. Marenich, 
 J. Bloino, B. G. Janesko, R. Gomperts, B. Mennucci, H. P. Hratchian, 
 J. V. Ortiz, A. F. Izmaylov, J. L. Sonnenberg, D. Williams-Young, 
 F. Ding, F. Lipparini, F. Egidi, J. Goings, B. Peng, A. Petrone, 
 T. Henderson, D. Ranasinghe, V. G. Zakrzewski, J. Gao, N. Rega, 
 G. Zheng, W. Liang, M. Hada, M. Ehara, K. Toyota, R. Fukuda, 
 J. Hasegawa, M. Ishida, T. Nakajima, Y. Honda, O. Kitao, H. Nakai, 
 T. Vreven, K. Throssell, J. A. Montgomery, Jr., J. E. Peralta, 
 F. Ogliaro, M. J. Bearpark, J. J. Heyd, E. N. Brothers, K. N. Kudin, 
 V. N. Staroverov, T. A. Keith, R. Kobayashi, J. Normand, 
 K. Raghavachari, A. P. Rendell, J. C. Burant, S. S. Iyengar, 
 J. Tomasi, M. Cossi, J. M. Millam, M. Klene, C. Adamo, R. Cammi, 
 J. W. Ochterski, R. L. Martin, K. Morokuma, O. Farkas, 
 J. B. Foresman, and D. J. Fox, Gaussian, Inc., Wallingford CT, 2016.
 
 ******************************************
 Gaussian 16:  ES64L-G16RevA.03 25-Dec-2016
                25-May-2023 
 ******************************************
 %chk=CCCCNCqCCCrC1qCrCC1O.chk
 %NProcShared=20
 Will use up to   20 processors via shared memory.
 ----------------------------------------------------------------
 # opt freq b3lyp/6-31+g(2df,p) Geom=AllCheckpoint TD(NStates=10)
 ----------------------------------------------------------------
 1/18=20,19=15,26=3,29=7,38=1/1,3;
 2/9=110,12=2,40=1/2;
 3/5=1,6=6,7=114,11=9,14=-4,25=1,30=1,71=1,74=-5/1,2,3,8;
 4//1;
 5/5=2,38=5/2;
 8/6=1,10=2,108=10/1;
 9/15=2,41=10,42=1,70=2/14;
 10/5=4/2;
 6/7=2,8=2,9=2,10=2/1;
 7/12=6,13=5/1,2,3,16;
 1/18=20,19=15,26=3/3(2);
 2/9=110/2;
 99//99;
 2/9=110/2;
 3/5=1,6=6,7=114,11=9,14=-2,25=1,30=1,71=1,74=-5/1,2,3,8;
 4/5=5,16=3,69=1/1;
 5/5=2,38=5/2;
 8/6=1,10=2,108=10/1;
 9/15=2,41=10,42=1,49=4,70=2/14;
 10/5=4/2;
 7/12=6,13=5/1,2,3,16;
 1/18=20,19=15,26=3/3(-8);
 2/9=110/2;
 6/7=2,8=2,9=2,10=2/1;
 99//99;
 Structure from the checkpoint file:  "CCCCNCqCCCrC1qCrCC1O.chk"
 -------------------
 Title Card Required
 -------------------
 Charge =  0 Multiplicity = 1
 Redundant internal coordinates found in file.  (old form).
 C,0,0.5494688771,-0.415445913,-0.1511212193
 C,0,2.0647245515,-0.2013542262,-0.1017852541
 C,0,2.8143330879,-1.3677910104,0.5495588514
 C,0,4.3292959018,-1.1649533844,0.5930958533
 N,0,4.983481659,-2.2809064116,1.2674626678
 C,0,6.4500973463,-2.3079662758,1.2135956696
 C,0,7.0776273179,-1.1515528524,2.0321305886
 C,0,7.4928583408,0.0775798137,1.2103420062
 C,0,8.097818859,1.1886242113,2.0729420171
 C,0,6.9138557554,-3.6798678538,1.703440982
 C,0,6.577749457,-4.0297930293,3.1413663993
 C,0,6.8981843915,-4.8083886765,0.6807670562
 C,0,8.2035963772,-4.2118830389,1.1167274107
 O,0,9.0389679116,-5.0452897267,1.8702768367
 H,0,0.040526582,0.4335160371,-0.6181793356
 H,0,0.1346514222,-0.5403188377,0.8552398765
 H,0,0.2949905834,-1.3131658647,-0.7256223258
 H,0,2.2858420806,0.7228072202,0.4484111492
 H,0,2.4458867476,-0.0460416443,-1.1197374589
 H,0,2.589673028,-2.2940234476,0.0001540899
 H,0,2.4516552565,-1.5232210456,1.5732719618
 H,0,4.5478452584,-0.242394006,1.144699141
 H,0,4.7092060753,-1.0081508174,-0.4363622729
 H,0,4.6440646582,-3.1477967969,0.8598261511
 H,0,6.8065132647,-2.1999332042,0.1689665906
 H,0,7.9724957604,-1.5270179121,2.5441995577
 H,0,6.3738206923,-0.8601012492,2.8208691038
 H,0,6.6338492696,0.4729168401,0.6564356605
 H,0,8.221759051,-0.2320165435,0.4496885428
 H,0,7.3788846298,1.5470495464,2.8181817173
 H,0,8.4028137958,2.0463891386,1.4652531334
 H,0,8.9817685587,0.8331218796,2.6146995331
 H,0,5.4956565266,-4.0213013277,3.2955164546
 H,0,7.0114926004,-3.3053077485,3.8403640607
 H,0,6.9671507792,-5.0165376214,3.4005365783
 H,0,6.5524154024,-4.6062210639,-0.3281903777
 H,0,6.6865563737,-5.8086675682,1.0427465647
 H,0,8.7271093606,-3.577521914,0.4001997248
 H,0,9.5210824087,-4.4951636749,2.4968223134
 Recover connectivity data from disk.

 GradGradGradGradGradGradGradGradGradGradGradGradGradGradGradGradGradGrad
 Berny optimization.
 Initialization pass.
                           ----------------------------
                           !    Initial Parameters    !
                           ! (Angstroms and Degrees)  !
 --------------------------                            --------------------------
 ! Name  Definition              Value          Derivative Info.                !
 --------------------------------------------------------------------------------
 ! R1    R(1,2)                  1.5311         estimate D2E/DX2                !
 ! R2    R(1,15)                 1.0945         estimate D2E/DX2                !
 ! R3    R(1,16)                 1.0956         estimate D2E/DX2                !
 ! R4    R(1,17)                 1.0958         estimate D2E/DX2                !
 ! R5    R(2,3)                  1.5319         estimate D2E/DX2                !
 ! R6    R(2,18)                 1.098          estimate D2E/DX2                !
 ! R7    R(2,19)                 1.098          estimate D2E/DX2                !
 ! R8    R(3,4)                  1.5291         estimate D2E/DX2                !
 ! R9    R(3,20)                 1.1001         estimate D2E/DX2                !
 ! R10   R(3,21)                 1.0971         estimate D2E/DX2                !
 ! R11   R(4,5)                  1.4588         estimate D2E/DX2                !
 ! R12   R(4,22)                 1.0969         estimate D2E/DX2                !
 ! R13   R(4,23)                 1.1085         estimate D2E/DX2                !
 ! R14   R(5,6)                  1.4679         estimate D2E/DX2                !
 ! R15   R(5,24)                 1.0163         estimate D2E/DX2                !
 ! R16   R(6,7)                  1.5495         estimate D2E/DX2                !
 ! R17   R(6,10)                 1.5288         estimate D2E/DX2                !
 ! R18   R(6,25)                 1.109          estimate D2E/DX2                !
 ! R19   R(7,8)                  1.5357         estimate D2E/DX2                !
 ! R20   R(7,26)                 1.0973         estimate D2E/DX2                !
 ! R21   R(7,27)                 1.0965         estimate D2E/DX2                !
 ! R22   R(8,9)                  1.5312         estimate D2E/DX2                !
 ! R23   R(8,28)                 1.0959         estimate D2E/DX2                !
 ! R24   R(8,29)                 1.0981         estimate D2E/DX2                !
 ! R25   R(9,30)                 1.0958         estimate D2E/DX2                !
 ! R26   R(9,31)                 1.0946         estimate D2E/DX2                !
 ! R27   R(9,32)                 1.096          estimate D2E/DX2                !
 ! R28   R(10,11)                1.5176         estimate D2E/DX2                !
 ! R29   R(10,12)                1.523          estimate D2E/DX2                !
 ! R30   R(10,13)                1.5135         estimate D2E/DX2                !
 ! R31   R(11,33)                1.0931         estimate D2E/DX2                !
 ! R32   R(11,34)                1.0962         estimate D2E/DX2                !
 ! R33   R(11,35)                1.092          estimate D2E/DX2                !
 ! R34   R(12,13)                1.5            estimate D2E/DX2                !
 ! R35   R(12,36)                1.0856         estimate D2E/DX2                !
 ! R36   R(12,37)                1.0846         estimate D2E/DX2                !
 ! R37   R(13,14)                1.4001         estimate D2E/DX2                !
 ! R38   R(13,38)                1.0908         estimate D2E/DX2                !
 ! R39   R(14,39)                0.9631         estimate D2E/DX2                !
 ! A1    A(2,1,15)             111.4373         estimate D2E/DX2                !
 ! A2    A(2,1,16)             111.1634         estimate D2E/DX2                !
 ! A3    A(2,1,17)             111.179          estimate D2E/DX2                !
 ! A4    A(15,1,16)            107.7169         estimate D2E/DX2                !
 ! A5    A(15,1,17)            107.683          estimate D2E/DX2                !
 ! A6    A(16,1,17)            107.4737         estimate D2E/DX2                !
 ! A7    A(1,2,3)              113.0477         estimate D2E/DX2                !
 ! A8    A(1,2,18)             109.4585         estimate D2E/DX2                !
 ! A9    A(1,2,19)             109.4784         estimate D2E/DX2                !
 ! A10   A(3,2,18)             109.2243         estimate D2E/DX2                !
 ! A11   A(3,2,19)             109.3915         estimate D2E/DX2                !
 ! A12   A(18,2,19)            105.9967         estimate D2E/DX2                !
 ! A13   A(2,3,4)              113.3226         estimate D2E/DX2                !
 ! A14   A(2,3,20)             109.1967         estimate D2E/DX2                !
 ! A15   A(2,3,21)             110.0505         estimate D2E/DX2                !
 ! A16   A(4,3,20)             109.1617         estimate D2E/DX2                !
 ! A17   A(4,3,21)             108.6472         estimate D2E/DX2                !
 ! A18   A(20,3,21)            106.2129         estimate D2E/DX2                !
 ! A19   A(3,4,5)              110.8537         estimate D2E/DX2                !
 ! A20   A(3,4,22)             108.8621         estimate D2E/DX2                !
 ! A21   A(3,4,23)             109.3834         estimate D2E/DX2                !
 ! A22   A(5,4,22)             108.7589         estimate D2E/DX2                !
 ! A23   A(5,4,23)             112.5719         estimate D2E/DX2                !
 ! A24   A(22,4,23)            106.2466         estimate D2E/DX2                !
 ! A25   A(4,5,6)              116.4363         estimate D2E/DX2                !
 ! A26   A(4,5,24)             108.5017         estimate D2E/DX2                !
 ! A27   A(6,5,24)             107.6527         estimate D2E/DX2                !
 ! A28   A(5,6,7)              111.8077         estimate D2E/DX2                !
 ! A29   A(5,6,10)             107.9317         estimate D2E/DX2                !
 ! A30   A(5,6,25)             110.7245         estimate D2E/DX2                !
 ! A31   A(7,6,10)             112.1854         estimate D2E/DX2                !
 ! A32   A(7,6,25)             107.1407         estimate D2E/DX2                !
 ! A33   A(10,6,25)            106.962          estimate D2E/DX2                !
 ! A34   A(6,7,8)              115.0953         estimate D2E/DX2                !
 ! A35   A(6,7,26)             108.7494         estimate D2E/DX2                !
 ! A36   A(6,7,27)             108.5656         estimate D2E/DX2                !
 ! A37   A(8,7,26)             107.643          estimate D2E/DX2                !
 ! A38   A(8,7,27)             110.2254         estimate D2E/DX2                !
 ! A39   A(26,7,27)            106.184          estimate D2E/DX2                !
 ! A40   A(7,8,9)              112.713          estimate D2E/DX2                !
 ! A41   A(7,8,28)             110.3191         estimate D2E/DX2                !
 ! A42   A(7,8,29)             108.9354         estimate D2E/DX2                !
 ! A43   A(9,8,28)             109.4311         estimate D2E/DX2                !
 ! A44   A(9,8,29)             109.425          estimate D2E/DX2                !
 ! A45   A(28,8,29)            105.7774         estimate D2E/DX2                !
 ! A46   A(8,9,30)             111.1782         estimate D2E/DX2                !
 ! A47   A(8,9,31)             111.4666         estimate D2E/DX2                !
 ! A48   A(8,9,32)             111.2082         estimate D2E/DX2                !
 ! A49   A(30,9,31)            107.7023         estimate D2E/DX2                !
 ! A50   A(30,9,32)            107.402          estimate D2E/DX2                !
 ! A51   A(31,9,32)            107.6911         estimate D2E/DX2                !
 ! A52   A(6,10,11)            116.3169         estimate D2E/DX2                !
 ! A53   A(6,10,12)            116.5297         estimate D2E/DX2                !
 ! A54   A(6,10,13)            116.7268         estimate D2E/DX2                !
 ! A55   A(11,10,12)           117.5868         estimate D2E/DX2                !
 ! A56   A(11,10,13)           118.3583         estimate D2E/DX2                !
 ! A57   A(10,11,33)           110.5539         estimate D2E/DX2                !
 ! A58   A(10,11,34)           111.3564         estimate D2E/DX2                !
 ! A59   A(10,11,35)           110.7479         estimate D2E/DX2                !
 ! A60   A(33,11,34)           107.2569         estimate D2E/DX2                !
 ! A61   A(33,11,35)           109.0606         estimate D2E/DX2                !
 ! A62   A(34,11,35)           107.7445         estimate D2E/DX2                !
 ! A63   A(10,12,36)           119.2994         estimate D2E/DX2                !
 ! A64   A(10,12,37)           117.4687         estimate D2E/DX2                !
 ! A65   A(13,12,36)           118.247          estimate D2E/DX2                !
 ! A66   A(13,12,37)           116.0759         estimate D2E/DX2                !
 ! A67   A(36,12,37)           114.822          estimate D2E/DX2                !
 ! A68   A(10,13,14)           120.6            estimate D2E/DX2                !
 ! A69   A(10,13,38)           117.3347         estimate D2E/DX2                !
 ! A70   A(12,13,14)           116.0381         estimate D2E/DX2                !
 ! A71   A(12,13,38)           117.2594         estimate D2E/DX2                !
 ! A72   A(14,13,38)           114.4156         estimate D2E/DX2                !
 ! A73   A(13,14,39)           107.9864         estimate D2E/DX2                !
 ! D1    D(15,1,2,3)           179.8361         estimate D2E/DX2                !
 ! D2    D(15,1,2,18)           57.8427         estimate D2E/DX2                !
 ! D3    D(15,1,2,19)          -57.9414         estimate D2E/DX2                !
 ! D4    D(16,1,2,3)            59.6649         estimate D2E/DX2                !
 ! D5    D(16,1,2,18)          -62.3286         estimate D2E/DX2                !
 ! D6    D(16,1,2,19)         -178.1126         estimate D2E/DX2                !
 ! D7    D(17,1,2,3)           -60.0251         estimate D2E/DX2                !
 ! D8    D(17,1,2,18)          177.9815         estimate D2E/DX2                !
 ! D9    D(17,1,2,19)           62.1974         estimate D2E/DX2                !
 ! D10   D(1,2,3,4)            179.5876         estimate D2E/DX2                !
 ! D11   D(1,2,3,20)            57.6769         estimate D2E/DX2                !
 ! D12   D(1,2,3,21)           -58.5415         estimate D2E/DX2                !
 ! D13   D(18,2,3,4)           -58.2877         estimate D2E/DX2                !
 ! D14   D(18,2,3,20)          179.8016         estimate D2E/DX2                !
 ! D15   D(18,2,3,21)           63.5832         estimate D2E/DX2                !
 ! D16   D(19,2,3,4)            57.3165         estimate D2E/DX2                !
 ! D17   D(19,2,3,20)          -64.5942         estimate D2E/DX2                !
 ! D18   D(19,2,3,21)          179.1874         estimate D2E/DX2                !
 ! D19   D(2,3,4,5)            177.854          estimate D2E/DX2                !
 ! D20   D(2,3,4,22)            58.2633         estimate D2E/DX2                !
 ! D21   D(2,3,4,23)           -57.4337         estimate D2E/DX2                !
 ! D22   D(20,3,4,5)           -60.2157         estimate D2E/DX2                !
 ! D23   D(20,3,4,22)         -179.8065         estimate D2E/DX2                !
 ! D24   D(20,3,4,23)           64.4965         estimate D2E/DX2                !
 ! D25   D(21,3,4,5)            55.2024         estimate D2E/DX2                !
 ! D26   D(21,3,4,22)          -64.3883         estimate D2E/DX2                !
 ! D27   D(21,3,4,23)          179.9147         estimate D2E/DX2                !
 ! D28   D(3,4,5,6)            171.6693         estimate D2E/DX2                !
 ! D29   D(3,4,5,24)            50.1024         estimate D2E/DX2                !
 ! D30   D(22,4,5,6)           -68.6781         estimate D2E/DX2                !
 ! D31   D(22,4,5,24)          169.755          estimate D2E/DX2                !
 ! D32   D(23,4,5,6)            48.7837         estimate D2E/DX2                !
 ! D33   D(23,4,5,24)          -72.7832         estimate D2E/DX2                !
 ! D34   D(4,5,6,7)             68.07           estimate D2E/DX2                !
 ! D35   D(4,5,6,10)          -168.0843         estimate D2E/DX2                !
 ! D36   D(4,5,6,25)           -51.3225         estimate D2E/DX2                !
 ! D37   D(24,5,6,7)          -169.916          estimate D2E/DX2                !
 ! D38   D(24,5,6,10)          -46.0703         estimate D2E/DX2                !
 ! D39   D(24,5,6,25)           70.6916         estimate D2E/DX2                !
 ! D40   D(5,6,7,8)            -98.0314         estimate D2E/DX2                !
 ! D41   D(5,6,7,26)           141.1445         estimate D2E/DX2                !
 ! D42   D(5,6,7,27)            26.0248         estimate D2E/DX2                !
 ! D43   D(10,6,7,8)           140.5492         estimate D2E/DX2                !
 ! D44   D(10,6,7,26)           19.7251         estimate D2E/DX2                !
 ! D45   D(10,6,7,27)          -95.3945         estimate D2E/DX2                !
 ! D46   D(25,6,7,8)            23.4535         estimate D2E/DX2                !
 ! D47   D(25,6,7,26)          -97.3706         estimate D2E/DX2                !
 ! D48   D(25,6,7,27)          147.5098         estimate D2E/DX2                !
 ! D49   D(5,6,10,11)          -62.9143         estimate D2E/DX2                !
 ! D50   D(5,6,10,12)           82.6093         estimate D2E/DX2                !
 ! D51   D(5,6,10,13)          149.6976         estimate D2E/DX2                !
 ! D52   D(7,6,10,11)           60.7028         estimate D2E/DX2                !
 ! D53   D(7,6,10,12)         -153.7735         estimate D2E/DX2                !
 ! D54   D(7,6,10,13)          -86.6852         estimate D2E/DX2                !
 ! D55   D(25,6,10,11)         177.9054         estimate D2E/DX2                !
 ! D56   D(25,6,10,12)         -36.571          estimate D2E/DX2                !
 ! D57   D(25,6,10,13)          30.5174         estimate D2E/DX2                !
 ! D58   D(6,7,8,9)            179.658          estimate D2E/DX2                !
 ! D59   D(6,7,8,28)            57.0039         estimate D2E/DX2                !
 ! D60   D(6,7,8,29)           -58.6901         estimate D2E/DX2                !
 ! D61   D(26,7,8,9)           -58.9156         estimate D2E/DX2                !
 ! D62   D(26,7,8,28)          178.4304         estimate D2E/DX2                !
 ! D63   D(26,7,8,29)           62.7363         estimate D2E/DX2                !
 ! D64   D(27,7,8,9)            56.4808         estimate D2E/DX2                !
 ! D65   D(27,7,8,28)          -66.1733         estimate D2E/DX2                !
 ! D66   D(27,7,8,29)          178.1326         estimate D2E/DX2                !
 ! D67   D(7,8,9,30)           -60.8466         estimate D2E/DX2                !
 ! D68   D(7,8,9,31)           178.9708         estimate D2E/DX2                !
 ! D69   D(7,8,9,32)            58.7822         estimate D2E/DX2                !
 ! D70   D(28,8,9,30)           62.3037         estimate D2E/DX2                !
 ! D71   D(28,8,9,31)          -57.8789         estimate D2E/DX2                !
 ! D72   D(28,8,9,32)         -178.0676         estimate D2E/DX2                !
 ! D73   D(29,8,9,30)          177.7793         estimate D2E/DX2                !
 ! D74   D(29,8,9,31)           57.5967         estimate D2E/DX2                !
 ! D75   D(29,8,9,32)          -62.592          estimate D2E/DX2                !
 ! D76   D(6,10,11,33)          60.1497         estimate D2E/DX2                !
 ! D77   D(6,10,11,34)         -58.9808         estimate D2E/DX2                !
 ! D78   D(6,10,11,35)        -178.8528         estimate D2E/DX2                !
 ! D79   D(12,10,11,33)        -85.0006         estimate D2E/DX2                !
 ! D80   D(12,10,11,34)        155.869          estimate D2E/DX2                !
 ! D81   D(12,10,11,35)         35.9969         estimate D2E/DX2                !
 ! D82   D(13,10,11,33)       -153.0125         estimate D2E/DX2                !
 ! D83   D(13,10,11,34)         87.857          estimate D2E/DX2                !
 ! D84   D(13,10,11,35)        -32.015          estimate D2E/DX2                !
 ! D85   D(6,10,12,36)          -0.9351         estimate D2E/DX2                !
 ! D86   D(6,10,12,37)        -147.4759         estimate D2E/DX2                !
 ! D87   D(11,10,12,36)        144.1414         estimate D2E/DX2                !
 ! D88   D(11,10,12,37)         -2.3993         estimate D2E/DX2                !
 ! D89   D(6,10,13,14)         148.9591         estimate D2E/DX2                !
 ! D90   D(6,10,13,38)           1.149          estimate D2E/DX2                !
 ! D91   D(11,10,13,14)          2.2553         estimate D2E/DX2                !
 ! D92   D(11,10,13,38)       -145.5549         estimate D2E/DX2                !
 ! D93   D(36,12,13,14)       -138.5644         estimate D2E/DX2                !
 ! D94   D(36,12,13,38)          1.7218         estimate D2E/DX2                !
 ! D95   D(37,12,13,14)          3.9467         estimate D2E/DX2                !
 ! D96   D(37,12,13,38)        144.2329         estimate D2E/DX2                !
 ! D97   D(10,13,14,39)        -77.0417         estimate D2E/DX2                !
 ! D98   D(12,13,14,39)       -146.9476         estimate D2E/DX2                !
 ! D99   D(38,13,14,39)         71.6448         estimate D2E/DX2                !
 --------------------------------------------------------------------------------
 Trust Radius=3.00D-01 FncErr=1.00D-07 GrdErr=1.00D-06 EigMax=2.50D+02 EigMin=1.00D-04
 Number of steps in this run=    221 maximum allowed number of steps=    234.
 GradGradGradGradGradGradGradGradGradGradGradGradGradGradGradGradGradGrad

                          Input orientation:                          
 ---------------------------------------------------------------------
 Center     Atomic      Atomic             Coordinates (Angstroms)
 Number     Number       Type             X           Y           Z
 ---------------------------------------------------------------------
      1          6           0        0.549469   -0.415446   -0.151121
      2          6           0        2.064725   -0.201354   -0.101785
      3          6           0        2.814333   -1.367791    0.549559
      4          6           0        4.329296   -1.164953    0.593096
      5          7           0        4.983482   -2.280906    1.267463
      6          6           0        6.450097   -2.307966    1.213596
      7          6           0        7.077627   -1.151553    2.032131
      8          6           0        7.492858    0.077580    1.210342
      9          6           0        8.097819    1.188624    2.072942
     10          6           0        6.913856   -3.679868    1.703441
     11          6           0        6.577749   -4.029793    3.141366
     12          6           0        6.898184   -4.808389    0.680767
     13          6           0        8.203596   -4.211883    1.116727
     14          8           0        9.038968   -5.045290    1.870277
     15          1           0        0.040527    0.433516   -0.618179
     16          1           0        0.134651   -0.540319    0.855240
     17          1           0        0.294991   -1.313166   -0.725622
     18          1           0        2.285842    0.722807    0.448411
     19          1           0        2.445887   -0.046042   -1.119737
     20          1           0        2.589673   -2.294023    0.000154
     21          1           0        2.451655   -1.523221    1.573272
     22          1           0        4.547845   -0.242394    1.144699
     23          1           0        4.709206   -1.008151   -0.436362
     24          1           0        4.644065   -3.147797    0.859826
     25          1           0        6.806513   -2.199933    0.168967
     26          1           0        7.972496   -1.527018    2.544200
     27          1           0        6.373821   -0.860101    2.820869
     28          1           0        6.633849    0.472917    0.656436
     29          1           0        8.221759   -0.232017    0.449689
     30          1           0        7.378885    1.547050    2.818182
     31          1           0        8.402814    2.046389    1.465253
     32          1           0        8.981769    0.833122    2.614700
     33          1           0        5.495657   -4.021301    3.295516
     34          1           0        7.011493   -3.305308    3.840364
     35          1           0        6.967151   -5.016538    3.400537
     36          1           0        6.552415   -4.606221   -0.328190
     37          1           0        6.686556   -5.808668    1.042747
     38          1           0        8.727109   -3.577522    0.400200
     39          1           0        9.521082   -4.495164    2.496822
 ---------------------------------------------------------------------
                    Distance matrix (angstroms):
                    1          2          3          4          5
     1  C    0.000000
     2  C    1.531101   0.000000
     3  C    2.554902   1.531906   0.000000
     4  C    3.924629   2.557277   1.529101   0.000000
     5  N    5.015256   3.836472   2.460563   1.458794   0.000000
     6  C    6.345195   5.039795   3.813615   2.487830   1.467854
     7  C    6.922810   5.530431   4.518900   3.102310   2.499120
     8  C    7.092765   5.591433   4.941086   3.454419   3.444226
     9  C    8.031008   6.561989   6.063924   4.683059   4.731336
    10  C    7.389267   6.234819   4.845950   3.773276   2.423533
    11  C    7.761710   6.748509   5.288386   4.444832   3.018577
    12  C    7.765061   6.723056   5.341607   4.458867   3.224665
    13  C    8.637479   7.433361   6.120024   4.956629   3.757729
    14  O    9.878922   8.717386   7.349447   6.234518   4.944913
    15  H    1.094487   2.183369   3.507467   4.734536   5.946137
    16  H    1.095641   2.180820   2.821142   4.248992   5.168242
    17  H    1.095770   2.181114   2.824209   4.246952   5.185640
    18  H    2.161030   1.098036   2.158734   2.785727   4.119515
    19  H    2.161268   1.098013   2.160862   2.780826   4.139171
    20  H    2.777476   2.159914   1.100102   2.157004   2.708609
    21  H    2.796249   2.168609   1.097125   2.148170   2.660404
    22  H    4.206675   2.778722   2.150761   1.096880   2.088153
    23  H    4.211422   2.784986   2.166085   1.108469   2.144331
    24  H    5.025283   4.032272   2.571498   2.025313   1.016302
    25  H    6.514404   5.152881   4.095707   2.718028   2.129952
    26  H    7.975066   6.607600   5.532684   4.148590   3.336557
    27  H    6.553893   5.248254   4.252829   3.039077   2.522856
    28  H    6.201695   4.680432   4.241265   2.828002   3.268120
    29  H    7.697964   6.181758   5.526320   4.005272   3.918309
    30  H    7.701238   6.310580   5.871803   4.648221   4.774509
    31  H    8.387391   6.905022   6.612582   5.259936   5.518735
    32  H    8.961717   7.502995   6.866301   5.452035   5.243903
    33  H    7.024691   6.156700   4.665929   4.101487   2.721084
    34  H    8.126562   7.045962   5.674462   4.724410   3.432499
    35  H    8.658577   7.712719   6.219913   5.447449   3.996076
    36  H    7.323204   6.292335   5.023060   4.199208   3.227189
    37  H    8.256876   7.356171   5.912591   5.227135   3.923781
    38  H    8.785015   7.485845   6.313964   5.019807   4.055626
    39  H   10.205173   8.988150   7.651979   6.455162   5.196545
                    6          7          8          9         10
     6  C    0.000000
     7  C    1.549544   0.000000
     8  C    2.603496   1.535748   0.000000
     9  C    3.959748   2.553211   1.531168   0.000000
    10  C    1.528769   2.554845   3.833641   5.023994   0.000000
    11  C    2.587911   3.124828   4.629988   5.539316   1.517579
    12  C    2.595535   3.902670   4.950432   6.272275   1.523045
    13  C    2.590182   3.386944   4.348954   5.485528   1.513507
    14  O    3.824450   4.362825   5.391638   6.307814   2.531465
    15  H    7.207893   7.684879   7.681629   8.528322   8.339814
    16  H    6.567941   7.068493   7.392639   8.239179   7.518898
    17  H    6.529589   7.323625   7.582310   8.658813   7.437137
    18  H    5.206930   5.383549   5.301875   6.052699   6.509774
    19  H    5.156981   5.710468   5.560259   6.607718   6.413874
    20  H    4.046667   5.057262   5.579452   6.838491   4.849774
    21  H    4.090566   4.663508   5.301699   6.283545   4.957752
    22  H    2.808896   2.830884   2.963072   3.938497   4.210276
    23  H    2.728110   3.423951   3.411622   4.754485   4.071524
    24  H    2.022924   3.358797   4.317585   5.674911   2.479261
    25  H    1.109033   2.154991   2.596651   4.095719   2.134559
    26  H    2.167506   1.097259   2.141019   2.759076   2.542117
    27  H    2.164592   1.096538   2.173773   2.780079   3.080806
    28  H    2.842095   2.174483   1.095902   2.159151   4.291881
    29  H    2.834062   2.158404   1.098062   2.160679   3.894892
    30  H    4.277673   2.826851   2.181165   1.095772   5.364659
    31  H    4.778791   3.507749   2.183852   1.094563   5.921465
    32  H    4.270701   2.811419   2.181724   1.096016   5.047151
    33  H    2.860222   3.512012   5.013741   5.950568   2.159299
    34  H    2.865269   2.812960   4.311920   4.949678   2.171697
    35  H    3.519434   4.101566   5.569861   6.445537   2.160940
    36  H    2.769395   4.216835   5.018915   6.460181   2.261923
    37  H    3.512835   4.777084   5.943578   7.212146   2.240529
    38  H    2.730965   3.356980   3.942014   5.090208   2.235353
    39  H    3.982644   4.167271   5.165144   5.874589   2.844608
                   11         12         13         14         15
    11  C    0.000000
    12  C    2.600661   0.000000
    13  C    2.603017   1.499994   0.000000
    14  O    2.950339   2.460490   1.400089   0.000000
    15  H    8.763024   8.728820   9.551196  10.825048   0.000000
    16  H    7.675697   7.999515   8.868857  10.030549   1.768666
    17  H    7.861725   7.602413   8.622231   9.855180   1.768387
    18  H    6.946919   7.205680   7.734186   8.994296   2.502548
    19  H    7.148396   6.763484   7.450317   8.797806   2.503456
    20  H    5.365153   5.034733   6.036643   7.256737   3.784172
    21  H    5.076069   5.600046   6.365702   7.475685   3.800634
    22  H    4.738310   5.156320   5.396493   6.615471   4.886770
    23  H    5.042015   4.525639   4.988662   6.353417   4.889584
    24  H    3.118089   2.805474   3.724049   4.892511   6.016882
    25  H    3.497982   2.659771   2.626411   3.996794   7.302960
    26  H    2.926740   3.923509   3.049522   3.737616   8.761305
    27  H    3.192374   4.521501   4.181701   5.051974   7.321961
    28  H    5.143192   5.287972   4.962189   6.140734   6.715512
    29  H    4.936700   4.769531   4.035419   5.084634   8.277430
    30  H    5.643354   6.722441   6.061386   6.863916   8.179244
    31  H    6.562028   7.061679   6.271135   7.131665   8.767548
    32  H    5.450195   6.317283   5.319920   5.925636   9.516144
    33  H    1.093051   3.069773   3.480859   3.954101   8.057348
    34  H    1.096180   3.500735   3.108245   3.319554   9.080296
    35  H    1.092002   2.728595   2.718833   2.575839   9.686655
    36  H    3.517206   1.085552   2.229280   3.347982   8.239402
    37  H    2.753260   1.084608   2.203770   2.607948   9.267861
    38  H    3.512590   2.222323   1.090822   2.100649   9.621967
    39  H    3.048806   3.205583   1.928906   0.963137  11.129962
                   16         17         18         19         20
    16  H    0.000000
    17  H    1.766954   0.000000
    18  H    2.527572   3.080102   0.000000
    19  H    3.080041   2.527308   1.753805   0.000000
    20  H    3.135886   2.598923   3.065047   2.515602   0.000000
    21  H    2.617284   3.159152   2.517429   3.071546   1.757238
    22  H    4.432700   4.767749   2.555991   3.095877   3.058366
    23  H    4.776364   4.434186   3.106724   2.552503   2.517228
    24  H    5.209009   4.979354   4.551049   4.286204   2.385056
    25  H    6.909344   6.632237   5.390452   5.031408   4.221267
    26  H    8.078240   8.347548   6.464679   6.794198   6.002936
    27  H    6.549289   7.052308   4.984549   5.623143   4.932782
    28  H    6.580710   6.729139   4.360147   4.578552   4.943888
    29  H    8.103137   8.086031   6.012221   5.988187   6.014511
    30  H    7.790325   8.421457   5.677523   6.509963   6.755122
    31  H    8.684796   9.045626   6.340598   6.822421   7.401237
    32  H    9.124337   9.551147   7.038495   7.578700   7.581146
    33  H    6.841971   7.109886   6.396521   6.678192   4.720979
    34  H    7.990436   8.362312   7.075509   7.488002   5.943265
    35  H    8.555590   8.675129   7.973066   8.098181   6.175516
    36  H    7.688938   7.082198   6.870611   6.187517   4.599717
    37  H    8.409406   8.011790   7.898081   7.474455   5.497652
    38  H    9.124801   8.803148   7.745003   7.364463   6.282955
    39  H   10.317009  10.277647   9.152700   9.106733   7.689136
                   21         22         23         24         25
    21  H    0.000000
    22  H    2.493633   0.000000
    23  H    3.066017   1.764136   0.000000
    24  H    2.820445   2.920920   2.502485   0.000000
    25  H    4.625451   3.144137   2.487060   2.460064   0.000000
    26  H    5.605568   3.916260   4.449947   4.067246   2.730213
    27  H    4.168886   2.554466   3.660931   3.474377   3.002492
    28  H    4.723971   2.258646   2.663085   4.136445   2.722419
    29  H    6.018617   3.739089   3.704794   4.633561   2.440168
    30  H    5.937504   3.743987   4.924255   5.775464   4.624482
    31  H    6.940466   4.494671   5.156461   6.440055   4.718028
    32  H    7.019922   4.793465   5.563637   6.143531   4.462373
    33  H    4.297962   4.450225   4.860504   2.724116   3.848512
    34  H    5.395151   4.766299   5.372880   3.809610   3.839665
    35  H    5.994319   5.808123   5.990599   3.917159   4.289768
    36  H    5.471442   5.023016   4.044160   2.679587   2.470213
    37  H    6.048214   5.963881   5.398392   3.359385   3.714949
    38  H    6.706532   5.398482   4.842009   4.131244   2.374849
    39  H    7.724130   6.681869   6.626989   5.317937   4.249221
                   26         27         28         29         30
    26  H    0.000000
    27  H    1.754162   0.000000
    28  H    3.058654   2.555254   0.000000
    29  H    2.475103   3.071134   1.749609   0.000000
    30  H    3.142822   2.608550   2.526259   3.079817   0.000000
    31  H    3.757464   3.795022   2.501847   2.501057   1.768668
    32  H    2.567852   3.116232   3.078518   2.529705   1.766447
    33  H    3.594532   3.315064   5.334625   5.467088   5.897536
    34  H    2.401226   2.724891   4.955300   4.733555   4.972445
    35  H    3.731056   4.238398   6.146161   5.759617   6.602222
    36  H    4.443956   4.897130   5.174337   4.746100   6.960276
    37  H    4.715986   5.267621   6.293673   5.814430   7.598557
    38  H    3.061167   4.333819   4.566558   3.383819   5.824567
    39  H    3.348172   4.819122   6.033652   4.904429   6.418771
                   31         32         33         34         35
    31  H    0.000000
    32  H    1.768738   0.000000
    33  H    6.972682   6.015140   0.000000
    34  H    6.018105   4.744559   1.762744   0.000000
    35  H    7.462666   6.236565   1.779556   1.767405   0.000000
    36  H    7.134258   6.644457   3.819702   4.390897   3.774092
    37  H    8.051457   7.200861   3.112538   3.768164   2.503073
    38  H    5.733052   4.941927   4.361432   3.853852   3.764338
    39  H    6.716143   5.356807   4.131163   3.085272   2.758822
                   36         37         38         39
    36  H    0.000000
    37  H    1.828480   0.000000
    38  H    2.513577   3.091073   0.000000
    39  H    4.099514   3.445891   2.422455   0.000000
 Stoichiometry    C12H25NO
 Framework group  C1[X(C12H25NO)]
 Deg. of freedom   111
 Full point group                 C1      NOp   1
 Largest Abelian subgroup         C1      NOp   1
 Largest concise Abelian subgroup C1      NOp   1
                         Standard orientation:                         
 ---------------------------------------------------------------------
 Center     Atomic      Atomic             Coordinates (Angstroms)
 Number     Number       Type             X           Y           Z
 ---------------------------------------------------------------------
      1          6           0       -5.557425   -1.032252    0.082432
      2          6           0       -4.345916   -0.169792   -0.281816
      3          6           0       -3.014425   -0.794472    0.146722
      4          6           0       -1.799405    0.057112   -0.222981
      5          7           0       -0.567223   -0.561669    0.253379
      6          6           0        0.688273    0.051821   -0.196014
      7          6           0        0.892438    1.460274    0.416898
      8          6           0        0.489044    2.630777   -0.491791
      9          6           0        0.705181    3.994596    0.169843
     10          6           0        1.830329   -0.901765    0.155434
     11          6           0        2.046639   -1.177098    1.632068
     12          6           0        2.088553   -2.042620   -0.819983
     13          6           0        3.037892   -0.882990   -0.756784
     14          8           0        4.314912   -1.160818   -0.254509
     15          1           0       -6.493462   -0.560600   -0.232659
     16          1           0       -5.614751   -1.197131    1.164078
     17          1           0       -5.502082   -2.015620   -0.397814
     18          1           0       -4.447743    0.819327    0.183972
     19          1           0       -4.334113    0.005885   -1.365620
     20          1           0       -2.914495   -1.786888   -0.317335
     21          1           0       -3.008966   -0.961397    1.231059
     22          1           0       -1.902361    1.043858    0.244863
     23          1           0       -1.792108    0.232096   -1.317527
     24          1           0       -0.558801   -1.533651   -0.043352
     25          1           0        0.694133    0.171181   -1.298589
     26          1           0        1.953109    1.584966    0.668707
     27          1           0        0.345070    1.510832    1.365702
     28          1           0       -0.560019    2.534173   -0.793675
     29          1           0        1.072924    2.578696   -1.420291
     30          1           0        0.103808    4.092507    1.080601
     31          1           0        0.428522    4.813769   -0.501337
     32          1           0        1.754471    4.136029    0.453105
     33          1           0        1.152936   -1.625343    2.073805
     34          1           0        2.253865   -0.253111    2.184260
     35          1           0        2.893600   -1.850319    1.780045
     36          1           0        1.458529   -2.143542   -1.698224
     37          1           0        2.451586   -2.978845   -0.410029
     38          1           0        3.024544   -0.180336   -1.591045
     39          1           0        4.626003   -0.379861    0.215555
 ---------------------------------------------------------------------
 Rotational constants (GHZ):           0.7998116           0.3069749           0.2408744
 Standard basis: 6-31+G(2df,p) (6D, 7F)
 There are   615 symmetry adapted cartesian basis functions of A   symmetry.
 There are   573 symmetry adapted basis functions of A   symmetry.
   573 basis functions,   847 primitive gaussians,   615 cartesian basis functions
    56 alpha electrons       56 beta electrons
       nuclear repulsion energy       952.3141560607 Hartrees.
 NAtoms=   39 NActive=   39 NUniq=   39 SFac= 1.00D+00 NAtFMM=   60 NAOKFM=F Big=F
 Integral buffers will be    131072 words long.
 Regular integral format.
 Two-electron integral symmetry is turned on.
 One-electron integrals computed using PRISM.
 PrsmSu:  requested number of processors reduced to:  12 ShMem   1 Linda.
 NBasis=   573 RedAO= T EigKep=  3.76D-06  NBF=   573
 NBsUse=   573 1.00D-06 EigRej= -1.00D+00 NBFU=   573
 ExpMin= 4.38D-02 ExpMax= 5.48D+03 ExpMxC= 8.25D+02 IAcc=3 IRadAn=         5 AccDes= 0.00D+00
 Harris functional with IExCor=  402 and IRadAn=       5 diagonalized for initial guess.
 HarFok:  IExCor=  402 AccDes= 0.00D+00 IRadAn=         5 IDoV= 1 UseB2=F ITyADJ=14
 ICtDFT=  3500011 ScaDFX=  1.000000  1.000000  1.000000  1.000000
 FoFCou: FMM=F IPFlag=           0 FMFlag=      100000 FMFlg1=           0
         NFxFlg=           0 DoJE=T BraDBF=F KetDBF=T FulRan=T
         wScrn=  0.000000 ICntrl=       500 IOpCl=  0 I1Cent=   200000004 NGrid=           0
         NMat0=    1 NMatS0=      1 NMatT0=    0 NMatD0=    1 NMtDS0=    0 NMtDT0=    0
 Petite list used in FoFCou.
 Requested convergence on RMS density matrix=1.00D-08 within 128 cycles.
 Requested convergence on MAX density matrix=1.00D-06.
 Requested convergence on             energy=1.00D-06.
 No special actions if energy rises.
 SCF Done:  E(RB3LYP) =  -602.342972355     A.U. after   14 cycles
            NFock= 14  Conv=0.11D-08     -V/T= 2.0086
 DoSCS=F DFT=T ScalE2(SS,OS)=  1.000000  1.000000
 ExpMin= 4.38D-02 ExpMax= 5.48D+03 ExpMxC= 8.25D+02 IAcc=3 IRadAn=         5 AccDes= 0.00D+00
 HarFok:  IExCor=  205 AccDes= 0.00D+00 IRadAn=         5 IDoV=-2 UseB2=F ITyADJ=14
 ICtDFT= 12500011 ScaDFX=  1.000000  1.000000  1.000000  1.000000
 Range of M.O.s used for correlation:    15   573
 NBasis=   573 NAE=    56 NBE=    56 NFC=    14 NFV=     0
 NROrb=    559 NOA=    42 NOB=    42 NVA=   517 NVB=   517

 **** Warning!!: The largest alpha MO coefficient is  0.11063336D+03

 Orbital symmetries:
       Occupied  (A) (A) (A) (A) (A) (A) (A) (A) (A) (A) (A) (A)
                 (A) (A) (A) (A) (A) (A) (A) (A) (A) (A) (A) (A)
                 (A) (A) (A) (A) (A) (A) (A) (A) (A) (A) (A) (A)
                 (A) (A) (A) (A) (A) (A) (A) (A) (A) (A) (A) (A)
                 (A) (A) (A) (A) (A) (A) (A) (A)
       Virtual   (A) (A) (A) (A) (A) (A) (A) (A) (A) (A) (A) (A)
                 (A) (A) (A) (A) (A) (A) (A) (A) (A) (A) (A) (A)
                 (A) (A) (A) (A) (A) (A) (A) (A) (A) (A) (A) (A)
                 (A) (A) (A) (A) (A) (A) (A) (A) (A) (A) (A) (A)
                 (A) (A) (A) (A) (A) (A) (A) (A) (A) (A) (A) (A)
                 (A) (A) (A) (A) (A) (A) (A) (A) (A) (A) (A) (A)
                 (A) (A) (A) (A) (A) (A) (A) (A) (A) (A) (A) (A)
                 (A) (A) (A) (A) (A) (A) (A) (A) (A) (A) (A) (A)
                 (A) (A) (A) (A) (A) (A) (A) (A) (A) (A) (A) (A)
                 (A) (A) (A) (A) (A) (A) (A) (A) (A) (A) (A) (A)
                 (A) (A) (A) (A) (A) (A) (A) (A) (A) (A) (A) (A)
                 (A) (A) (A) (A) (A) (A) (A) (A) (A) (A) (A) (A)
                 (A) (A) (A) (A) (A) (A) (A) (A) (A) (A) (A) (A)
                 (A) (A) (A) (A) (A) (A) (A) (A) (A) (A) (A) (A)
                 (A) (A) (A) (A) (A) (A) (A) (A) (A) (A) (A) (A)
                 (A) (A) (A) (A) (A) (A) (A) (A) (A) (A) (A) (A)
                 (A) (A) (A) (A) (A) (A) (A) (A) (A) (A) (A) (A)
                 (A) (A) (A) (A) (A) (A) (A) (A) (A) (A) (A) (A)
                 (A) (A) (A) (A) (A) (A) (A) (A) (A) (A) (A) (A)
                 (A) (A) (A) (A) (A) (A) (A) (A) (A) (A) (A) (A)
                 (A) (A) (A) (A) (A) (A) (A) (A) (A) (A) (A) (A)
                 (A) (A) (A) (A) (A) (A) (A) (A) (A) (A) (A) (A)
                 (A) (A) (A) (A) (A) (A) (A) (A) (A) (A) (A) (A)
                 (A) (A) (A) (A) (A) (A) (A) (A) (A) (A) (A) (A)
                 (A) (A) (A) (A) (A) (A) (A) (A) (A) (A) (A) (A)
                 (A) (A) (A) (A) (A) (A) (A) (A) (A) (A) (A) (A)
                 (A) (A) (A) (A) (A) (A) (A) (A) (A) (A) (A) (A)
                 (A) (A) (A) (A) (A) (A) (A) (A) (A) (A) (A) (A)
                 (A) (A) (A) (A) (A) (A) (A) (A) (A) (A) (A) (A)
                 (A) (A) (A) (A) (A) (A) (A) (A) (A) (A) (A) (A)
                 (A) (A) (A) (A) (A) (A) (A) (A) (A) (A) (A) (A)
                 (A) (A) (A) (A) (A) (A) (A) (A) (A) (A) (A) (A)
                 (A) (A) (A) (A) (A) (A) (A) (A) (A) (A) (A) (A)
                 (A) (A) (A) (A) (A) (A) (A) (A) (A) (A) (A) (A)
                 (A) (A) (A) (A) (A) (A) (A) (A) (A) (A) (A) (A)
                 (A) (A) (A) (A) (A) (A) (A) (A) (A) (A) (A) (A)
                 (A) (A) (A) (A) (A) (A) (A) (A) (A) (A) (A) (A)
                 (A) (A) (A) (A) (A) (A) (A) (A) (A) (A) (A) (A)
                 (A) (A) (A) (A) (A) (A) (A) (A) (A) (A) (A) (A)
                 (A) (A) (A) (A) (A) (A) (A) (A) (A) (A) (A) (A)
                 (A) (A) (A) (A) (A) (A) (A) (A) (A) (A) (A) (A)
                 (A) (A) (A) (A) (A) (A) (A) (A) (A) (A) (A) (A)
                 (A) (A) (A) (A) (A) (A) (A) (A) (A) (A) (A) (A)
                 (A)
    40 initial guesses have been made.
 Convergence on wavefunction:    0.000001000000000
 Iteration     1 Dimension    40 NMult     0 NNew     40
 CISAX will form     3 AO SS matrices at one time.
 New state      5 was old state      6
 New state      6 was old state      5
 Iteration     2 Dimension    60 NMult    40 NNew     20
 Iteration     3 Dimension    80 NMult    60 NNew     20
 Iteration     4 Dimension   100 NMult    80 NNew     20
 Iteration     5 Dimension   120 NMult   100 NNew     20
 Iteration     6 Dimension   140 NMult   120 NNew     20
 Iteration     7 Dimension   160 NMult   140 NNew     20
 Iteration     8 Dimension   180 NMult   160 NNew     20
 Iteration     9 Dimension   200 NMult   180 NNew     20
 Iteration    10 Dimension   218 NMult   200 NNew     18
 Iteration    11 Dimension   230 NMult   218 NNew     12
 ***********************************************************************
 Excited states from <AA,BB:AA,BB> singles matrix:
 ***********************************************************************
 
 Ground to excited state transition densities written to RWF  633
 Ground to excited state transition electric dipole moments (Au):
       state          X           Y           Z        Dip. S.      Osc.
         1        -0.0269     -0.1380      0.1031      0.0304      0.0040
         2        -0.1218      0.0038     -0.1264      0.0308      0.0042
         3        -0.0319      0.1164     -0.4262      0.1962      0.0273
         4         0.1548      0.0782     -0.3054      0.1233      0.0177
         5         0.0644     -0.0902     -0.1117      0.0248      0.0036
         6         0.0655      0.0692      0.0650      0.0133      0.0020
         7        -0.1490      0.0309     -0.1165      0.0367      0.0057
         8        -0.1960      0.1174     -0.0846      0.0594      0.0093
         9         0.0211      0.1845     -0.0253      0.0351      0.0055
        10         0.0094     -0.0933     -0.1058      0.0200      0.0032
 Ground to excited state transition velocity dipole moments (Au):
       state          X           Y           Z        Dip. S.      Osc.
         1         0.0060      0.0287     -0.0164      0.0011      0.0038
         2         0.0270     -0.0010      0.0255      0.0014      0.0045
         3         0.0078     -0.0238      0.0900      0.0087      0.0279
         4        -0.0326     -0.0178      0.0662      0.0058      0.0178
         5        -0.0131      0.0213      0.0286      0.0014      0.0044
         6        -0.0133     -0.0153     -0.0164      0.0007      0.0020
         7         0.0349     -0.0068      0.0278      0.0020      0.0059
         8         0.0448     -0.0261      0.0185      0.0030      0.0086
         9        -0.0077     -0.0457      0.0036      0.0022      0.0061
        10        -0.0043      0.0209      0.0263      0.0011      0.0032
 Ground to excited state transition magnetic dipole moments (Au):
       state          X           Y           Z
         1        -0.3741      0.0624      0.0591
         2         0.1892      0.0671      0.1010
         3        -0.0051      0.2262      0.0071
         4        -0.1731      0.0379      0.1065
         5        -0.1596     -0.3945      0.0793
         6         0.0341      0.0029     -0.0734
         7         0.0249     -0.1001      0.0396
         8        -0.2321     -0.0198      0.0490
         9        -0.0277     -0.1135     -0.1902
        10        -0.2777     -0.1340     -0.0135
 Ground to excited state transition velocity quadrupole moments (Au):
       state          XX          YY          ZZ          XY          XZ          YZ
         1        -0.0517     -0.0953      0.3042      0.0452      0.0123     -0.0705
         2         0.0253      0.1188     -0.1117      0.0714     -0.0049      0.0719
         3         0.0557     -0.0286     -0.2055      0.0770     -0.1174      0.0507
         4         0.0842     -0.0089     -0.0068      0.0605      0.0315     -0.0300
         5        -0.1955     -0.1125      0.0479      0.1326      0.3106     -0.0796
         6         0.1789     -0.0446     -0.0395      0.0207      0.0144      0.0557
         7        -0.0223      0.1860     -0.0769      0.0486     -0.1978     -0.0248
         8        -0.1974     -0.1215      0.1995     -0.0059     -0.2189      0.0567
         9        -0.1379      0.2630      0.0791     -0.1481      0.1879      0.1456
        10         0.1219     -0.1266     -0.1112      0.0190      0.2427      0.0286
 <0|del|b> * <b|rxdel|0> + <0|del|b> * <b|delr+rdel|0>
 Rotatory Strengths (R) in cgs (10**-40 erg-esu-cm/Gauss)
       state          XX          YY          ZZ    R(velocity)    E-M Angle
         1        -0.4926     -5.1654      0.5959     -1.6874       96.29
         2         7.4644     13.4831      5.3666      8.7714       24.11
         3        -1.0607    -10.0599     -5.1376     -5.4194      103.11
         4        17.9672     15.8656      5.6302     13.1543       40.01
         5       -14.4328      2.5873     -1.1913     -4.3456      104.21
         6         1.6157      0.5440      0.0337      0.7312       70.50
         7         2.7199     -0.3759      5.7262      2.6901       57.87
         8        -6.6424    -10.3337    -10.1346     -9.0369      133.25
         9        18.9117     -1.5947     -3.1104      4.7356       62.98
        10       -11.3857      0.3148      5.2791     -1.9306      100.85
 1/2[<0|r|b>*<b|rxdel|0> + (<0|rxdel|b>*<b|r|0>)*]
 Rotatory Strengths (R) in cgs (10**-40 erg-esu-cm/Gauss)
       state          XX          YY          ZZ     R(length)
         1        -7.1141      6.0924     -4.3041     -1.7753
         2        16.3005     -0.1811      9.0244      8.3813
         3        -0.1155    -18.6221      2.1262     -5.5371
         4        18.9461     -2.0951     23.0042     13.2850
         5         7.2680    -25.1624      6.2637     -3.8769
         6        -1.5792     -0.1433      3.3771      0.5516
         7         2.6219      2.1831      3.2618      2.6889
         8       -32.1620      1.6407      2.9333     -9.1960
         9         0.4141     14.8065     -3.4028      3.9392
        10         1.8469     -8.8377     -1.0117     -2.6675
  1/2[<0|del|b>*<b|r|0> + (<0|r|b>*<b|del|0>)*] (Au)
       state          X           Y           Z        Dip. S.   Osc.(frdel)
         1        -0.0002     -0.0040     -0.0017      0.0058      0.0039
         2        -0.0033     -0.0000     -0.0032      0.0065      0.0043
         3        -0.0003     -0.0028     -0.0384      0.0414      0.0276
         4        -0.0050     -0.0014     -0.0202      0.0267      0.0178
         5        -0.0008     -0.0019     -0.0032      0.0060      0.0040
         6        -0.0009     -0.0011     -0.0011      0.0030      0.0020
         7        -0.0052     -0.0002     -0.0032      0.0087      0.0058
         8        -0.0088     -0.0031     -0.0016      0.0134      0.0089
         9        -0.0002     -0.0084     -0.0001      0.0087      0.0058
        10        -0.0000     -0.0020     -0.0028      0.0048      0.0032

 Excitation energies and oscillator strengths:
 
 Excited State   1:      Singlet-A      5.3705 eV  230.86 nm  f=0.0040  <S**2>=0.000
      56 -> 57         0.57711
      56 -> 58        -0.35057
      56 -> 59         0.17138
 This state for optimization and/or second-order correction.
 Total Energy, E(TD-HF/TD-DFT) =  -602.145609060    
 Copying the excited state density for this state as the 1-particle RhoCI density.
 
 Excited State   2:      Singlet-A      5.5762 eV  222.35 nm  f=0.0042  <S**2>=0.000
      56 -> 57         0.39815
      56 -> 58         0.50689
      56 -> 59        -0.27133
 
 Excited State   3:      Singlet-A      5.6799 eV  218.29 nm  f=0.0273  <S**2>=0.000
      56 -> 58         0.32659
      56 -> 59         0.60708
 
 Excited State   4:      Singlet-A      5.8648 eV  211.41 nm  f=0.0177  <S**2>=0.000
      56 -> 60         0.66253
      56 -> 61        -0.14209
      56 -> 63         0.10180
 
 Excited State   5:      Singlet-A      5.9525 eV  208.29 nm  f=0.0036  <S**2>=0.000
      55 -> 57         0.67848
      55 -> 58         0.12271
 
 Excited State   6:      Singlet-A      6.1745 eV  200.80 nm  f=0.0020  <S**2>=0.000
      56 -> 60         0.15386
      56 -> 61         0.67557
 
 Excited State   7:      Singlet-A      6.3289 eV  195.90 nm  f=0.0057  <S**2>=0.000
      56 -> 62         0.67992
      56 -> 63         0.12934
 
 Excited State   8:      Singlet-A      6.3633 eV  194.84 nm  f=0.0093  <S**2>=0.000
      56 -> 62        -0.10182
      56 -> 63         0.67241
 
 Excited State   9:      Singlet-A      6.3887 eV  194.07 nm  f=0.0055  <S**2>=0.000
      55 -> 57        -0.11267
      55 -> 58         0.66763
      55 -> 60         0.12614
 
 Excited State  10:      Singlet-A      6.5439 eV  189.47 nm  f=0.0032  <S**2>=0.000
      55 -> 59         0.61421
      55 -> 60         0.25994
      55 -> 61        -0.14062
      55 -> 63        -0.10849
 SavETr:  write IOETrn=   770 NScale= 10 NData=  16 NLR=1 NState=   10 LETran=     190.
          IDoAtm=111111111111111111111111111111111111111
          Differentiating once with respect to electric field.
                with respect to dipole field.
          Differentiating once with respect to nuclear coordinates.
          There are     1 degrees of freedom in the 1st order CPHF.  IDoFFX=0 NUNeed=     1.
 LinEq1:  Iter=  0 NonCon=     1 RMS=8.95D-03 Max=2.46D-01 NDo=     1
 AX will form     1 AO Fock derivatives at one time.
 LinEq1:  Iter=  1 NonCon=     1 RMS=2.62D-03 Max=1.40D-01 NDo=     1
 LinEq1:  Iter=  2 NonCon=     1 RMS=1.11D-03 Max=5.47D-02 NDo=     1
 LinEq1:  Iter=  3 NonCon=     1 RMS=5.45D-04 Max=3.02D-02 NDo=     1
 LinEq1:  Iter=  4 NonCon=     1 RMS=2.70D-04 Max=7.56D-03 NDo=     1
 LinEq1:  Iter=  5 NonCon=     1 RMS=1.41D-04 Max=4.22D-03 NDo=     1
 LinEq1:  Iter=  6 NonCon=     1 RMS=5.63D-05 Max=1.53D-03 NDo=     1
 LinEq1:  Iter=  7 NonCon=     1 RMS=2.89D-05 Max=8.04D-04 NDo=     1
 LinEq1:  Iter=  8 NonCon=     1 RMS=1.18D-05 Max=2.80D-04 NDo=     1
 LinEq1:  Iter=  9 NonCon=     1 RMS=5.19D-06 Max=1.04D-04 NDo=     1
 LinEq1:  Iter= 10 NonCon=     1 RMS=2.50D-06 Max=4.55D-05 NDo=     1
 LinEq1:  Iter= 11 NonCon=     1 RMS=8.80D-07 Max=1.54D-05 NDo=     1
 LinEq1:  Iter= 12 NonCon=     1 RMS=4.41D-07 Max=9.38D-06 NDo=     1
 LinEq1:  Iter= 13 NonCon=     1 RMS=1.73D-07 Max=3.71D-06 NDo=     1
 LinEq1:  Iter= 14 NonCon=     1 RMS=6.45D-08 Max=1.56D-06 NDo=     1
 LinEq1:  Iter= 15 NonCon=     1 RMS=2.69D-08 Max=4.70D-07 NDo=     1
 LinEq1:  Iter= 16 NonCon=     1 RMS=1.20D-08 Max=2.28D-07 NDo=     1
 LinEq1:  Iter= 17 NonCon=     1 RMS=3.90D-09 Max=6.99D-08 NDo=     1
 LinEq1:  Iter= 18 NonCon=     1 RMS=1.75D-09 Max=2.81D-08 NDo=     1
 LinEq1:  Iter= 19 NonCon=     1 RMS=6.90D-10 Max=1.62D-08 NDo=     1
 LinEq1:  Iter= 20 NonCon=     1 RMS=2.19D-10 Max=3.63D-09 NDo=     1
 LinEq1:  Iter= 21 NonCon=     1 RMS=9.22D-11 Max=1.14D-09 NDo=     1
 LinEq1:  Iter= 22 NonCon=     0 RMS=4.04D-11 Max=8.34D-10 NDo=     1
 Linear equations converged to 1.000D-10 1.000D-09 after    22 iterations.
 End of Minotr F.D. properties file   721 does not exist.
 End of Minotr F.D. properties file   722 does not exist.
 End of Minotr F.D. properties file   788 does not exist.

 **********************************************************************

            Population analysis using the SCF density.

 **********************************************************************

 Orbital symmetries:
       Occupied  (A) (A) (A) (A) (A) (A) (A) (A) (A) (A) (A) (A)
                 (A) (A) (A) (A) (A) (A) (A) (A) (A) (A) (A) (A)
                 (A) (A) (A) (A) (A) (A) (A) (A) (A) (A) (A) (A)
                 (A) (A) (A) (A) (A) (A) (A) (A) (A) (A) (A) (A)
                 (A) (A) (A) (A) (A) (A) (A) (A)
       Virtual   (A) (A) (A) (A) (A) (A) (A) (A) (A) (A) (A) (A)
                 (A) (A) (A) (A) (A) (A) (A) (A) (A) (A) (A) (A)
                 (A) (A) (A) (A) (A) (A) (A) (A) (A) (A) (A) (A)
                 (A) (A) (A) (A) (A) (A) (A) (A) (A) (A) (A) (A)
                 (A) (A) (A) (A) (A) (A) (A) (A) (A) (A) (A) (A)
                 (A) (A) (A) (A) (A) (A) (A) (A) (A) (A) (A) (A)
                 (A) (A) (A) (A) (A) (A) (A) (A) (A) (A) (A) (A)
                 (A) (A) (A) (A) (A) (A) (A) (A) (A) (A) (A) (A)
                 (A) (A) (A) (A) (A) (A) (A) (A) (A) (A) (A) (A)
                 (A) (A) (A) (A) (A) (A) (A) (A) (A) (A) (A) (A)
                 (A) (A) (A) (A) (A) (A) (A) (A) (A) (A) (A) (A)
                 (A) (A) (A) (A) (A) (A) (A) (A) (A) (A) (A) (A)
                 (A) (A) (A) (A) (A) (A) (A) (A) (A) (A) (A) (A)
                 (A) (A) (A) (A) (A) (A) (A) (A) (A) (A) (A) (A)
                 (A) (A) (A) (A) (A) (A) (A) (A) (A) (A) (A) (A)
                 (A) (A) (A) (A) (A) (A) (A) (A) (A) (A) (A) (A)
                 (A) (A) (A) (A) (A) (A) (A) (A) (A) (A) (A) (A)
                 (A) (A) (A) (A) (A) (A) (A) (A) (A) (A) (A) (A)
                 (A) (A) (A) (A) (A) (A) (A) (A) (A) (A) (A) (A)
                 (A) (A) (A) (A) (A) (A) (A) (A) (A) (A) (A) (A)
                 (A) (A) (A) (A) (A) (A) (A) (A) (A) (A) (A) (A)
                 (A) (A) (A) (A) (A) (A) (A) (A) (A) (A) (A) (A)
                 (A) (A) (A) (A) (A) (A) (A) (A) (A) (A) (A) (A)
                 (A) (A) (A) (A) (A) (A) (A) (A) (A) (A) (A) (A)
                 (A) (A) (A) (A) (A) (A) (A) (A) (A) (A) (A) (A)
                 (A) (A) (A) (A) (A) (A) (A) (A) (A) (A) (A) (A)
                 (A) (A) (A) (A) (A) (A) (A) (A) (A) (A) (A) (A)
                 (A) (A) (A) (A) (A) (A) (A) (A) (A) (A) (A) (A)
                 (A) (A) (A) (A) (A) (A) (A) (A) (A) (A) (A) (A)
                 (A) (A) (A) (A) (A) (A) (A) (A) (A) (A) (A) (A)
                 (A) (A) (A) (A) (A) (A) (A) (A) (A) (A) (A) (A)
                 (A) (A) (A) (A) (A) (A) (A) (A) (A) (A) (A) (A)
                 (A) (A) (A) (A) (A) (A) (A) (A) (A) (A) (A) (A)
                 (A) (A) (A) (A) (A) (A) (A) (A) (A) (A) (A) (A)
                 (A) (A) (A) (A) (A) (A) (A) (A) (A) (A) (A) (A)
                 (A) (A) (A) (A) (A) (A) (A) (A) (A) (A) (A) (A)
                 (A) (A) (A) (A) (A) (A) (A) (A) (A) (A) (A) (A)
                 (A) (A) (A) (A) (A) (A) (A) (A) (A) (A) (A) (A)
                 (A) (A) (A) (A) (A) (A) (A) (A) (A) (A) (A) (A)
                 (A) (A) (A) (A) (A) (A) (A) (A) (A) (A) (A) (A)
                 (A) (A) (A) (A) (A) (A) (A) (A) (A) (A) (A) (A)
                 (A) (A) (A) (A) (A) (A) (A) (A) (A) (A) (A) (A)
                 (A) (A) (A) (A) (A) (A) (A) (A) (A) (A) (A) (A)
                 (A)
 The electronic state is 1-A.
 Alpha  occ. eigenvalues --  -19.15768 -14.31607 -10.23751 -10.21472 -10.20560
 Alpha  occ. eigenvalues --  -10.19777 -10.18512 -10.18478 -10.18421 -10.18227
 Alpha  occ. eigenvalues --  -10.17995 -10.17792 -10.17750 -10.17252  -1.03865
 Alpha  occ. eigenvalues --   -0.91272  -0.85572  -0.79795  -0.78619  -0.73589
 Alpha  occ. eigenvalues --   -0.70848  -0.69753  -0.64492  -0.61149  -0.59916
 Alpha  occ. eigenvalues --   -0.58588  -0.58564  -0.55184  -0.52152  -0.49583
 Alpha  occ. eigenvalues --   -0.48547  -0.47188  -0.45382  -0.44333  -0.43310
 Alpha  occ. eigenvalues --   -0.42477  -0.42294  -0.41224  -0.40985  -0.39148
 Alpha  occ. eigenvalues --   -0.38715  -0.38196  -0.37950  -0.37174  -0.36525
 Alpha  occ. eigenvalues --   -0.35335  -0.34273  -0.33861  -0.33566  -0.32962
 Alpha  occ. eigenvalues --   -0.32668  -0.31929  -0.31760  -0.27921  -0.25683
 Alpha  occ. eigenvalues --   -0.22746
 Alpha virt. eigenvalues --   -0.00449   0.00498   0.00739   0.01371   0.01951
 Alpha virt. eigenvalues --    0.02658   0.03230   0.03821   0.03925   0.04114
 Alpha virt. eigenvalues --    0.05134   0.05443   0.05579   0.06085   0.06331
 Alpha virt. eigenvalues --    0.06852   0.07184   0.07892   0.08468   0.09039
 Alpha virt. eigenvalues --    0.09243   0.09358   0.09885   0.10079   0.10545
 Alpha virt. eigenvalues --    0.11093   0.11769   0.12135   0.12332   0.13082
 Alpha virt. eigenvalues --    0.13433   0.13584   0.14485   0.14603   0.15242
 Alpha virt. eigenvalues --    0.15768   0.16131   0.16649   0.16999   0.17565
 Alpha virt. eigenvalues --    0.17675   0.18049   0.18868   0.19396   0.19480
 Alpha virt. eigenvalues --    0.19811   0.20033   0.20768   0.20838   0.21447
 Alpha virt. eigenvalues --    0.21752   0.21948   0.22433   0.23292   0.23519
 Alpha virt. eigenvalues --    0.23734   0.24703   0.25023   0.25458   0.25742
 Alpha virt. eigenvalues --    0.25998   0.26767   0.27034   0.27200   0.27997
 Alpha virt. eigenvalues --    0.28418   0.28636   0.29053   0.29337   0.30008
 Alpha virt. eigenvalues --    0.30426   0.30834   0.30980   0.31933   0.32554
 Alpha virt. eigenvalues --    0.32828   0.33536   0.33905   0.34604   0.34871
 Alpha virt. eigenvalues --    0.35658   0.36039   0.36429   0.37247   0.37662
 Alpha virt. eigenvalues --    0.38648   0.39053   0.39269   0.40893   0.41444
 Alpha virt. eigenvalues --    0.42312   0.42390   0.43141   0.45358   0.47367
 Alpha virt. eigenvalues --    0.53875   0.54801   0.57456   0.59336   0.59553
 Alpha virt. eigenvalues --    0.59833   0.61328   0.61847   0.62680   0.63458
 Alpha virt. eigenvalues --    0.64501   0.64880   0.65317   0.65588   0.66063
 Alpha virt. eigenvalues --    0.67192   0.67809   0.68168   0.68725   0.69584
 Alpha virt. eigenvalues --    0.70245   0.70667   0.71270   0.72188   0.72811
 Alpha virt. eigenvalues --    0.73299   0.74553   0.74845   0.75412   0.75920
 Alpha virt. eigenvalues --    0.76976   0.77820   0.78179   0.78426   0.80157
 Alpha virt. eigenvalues --    0.81074   0.81285   0.82208   0.82335   0.83549
 Alpha virt. eigenvalues --    0.83773   0.84134   0.84542   0.85506   0.85821
 Alpha virt. eigenvalues --    0.86638   0.86933   0.87865   0.87924   0.90923
 Alpha virt. eigenvalues --    0.91277   0.91397   0.92226   0.93821   0.94661
 Alpha virt. eigenvalues --    0.95439   0.97329   0.97654   0.98433   1.00402
 Alpha virt. eigenvalues --    1.00833   1.02165   1.02929   1.04031   1.04409
 Alpha virt. eigenvalues --    1.04650   1.05902   1.06778   1.08027   1.09022
 Alpha virt. eigenvalues --    1.09975   1.11021   1.13941   1.15459   1.15971
 Alpha virt. eigenvalues --    1.17674   1.18247   1.19293   1.20925   1.21528
 Alpha virt. eigenvalues --    1.22130   1.22864   1.23444   1.24165   1.24895
 Alpha virt. eigenvalues --    1.26698   1.28101   1.28933   1.30295   1.32132
 Alpha virt. eigenvalues --    1.33536   1.33837   1.36216   1.36935   1.39047
 Alpha virt. eigenvalues --    1.39662   1.41062   1.43156   1.43820   1.46153
 Alpha virt. eigenvalues --    1.46465   1.48334   1.49423   1.50378   1.50973
 Alpha virt. eigenvalues --    1.54569   1.54607   1.55983   1.57085   1.57611
 Alpha virt. eigenvalues --    1.57944   1.58700   1.61595   1.62383   1.62871
 Alpha virt. eigenvalues --    1.63799   1.64867   1.66179   1.66848   1.69098
 Alpha virt. eigenvalues --    1.70178   1.71471   1.73708   1.74568   1.77436
 Alpha virt. eigenvalues --    1.77658   1.79739   1.81077   1.81354   1.82601
 Alpha virt. eigenvalues --    1.83138   1.85907   1.86039   1.87731   1.88713
 Alpha virt. eigenvalues --    1.89480   1.91094   1.92752   1.93147   1.95101
 Alpha virt. eigenvalues --    1.95158   1.96706   1.97737   1.98809   2.00168
 Alpha virt. eigenvalues --    2.02569   2.03629   2.04939   2.08507   2.10835
 Alpha virt. eigenvalues --    2.11833   2.13709   2.15464   2.17038   2.18767
 Alpha virt. eigenvalues --    2.19398   2.20344   2.21282   2.24998   2.25174
 Alpha virt. eigenvalues --    2.28094   2.31242   2.31288   2.32749   2.35353
 Alpha virt. eigenvalues --    2.35990   2.37161   2.37467   2.38333   2.39860
 Alpha virt. eigenvalues --    2.42197   2.42872   2.44597   2.46851   2.48437
 Alpha virt. eigenvalues --    2.49505   2.50779   2.53127   2.56085   2.58112
 Alpha virt. eigenvalues --    2.59467   2.60574   2.63593   2.64515   2.68051
 Alpha virt. eigenvalues --    2.71014   2.72661   2.75234   2.76296   2.77313
 Alpha virt. eigenvalues --    2.78307   2.78403   2.79222   2.79743   2.80330
 Alpha virt. eigenvalues --    2.81791   2.83643   2.84921   2.86360   2.86601
 Alpha virt. eigenvalues --    2.87959   2.88052   2.89175   2.89405   2.91264
 Alpha virt. eigenvalues --    2.92515   2.92777   2.93731   2.94186   2.95666
 Alpha virt. eigenvalues --    2.96664   2.96918   2.97544   2.97878   2.99330
 Alpha virt. eigenvalues --    3.00565   3.00917   3.01602   3.02860   3.03747
 Alpha virt. eigenvalues --    3.04450   3.05468   3.05766   3.06665   3.08237
 Alpha virt. eigenvalues --    3.09483   3.11237   3.12133   3.14343   3.15997
 Alpha virt. eigenvalues --    3.16909   3.18396   3.19584   3.20540   3.20786
 Alpha virt. eigenvalues --    3.22781   3.24872   3.26603   3.26964   3.28719
 Alpha virt. eigenvalues --    3.30738   3.31623   3.34128   3.35880   3.36503
 Alpha virt. eigenvalues --    3.37246   3.38880   3.39147   3.40302   3.42959
 Alpha virt. eigenvalues --    3.43329   3.45019   3.45887   3.49285   3.50704
 Alpha virt. eigenvalues --    3.52140   3.53974   3.54876   3.56171   3.56835
 Alpha virt. eigenvalues --    3.57056   3.59312   3.59994   3.60279   3.61092
 Alpha virt. eigenvalues --    3.63933   3.64873   3.65074   3.68249   3.69330
 Alpha virt. eigenvalues --    3.70347   3.71167   3.72136   3.72574   3.74900
 Alpha virt. eigenvalues --    3.75920   3.77285   3.79642   3.80661   3.81057
 Alpha virt. eigenvalues --    3.82175   3.84338   3.85248   3.86946   3.87935
 Alpha virt. eigenvalues --    3.89641   3.91321   3.94629   3.95664   3.97650
 Alpha virt. eigenvalues --    3.99171   4.03681   4.06570   4.08261   4.09790
 Alpha virt. eigenvalues --    4.12152   4.13773   4.15685   4.20733   4.24184
 Alpha virt. eigenvalues --    4.27875   4.29496   4.33519   4.35294   4.37380
 Alpha virt. eigenvalues --    4.38403   4.40863   4.41923   4.42402   4.43560
 Alpha virt. eigenvalues --    4.44635   4.45323   4.46034   4.47710   4.47966
 Alpha virt. eigenvalues --    4.48517   4.49200   4.50623   4.51894   4.52938
 Alpha virt. eigenvalues --    4.54137   4.55975   4.56161   4.57774   4.58633
 Alpha virt. eigenvalues --    4.59535   4.60280   4.61164   4.62332   4.63060
 Alpha virt. eigenvalues --    4.63562   4.65105   4.66099   4.66519   4.67236
 Alpha virt. eigenvalues --    4.68567   4.69456   4.70446   4.71122   4.72471
 Alpha virt. eigenvalues --    4.73139   4.74059   4.74832   4.75199   4.75902
 Alpha virt. eigenvalues --    4.76187   4.77455   4.77494   4.78786   4.79039
 Alpha virt. eigenvalues --    4.80872   4.81962   4.82637   4.83506   4.84633
 Alpha virt. eigenvalues --    4.84966   4.87003   4.87751   4.87991   4.89113
 Alpha virt. eigenvalues --    4.91167   4.92269   4.93869   4.94598   4.95720
 Alpha virt. eigenvalues --    4.96660   4.98099   4.99428   5.00525   5.02446
 Alpha virt. eigenvalues --    5.05469   5.07037   5.08310   5.10640   5.16959
 Alpha virt. eigenvalues --    5.19869   5.22898   5.25148   5.27037   5.29627
 Alpha virt. eigenvalues --    5.31571   5.33255   5.38195   5.39961   5.41925
 Alpha virt. eigenvalues --    5.43429   5.45087   5.47724   5.47839   5.50026
 Alpha virt. eigenvalues --    5.52516   5.56818   5.61612   5.64035   5.66898
 Alpha virt. eigenvalues --    5.71799   5.73857   5.81692   5.89363   5.92288
 Alpha virt. eigenvalues --    5.97549   6.03886   6.14232   6.24007   6.58543
 Alpha virt. eigenvalues --    6.80197   7.24038  11.33532  11.37231  11.53400
 Alpha virt. eigenvalues --   11.91423  11.94683  12.01904  12.07421  12.27193
 Alpha virt. eigenvalues --   12.35085  12.47357  12.49271  12.81410  13.03102
 Alpha virt. eigenvalues --   13.53337  27.01641
          Condensed to atoms (all electrons):
               1          2          3          4          5          6
     1  C    5.608398  -0.270037   0.280827  -0.227482  -0.005267  -0.020032
     2  C   -0.270037   5.926697  -0.006123   0.115795   0.001515  -0.019127
     3  C    0.280827  -0.006123   6.310423  -0.737181  -0.088256  -0.263463
     4  C   -0.227482   0.115795  -0.737181   6.985898   0.270879   0.692258
     5  N   -0.005267   0.001515  -0.088256   0.270879   6.824046  -0.848602
     6  C   -0.020032  -0.019127  -0.263463   0.692258  -0.848602  16.915518
     7  C    0.004761  -0.026629   0.088676  -0.457232   0.506646  -5.023853
     8  C   -0.006935  -0.012077  -0.083539  -0.048455  -0.068176   0.957581
     9  C   -0.001028  -0.003154  -0.017388  -0.014142   0.008252  -0.301708
    10  C    0.006651  -0.033623  -0.084487  -0.532266   0.361848  -5.735725
    11  C    0.002413  -0.006560   0.024486  -0.155711   0.432856  -4.018234
    12  C    0.001121   0.011079   0.026354   0.134869  -0.248380   2.332394
    13  C   -0.000569  -0.006423   0.001831  -0.146229  -0.129512   1.017466
    14  O    0.000000   0.000015   0.000313   0.002592  -0.000268   0.074357
    15  H    0.432299  -0.070735   0.000973   0.000308  -0.000172   0.000135
    16  H    0.470699  -0.128234   0.018734  -0.004424  -0.000202  -0.000157
    17  H    0.469201  -0.131087   0.028382  -0.010021  -0.000138   0.000151
    18  H    0.024764   0.359096  -0.045640  -0.020574  -0.001582   0.000655
    19  H    0.016906   0.355835  -0.042696  -0.016366  -0.000559  -0.001416
    20  H    0.018054  -0.008054   0.432449  -0.096601  -0.011755  -0.021768
    21  H    0.011080  -0.030386   0.499272  -0.132326  -0.004802  -0.023302
    22  H    0.006722   0.015520   0.085954   0.305035  -0.057521  -0.025641
    23  H    0.001611   0.010814  -0.032531   0.448628  -0.067199  -0.101294
    24  H    0.001154   0.006177   0.041943  -0.077926   0.298823   0.085844
    25  H   -0.000319  -0.001757  -0.008224   0.003873  -0.054131   0.181082
    26  H   -0.000019  -0.000214  -0.004165  -0.003653  -0.009832   0.113781
    27  H   -0.000011   0.000143   0.007855  -0.017398   0.003525  -0.164576
    28  H   -0.000140  -0.000474  -0.010283  -0.018549  -0.008005   0.046360
    29  H   -0.000012   0.000035   0.000307   0.014413  -0.000596   0.003972
    30  H   -0.000011   0.000008  -0.001065   0.001444  -0.000908   0.006321
    31  H    0.000002   0.000124  -0.000355   0.000090   0.000210  -0.011320
    32  H   -0.000000  -0.000051   0.000096  -0.002539  -0.000295  -0.008018
    33  H    0.000012   0.000011   0.002457   0.011357  -0.019777   0.109584
    34  H   -0.000007  -0.000099  -0.000070  -0.006685   0.002325  -0.032588
    35  H    0.000000   0.000022  -0.000283  -0.000951   0.005946  -0.100127
    36  H    0.000034   0.000411   0.001443   0.015518  -0.008603   0.058740
    37  H    0.000001   0.000090  -0.000077   0.007824  -0.002304   0.109897
    38  H   -0.000001  -0.000027  -0.000091   0.001993   0.003039   0.004841
    39  H   -0.000000  -0.000003  -0.000001  -0.001413   0.000225  -0.063072
               7          8          9         10         11         12
     1  C    0.004761  -0.006935  -0.001028   0.006651   0.002413   0.001121
     2  C   -0.026629  -0.012077  -0.003154  -0.033623  -0.006560   0.011079
     3  C    0.088676  -0.083539  -0.017388  -0.084487   0.024486   0.026354
     4  C   -0.457232  -0.048455  -0.014142  -0.532266  -0.155711   0.134869
     5  N    0.506646  -0.068176   0.008252   0.361848   0.432856  -0.248380
     6  C   -5.023853   0.957581  -0.301708  -5.735725  -4.018234   2.332394
     7  C   10.219565  -1.442611   0.485046   1.612646   1.489545  -1.138245
     8  C   -1.442611   6.906329  -0.477808  -0.081732  -0.288335   0.116352
     9  C    0.485046  -0.477808   5.706422   0.002415   0.061636  -0.033795
    10  C    1.612646  -0.081732   0.002415  12.489549   1.576558  -2.775717
    11  C    1.489545  -0.288335   0.061636   1.576558   8.555681  -1.233933
    12  C   -1.138245   0.116352  -0.033795  -2.775717  -1.233933   7.696497
    13  C   -0.385138   0.140786  -0.035430  -1.118749  -0.865226   0.904044
    14  O    0.006688  -0.001071  -0.000083  -0.024010   0.015420  -0.113897
    15  H    0.000052  -0.000023  -0.000000   0.000028   0.000004  -0.000003
    16  H    0.000129  -0.000020   0.000001   0.000078   0.000018   0.000004
    17  H   -0.000110  -0.000008  -0.000002   0.000024   0.000001   0.000006
    18  H   -0.002825   0.000115  -0.000323   0.000206   0.000011   0.000093
    19  H    0.001742  -0.000878  -0.000026   0.001010   0.000079   0.000024
    20  H   -0.002409  -0.001348  -0.000068  -0.004208   0.000676   0.002405
    21  H    0.006640  -0.003757   0.000003  -0.003912   0.001828  -0.000064
    22  H    0.021800  -0.030483  -0.002526  -0.004844  -0.000521   0.002416
    23  H    0.030246  -0.027058  -0.001923   0.036487   0.007925  -0.008862
    24  H   -0.006546  -0.001779  -0.000177  -0.103550  -0.052616   0.033870
    25  H   -0.066949   0.051354   0.002267   0.185401   0.006972  -0.052061
    26  H    0.207318   0.045856  -0.000305   0.023410  -0.056757   0.000918
    27  H    0.390677   0.008473   0.010808   0.073668  -0.011348   0.004809
    28  H   -0.132876   0.403078   0.020509   0.012176  -0.003519   0.000362
    29  H   -0.073806   0.357784   0.031905  -0.025400  -0.003670   0.007845
    30  H    0.026363  -0.143751   0.470080  -0.001628  -0.000387   0.000394
    31  H    0.011405  -0.075978   0.435950   0.003903   0.001080  -0.000329
    32  H    0.038430  -0.142628   0.471503  -0.001415   0.000238  -0.000142
    33  H   -0.032466  -0.001529  -0.000043  -0.106361   0.365705   0.025850
    34  H    0.027618  -0.002218   0.001324  -0.097303   0.438378   0.020253
    35  H    0.027388  -0.000648   0.000154   0.027771   0.566020  -0.101033
    36  H   -0.027337   0.001774  -0.000123  -0.109703  -0.011748   0.476279
    37  H   -0.011836  -0.000689  -0.000005  -0.090448  -0.069664   0.453569
    38  H    0.057080  -0.000919   0.001958   0.012041  -0.019948  -0.155359
    39  H   -0.004673   0.001941  -0.000540  -0.025899   0.019104   0.029257
              13         14         15         16         17         18
     1  C   -0.000569   0.000000   0.432299   0.470699   0.469201   0.024764
     2  C   -0.006423   0.000015  -0.070735  -0.128234  -0.131087   0.359096
     3  C    0.001831   0.000313   0.000973   0.018734   0.028382  -0.045640
     4  C   -0.146229   0.002592   0.000308  -0.004424  -0.010021  -0.020574
     5  N   -0.129512  -0.000268  -0.000172  -0.000202  -0.000138  -0.001582
     6  C    1.017466   0.074357   0.000135  -0.000157   0.000151   0.000655
     7  C   -0.385138   0.006688   0.000052   0.000129  -0.000110  -0.002825
     8  C    0.140786  -0.001071  -0.000023  -0.000020  -0.000008   0.000115
     9  C   -0.035430  -0.000083  -0.000000   0.000001  -0.000002  -0.000323
    10  C   -1.118749  -0.024010   0.000028   0.000078   0.000024   0.000206
    11  C   -0.865226   0.015420   0.000004   0.000018   0.000001   0.000011
    12  C    0.904044  -0.113897  -0.000003   0.000004   0.000006   0.000093
    13  C    6.319650   0.196711   0.000000   0.000000  -0.000001  -0.000037
    14  O    0.196711   8.031484  -0.000000  -0.000000   0.000000   0.000000
    15  H    0.000000  -0.000000   0.536033  -0.028324  -0.028381  -0.002652
    16  H    0.000000  -0.000000  -0.028324   0.534901  -0.030497  -0.004122
    17  H   -0.000001   0.000000  -0.028381  -0.030497   0.536885   0.004552
    18  H   -0.000037   0.000000  -0.002652  -0.004122   0.004552   0.576896
    19  H   -0.000086  -0.000000  -0.002671   0.004569  -0.004152  -0.035603
    20  H   -0.000926   0.000000  -0.000009  -0.000403   0.002252   0.005123
    21  H   -0.000626   0.000000  -0.000008   0.002229  -0.000385  -0.004902
    22  H    0.000190   0.000000   0.000002   0.000006  -0.000003   0.002665
    23  H   -0.009147   0.000004   0.000005  -0.000004   0.000004  -0.000494
[...]
    22  H    4.220151   2.788880   2.178828   1.096811   2.083535
    23  H    4.229857   2.808558   2.185190   1.098489   2.058297
    24  H    5.049385   4.065028   2.602661   2.073848   1.034052
    25  H    6.609110   5.255475   4.180427   2.805513   2.047787
    26  H    7.979760   6.623922   5.557391   4.196948   3.354147
    27  H    6.530636   5.225183   4.264770   3.063121   2.595714
    28  H    6.335019   4.812651   4.372797   2.932471   3.272629
    29  H    7.832032   6.320978   5.644178   4.112411   3.890308
    30  H    7.732039   6.337668   5.928077   4.694465   4.820221
    31  H    8.502145   7.015648   6.717975   5.340428   5.527130
    32  H    9.010173   7.556812   6.926939   5.514630   5.261181
    33  H    6.961000   6.114615   4.635168   4.124226   2.823563
    34  H    8.075221   7.015949   5.660204   4.759187   3.516589
    35  H    8.612474   7.689311   6.201089   5.477280   4.051045
    36  H    7.436150   6.409433   5.111526   4.286188   3.184399
    37  H    8.304287   7.414279   5.952534   5.287905   3.925684
    38  H    8.877705   7.587457   6.393110   5.108174   4.020262
    39  H   10.247632   9.041360   7.703557   6.528584   5.225527
                    6          7          8          9         10
     6  C    0.000000
     7  C    1.557199   0.000000
     8  C    2.611880   1.537784   0.000000
     9  C    3.964715   2.549582   1.530888   0.000000
    10  C    1.528037   2.580212   3.850966   5.037840   0.000000
    11  C    2.590880   3.149534   4.652278   5.559413   1.522663
    12  C    2.599130   3.926781   4.962271   6.280511   1.525746
    13  C    2.575333   3.402156   4.345729   5.478682   1.515715
    14  O    3.796056   4.350416   5.357470   6.262205   2.524217
    15  H    7.279681   7.704841   7.774688   8.596080   8.376524
    16  H    6.625679   7.083446   7.482910   8.310887   7.526789
    17  H    6.606201   7.355695   7.670488   8.726020   7.482558
    18  H    5.272661   5.400386   5.399792   6.125593   6.539105
    19  H    5.247583   5.750622   5.656853   6.676420   6.486680
    20  H    4.128854   5.106837   5.662315   6.907849   4.906051
    21  H    4.144513   4.692631   5.391692   6.363742   4.959315
    22  H    2.849083   2.840026   3.030105   3.990139   4.228024
    23  H    2.810063   3.474490   3.492945   4.817014   4.143194
    24  H    2.083210   3.416236   4.378684   5.736721   2.513765
    25  H    1.099281   2.168111   2.610351   4.108608   2.138699
    26  H    2.151517   1.095003   2.147862   2.762418   2.547599
    27  H    2.187735   1.095992   2.175066   2.773327   3.119231
    28  H    2.870244   2.184866   1.096370   2.158075   4.322432
    29  H    2.827573   2.157164   1.098810   2.162118   3.894756
    30  H    4.294072   2.828052   2.183788   1.096501   5.391703
    31  H    4.781718   3.502902   2.179064   1.094770   5.929667
    32  H    4.262632   2.802714   2.180165   1.095900   5.049429
    33  H    2.889415   3.554993   5.059446   5.995254   2.178861
    34  H    2.875995   2.846403   4.345853   4.980769   2.184130
    35  H    3.516763   4.124640   5.587944   6.462089   2.158670
    36  H    2.777376   4.241653   5.032667   6.471786   2.269713
    37  H    3.512220   4.797686   5.953421   7.218795   2.236640
    38  H    2.712925   3.369294   3.932210   5.078335   2.241052
    39  H    3.966900   4.160657   5.128070   5.821409   2.864268
                   11         12         13         14         15
    11  C    0.000000
    12  C    2.612055   0.000000
    13  C    2.620963   1.498220   0.000000
    14  O    2.961550   2.473018   1.397230   0.000000
    15  H    8.720790   8.815354   9.624133  10.873966   0.000000
    16  H    7.605892   8.048156   8.902106  10.035879   1.769778
    17  H    7.838486   7.694191   8.700673   9.920224   1.769791
    18  H    6.904802   7.274622   7.792024   9.021752   2.497995
    19  H    7.156007   6.881593   7.561180   8.891957   2.500477
    20  H    5.374915   5.120221   6.112379   7.326076   3.784003
    21  H    5.019024   5.624045   6.381234   7.468428   3.790225
    22  H    4.721874   5.190829   5.423208   6.619151   4.893381
    23  H    5.075770   4.616016   5.082794   6.435591   4.907136
    24  H    3.143145   2.829663   3.753132   4.923529   6.041088
    25  H    3.501935   2.662286   2.627640   3.988479   7.404424
    26  H    2.930667   3.931089   3.057092   3.710900   8.764396
    27  H    3.234347   4.560298   4.208769   5.054751   7.285412
    28  H    5.180314   5.312511   4.966726   6.119768   6.845591
    29  H    4.941605   4.762540   4.011696   5.028125   8.420895
    30  H    5.678450   6.745205   6.069401   6.836866   8.196514
    31  H    6.578653   7.061398   6.252399   7.072516   8.884765
    32  H    5.457284   6.314619   5.305771   5.867331   9.563032
    33  H    1.099447   3.090413   3.506381   3.974751   7.991324
    34  H    1.097966   3.515017   3.128856   3.316603   9.024888
    35  H    1.090533   2.732275   2.736685   2.601865   9.640704
    36  H    3.529734   1.092160   2.234369   3.368724   8.363078
    37  H    2.757745   1.083079   2.209851   2.643117   9.323212
    38  H    3.531509   2.220143   1.091263   2.092245   9.725557
    39  H    3.094937   3.238046   1.949442   0.972396  11.174517
                   16         17         18         19         20
    16  H    0.000000
    17  H    1.768869   0.000000
    18  H    2.529670   3.080494   0.000000
    19  H    3.082424   2.525510   1.756316   0.000000
    20  H    3.140891   2.595151   3.075306   2.517407   0.000000
    21  H    2.607083   3.145347   2.522978   3.070471   1.760138
    22  H    4.453750   4.777515   2.568078   3.093857   3.076611
    23  H    4.795202   4.444417   3.135611   2.573515   2.521074
    24  H    5.228906   4.999523   4.583894   4.320042   2.410315
    25  H    6.986052   6.726356   5.486103   5.153654   4.300691
    26  H    8.062852   8.362786   6.465450   6.833125   6.037829
    27  H    6.524027   7.042344   4.941032   5.603221   4.959404
    28  H    6.722062   6.848342   4.505162   4.692856   5.049313
    29  H    8.223604   8.212627   6.155066   6.142244   6.116688
    30  H    7.831343   8.452513   5.700215   6.524119   6.806562
    31  H    8.803616   9.148368   6.463719   6.925784   7.487798
    32  H    9.163826   9.600761   7.087785   7.642144   7.638239
    33  H    6.751896   7.062361   6.337977   6.662614   4.714354
    34  H    7.909758   8.329738   7.023706   7.488334   5.952934
    35  H    8.474742   8.648514   7.928435   8.109820   6.182280
    36  H    7.773650   7.205034   6.971599   6.334133   4.700607
    37  H    8.423694   8.075661   7.936856   7.566260   5.558952
    38  H    9.186427   8.905214   7.831467   7.501197   6.370285
    39  H   10.324568  10.342917   9.177888   9.196800   7.766947
                   21         22         23         24         25
    21  H    0.000000
    22  H    2.532347   0.000000
    23  H    3.082576   1.761268   0.000000
    24  H    2.841024   2.952728   2.520138   0.000000
    25  H    4.680103   3.189111   2.587839   2.479767   0.000000
    26  H    5.602011   3.915501   4.506226   4.106158   2.740878
    27  H    4.179681   2.526014   3.669191   3.542533   3.014362
    28  H    4.863066   2.367347   2.743179   4.211733   2.737918
    29  H    6.116465   3.823190   3.825678   4.683584   2.453617
    30  H    6.008274   3.772205   4.953272   5.844818   4.638897
    31  H    7.050791   4.569978   5.230266   6.501476   4.727261
    32  H    7.069492   4.828177   5.629643   6.194891   4.472551
    33  H    4.226463   4.436729   4.881144   2.752594   3.864528
    34  H    5.339668   4.752590   5.412820   3.849136   3.856813
    35  H    5.926839   5.791225   6.027769   3.931189   4.291014
    36  H    5.518023   5.068585   4.141575   2.690283   2.472631
    37  H    6.040981   5.980735   5.467478   3.365091   3.712307
    38  H    6.742223   5.436783   4.950630   4.159068   2.378600
    39  H    7.729286   6.691396   6.714073   5.372600   4.251098
                   26         27         28         29         30
    26  H    0.000000
    27  H    1.748418   0.000000
    28  H    3.069083   2.568463   0.000000
    29  H    2.476906   3.070071   1.750440   0.000000
    30  H    3.150450   2.606361   2.528592   3.083346   0.000000
    31  H    3.758617   3.789796   2.494233   2.497491   1.770519
    32  H    2.566561   3.103252   3.076856   2.527748   1.768350
    33  H    3.612435   3.378050   5.398450   5.495466   5.957166
    34  H    2.414258   2.773452   5.002868   4.750526   5.017921
    35  H    3.736988   4.278838   6.177944   5.758529   6.635508
    36  H    4.457063   4.932875   5.197060   4.745854   6.982842
    37  H    4.720059   5.304405   6.316879   5.805472   7.620655
    38  H    3.076013   4.353079   4.558101   3.355269   5.824790
    39  H    3.327747   4.829890   6.010593   4.840853   6.388155
                   31         32         33         34         35
    31  H    0.000000
    32  H    1.769778   0.000000
    33  H    7.016812   6.044276   0.000000
    34  H    6.046626   4.761608   1.772478   0.000000
    35  H    7.473786   6.241018   1.772575   1.764941   0.000000
    36  H    7.137630   6.648366   3.839147   4.409926   3.780315
    37  H    8.049965   7.196213   3.118657   3.773641   2.502638
    38  H    5.706689   4.928288   4.388693   3.879880   3.783656
    39  H    6.645976   5.288066   4.184778   3.113549   2.827049
                   36         37         38         39
    36  H    0.000000
    37  H    1.830054   0.000000
    38  H    2.515686   3.096116   0.000000
    39  H    4.133656   3.500582   2.422908   0.000000
 Stoichiometry    C12H25NO
 Framework group  C1[X(C12H25NO)]
 Deg. of freedom   111
 Full point group                 C1      NOp   1
 Largest Abelian subgroup         C1      NOp   1
 Largest concise Abelian subgroup C1      NOp   1
                         Standard orientation:                         
 ---------------------------------------------------------------------
 Center     Atomic      Atomic             Coordinates (Angstroms)
 Number     Number       Type             X           Y           Z
 ---------------------------------------------------------------------
      1          6           0       -5.594457   -0.994114    0.136628
      2          6           0       -4.388554   -0.128118   -0.235198
      3          6           0       -3.056846   -0.794639    0.122595
      4          6           0       -1.854466    0.074430   -0.267447
      5          7           0       -0.583539   -0.551171    0.059431
      6          6           0        0.725914    0.054671   -0.225072
      7          6           0        0.899449    1.458368    0.426379
      8          6           0        0.568563    2.648339   -0.489734
      9          6           0        0.788517    3.995717    0.202951
     10          6           0        1.828155   -0.933439    0.153876
     11          6           0        1.974918   -1.242742    1.637553
     12          6           0        2.115580   -2.053483   -0.841509
     13          6           0        3.065327   -0.901022   -0.721193
     14          8           0        4.321430   -1.161466   -0.167455
     15          1           0       -6.532181   -0.497475   -0.130501
     16          1           0       -5.618991   -1.199922    1.212915
     17          1           0       -5.564435   -1.957275   -0.384689
     18          1           0       -4.463639    0.844038    0.271310
     19          1           0       -4.407659    0.087041   -1.312504
     20          1           0       -2.976357   -1.765832   -0.387531
     21          1           0       -3.019251   -1.004877    1.199035
     22          1           0       -1.904298    1.051349    0.228679
     23          1           0       -1.840883    0.269684   -1.348358
     24          1           0       -0.585742   -1.562327   -0.156951
     25          1           0        0.745174    0.178898   -1.317141
     26          1           0        1.947148    1.544645    0.732836
     27          1           0        0.311302    1.515945    1.349400
     28          1           0       -0.465043    2.590122   -0.850700
     29          1           0        1.201567    2.588714   -1.385912
     30          1           0        0.142199    4.103052    1.082193
     31          1           0        0.571790    4.827353   -0.475233
     32          1           0        1.825665    4.101135    0.540898
     33          1           0        1.062739   -1.703624    2.042894
     34          1           0        2.178162   -0.338349    2.226022
     35          1           0        2.803566   -1.932831    1.799977
     36          1           0        1.508641   -2.133489   -1.745963
     37          1           0        2.443219   -3.001951   -0.433928
     38          1           0        3.085106   -0.183537   -1.543190
     39          1           0        4.632929   -0.374365    0.311078
 ---------------------------------------------------------------------
 Rotational constants (GHZ):           0.7952171           0.3030357           0.2378953
 Standard basis: 6-31+G(2df,p) (6D, 7F)
 There are   615 symmetry adapted cartesian basis functions of A   symmetry.
 There are   573 symmetry adapted basis functions of A   symmetry.
   573 basis functions,   847 primitive gaussians,   615 cartesian basis functions
    56 alpha electrons       56 beta electrons
       nuclear repulsion energy       948.3298352393 Hartrees.
 NAtoms=   39 NActive=   39 NUniq=   39 SFac= 1.00D+00 NAtFMM=   60 NAOKFM=F Big=F
 Integral buffers will be    131072 words long.
 Regular integral format.
 Two-electron integral symmetry is turned on.
 One-electron integrals computed using PRISM.
 PrsmSu:  requested number of processors reduced to:  12 ShMem   1 Linda.
 NBasis=   573 RedAO= T EigKep=  4.44D-06  NBF=   573
 NBsUse=   573 1.00D-06 EigRej= -1.00D+00 NBFU=   573
 Initial guess from the checkpoint file:  "CCCCNCqCCCrC1qCrCC1O.chk"
 B after Tr=    -0.000000   -0.000000   -0.000000
         Rot=    0.999978   -0.003868    0.002014    0.004918 Ang=  -0.75 deg.
 ExpMin= 4.38D-02 ExpMax= 5.48D+03 ExpMxC= 8.25D+02 IAcc=2 IRadAn=         4 AccDes= 0.00D+00
 Harris functional with IExCor=  402 and IRadAn=       4 diagonalized for initial guess.
 HarFok:  IExCor=  402 AccDes= 0.00D+00 IRadAn=         4 IDoV= 1 UseB2=F ITyADJ=14
 ICtDFT=  3500011 ScaDFX=  1.000000  1.000000  1.000000  1.000000
 FoFCou: FMM=F IPFlag=           0 FMFlag=      100000 FMFlg1=           0
         NFxFlg=           0 DoJE=T BraDBF=F KetDBF=T FulRan=T
         wScrn=  0.000000 ICntrl=       500 IOpCl=  0 I1Cent=   200000004 NGrid=           0
         NMat0=    1 NMatS0=      1 NMatT0=    0 NMatD0=    1 NMtDS0=    0 NMtDT0=    0
 Petite list used in FoFCou.
 Requested convergence on RMS density matrix=1.00D-08 within 128 cycles.
 Requested convergence on MAX density matrix=1.00D-06.
 Requested convergence on             energy=1.00D-06.
 No special actions if energy rises.
 SCF Done:  E(RB3LYP) =  -602.336849537     A.U. after   11 cycles
            NFock= 11  Conv=0.80D-08     -V/T= 2.0088
 DoSCS=F DFT=T ScalE2(SS,OS)=  1.000000  1.000000
 ExpMin= 4.38D-02 ExpMax= 5.48D+03 ExpMxC= 8.25D+02 IAcc=3 IRadAn=         5 AccDes= 0.00D+00
 HarFok:  IExCor=  205 AccDes= 0.00D+00 IRadAn=         5 IDoV=-2 UseB2=F ITyADJ=14
 ICtDFT= 12500011 ScaDFX=  1.000000  1.000000  1.000000  1.000000
 Range of M.O.s used for correlation:    15   573
 NBasis=   573 NAE=    56 NBE=    56 NFC=    14 NFV=     0
 NROrb=    559 NOA=    42 NOB=    42 NVA=   517 NVB=   517

 **** Warning!!: The largest alpha MO coefficient is  0.10288209D+03

 Orbital symmetries:
       Occupied  (A) (A) (A) (A) (A) (A) (A) (A) (A) (A) (A) (A)
                 (A) (A) (A) (A) (A) (A) (A) (A) (A) (A) (A) (A)
                 (A) (A) (A) (A) (A) (A) (A) (A) (A) (A) (A) (A)
                 (A) (A) (A) (A) (A) (A) (A) (A) (A) (A) (A) (A)
                 (A) (A) (A) (A) (A) (A) (A) (A)
       Virtual   (A) (A) (A) (A) (A) (A) (A) (A) (A) (A) (A) (A)
                 (A) (A) (A) (A) (A) (A) (A) (A) (A) (A) (A) (A)
                 (A) (A) (A) (A) (A) (A) (A) (A) (A) (A) (A) (A)
                 (A) (A) (A) (A) (A) (A) (A) (A) (A) (A) (A) (A)
                 (A) (A) (A) (A) (A) (A) (A) (A) (A) (A) (A) (A)
                 (A) (A) (A) (A) (A) (A) (A) (A) (A) (A) (A) (A)
                 (A) (A) (A) (A) (A) (A) (A) (A) (A) (A) (A) (A)
                 (A) (A) (A) (A) (A) (A) (A) (A) (A) (A) (A) (A)
                 (A) (A) (A) (A) (A) (A) (A) (A) (A) (A) (A) (A)
                 (A) (A) (A) (A) (A) (A) (A) (A) (A) (A) (A) (A)
                 (A) (A) (A) (A) (A) (A) (A) (A) (A) (A) (A) (A)
                 (A) (A) (A) (A) (A) (A) (A) (A) (A) (A) (A) (A)
                 (A) (A) (A) (A) (A) (A) (A) (A) (A) (A) (A) (A)
                 (A) (A) (A) (A) (A) (A) (A) (A) (A) (A) (A) (A)
                 (A) (A) (A) (A) (A) (A) (A) (A) (A) (A) (A) (A)
                 (A) (A) (A) (A) (A) (A) (A) (A) (A) (A) (A) (A)
                 (A) (A) (A) (A) (A) (A) (A) (A) (A) (A) (A) (A)
                 (A) (A) (A) (A) (A) (A) (A) (A) (A) (A) (A) (A)
                 (A) (A) (A) (A) (A) (A) (A) (A) (A) (A) (A) (A)
                 (A) (A) (A) (A) (A) (A) (A) (A) (A) (A) (A) (A)
                 (A) (A) (A) (A) (A) (A) (A) (A) (A) (A) (A) (A)
                 (A) (A) (A) (A) (A) (A) (A) (A) (A) (A) (A) (A)
                 (A) (A) (A) (A) (A) (A) (A) (A) (A) (A) (A) (A)
                 (A) (A) (A) (A) (A) (A) (A) (A) (A) (A) (A) (A)
                 (A) (A) (A) (A) (A) (A) (A) (A) (A) (A) (A) (A)
                 (A) (A) (A) (A) (A) (A) (A) (A) (A) (A) (A) (A)
                 (A) (A) (A) (A) (A) (A) (A) (A) (A) (A) (A) (A)
                 (A) (A) (A) (A) (A) (A) (A) (A) (A) (A) (A) (A)
                 (A) (A) (A) (A) (A) (A) (A) (A) (A) (A) (A) (A)
                 (A) (A) (A) (A) (A) (A) (A) (A) (A) (A) (A) (A)
                 (A) (A) (A) (A) (A) (A) (A) (A) (A) (A) (A) (A)
                 (A) (A) (A) (A) (A) (A) (A) (A) (A) (A) (A) (A)
                 (A) (A) (A) (A) (A) (A) (A) (A) (A) (A) (A) (A)
                 (A) (A) (A) (A) (A) (A) (A) (A) (A) (A) (A) (A)
                 (A) (A) (A) (A) (A) (A) (A) (A) (A) (A) (A) (A)
                 (A) (A) (A) (A) (A) (A) (A) (A) (A) (A) (A) (A)
                 (A) (A) (A) (A) (A) (A) (A) (A) (A) (A) (A) (A)
                 (A) (A) (A) (A) (A) (A) (A) (A) (A) (A) (A) (A)
                 (A) (A) (A) (A) (A) (A) (A) (A) (A) (A) (A) (A)
                 (A) (A) (A) (A) (A) (A) (A) (A) (A) (A) (A) (A)
                 (A) (A) (A) (A) (A) (A) (A) (A) (A) (A) (A) (A)
                 (A) (A) (A) (A) (A) (A) (A) (A) (A) (A) (A) (A)
                 (A) (A) (A) (A) (A) (A) (A) (A) (A) (A) (A) (A)
                 (A)
 Generating guess from densities on rwf.
 Convergence on wavefunction:    0.000001000000000
 Iteration     1 Dimension    20 NMult     0 NNew     20
 CISAX will form     3 AO SS matrices at one time.
 New state      3 was old state      4
 New state      4 was old state      3
 New state      5 was old state      6
 New state      6 was old state      7
 New state      7 was old state      5
 New state      9 was old state     10
 New state     10 was old state      9
 Iteration     2 Dimension    40 NMult    20 NNew     20
 New state      3 was old state      4
 New state      4 was old state      3
 New state      7 was old state      8
 New state      8 was old state      7
 Iteration     3 Dimension    60 NMult    40 NNew     20
 No map to state     10
 Iteration     4 Dimension    80 NMult    60 NNew     20
 Iteration     5 Dimension   100 NMult    80 NNew     20
 Iteration     6 Dimension   120 NMult   100 NNew     20
 Iteration     7 Dimension   140 NMult   120 NNew     20
slurmstepd: error: *** JOB 27500712 ON lewis4-r630-hpc4-node540 CANCELLED AT 2023-05-26T00:16:55 DUE TO TIME LIMIT ***
