### Starting Gaussian ###
 Entering Gaussian System, Link 0=g16
 Initial command:
 /cluster/software/gaussian/gaussian-16-A.03/avx2/g16/l1.exe "/local/scratch/linjian/Gau-18595.inp" -scrdir="/local/scratch/linjian/"
 Entering Link 1 = /cluster/software/gaussian/gaussian-16-A.03/avx2/g16/l1.exe PID=     18596.
  
 Copyright (c) 1988,1990,1992,1993,1995,1998,2003,2009,2016,
            Gaussian, Inc.  All Rights Reserved.
  
 This is part of the Gaussian(R) 16 program.  It is based on
 the Gaussian(R) 09 system (copyright 2009, Gaussian, Inc.),
 the Gaussian(R) 03 system (copyright 2003, Gaussian, Inc.),
 the Gaussian(R) 98 system (copyright 1998, Gaussian, Inc.),
 the Gaussian(R) 94 system (copyright 1995, Gaussian, Inc.),
 the Gaussian 92(TM) system (copyright 1992, Gaussian, Inc.),
 the Gaussian 90(TM) system (copyright 1990, Gaussian, Inc.),
 the Gaussian 88(TM) system (copyright 1988, Gaussian, Inc.),
 the Gaussian 86(TM) system (copyright 1986, Carnegie Mellon
 University), and the Gaussian 82(TM) system (copyright 1983,
 Carnegie Mellon University). Gaussian is a federally registered
 trademark of Gaussian, Inc.
  
 This software contains proprietary and confidential information,
 including trade secrets, belonging to Gaussian, Inc.
  
 This software is provided under written license and may be
 used, copied, transmitted, or stored only in accord with that
 written license.
  
 The following legend is applicable only to US Government
 contracts under FAR:
  
                    RESTRICTED RIGHTS LEGEND
  
 Use, reproduction and disclosure by the US Government is
 subject to restrictions as set forth in subparagraphs (a)
 and (c) of the Commercial Computer Software - Restricted
 Rights clause in FAR 52.227-19.
  
 Gaussian, Inc.
 340 Quinnipiac St., Bldg. 40, Wallingford CT 06492
  
  
 ---------------------------------------------------------------
 Warning -- This program may not be used in any manner that
 competes with the business of Gaussian, Inc. or will provide
 assistance to any competitor of Gaussian, Inc.  The licensee
 of this program is prohibited from giving any competitor of
 Gaussian, Inc. access to this program.  By using this program,
 the user acknowledges that Gaussian, Inc. is engaged in the
 business of creating and licensing software in the field of
 computational chemistry and represents and warrants to the
 licensee that it is not a competitor of Gaussian, Inc. and that
 it will not use this program in any manner prohibited above.
 ---------------------------------------------------------------
  

 Cite this work as:
 Gaussian 16, Revision A.03,
 M. J. Frisch, G. W. Trucks, H. B. Schlegel, G. E. Scuseria, 
 M. A. Robb, J. R. Cheeseman, G. Scalmani, V. Barone, 
 G. A. Petersson, H. Nakatsuji, X. Li, M. Caricato, A. V. Marenich, 
 J. Bloino, B. G. Janesko, R. Gomperts, B. Mennucci, H. P. Hratchian, 
 J. V. Ortiz, A. F. Izmaylov, J. L. Sonnenberg, D. Williams-Young, 
 F. Ding, F. Lipparini, F. Egidi, J. Goings, B. Peng, A. Petrone, 
 T. Henderson, D. Ranasinghe, V. G. Zakrzewski, J. Gao, N. Rega, 
 G. Zheng, W. Liang, M. Hada, M. Ehara, K. Toyota, R. Fukuda, 
 J. Hasegawa, M. Ishida, T. Nakajima, Y. Honda, O. Kitao, H. Nakai, 
 T. Vreven, K. Throssell, J. A. Montgomery, Jr., J. E. Peralta, 
 F. Ogliaro, M. J. Bearpark, J. J. Heyd, E. N. Brothers, K. N. Kudin, 
 V. N. Staroverov, T. A. Keith, R. Kobayashi, J. Normand, 
 K. Raghavachari, A. P. Rendell, J. C. Burant, S. S. Iyengar, 
 J. Tomasi, M. Cossi, J. M. Millam, M. Klene, C. Adamo, R. Cammi, 
 J. W. Ochterski, R. L. Martin, K. Morokuma, O. Farkas, 
 J. B. Foresman, and D. J. Fox, Gaussian, Inc., Wallingford CT, 2016.
 
 ******************************************
 Gaussian 16:  ES64L-G16RevA.03 25-Dec-2016
                28-May-2023 
 ******************************************
 %chk=CCCCCqCrCCC.chk
 %NProcShared=20
 Will use up to   20 processors via shared memory.
 -----------------------------
 # opt freq b3lyp/6-31g(2df,p)
 -----------------------------
 1/18=20,19=15,26=3,38=1/1,3;
 2/9=110,12=2,17=6,18=5,40=1/2;
 3/5=1,6=6,7=104,11=2,25=1,30=1,71=1,74=-5/1,2,3;
 4//1;
 5/5=2,38=5/2;
 6/7=2,8=2,9=2,10=2,28=1/1;
 7//1,2,3,16;
 1/18=20,19=15,26=3/3(2);
 2/9=110/2;
 99//99;
 2/9=110/2;
 3/5=1,6=6,7=104,11=2,25=1,30=1,71=1,74=-5/1,2,3;
 4/5=5,16=3,69=1/1;
 5/5=2,38=5/2;
 7//1,2,3,16;
 1/18=20,19=15,26=3/3(-5);
 2/9=110/2;
 6/7=2,8=2,9=2,10=2,19=2,28=1/1;
 99/9=1/99;
 -------------------
 Title Card Required
 -------------------
 Symbolic Z-matrix:
 Charge =  0 Multiplicity = 1
 C                     1.02441  -0.11803   0.0671 
 C                     2.54513  -0.12168   0.05445 
 C                     3.0599    1.1608   -0.58688 
 C                     4.58691   1.23907  -0.58938 
 C                     5.10118   2.55346  -1.21563 
 C                     4.575     3.77578  -0.45059 
 C                     6.64323   2.53966  -1.25103 
 C                     7.22922   3.78414  -1.92243 
 C                     8.74611   3.76127  -1.92653 
 H                     0.64244  -1.02886   0.53553 
 H                     0.62713  -0.05885  -0.95092 
 H                     0.64282   0.74146   0.62992 
 H                     2.91107  -0.99526  -0.49674 
 H                     2.91614  -0.19884   1.08207 
 H                     2.64013   1.99895  -0.02103 
 H                     2.68816   1.24302  -1.61401 
 H                     4.98609   0.38579  -1.1554 
 H                     4.96449   1.14187   0.43476 
 H                     4.73411   2.60817  -2.24737 
 H                     4.91367   3.75964   0.58951 
 H                     3.48312   3.82267  -0.45722 
 H                     4.90193   4.71335  -0.9067 
 H                     6.98333   1.64871  -1.79729 
 H                     7.03552   2.45081  -0.23144 
 H                     6.92059   4.69019  -1.39173 
 H                     6.85577   3.8627   -2.9487 
 H                     9.13449   3.71457  -0.90474 
 H                     9.12944   4.67423  -2.39317 
 H                     9.12625   2.90141  -2.48532 
 

 GradGradGradGradGradGradGradGradGradGradGradGradGradGradGradGradGradGrad
 Berny optimization.
 Initialization pass.
                           ----------------------------
                           !    Initial Parameters    !
                           ! (Angstroms and Degrees)  !
 --------------------------                            --------------------------
 ! Name  Definition              Value          Derivative Info.                !
 --------------------------------------------------------------------------------
 ! R1    R(1,2)                  1.5208         estimate D2E/DX2                !
 ! R2    R(1,10)                 1.0931         estimate D2E/DX2                !
 ! R3    R(1,11)                 1.0944         estimate D2E/DX2                !
 ! R4    R(1,12)                 1.0959         estimate D2E/DX2                !
 ! R5    R(2,3)                  1.5235         estimate D2E/DX2                !
 ! R6    R(2,13)                 1.0958         estimate D2E/DX2                !
 ! R7    R(2,14)                 1.0953         estimate D2E/DX2                !
 ! R8    R(3,4)                  1.529          estimate D2E/DX2                !
 ! R9    R(3,15)                 1.0949         estimate D2E/DX2                !
 ! R10   R(3,16)                 1.0954         estimate D2E/DX2                !
 ! R11   R(4,5)                  1.5441         estimate D2E/DX2                !
 ! R12   R(4,17)                 1.099          estimate D2E/DX2                !
 ! R13   R(4,18)                 1.0958         estimate D2E/DX2                !
 ! R14   R(5,6)                  1.535          estimate D2E/DX2                !
 ! R15   R(5,7)                  1.5425         estimate D2E/DX2                !
 ! R16   R(5,19)                 1.0965         estimate D2E/DX2                !
 ! R17   R(6,20)                 1.094          estimate D2E/DX2                !
 ! R18   R(6,21)                 1.0929         estimate D2E/DX2                !
 ! R19   R(6,22)                 1.0927         estimate D2E/DX2                !
 ! R20   R(7,8)                  1.5307         estimate D2E/DX2                !
 ! R21   R(7,23)                 1.099          estimate D2E/DX2                !
 ! R22   R(7,24)                 1.0961         estimate D2E/DX2                !
 ! R23   R(8,9)                  1.5171         estimate D2E/DX2                !
 ! R24   R(8,25)                 1.0945         estimate D2E/DX2                !
 ! R25   R(8,26)                 1.0949         estimate D2E/DX2                !
 ! R26   R(9,27)                 1.0941         estimate D2E/DX2                !
 ! R27   R(9,28)                 1.0946         estimate D2E/DX2                !
 ! R28   R(9,29)                 1.0937         estimate D2E/DX2                !
 ! A1    A(2,1,10)             110.5472         estimate D2E/DX2                !
 ! A2    A(2,1,11)             110.8175         estimate D2E/DX2                !
 ! A3    A(2,1,12)             110.752          estimate D2E/DX2                !
 ! A4    A(10,1,11)            108.4711         estimate D2E/DX2                !
 ! A5    A(10,1,12)            108.1632         estimate D2E/DX2                !
 ! A6    A(11,1,12)            107.9932         estimate D2E/DX2                !
 ! A7    A(1,2,3)              109.8376         estimate D2E/DX2                !
 ! A8    A(1,2,13)             109.8781         estimate D2E/DX2                !
 ! A9    A(1,2,14)             109.3351         estimate D2E/DX2                !
 ! A10   A(3,2,13)             110.2732         estimate D2E/DX2                !
 ! A11   A(3,2,14)             109.8652         estimate D2E/DX2                !
 ! A12   A(13,2,14)            107.6163         estimate D2E/DX2                !
 ! A13   A(2,3,4)              112.4095         estimate D2E/DX2                !
 ! A14   A(2,3,15)             107.2952         estimate D2E/DX2                !
 ! A15   A(2,3,16)             110.0741         estimate D2E/DX2                !
 ! A16   A(4,3,15)             110.1531         estimate D2E/DX2                !
 ! A17   A(4,3,16)             109.4836         estimate D2E/DX2                !
 ! A18   A(15,3,16)            107.2783         estimate D2E/DX2                !
 ! A19   A(3,4,5)              112.1388         estimate D2E/DX2                !
 ! A20   A(3,4,17)             108.8954         estimate D2E/DX2                !
 ! A21   A(3,4,18)             109.7572         estimate D2E/DX2                !
 ! A22   A(5,4,17)             109.3325         estimate D2E/DX2                !
 ! A23   A(5,4,18)             109.8636         estimate D2E/DX2                !
 ! A24   A(17,4,18)            106.6972         estimate D2E/DX2                !
 ! A25   A(4,5,6)              111.1942         estimate D2E/DX2                !
 ! A26   A(4,5,7)              109.5509         estimate D2E/DX2                !
 ! A27   A(4,5,19)             108.2165         estimate D2E/DX2                !
 ! A28   A(6,5,7)              111.1768         estimate D2E/DX2                !
 ! A29   A(6,5,19)             108.33           estimate D2E/DX2                !
 ! A30   A(7,5,19)             108.272          estimate D2E/DX2                !
 ! A31   A(5,6,20)             110.854          estimate D2E/DX2                !
 ! A32   A(5,6,21)             111.9383         estimate D2E/DX2                !
 ! A33   A(5,6,22)             111.8795         estimate D2E/DX2                !
 ! A34   A(20,6,21)            108.4024         estimate D2E/DX2                !
 ! A35   A(20,6,22)            108.4756         estimate D2E/DX2                !
 ! A36   A(21,6,22)            105.0447         estimate D2E/DX2                !
 ! A37   A(5,7,8)              112.6756         estimate D2E/DX2                !
 ! A38   A(5,7,23)             109.1487         estimate D2E/DX2                !
 ! A39   A(5,7,24)             109.705          estimate D2E/DX2                !
 ! A40   A(8,7,23)             108.8213         estimate D2E/DX2                !
 ! A41   A(8,7,24)             109.6894         estimate D2E/DX2                !
 ! A42   A(23,7,24)            106.612          estimate D2E/DX2                !
 ! A43   A(7,8,9)              111.8218         estimate D2E/DX2                !
 ! A44   A(7,8,25)             110.6359         estimate D2E/DX2                !
 ! A45   A(7,8,26)             109.8094         estimate D2E/DX2                !
 ! A46   A(9,8,25)             107.2027         estimate D2E/DX2                !
 ! A47   A(9,8,26)             109.8514         estimate D2E/DX2                !
 ! A48   A(25,8,26)            107.3925         estimate D2E/DX2                !
 ! A49   A(8,9,27)             110.6741         estimate D2E/DX2                !
 ! A50   A(8,9,28)             109.7997         estimate D2E/DX2                !
 ! A51   A(8,9,29)             111.1478         estimate D2E/DX2                !
 ! A52   A(27,9,28)            108.024          estimate D2E/DX2                !
 ! A53   A(27,9,29)            108.6762         estimate D2E/DX2                !
 ! A54   A(28,9,29)            108.4336         estimate D2E/DX2                !
 ! D1    D(10,1,2,3)          -179.3584         estimate D2E/DX2                !
 ! D2    D(10,1,2,13)           59.1662         estimate D2E/DX2                !
 ! D3    D(10,1,2,14)          -58.733          estimate D2E/DX2                !
 ! D4    D(11,1,2,3)            60.3437         estimate D2E/DX2                !
 ! D5    D(11,1,2,13)          -61.1317         estimate D2E/DX2                !
 ! D6    D(11,1,2,14)         -179.0309         estimate D2E/DX2                !
 ! D7    D(12,1,2,3)           -59.4892         estimate D2E/DX2                !
 ! D8    D(12,1,2,13)          179.0354         estimate D2E/DX2                !
 ! D9    D(12,1,2,14)           61.1362         estimate D2E/DX2                !
 ! D10   D(1,2,3,4)            178.153          estimate D2E/DX2                !
 ! D11   D(1,2,3,15)            56.9065         estimate D2E/DX2                !
 ! D12   D(1,2,3,16)           -59.516          estimate D2E/DX2                !
 ! D13   D(13,2,3,4)           -60.6086         estimate D2E/DX2                !
 ! D14   D(13,2,3,15)          178.1449         estimate D2E/DX2                !
 ! D15   D(13,2,3,16)           61.7225         estimate D2E/DX2                !
 ! D16   D(14,2,3,4)            57.8485         estimate D2E/DX2                !
 ! D17   D(14,2,3,15)          -63.398          estimate D2E/DX2                !
 ! D18   D(14,2,3,16)         -179.8205         estimate D2E/DX2                !
 ! D19   D(2,3,4,5)           -178.8809         estimate D2E/DX2                !
 ! D20   D(2,3,4,17)            59.9869         estimate D2E/DX2                !
 ! D21   D(2,3,4,18)           -56.4758         estimate D2E/DX2                !
 ! D22   D(15,3,4,5)           -59.2843         estimate D2E/DX2                !
 ! D23   D(15,3,4,17)          179.5835         estimate D2E/DX2                !
 ! D24   D(15,3,4,18)           63.1208         estimate D2E/DX2                !
 ! D25   D(16,3,4,5)            58.4548         estimate D2E/DX2                !
 ! D26   D(16,3,4,17)          -62.6774         estimate D2E/DX2                !
 ! D27   D(16,3,4,18)         -179.1401         estimate D2E/DX2                !
 ! D28   D(3,4,5,6)             59.4758         estimate D2E/DX2                !
 ! D29   D(3,4,5,7)           -177.2354         estimate D2E/DX2                !
 ! D30   D(3,4,5,19)           -59.3869         estimate D2E/DX2                !
 ! D31   D(17,4,5,6)          -179.644          estimate D2E/DX2                !
 ! D32   D(17,4,5,7)           -56.3553         estimate D2E/DX2                !
 ! D33   D(17,4,5,19)           61.4932         estimate D2E/DX2                !
 ! D34   D(18,4,5,6)           -62.8689         estimate D2E/DX2                !
 ! D35   D(18,4,5,7)            60.4199         estimate D2E/DX2                !
 ! D36   D(18,4,5,19)          178.2684         estimate D2E/DX2                !
 ! D37   D(4,5,6,20)            60.8986         estimate D2E/DX2                !
 ! D38   D(4,5,6,21)           -60.2746         estimate D2E/DX2                !
 ! D39   D(4,5,6,22)          -177.8752         estimate D2E/DX2                !
 ! D40   D(7,5,6,20)           -61.4544         estimate D2E/DX2                !
 ! D41   D(7,5,6,21)           177.3724         estimate D2E/DX2                !
 ! D42   D(7,5,6,22)            59.7718         estimate D2E/DX2                !
 ! D43   D(19,5,6,20)          179.6932         estimate D2E/DX2                !
 ! D44   D(19,5,6,21)           58.5201         estimate D2E/DX2                !
 ! D45   D(19,5,6,22)          -59.0805         estimate D2E/DX2                !
 ! D46   D(4,5,7,8)            177.2133         estimate D2E/DX2                !
 ! D47   D(4,5,7,23)            56.2025         estimate D2E/DX2                !
 ! D48   D(4,5,7,24)           -60.2733         estimate D2E/DX2                !
 ! D49   D(6,5,7,8)            -59.4877         estimate D2E/DX2                !
 ! D50   D(6,5,7,23)           179.5015         estimate D2E/DX2                !
 ! D51   D(6,5,7,24)            63.0257         estimate D2E/DX2                !
 ! D52   D(19,5,7,8)            59.3994         estimate D2E/DX2                !
 ! D53   D(19,5,7,23)          -61.6114         estimate D2E/DX2                !
 ! D54   D(19,5,7,24)         -178.0872         estimate D2E/DX2                !
 ! D55   D(5,7,8,9)            179.0704         estimate D2E/DX2                !
 ! D56   D(5,7,8,25)            59.65           estimate D2E/DX2                !
 ! D57   D(5,7,8,26)           -58.7191         estimate D2E/DX2                !
 ! D58   D(23,7,8,9)           -59.732          estimate D2E/DX2                !
 ! D59   D(23,7,8,25)         -179.1525         estimate D2E/DX2                !
 ! D60   D(23,7,8,26)           62.4784         estimate D2E/DX2                !
 ! D61   D(24,7,8,9)            56.5483         estimate D2E/DX2                !
 ! D62   D(24,7,8,25)          -62.8721         estimate D2E/DX2                !
 ! D63   D(24,7,8,26)          178.7588         estimate D2E/DX2                !
 ! D64   D(7,8,9,27)           -59.5874         estimate D2E/DX2                !
 ! D65   D(7,8,9,28)          -178.7536         estimate D2E/DX2                !
 ! D66   D(7,8,9,29)            61.2726         estimate D2E/DX2                !
 ! D67   D(25,8,9,27)           61.8373         estimate D2E/DX2                !
 ! D68   D(25,8,9,28)          -57.3288         estimate D2E/DX2                !
 ! D69   D(25,8,9,29)         -177.3026         estimate D2E/DX2                !
 ! D70   D(26,8,9,27)          178.2262         estimate D2E/DX2                !
 ! D71   D(26,8,9,28)           59.06           estimate D2E/DX2                !
 ! D72   D(26,8,9,29)          -60.9138         estimate D2E/DX2                !
 --------------------------------------------------------------------------------
 Trust Radius=3.00D-01 FncErr=1.00D-07 GrdErr=1.00D-06 EigMax=2.50D+02 EigMin=1.00D-04
 Number of steps in this run=    164 maximum allowed number of steps=    174.
 GradGradGradGradGradGradGradGradGradGradGradGradGradGradGradGradGradGrad

                          Input orientation:                          
 ---------------------------------------------------------------------
 Center     Atomic      Atomic             Coordinates (Angstroms)
 Number     Number       Type             X           Y           Z
 ---------------------------------------------------------------------
      1          6           0        1.024410   -0.118030    0.067100
      2          6           0        2.545130   -0.121680    0.054450
      3          6           0        3.059900    1.160800   -0.586880
      4          6           0        4.586910    1.239070   -0.589380
      5          6           0        5.101180    2.553460   -1.215630
      6          6           0        4.575000    3.775780   -0.450590
      7          6           0        6.643230    2.539660   -1.251030
      8          6           0        7.229220    3.784140   -1.922430
      9          6           0        8.746110    3.761270   -1.926530
     10          1           0        0.642440   -1.028860    0.535530
     11          1           0        0.627130   -0.058850   -0.950920
     12          1           0        0.642820    0.741460    0.629920
     13          1           0        2.911070   -0.995260   -0.496740
     14          1           0        2.916140   -0.198840    1.082070
     15          1           0        2.640130    1.998950   -0.021030
     16          1           0        2.688160    1.243020   -1.614010
     17          1           0        4.986090    0.385790   -1.155400
     18          1           0        4.964490    1.141870    0.434760
     19          1           0        4.734110    2.608170   -2.247370
     20          1           0        4.913670    3.759640    0.589510
     21          1           0        3.483120    3.822670   -0.457220
     22          1           0        4.901930    4.713350   -0.906700
     23          1           0        6.983330    1.648710   -1.797290
     24          1           0        7.035520    2.450810   -0.231440
     25          1           0        6.920590    4.690190   -1.391730
     26          1           0        6.855770    3.862700   -2.948700
     27          1           0        9.134490    3.714570   -0.904740
     28          1           0        9.129440    4.674230   -2.393170
     29          1           0        9.126250    2.901410   -2.485320
 ---------------------------------------------------------------------
                    Distance matrix (angstroms):
                    1          2          3          4          5
     1  C    0.000000
     2  C    1.520777   0.000000
     3  C    2.491248   1.523498   0.000000
     4  C    3.868345   2.536735   1.529017   0.000000
     5  C    5.040070   3.911888   2.549834   1.544113   0.000000
     6  C    5.294946   4.423306   3.025264   2.540532   1.534998
     7  C    6.353890   5.057809   3.896486   2.521461   1.542518
     8  C    7.595053   6.411254   5.103806   3.903358   2.557869
     9  C    8.868381   7.579824   6.394536   5.044641   3.905086
    10  H    1.093133   2.162092   3.449424   4.686979   5.981634
    11  H    1.094394   2.166435   2.745622   4.182722   5.187616
    12  H    1.095947   2.166786   2.738380   4.158143   5.154258
    13  H    2.155675   1.095840   2.163070   2.794504   4.231643
    14  H    2.148333   1.095265   2.157471   2.766370   4.198688
    15  H    2.664568   2.124098   1.094938   2.165731   2.791293
    16  H    2.728855   2.160237   1.095421   2.157576   2.774640
    17  H    4.176512   2.771200   2.152687   1.099004   2.171559
    18  H    4.152921   2.755812   2.161381   1.095845   2.176019
    19  H    5.152748   4.188328   2.766783   2.155234   1.096458
    20  H    5.516845   4.578309   3.402106   2.801754   2.179119
    21  H    4.674322   4.086506   2.698422   2.812616   2.191848
    22  H    6.271019   5.464049   4.014470   3.502935   2.190950
    23  H    6.488917   5.124533   4.134786   2.714716   2.167808
    24  H    6.543815   5.182957   4.194761   2.755381   2.172749
    25  H    7.746748   6.662596   5.292382   4.242647   2.811917
    26  H    7.677631   6.593619   5.223704   4.194943   2.792172
    27  H    9.022566   7.684824   6.597228   5.187296   4.208612
    28  H    9.731916   8.505571   7.241974   5.973990   4.702249
    29  H    9.015081   7.674676   6.590478   5.192646   4.234899
                    6          7          8          9         10
     6  C    0.000000
     7  C    2.538951   0.000000
     8  C    3.035007   1.530651   0.000000
     9  C    4.424564   2.524032   1.517068   0.000000
    10  H    6.286655   7.206637   8.520106   9.730188   0.000000
    11  H    5.526336   6.560166   7.700649   9.025684   1.775018
    12  H    5.082975   6.540368   7.691102   9.017649   1.772835
    13  H    5.053080   5.195540   6.597096   7.662674   2.492668
    14  H    4.571484   5.180148   6.594984   7.663073   2.481401
    15  H    2.661836   4.222568   5.278444   6.634734   3.669899
    16  H    3.365796   4.177991   5.212834   6.567953   3.737236
    17  H    3.486801   2.719267   4.143519   5.111385   4.871116
    18  H    2.805892   2.759325   4.203206   5.170841   4.837596
    19  H    2.148732   2.154559   2.777421   4.186732   6.141196
    20  H    1.093968   2.804874   3.416462   4.584545   6.416857
    21  H    1.092906   3.501792   4.022635   5.464586   5.708972
    22  H    1.092683   2.806353   2.703963   4.089527   7.293576
    23  H    3.483975   1.099027   2.153180   2.754452   7.267621
    24  H    2.803164   1.096061   2.162114   2.741670   7.319004
    25  H    2.687691   2.172902   1.094450   2.116938   8.708446
    26  H    3.383788   2.162797   1.094928   2.151396   8.641336
    27  H    4.582461   2.776096   2.161154   1.094109   9.833078
    28  H    5.032271   3.470175   2.150510   1.094619  10.636338
    29  H    5.061475   2.796377   2.166744   1.093669   9.825863
                   11         12         13         14         15
    11  H    0.000000
    12  H    1.771947   0.000000
    13  H    2.509885   3.070915   0.000000
    14  H    3.064672   2.501317   1.768319   0.000000
    15  H    3.025129   2.448319   3.043847   2.474529   0.000000
    16  H    2.526341   3.077369   2.511549   3.065906   1.763894
    17  H    4.386348   4.709338   2.578147   3.103668   3.064736
    18  H    4.708984   4.344565   3.106694   2.532242   2.518924
    19  H    5.065675   5.338732   4.401464   4.719056   3.116487
    20  H    5.943754   5.229838   5.272516   4.461200   2.939689
    21  H    4.844235   4.329322   4.851933   4.343204   2.055930
    22  H    6.407009   6.023050   6.059688   5.659344   3.642543
    23  H    6.635765   6.849563   5.026461   5.314714   4.705439
    24  H    6.919791   6.673113   5.381159   5.071020   4.423562
    25  H    7.896539   7.686998   7.014385   6.786599   5.238695
    26  H    7.626640   7.819809   6.721052   6.947222   5.460443
    27  H    9.306772   9.127049   7.815364   7.611180   6.775028
    28  H    9.837246   9.829978   8.625989   8.627236   7.409137
    29  H    9.129763   9.291861   7.600457   7.804056   6.996922
                   16         17         18         19         20
    16  H    0.000000
    17  H    2.495125   0.000000
    18  H    3.064208   1.760890   0.000000
    19  H    2.539821   2.488949   3.065442   0.000000
    20  H    4.017682   3.799055   2.622832   3.066922   0.000000
    21  H    2.936787   3.815563   3.190106   2.498924   1.773722
    22  H    4.176632   4.335517   3.815612   2.501468   1.774358
    23  H    4.318178   2.448664   3.051991   2.486388   3.799517
    24  H    4.719088   3.052568   2.538959   3.063531   2.624737
    25  H    5.463136   4.725040   4.444431   3.138092   2.969674
    26  H    5.100303   4.335958   4.735785   2.562645   4.037487
    27  H    6.940230   5.324737   5.079562   4.731820   4.477738
    28  H    7.339644   6.090168   6.149924   4.858887   5.244575
    29  H    6.705106   5.023739   5.379879   4.408345   5.285543
                   21         22         23         24         25
    21  H    0.000000
    22  H    1.734464   0.000000
    23  H    4.332824   3.810170   0.000000
    24  H    3.814777   3.182337   1.760106   0.000000
    25  H    3.666347   2.076241   3.069042   2.524739   0.000000
    26  H    4.193309   2.951417   2.498753   3.067449   1.764397
    27  H    5.670092   4.348808   3.113184   2.540885   2.467863
    28  H    6.029427   4.481402   3.756945   3.741814   2.425315
    29  H    6.066863   4.860046   2.575801   3.107116   3.043125
                   26         27         28         29
    26  H    0.000000
    27  H    3.064683   0.000000
    28  H    2.477250   1.770987   0.000000
    29  H    2.508760   1.777507   1.775216   0.000000
 Stoichiometry    C9H20
 Framework group  C1[X(C9H20)]
 Deg. of freedom    81
 Full point group                 C1      NOp   1
 Largest Abelian subgroup         C1      NOp   1
 Largest concise Abelian subgroup C1      NOp   1
                         Standard orientation:                         
 ---------------------------------------------------------------------
 Center     Atomic      Atomic             Coordinates (Angstroms)
 Number     Number       Type             X           Y           Z
 ---------------------------------------------------------------------
      1          6           0       -4.483980    0.054987   -0.170489
      2          6           0       -3.217508   -0.682732    0.235199
      3          6           0       -1.993791    0.096372   -0.230162
      4          6           0       -0.683634   -0.572076    0.187640
      5          6           0        0.551955    0.236888   -0.263114
      6          6           0        0.539564    1.649571    0.337211
      7          6           0        1.836605   -0.522881    0.126484
      8          6           0        3.107873    0.185042   -0.348508
      9          6           0        4.359494   -0.566364    0.064201
     10          1           0       -5.369831   -0.488754    0.167967
     11          1           0       -4.538852    0.164519   -1.258005
     12          1           0       -4.508357    1.057178    0.272364
     13          1           0       -3.215999   -1.688066   -0.200880
     14          1           0       -3.195791   -0.793925    1.324588
     15          1           0       -2.061322    1.098872    0.204950
     16          1           0       -2.013706    0.212365   -1.319242
     17          1           0       -0.640747   -1.577784   -0.253408
     18          1           0       -0.665617   -0.704253    1.275336
     19          1           0        0.523303    0.326193   -1.355554
     20          1           0        0.561825    1.608464    1.430179
     21          1           0       -0.343862    2.215553    0.031157
     22          1           0        1.389996    2.244617   -0.004320
     23          1           0        1.806751   -1.530166   -0.312089
     24          1           0        1.872131   -0.655509    1.213911
     25          1           0        3.175212    1.188206    0.083867
     26          1           0        3.084499    0.298801   -1.437259
     27          1           0        4.412281   -0.660301    1.152991
     28          1           0        5.247107   -0.021199   -0.272144
     29          1           0        4.381506   -1.567650   -0.375178
 ---------------------------------------------------------------------
 Rotational constants (GHZ):           4.9656411           0.4912668           0.4652397
 Standard basis: 6-31G(2df,p) (6D, 7F)
 There are   379 symmetry adapted cartesian basis functions of A   symmetry.
 There are   352 symmetry adapted basis functions of A   symmetry.
   352 basis functions,   536 primitive gaussians,   379 cartesian basis functions
    37 alpha electrons       37 beta electrons
       nuclear repulsion energy       468.9224144062 Hartrees.
 NAtoms=   29 NActive=   29 NUniq=   29 SFac= 1.00D+00 NAtFMM=   60 NAOKFM=F Big=F
 Integral buffers will be    131072 words long.
 Raffenetti 2 integral format.
 Two-electron integral symmetry is turned on.
 One-electron integrals computed using PRISM.
 PrsmSu:  requested number of processors reduced to:  13 ShMem   1 Linda.
 NBasis=   352 RedAO= T EigKep=  5.13D-04  NBF=   352
 NBsUse=   352 1.00D-06 EigRej= -1.00D+00 NBFU=   352
 ExpMin= 1.61D-01 ExpMax= 3.05D+03 ExpMxC= 4.57D+02 IAcc=3 IRadAn=         5 AccDes= 0.00D+00
 Harris functional with IExCor=  402 and IRadAn=       5 diagonalized for initial guess.
 HarFok:  IExCor=  402 AccDes= 0.00D+00 IRadAn=         5 IDoV= 1 UseB2=F ITyADJ=14
 ICtDFT=  3500011 ScaDFX=  1.000000  1.000000  1.000000  1.000000
 FoFCou: FMM=F IPFlag=           0 FMFlag=      100000 FMFlg1=           0
         NFxFlg=           0 DoJE=T BraDBF=F KetDBF=T FulRan=T
         wScrn=  0.000000 ICntrl=       500 IOpCl=  0 I1Cent=   200000004 NGrid=           0
         NMat0=    1 NMatS0=      1 NMatT0=    0 NMatD0=    1 NMtDS0=    0 NMtDT0=    0
 Petite list used in FoFCou.
 Requested convergence on RMS density matrix=1.00D-08 within 128 cycles.
 Requested convergence on MAX density matrix=1.00D-06.
 Requested convergence on             energy=1.00D-06.
 No special actions if energy rises.
 Integral accuracy reduced to 1.0D-05 until final iterations.
 Initial convergence to 1.0D-05 achieved.  Increase integral accuracy.
 SCF Done:  E(RB3LYP) =  -355.050939934     A.U. after   11 cycles
            NFock= 11  Conv=0.93D-08     -V/T= 2.0090

 **********************************************************************

            Population analysis using the SCF density.

 **********************************************************************

 Orbital symmetries:
       Occupied  (A) (A) (A) (A) (A) (A) (A) (A) (A) (A) (A) (A)
                 (A) (A) (A) (A) (A) (A) (A) (A) (A) (A) (A) (A)
                 (A) (A) (A) (A) (A) (A) (A) (A) (A) (A) (A) (A)
                 (A)
       Virtual   (A) (A) (A) (A) (A) (A) (A) (A) (A) (A) (A) (A)
                 (A) (A) (A) (A) (A) (A) (A) (A) (A) (A) (A) (A)
                 (A) (A) (A) (A) (A) (A) (A) (A) (A) (A) (A) (A)
                 (A) (A) (A) (A) (A) (A) (A) (A) (A) (A) (A) (A)
                 (A) (A) (A) (A) (A) (A) (A) (A) (A) (A) (A) (A)
                 (A) (A) (A) (A) (A) (A) (A) (A) (A) (A) (A) (A)
                 (A) (A) (A) (A) (A) (A) (A) (A) (A) (A) (A) (A)
                 (A) (A) (A) (A) (A) (A) (A) (A) (A) (A) (A) (A)
                 (A) (A) (A) (A) (A) (A) (A) (A) (A) (A) (A) (A)
                 (A) (A) (A) (A) (A) (A) (A) (A) (A) (A) (A) (A)
                 (A) (A) (A) (A) (A) (A) (A) (A) (A) (A) (A) (A)
                 (A) (A) (A) (A) (A) (A) (A) (A) (A) (A) (A) (A)
                 (A) (A) (A) (A) (A) (A) (A) (A) (A) (A) (A) (A)
                 (A) (A) (A) (A) (A) (A) (A) (A) (A) (A) (A) (A)
                 (A) (A) (A) (A) (A) (A) (A) (A) (A) (A) (A) (A)
                 (A) (A) (A) (A) (A) (A) (A) (A) (A) (A) (A) (A)
                 (A) (A) (A) (A) (A) (A) (A) (A) (A) (A) (A) (A)
                 (A) (A) (A) (A) (A) (A) (A) (A) (A) (A) (A) (A)
                 (A) (A) (A) (A) (A) (A) (A) (A) (A) (A) (A) (A)
                 (A) (A) (A) (A) (A) (A) (A) (A) (A) (A) (A) (A)
                 (A) (A) (A) (A) (A) (A) (A) (A) (A) (A) (A) (A)
                 (A) (A) (A) (A) (A) (A) (A) (A) (A) (A) (A) (A)
                 (A) (A) (A) (A) (A) (A) (A) (A) (A) (A) (A) (A)
                 (A) (A) (A) (A) (A) (A) (A) (A) (A) (A) (A) (A)
                 (A) (A) (A) (A) (A) (A) (A) (A) (A) (A) (A) (A)
                 (A) (A) (A) (A) (A) (A) (A) (A) (A) (A) (A) (A)
                 (A) (A) (A)
 The electronic state is 1-A.
 Alpha  occ. eigenvalues --  -10.17723 -10.17071 -10.17003 -10.16872 -10.16825
 Alpha  occ. eigenvalues --  -10.16754 -10.16587 -10.16554 -10.16440  -0.81524
 Alpha  occ. eigenvalues --   -0.78536  -0.75348  -0.70147  -0.67160  -0.63054
 Alpha  occ. eigenvalues --   -0.58416  -0.56702  -0.55085  -0.47378  -0.46206
 Alpha  occ. eigenvalues --   -0.43790  -0.43509  -0.41760  -0.40883  -0.39710
 Alpha  occ. eigenvalues --   -0.38056  -0.37656  -0.35699  -0.34999  -0.34298
 Alpha  occ. eigenvalues --   -0.33987  -0.32836  -0.32651  -0.31645  -0.31532
 Alpha  occ. eigenvalues --   -0.30694  -0.28246
 Alpha virt. eigenvalues --    0.08693   0.09990   0.11175   0.11333   0.12058
 Alpha virt. eigenvalues --    0.13558   0.14498   0.14919   0.16278   0.16833
 Alpha virt. eigenvalues --    0.17501   0.17777   0.18404   0.19111   0.19680
 Alpha virt. eigenvalues --    0.20072   0.20109   0.20899   0.21691   0.22685
 Alpha virt. eigenvalues --    0.23513   0.23927   0.25184   0.26051   0.26699
 Alpha virt. eigenvalues --    0.27970   0.30489   0.30870   0.43179   0.46038
 Alpha virt. eigenvalues --    0.47357   0.48655   0.48837   0.50037   0.51832
 Alpha virt. eigenvalues --    0.52598   0.53709   0.54500   0.55883   0.56220
 Alpha virt. eigenvalues --    0.57884   0.59705   0.60722   0.62119   0.62861
 Alpha virt. eigenvalues --    0.63677   0.64274   0.66390   0.68469   0.69128
 Alpha virt. eigenvalues --    0.71225   0.72042   0.72622   0.73545   0.73680
 Alpha virt. eigenvalues --    0.74592   0.75173   0.75328   0.75658   0.75893
 Alpha virt. eigenvalues --    0.76956   0.77725   0.78467   0.79640   0.80444
 Alpha virt. eigenvalues --    0.80994   0.81518   0.82112   0.83683   0.84503
 Alpha virt. eigenvalues --    0.86474   0.86630   0.87799   0.89371   0.89649
 Alpha virt. eigenvalues --    0.91354   0.91991   0.95868   1.04209   1.06833
 Alpha virt. eigenvalues --    1.08970   1.09837   1.10720   1.16783   1.18169
 Alpha virt. eigenvalues --    1.21261   1.21704   1.22951   1.23718   1.24080
 Alpha virt. eigenvalues --    1.26235   1.29545   1.33801   1.34560   1.36696
 Alpha virt. eigenvalues --    1.38706   1.39058   1.41552   1.42769   1.45837
 Alpha virt. eigenvalues --    1.46936   1.49042   1.53355   1.54446   1.55474
 Alpha virt. eigenvalues --    1.56013   1.57328   1.58738   1.60428   1.62033
 Alpha virt. eigenvalues --    1.64828   1.66813   1.69071   1.71272   1.72029
 Alpha virt. eigenvalues --    1.79084   1.79587   1.82001   1.83320   1.85657
 Alpha virt. eigenvalues --    1.86374   1.87978   1.88944   1.91680   1.93907
 Alpha virt. eigenvalues --    1.94821   1.95651   1.96461   1.97091   1.97934
 Alpha virt. eigenvalues --    2.00271   2.03771   2.15025   2.16203   2.18986
 Alpha virt. eigenvalues --    2.20488   2.20946   2.22317   2.24267   2.26009
 Alpha virt. eigenvalues --    2.26839   2.29052   2.30728   2.33819   2.34967
 Alpha virt. eigenvalues --    2.36025   2.37698   2.40024   2.42361   2.45351
 Alpha virt. eigenvalues --    2.48670   2.54041   2.55553   2.56167   2.61654
 Alpha virt. eigenvalues --    2.65722   2.68834   2.72235   2.74770   2.74997
 Alpha virt. eigenvalues --    2.75643   2.76872   2.77700   2.78586   2.78747
 Alpha virt. eigenvalues --    2.80284   2.81982   2.82192   2.83419   2.84082
 Alpha virt. eigenvalues --    2.85289   2.86232   2.86999   2.87792   2.89622
 Alpha virt. eigenvalues --    2.89998   2.91131   2.92137   2.92875   2.93812
 Alpha virt. eigenvalues --    2.94253   2.96166   2.96799   2.99053   2.99763
 Alpha virt. eigenvalues --    3.01379   3.02088   3.05646   3.07338   3.08960
 Alpha virt. eigenvalues --    3.11933   3.14210   3.16128   3.18060   3.20443
 Alpha virt. eigenvalues --    3.22431   3.23041   3.24437   3.29993   3.34523
 Alpha virt. eigenvalues --    3.36270   3.37218   3.38321   3.40353   3.42250
 Alpha virt. eigenvalues --    3.44779   3.46649   3.47817   3.52178   3.53309
 Alpha virt. eigenvalues --    3.54227   3.55377   3.59090   3.60181   3.61070
 Alpha virt. eigenvalues --    3.61856   3.62392   3.65423   3.65984   3.67961
 Alpha virt. eigenvalues --    3.70621   3.73555   3.74521   3.74702   3.76825
 Alpha virt. eigenvalues --    3.77167   3.78548   3.81759   3.82673   3.85271
 Alpha virt. eigenvalues --    3.86761   3.88530   3.92583   3.94479   3.96534
 Alpha virt. eigenvalues --    3.99158   4.03916   4.12438   4.17133   4.19869
 Alpha virt. eigenvalues --    4.27981   4.37319   4.38675   4.39131   4.41750
 Alpha virt. eigenvalues --    4.43288   4.44055   4.45649   4.46343   4.47371
 Alpha virt. eigenvalues --    4.49558   4.51524   4.54147   4.54828   4.56516
 Alpha virt. eigenvalues --    4.56783   4.57205   4.59161   4.60565   4.61578
 Alpha virt. eigenvalues --    4.63542   4.64035   4.66291   4.66685   4.67798
 Alpha virt. eigenvalues --    4.69832   4.70150   4.70885   4.73098   4.75024
 Alpha virt. eigenvalues --    4.76103   4.76546   4.77580   4.78191   4.79219
 Alpha virt. eigenvalues --    4.79711   4.81102   4.82928   4.84677   4.86067
 Alpha virt. eigenvalues --    4.86773   4.87499   4.89392   4.91624   4.93070
 Alpha virt. eigenvalues --    4.93897   4.96544   4.98280   4.99261   5.04651
 Alpha virt. eigenvalues --    5.07956   5.19172   5.23310   5.28099   5.32182
 Alpha virt. eigenvalues --    5.36752   5.39649   5.45141   5.47591   5.49083
 Alpha virt. eigenvalues --    5.51314   5.54761   5.62541   5.64630   5.81872
 Alpha virt. eigenvalues --    6.26356  11.13765  11.31614  11.51908  11.79609
 Alpha virt. eigenvalues --   11.95133  12.15494  12.31991  12.38831  12.69029
          Condensed to atoms (all electrons):
               1          2          3          4          5          6
     1  C    4.951407   0.405641  -0.037013   0.002317  -0.000146   0.000008
     2  C    0.405641   4.782372   0.429170  -0.032799   0.001961   0.000555
     3  C   -0.037013   0.429170   4.783112   0.425177  -0.029850  -0.005117
     4  C    0.002317  -0.032799   0.425177   4.850435   0.420911  -0.034303
     5  C   -0.000146   0.001961  -0.029850   0.420911   4.602986   0.405626
     6  C    0.000008   0.000555  -0.005117  -0.034303   0.405626   5.006218
     7  C    0.000001  -0.000131   0.001935  -0.031068   0.421651  -0.034853
     8  C   -0.000000   0.000001  -0.000140   0.002012  -0.028453  -0.005183
     9  C    0.000000  -0.000000   0.000001  -0.000140   0.002026   0.000498
    10  H    0.370587  -0.022302   0.003418  -0.000172   0.000001   0.000000
    11  H    0.379148  -0.029568  -0.004172   0.000198   0.000005   0.000000
    12  H    0.378689  -0.029210  -0.005264   0.000208   0.000010  -0.000012
    13  H   -0.035344   0.369425  -0.033001  -0.001818   0.000076  -0.000005
    14  H   -0.035802   0.369790  -0.032014  -0.002455   0.000212  -0.000016
    15  H   -0.003258  -0.036548   0.366805  -0.031432  -0.005208   0.000046
    16  H   -0.002652  -0.036885   0.364276  -0.032405  -0.001546  -0.001067
    17  H    0.000084  -0.002822  -0.032480   0.353420  -0.025418   0.005262
    18  H    0.000103  -0.003648  -0.034261   0.356132  -0.025839  -0.008684
    19  H    0.000005   0.000084  -0.004411  -0.040397   0.358738  -0.051660
    20  H    0.000001  -0.000045  -0.000361  -0.005393  -0.026354   0.371467
    21  H    0.000014  -0.000130  -0.000574  -0.004620  -0.023317   0.371259
    22  H   -0.000000  -0.000007   0.000220   0.004063  -0.023360   0.371260
    23  H    0.000000   0.000006   0.000198  -0.003467  -0.025415   0.005299
    24  H    0.000000   0.000004   0.000151  -0.004346  -0.025753  -0.008699
    25  H    0.000000   0.000000   0.000006   0.000129  -0.004793   0.000110
    26  H    0.000000   0.000000   0.000006   0.000194  -0.001299  -0.001001
    27  H    0.000000   0.000000   0.000000   0.000005   0.000239  -0.000016
    28  H   -0.000000   0.000000  -0.000000   0.000001  -0.000152   0.000009
    29  H    0.000000   0.000000   0.000000  -0.000001   0.000092  -0.000002
               7          8          9         10         11         12
     1  C    0.000001  -0.000000   0.000000   0.370587   0.379148   0.378689
     2  C   -0.000131   0.000001  -0.000000  -0.022302  -0.029568  -0.029210
     3  C    0.001935  -0.000140   0.000001   0.003418  -0.004172  -0.005264
     4  C   -0.031068   0.002012  -0.000140  -0.000172   0.000198   0.000208
     5  C    0.421651  -0.028453   0.002026   0.000001   0.000005   0.000010
     6  C   -0.034853  -0.005183   0.000498   0.000000   0.000000  -0.000012
     7  C    4.824449   0.428795  -0.035322  -0.000000   0.000000   0.000000
     8  C    0.428795   4.785609   0.403806   0.000000   0.000000   0.000000
     9  C   -0.035322   0.403806   4.955690  -0.000000   0.000000   0.000000
    10  H   -0.000000   0.000000  -0.000000   0.612589  -0.031957  -0.032142
    11  H    0.000000   0.000000   0.000000  -0.031957   0.603193  -0.033682
    12  H    0.000000   0.000000   0.000000  -0.032142  -0.033682   0.603740
    13  H    0.000002   0.000000   0.000000  -0.002115  -0.004410   0.005688
    14  H    0.000008   0.000000   0.000000  -0.002358   0.005702  -0.004476
    15  H    0.000151   0.000005   0.000000  -0.000025  -0.000484   0.006123
    16  H    0.000211   0.000005   0.000000  -0.000052   0.005085  -0.000410
    17  H   -0.003764   0.000139   0.000005   0.000005   0.000005   0.000010
    18  H   -0.004516   0.000095   0.000004   0.000004   0.000010   0.000003
    19  H   -0.040384  -0.004616   0.000068   0.000000  -0.000002   0.000000
    20  H   -0.005293  -0.000309  -0.000044  -0.000000  -0.000000   0.000000
    21  H    0.004140   0.000212  -0.000006  -0.000000   0.000002  -0.000006
    22  H   -0.005112   0.000011  -0.000180   0.000000  -0.000000   0.000000
    23  H    0.355453  -0.036245  -0.002410   0.000000   0.000000  -0.000000
    24  H    0.357911  -0.037955  -0.003024   0.000000  -0.000000   0.000000
    25  H   -0.031744   0.372035  -0.036157   0.000000  -0.000000   0.000000
    26  H   -0.033087   0.369161  -0.036818   0.000000  -0.000000   0.000000
    27  H   -0.004538  -0.028996   0.378825  -0.000000   0.000000   0.000000
    28  H    0.003336  -0.022615   0.371308   0.000000   0.000000   0.000000
    29  H   -0.003981  -0.029225   0.378062  -0.000000  -0.000000  -0.000000
              13         14         15         16         17         18
     1  C   -0.035344  -0.035802  -0.003258  -0.002652   0.000084   0.000103
     2  C    0.369425   0.369790  -0.036548  -0.036885  -0.002822  -0.003648
     3  C   -0.033001  -0.032014   0.366805   0.364276  -0.032480  -0.034261
     4  C   -0.001818  -0.002455  -0.031432  -0.032405   0.353420   0.356132
     5  C    0.000076   0.000212  -0.005208  -0.001546  -0.025418  -0.025839
     6  C   -0.000005  -0.000016   0.000046  -0.001067   0.005262  -0.008684
     7  C    0.000002   0.000008   0.000151   0.000211  -0.003764  -0.004516
     8  C    0.000000   0.000000   0.000005   0.000005   0.000139   0.000095
     9  C    0.000000   0.000000   0.000000   0.000000   0.000005   0.000004
    10  H   -0.002115  -0.002358  -0.000025  -0.000052   0.000005   0.000004
    11  H   -0.004410   0.005702  -0.000484   0.005085   0.000005   0.000010
    12  H    0.005688  -0.004476   0.006123  -0.000410   0.000010   0.000003
    13  H    0.648045  -0.041807   0.006421  -0.005792   0.004749  -0.000476
    14  H   -0.041807   0.646243  -0.005932   0.006304  -0.000411   0.005208
    15  H    0.006421  -0.005932   0.645313  -0.043755   0.006327  -0.004897
    16  H   -0.005792   0.006304  -0.043755   0.653592  -0.005578   0.006378
    17  H    0.004749  -0.000411   0.006327  -0.005578   0.656553  -0.042169
    18  H   -0.000476   0.005208  -0.004897   0.006378  -0.042169   0.652347
    19  H    0.000002   0.000010  -0.000098   0.005659  -0.004147   0.006773
    20  H    0.000001   0.000005   0.000980   0.000105  -0.000016   0.005159
    21  H    0.000001   0.000025   0.003964   0.001082  -0.000035   0.000109
    22  H    0.000000  -0.000000  -0.000213  -0.000044  -0.000182  -0.000070
    23  H   -0.000000   0.000000   0.000003  -0.000004   0.005509  -0.000299
    24  H    0.000000  -0.000002   0.000006   0.000010  -0.000297   0.005135
    25  H   -0.000000  -0.000000  -0.000001   0.000000   0.000003   0.000005
    26  H    0.000000  -0.000000   0.000000  -0.000002  -0.000004   0.000010
    27  H    0.000000  -0.000000  -0.000000  -0.000000   0.000000  -0.000001
    28  H    0.000000   0.000000  -0.000000   0.000000   0.000000   0.000000
    29  H   -0.000000   0.000000  -0.000000   0.000000  -0.000000   0.000000
              19         20         21         22         23         24
     1  C    0.000005   0.000001   0.000014  -0.000000   0.000000   0.000000
     2  C    0.000084  -0.000045  -0.000130  -0.000007   0.000006   0.000004
     3  C   -0.004411  -0.000361  -0.000574   0.000220   0.000198   0.000151
     4  C   -0.040397  -0.005393  -0.004620   0.004063  -0.003467  -0.004346
     5  C    0.358738  -0.026354  -0.023317  -0.023360  -0.025415  -0.025753
     6  C   -0.051660   0.371467   0.371259   0.371260   0.005299  -0.008699
     7  C   -0.040384  -0.005293   0.004140  -0.005112   0.355453   0.357911
     8  C   -0.004616  -0.000309   0.000212   0.000011  -0.036245  -0.037955
     9  C    0.000068  -0.000044  -0.000006  -0.000180  -0.002410  -0.003024
    10  H    0.000000  -0.000000  -0.000000   0.000000   0.000000   0.000000
    11  H   -0.000002  -0.000000   0.000002  -0.000000   0.000000  -0.000000
    12  H    0.000000   0.000000  -0.000006   0.000000  -0.000000   0.000000
    13  H    0.000002   0.000001   0.000001   0.000000  -0.000000   0.000000
    14  H    0.000010   0.000005   0.000025  -0.000000   0.000000  -0.000002
    15  H   -0.000098   0.000980   0.003964  -0.000213   0.000003   0.000006
    16  H    0.005659   0.000105   0.001082  -0.000044  -0.000004   0.000010
    17  H   -0.004147  -0.000016  -0.000035  -0.000182   0.005509  -0.000297
    18  H    0.006773   0.005159   0.000109  -0.000070  -0.000299   0.005135
    19  H    0.700604   0.006342  -0.003029  -0.002903  -0.004155   0.006831
    20  H    0.006342   0.607995  -0.033842  -0.033615  -0.000018   0.005136
    21  H   -0.003029  -0.033842   0.602942  -0.030796  -0.000185  -0.000070
    22  H   -0.002903  -0.033615  -0.030796   0.603270  -0.000030   0.000100
    23  H   -0.004155  -0.000018  -0.000185  -0.000030   0.657486  -0.041973
    24  H    0.006831   0.005136  -0.000070   0.000100  -0.041973   0.653536
    25  H   -0.000121   0.000867  -0.000196   0.003979   0.006273  -0.004924
    26  H    0.005519   0.000099  -0.000042   0.000996  -0.005618   0.006333
    27  H    0.000012   0.000005  -0.000000   0.000020  -0.000356   0.005200
    28  H    0.000003   0.000000  -0.000000   0.000010  -0.000060  -0.000051
    29  H    0.000001   0.000001   0.000000   0.000002   0.004920  -0.000410
              25         26         27         28         29
     1  C    0.000000   0.000000   0.000000  -0.000000   0.000000
     2  C    0.000000   0.000000   0.000000   0.000000   0.000000
     3  C    0.000006   0.000006   0.000000  -0.000000   0.000000
     4  C    0.000129   0.000194   0.000005   0.000001  -0.000001
     5  C   -0.004793  -0.001299   0.000239  -0.000152   0.000092
     6  C    0.000110  -0.001001  -0.000016   0.000009  -0.000002
     7  C   -0.031744  -0.033087  -0.004538   0.003336  -0.003981
     8  C    0.372035   0.369161  -0.028996  -0.022615  -0.029225
     9  C   -0.036157  -0.036818   0.378825   0.371308   0.378062
    10  H    0.000000   0.000000  -0.000000   0.000000  -0.000000
    11  H   -0.000000  -0.000000   0.000000   0.000000  -0.000000
    12  H    0.000000   0.000000   0.000000   0.000000  -0.000000
    13  H   -0.000000   0.000000   0.000000   0.000000  -0.000000
    14  H   -0.000000  -0.000000  -0.000000   0.000000   0.000000
    15  H   -0.000001   0.000000  -0.000000  -0.000000  -0.000000
    16  H    0.000000  -0.000002  -0.000000   0.000000   0.000000
    17  H    0.000003  -0.000004   0.000000   0.000000  -0.000000
    18  H    0.000005   0.000010  -0.000001   0.000000   0.000000
    19  H   -0.000121   0.005519   0.000012   0.000003   0.000001
    20  H    0.000867   0.000099   0.000005   0.000000   0.000001
    21  H   -0.000196  -0.000042  -0.000000  -0.000000   0.000000
    22  H    0.003979   0.000996   0.000020   0.000010   0.000002
    23  H    0.006273  -0.005618  -0.000356  -0.000060   0.004920
    24  H   -0.004924   0.006333   0.005200  -0.000051  -0.000410
    25  H    0.640362  -0.042472  -0.004734  -0.002678   0.005800
    26  H   -0.042472   0.649176   0.005778  -0.002340  -0.004583
    27  H   -0.004734   0.005778   0.603309  -0.032239  -0.033370
    28  H   -0.002678  -0.002340  -0.032239   0.612290  -0.032049
    29  H    0.005800  -0.004583  -0.033370  -0.032049   0.605387
 Mulliken charges:
               1
     1  C   -0.373791
     2  C   -0.164915
     3  C   -0.155819
     4  C   -0.190386
     5  C    0.032369
     6  C   -0.387000
     7  C   -0.164250
     8  C   -0.168149
     9  C   -0.376193
    10  H    0.104519
    11  H    0.110925
    12  H    0.110731
    13  H    0.090358
    14  H    0.091763
    15  H    0.095707
    16  H    0.087483
    17  H    0.085250
    18  H    0.087387
    19  H    0.065274
    20  H    0.107129
    21  H    0.113100
    22  H    0.112580
    23  H    0.085089
    24  H    0.087150
    25  H    0.098252
    26  H    0.089995
    27  H    0.110858
    28  H    0.105226
    29  H    0.109357
 Sum of Mulliken charges =  -0.00000
 Mulliken charges with hydrogens summed into heavy atoms:
               1
     1  C   -0.047616
     2  C    0.017207
     3  C    0.027371
     4  C   -0.017749
     5  C    0.097643
     6  C   -0.054191
     7  C    0.007990
     8  C    0.020098
     9  C   -0.050752
 Electronic spatial extent (au):  <R**2>=           2541.4713
 Charge=             -0.0000 electrons
 Dipole moment (field-independent basis, Debye):
    X=             -0.0004    Y=              0.0298    Z=             -0.0579  Tot=              0.0651
 Quadrupole moment (field-independent basis, Debye-Ang):
   XX=            -63.6345   YY=            -61.5291   ZZ=            -60.3327
   XY=              0.6011   XZ=             -0.3024   YZ=              0.4157
 Traceless Quadrupole moment (field-independent basis, Debye-Ang):
   XX=             -1.8023   YY=              0.3030   ZZ=              1.4994
   XY=              0.6011   XZ=             -0.3024   YZ=              0.4157
 Octapole moment (field-independent basis, Debye-Ang**2):
  XXX=              0.8948  YYY=             -0.8197  ZZZ=              0.3509  XYY=             -0.4446
  XXY=              1.9724  XXZ=              0.2495  XZZ=             -0.0550  YZZ=             -0.3493
  YYZ=             -1.3286  XYZ=             -0.1688
 Hexadecapole moment (field-independent basis, Debye-Ang**3):
 XXXX=          -3144.3105 YYYY=           -330.1748 ZZZZ=           -146.3651 XXXY=             31.6677
 XXXZ=            -15.3236 YYYX=             -1.0290 YYYZ=              2.2383 ZZZX=              2.9141
 ZZZY=             -0.6229 XXYY=           -561.4530 XXZZ=           -527.4508 YYZZ=            -81.8676
 XXYZ=              3.3398 YYXZ=             -2.4775 ZZXY=             -0.3292
 N-N= 4.689224144062D+02 E-N=-1.757733686000D+03  KE= 3.518923244694D+02
 PrsmSu:  requested number of processors reduced to:  13 ShMem   1 Linda.
 Calling FoFJK, ICntrl=      2127 FMM=F ISym2X=0 I1Cent= 0 IOpClX= 0 NMat=1 NMatS=1 NMatT=0.
 ***** Axes restored to original set *****
 -------------------------------------------------------------------
 Center     Atomic                   Forces (Hartrees/Bohr)
 Number     Number              X              Y              Z
 -------------------------------------------------------------------
      1        6          -0.003573356   -0.005592111    0.003200543
      2        6          -0.005313856    0.003005956   -0.003939507
      3        6           0.007531217   -0.005710126    0.006813885
      4        6          -0.004841921    0.007494566   -0.008407764
      5        6           0.006639920   -0.005400946    0.009785236
      6        6          -0.003409780    0.003017137   -0.004414158
      7        6          -0.007500241    0.005741442   -0.007261042
      8        6           0.003553862   -0.002443745    0.004801409
      9        6           0.004223024    0.003620748   -0.004047441
     10        1          -0.003545328   -0.000294322   -0.000171861
     11        1          -0.001468738   -0.000250139   -0.000096558
     12        1          -0.000875844   -0.000561718   -0.000325150
     13        1           0.001375494   -0.001181385    0.000782255
     14        1           0.002245678   -0.000938543    0.000418792
     15        1          -0.000224427    0.000968822   -0.001579823
     16        1          -0.001492634    0.000426364   -0.001255662
     17        1           0.000795447    0.000593405    0.000734967
     18        1           0.000949675    0.000604198    0.001514719
     19        1          -0.000395857   -0.000309189   -0.001888670
     20        1           0.000211020    0.000656496    0.001637660
     21        1           0.000001314   -0.001425088    0.001666443
     22        1           0.002093927   -0.000073564    0.001055046
     23        1          -0.000056154   -0.000065001    0.000976541
     24        1           0.000120403    0.000046099    0.001781672
     25        1          -0.002878612   -0.000305588   -0.000961748
     26        1          -0.001699817    0.000727159   -0.001095157
     27        1           0.001700343   -0.000805884    0.000143570
     28        1           0.003479485   -0.000902814   -0.000111082
     29        1           0.002355755   -0.000642229    0.000242887
 -------------------------------------------------------------------
 Cartesian Forces:  Max     0.009785236 RMS     0.003269182

 GradGradGradGradGradGradGradGradGradGradGradGradGradGradGradGradGradGrad
 Berny optimization.
 FormGI is forming the generalized inverse of G from B-inverse, IUseBI=4.
 Internal  Forces:  Max     0.016636659 RMS     0.003153336
 Search for a local minimum.
 Step number   1 out of a maximum of  164
 All quantities printed in internal units (Hartrees-Bohrs-Radians)
 Mixed Optimization -- RFO/linear search
 Second derivative matrix not updated -- first step.
 ITU=  0
     Eigenvalues ---    0.00230   0.00230   0.00303   0.00360   0.00382
     Eigenvalues ---    0.00455   0.00491   0.00540   0.03472   0.03531
     Eigenvalues ---    0.03556   0.03617   0.03700   0.03908   0.04634
     Eigenvalues ---    0.04786   0.04788   0.04806   0.04896   0.04922
     Eigenvalues ---    0.04999   0.05349   0.05406   0.05642   0.05649
     Eigenvalues ---    0.05672   0.05802   0.07906   0.08221   0.08224
     Eigenvalues ---    0.08299   0.08305   0.11864   0.12103   0.12128
     Eigenvalues ---    0.12170   0.12192   0.16000   0.16000   0.16000
     Eigenvalues ---    0.16000   0.16000   0.16000   0.16000   0.16000
     Eigenvalues ---    0.16000   0.16434   0.16771   0.21881   0.21900
     Eigenvalues ---    0.21910   0.21917   0.21927   0.28158   0.28297
     Eigenvalues ---    0.28967   0.29363   0.29514   0.30032   0.30292
     Eigenvalues ---    0.30651   0.33790   0.33792   0.34077   0.34122
     Eigenvalues ---    0.34134   0.34146   0.34146   0.34194   0.34211
     Eigenvalues ---    0.34248   0.34249   0.34284   0.34303   0.34310
     Eigenvalues ---    0.34342   0.34358   0.34392   0.34453   0.34479
     Eigenvalues ---    0.34504
 RFO step:  Lambda=-8.65732885D-03 EMin= 2.30000000D-03
 Linear search not attempted -- first point.
 Iteration  1 RMS(Cart)=  0.15402606 RMS(Int)=  0.00431100
 Iteration  2 RMS(Cart)=  0.01193295 RMS(Int)=  0.00022463
 Iteration  3 RMS(Cart)=  0.00004959 RMS(Int)=  0.00022415
 Iteration  4 RMS(Cart)=  0.00000001 RMS(Int)=  0.00022415
 Variable       Old X    -DE/DX   Delta X   Delta X   Delta X     New X
                                 (Linear)    (Quad)   (Total)
    R1        2.87385   0.00947   0.00000   0.03039   0.03039   2.90424
    R2        2.06572   0.00141   0.00000   0.00399   0.00399   2.06971
    R3        2.06811   0.00061   0.00000   0.00173   0.00173   2.06984
    R4        2.07104  -0.00030   0.00000  -0.00086  -0.00086   2.07018
    R5        2.87899   0.00861   0.00000   0.02786   0.02786   2.90685
    R6        2.07084   0.00101   0.00000   0.00288   0.00288   2.07371
    R7        2.06975   0.00122   0.00000   0.00348   0.00348   2.07323
    R8        2.88942   0.00586   0.00000   0.01929   0.01929   2.90871
    R9        2.06913   0.00001   0.00000   0.00003   0.00003   2.06916
   R10        2.07005   0.00172   0.00000   0.00489   0.00489   2.07494
   R11        2.91795   0.00310   0.00000   0.01066   0.01066   2.92861
   R12        2.07682  -0.00055   0.00000  -0.00159  -0.00159   2.07523
   R13        2.07085   0.00169   0.00000   0.00483   0.00483   2.07567
   R14        2.90073   0.00208   0.00000   0.00698   0.00698   2.90771
   R15        2.91494   0.00338   0.00000   0.01159   0.01159   2.92652
   R16        2.07201   0.00189   0.00000   0.00542   0.00542   2.07743
   R17        2.06730   0.00161   0.00000   0.00458   0.00458   2.07188
   R18        2.06529  -0.00007   0.00000  -0.00020  -0.00020   2.06509
   R19        2.06487   0.00012   0.00000   0.00035   0.00035   2.06522
   R20        2.89251   0.00395   0.00000   0.01306   0.01306   2.90557
   R21        2.07686  -0.00045   0.00000  -0.00130  -0.00130   2.07556
   R22        2.07125   0.00170   0.00000   0.00485   0.00485   2.07610
   R23        2.86684   0.01175   0.00000   0.03728   0.03728   2.90412
   R24        2.06821   0.00009   0.00000   0.00026   0.00026   2.06847
   R25        2.06911   0.00166   0.00000   0.00472   0.00472   2.07384
   R26        2.06757   0.00077   0.00000   0.00219   0.00219   2.06976
   R27        2.06853   0.00051   0.00000   0.00146   0.00146   2.06999
   R28        2.06673   0.00120   0.00000   0.00340   0.00340   2.07014
    A1        1.92941   0.00424   0.00000   0.02669   0.02658   1.95599
    A2        1.93413   0.00085   0.00000   0.00394   0.00389   1.93802
    A3        1.93299   0.00047   0.00000   0.00241   0.00236   1.93535
    A4        1.89318  -0.00257   0.00000  -0.01449  -0.01459   1.87859
    A5        1.88780  -0.00217   0.00000  -0.01068  -0.01078   1.87702
    A6        1.88484  -0.00109   0.00000  -0.00937  -0.00936   1.87548
    A7        1.91703   0.01159   0.00000   0.05903   0.05879   1.97582
    A8        1.91773  -0.00335   0.00000  -0.00984  -0.00988   1.90786
    A9        1.90826  -0.00222   0.00000   0.00078   0.00071   1.90897
   A10        1.92463  -0.00329   0.00000  -0.01314  -0.01345   1.91118
   A11        1.91751  -0.00394   0.00000  -0.01662  -0.01723   1.90028
   A12        1.87826   0.00092   0.00000  -0.02202  -0.02237   1.85589
   A13        1.96192   0.00461   0.00000   0.02429   0.02411   1.98602
   A14        1.87266   0.00014   0.00000   0.01526   0.01496   1.88762
   A15        1.92115  -0.00258   0.00000  -0.02042  -0.02028   1.90088
   A16        1.92254  -0.00145   0.00000   0.00181   0.00131   1.92385
   A17        1.91085  -0.00093   0.00000  -0.00853  -0.00838   1.90247
   A18        1.87236   0.00001   0.00000  -0.01379  -0.01373   1.85863
   A19        1.95719   0.01664   0.00000   0.08013   0.07994   2.03714
   A20        1.90058  -0.00493   0.00000  -0.02189  -0.02138   1.87920
   A21        1.91562  -0.00415   0.00000  -0.00426  -0.00482   1.91081
   A22        1.90821  -0.00553   0.00000  -0.03014  -0.03005   1.87816
   A23        1.91748  -0.00523   0.00000  -0.01615  -0.01725   1.90023
   A24        1.86222   0.00248   0.00000  -0.01257  -0.01323   1.84899
   A25        1.94070   0.00203   0.00000   0.02297   0.02286   1.96356
   A26        1.91202  -0.00184   0.00000  -0.00480  -0.00542   1.90660
   A27        1.88873  -0.00073   0.00000  -0.01998  -0.02017   1.86857
   A28        1.94040   0.00152   0.00000   0.01967   0.01954   1.95994
   A29        1.89071  -0.00047   0.00000   0.00039   0.00069   1.89141
   A30        1.88970  -0.00061   0.00000  -0.02050  -0.02068   1.86902
   A31        1.93477   0.00062   0.00000  -0.00160  -0.00162   1.93315
   A32        1.95369  -0.00023   0.00000   0.00154   0.00150   1.95520
   A33        1.95267  -0.00031   0.00000   0.00057   0.00053   1.95320
   A34        1.89198  -0.00079   0.00000  -0.00908  -0.00908   1.88290
   A35        1.89326  -0.00087   0.00000  -0.01044  -0.01045   1.88281
   A36        1.83338   0.00156   0.00000   0.01925   0.01919   1.85257
   A37        1.96656   0.01464   0.00000   0.07046   0.07031   2.03687
   A38        1.90500  -0.00465   0.00000  -0.02443  -0.02426   1.88075
   A39        1.91471  -0.00448   0.00000  -0.01235  -0.01314   1.90157
   A40        1.89929  -0.00456   0.00000  -0.02185  -0.02152   1.87777
   A41        1.91444  -0.00377   0.00000  -0.00515  -0.00567   1.90877
   A42        1.86073   0.00214   0.00000  -0.01138  -0.01187   1.84886
   A43        1.95166   0.00389   0.00000   0.02181   0.02167   1.97333
   A44        1.93096  -0.00216   0.00000  -0.00822  -0.00886   1.92210
   A45        1.91653  -0.00144   0.00000  -0.01541  -0.01544   1.90110
   A46        1.87104   0.00126   0.00000   0.02579   0.02571   1.89675
   A47        1.91727  -0.00144   0.00000  -0.00857  -0.00836   1.90891
   A48        1.87435  -0.00022   0.00000  -0.01612  -0.01623   1.85813
   A49        1.93163   0.00087   0.00000   0.00384   0.00376   1.93538
   A50        1.91637   0.00461   0.00000   0.03068   0.03048   1.94684
   A51        1.93989   0.00163   0.00000   0.00761   0.00752   1.94741
   A52        1.88537  -0.00226   0.00000  -0.00943  -0.00961   1.87577
   A53        1.89676  -0.00219   0.00000  -0.01921  -0.01919   1.87757
   A54        1.89252  -0.00292   0.00000  -0.01481  -0.01501   1.87751
    D1       -3.13040  -0.00001   0.00000  -0.00302  -0.00313  -3.13352
    D2        1.03264  -0.00123   0.00000  -0.01840  -0.01845   1.01420
    D3       -1.02509   0.00095   0.00000   0.01368   0.01384  -1.01125
    D4        1.05320  -0.00014   0.00000  -0.00501  -0.00514   1.04806
    D5       -1.06695  -0.00136   0.00000  -0.02039  -0.02046  -1.08741
    D6       -3.12468   0.00082   0.00000   0.01169   0.01182  -3.11286
    D7       -1.03828   0.00035   0.00000   0.00259   0.00251  -1.03577
    D8        3.12476  -0.00086   0.00000  -0.01279  -0.01281   3.11195
    D9        1.06703   0.00131   0.00000   0.01929   0.01947   1.08650
   D10        3.10936   0.00069   0.00000   0.02150   0.02160   3.13096
   D11        0.99321  -0.00044   0.00000  -0.00591  -0.00610   0.98710
   D12       -1.03875   0.00083   0.00000   0.01271   0.01264  -1.02611
   D13       -1.05782   0.00192   0.00000   0.03917   0.03920  -1.01861
   D14        3.10922   0.00080   0.00000   0.01175   0.01150   3.12072
   D15        1.07726   0.00207   0.00000   0.03037   0.03024   1.10750
   D16        1.00965  -0.00139   0.00000  -0.00615  -0.00584   1.00381
   D17       -1.10650  -0.00251   0.00000  -0.03357  -0.03354  -1.14004
   D18       -3.13846  -0.00124   0.00000  -0.01495  -0.01479   3.12993
   D19       -3.12206  -0.00186   0.00000  -0.06129  -0.06153   3.09959
   D20        1.04697  -0.00229   0.00000  -0.06018  -0.06018   0.98679
   D21       -0.98569  -0.00012   0.00000  -0.03017  -0.03001  -1.01570
   D22       -1.03471   0.00035   0.00000  -0.02481  -0.02501  -1.05972
   D23        3.13432  -0.00008   0.00000  -0.02370  -0.02366   3.11067
   D24        1.10167   0.00210   0.00000   0.00631   0.00651   1.10817
   D25        1.02023  -0.00105   0.00000  -0.04567  -0.04588   0.97435
   D26       -1.09393  -0.00148   0.00000  -0.04456  -0.04452  -1.13845
   D27       -3.12658   0.00070   0.00000  -0.01456  -0.01436  -3.14094
   D28        1.03805   0.00052   0.00000   0.05677   0.05688   1.09493
   D29       -3.09334   0.00254   0.00000   0.09401   0.09407  -2.99927
   D30       -1.03650   0.00036   0.00000   0.05522   0.05545  -0.98104
   D31       -3.13538   0.00137   0.00000   0.06080   0.06047  -3.07491
   D32       -0.98359   0.00339   0.00000   0.09804   0.09766  -0.88592
   D33        1.07326   0.00121   0.00000   0.05925   0.05904   1.13230
   D34       -1.09727  -0.00186   0.00000   0.01879   0.01893  -1.07834
   D35        1.05453   0.00016   0.00000   0.05602   0.05612   1.11065
   D36        3.11137  -0.00202   0.00000   0.01724   0.01750   3.12887
   D37        1.06288   0.00008   0.00000   0.01117   0.01131   1.07419
   D38       -1.05199   0.00081   0.00000   0.02285   0.02300  -1.02899
   D39       -3.10451  -0.00080   0.00000  -0.00291  -0.00278  -3.10729
   D40       -1.07258  -0.00006   0.00000  -0.01271  -0.01286  -1.08544
   D41        3.09573   0.00068   0.00000  -0.00103  -0.00117   3.09457
   D42        1.04322  -0.00094   0.00000  -0.02679  -0.02695   1.01626
   D43        3.13624   0.00009   0.00000   0.00052   0.00052   3.13676
   D44        1.02137   0.00082   0.00000   0.01220   0.01222   1.03359
   D45       -1.03115  -0.00080   0.00000  -0.01356  -0.01357  -1.04472
   D46        3.09296  -0.00260   0.00000  -0.09086  -0.09089   3.00207
   D47        0.98092  -0.00320   0.00000  -0.09242  -0.09216   0.88876
   D48       -1.05197  -0.00057   0.00000  -0.05773  -0.05772  -1.10969
   D49       -1.03826  -0.00028   0.00000  -0.05169  -0.05179  -1.09004
   D50        3.13289  -0.00088   0.00000  -0.05324  -0.05306   3.07983
   D51        1.10001   0.00175   0.00000  -0.01855  -0.01862   1.08139
   D52        1.03672  -0.00034   0.00000  -0.05239  -0.05258   0.98413
   D53       -1.07532  -0.00094   0.00000  -0.05394  -0.05385  -1.12917
   D54       -3.10821   0.00169   0.00000  -0.01925  -0.01941  -3.12762
   D55        3.12537   0.00174   0.00000   0.05737   0.05752  -3.10029
   D56        1.04109  -0.00096   0.00000   0.01598   0.01628   1.05737
   D57       -1.02484   0.00153   0.00000   0.05046   0.05054  -0.97431
   D58       -1.04252   0.00222   0.00000   0.05720   0.05711  -0.98541
   D59       -3.12680  -0.00047   0.00000   0.01581   0.01586  -3.11094
   D60        1.09045   0.00202   0.00000   0.05030   0.05012   1.14057
   D61        0.98695   0.00010   0.00000   0.02829   0.02817   1.01512
   D62       -1.09733  -0.00259   0.00000  -0.01310  -0.01308  -1.11040
   D63        3.11993  -0.00010   0.00000   0.02138   0.02118   3.14111
   D64       -1.04000   0.00029   0.00000  -0.00510  -0.00522  -1.04522
   D65       -3.11984  -0.00038   0.00000  -0.01525  -0.01542  -3.13526
   D66        1.06941  -0.00079   0.00000  -0.02170  -0.02193   1.04748
   D67        1.07926   0.00081   0.00000   0.01497   0.01523   1.09449
   D68       -1.00058   0.00014   0.00000   0.00482   0.00503  -0.99555
   D69       -3.09451  -0.00027   0.00000  -0.00163  -0.00148  -3.09600
   D70        3.11063   0.00050   0.00000   0.00572   0.00574   3.11637
   D71        1.03079  -0.00017   0.00000  -0.00443  -0.00446   1.02633
   D72       -1.06315  -0.00059   0.00000  -0.01088  -0.01097  -1.07412
         Item               Value     Threshold  Converged?
 Maximum Force            0.016637     0.000450     NO 
 RMS     Force            0.003153     0.000300     NO 
 Maximum Displacement     0.571873     0.001800     NO 
 RMS     Displacement     0.158019     0.001200     NO 
 Predicted change in Energy=-4.921458D-03
 GradGradGradGradGradGradGradGradGradGradGradGradGradGradGradGradGradGrad

                          Input orientation:                          
 ---------------------------------------------------------------------
 Center     Atomic      Atomic             Coordinates (Angstroms)
 Number     Number       Type             X           Y           Z
 ---------------------------------------------------------------------
      1          6           0        1.011568   -0.344500    0.005318
      2          6           0        2.537637   -0.163621    0.023450
      3          6           0        2.994380    1.190043   -0.546780
      4          6           0        4.520149    1.391512   -0.521377
      5          6           0        5.059264    2.709379   -1.133197
      6          6           0        4.562523    3.955229   -0.379089
      7          6           0        6.604832    2.643692   -1.205448
      8          6           0        7.310364    3.783207   -1.958995
      9          6           0        8.835184    3.605057   -2.029146
     10          1           0        0.706634   -1.310206    0.422441
     11          1           0        0.620744   -0.285986   -1.016219
     12          1           0        0.518424    0.438838    0.591226
     13          1           0        3.006306   -0.977286   -0.544443
     14          1           0        2.902921   -0.256210    1.053807
     15          1           0        2.498140    1.984173    0.020696
     16          1           0        2.639288    1.278166   -1.582044
     17          1           0        4.975626    0.558354   -1.073058
     18          1           0        4.884025    1.304218    0.511315
     19          1           0        4.689419    2.759918   -2.167209
     20          1           0        4.906286    3.942165    0.661933
     21          1           0        3.471784    4.021852   -0.371473
     22          1           0        4.920245    4.879858   -0.838933
     23          1           0        6.877382    1.700940   -1.698687
     24          1           0        7.007231    2.577636   -0.185304
     25          1           0        7.091267    4.743217   -1.480975
     26          1           0        6.903591    3.842436   -2.976528
     27          1           0        9.270726    3.568584   -1.024861
     28          1           0        9.312664    4.432639   -2.564871
     29          1           0        9.109178    2.676894   -2.542462
 ---------------------------------------------------------------------
                    Distance matrix (angstroms):
                    1          2          3          4          5
     1  C    0.000000
     2  C    1.536858   0.000000
     3  C    2.567329   1.538240   0.000000
     4  C    3.949846   2.577911   1.539222   0.000000
     5  C    5.196753   3.993816   2.629832   1.549756   0.000000
     6  C    5.589698   4.607291   3.183308   2.568013   1.538692
     7  C    6.455994   5.092473   3.947443   2.526226   1.548650
     8  C    7.782757   6.502804   5.229394   3.946169   2.627260
     9  C    8.997055   7.620707   6.491894   5.078649   3.982780
    10  H    1.095246   2.196912   3.524828   4.767910   6.125558
    11  H    1.095311   2.184116   2.834286   4.273666   5.355964
    12  H    1.095490   2.182326   2.826610   4.261370   5.361737
    13  H    2.163709   1.097362   2.167362   2.811308   4.260606
    14  H    2.164334   1.097105   2.159141   2.794927   4.269370
    15  H    2.762761   2.148158   1.094955   2.175686   2.901164
    16  H    2.793248   2.160253   1.098011   2.162290   2.847124
    17  H    4.206161   2.769001   2.145072   1.098164   2.153491
    18  H    4.239130   2.810356   2.168723   1.098399   2.170163
    19  H    5.280519   4.239839   2.821960   2.147080   1.099327
    20  H    5.828848   4.782848   3.562380   2.838161   2.183038
    21  H    5.025899   4.306597   2.877115   2.835530   2.196110
    22  H    6.579091   5.644219   4.172415   3.525547   2.194743
    23  H    6.441679   5.027498   4.082354   2.652990   2.154596
    24  H    6.672570   5.247413   4.261344   2.775863   2.170354
    25  H    8.065772   6.861188   5.502931   4.331905   2.895942
    26  H    7.819065   6.641530   5.312325   4.208990   2.843102
    27  H    9.197129   7.769350   6.728933   5.249869   4.299579
    28  H    9.916407   8.586385   7.382943   6.032622   4.807362
    29  H    9.010621   7.605102   6.601835   5.176503   4.288227
                    6          7          8          9         10
     6  C    0.000000
     7  C    2.563986   0.000000
     8  C    3.174322   1.537563   0.000000
     9  C    4.593576   2.564599   1.536794   0.000000
    10  H    6.575343   7.285059   8.673139   9.810372   0.000000
    11  H    5.825071   6.665443   7.886581   9.145668   1.768092
    12  H    5.446215   6.718169   7.988672   9.276842   1.767219
    13  H    5.174829   5.147601   6.571769   7.561615   2.516783
    14  H    4.748019   5.217069   6.694730   7.720474   2.516586
    15  H    2.882112   4.336280   5.505742   6.854724   3.771448
    16  H    3.508931   4.210942   5.313781   6.633509   3.801681
    17  H    3.491563   2.649619   4.078672   5.009261   4.894111
    18  H    2.814968   2.775364   4.258514   5.230627   4.928864
    19  H    2.154587   2.146463   2.821316   4.233283   6.255779
    20  H    1.096390   2.838698   3.560073   4.774075   6.729177
    21  H    1.092798   3.522901   4.160753   5.629179   6.058646
    22  H    1.092868   2.823580   2.858295   4.285845   7.593581
    23  H    3.490234   1.098340   2.142678   2.750973   7.186398
    24  H    2.812813   1.098627   2.165934   2.792267   7.428472
    25  H    2.868732   2.172680   1.094589   2.153403   9.001692
    26  H    3.498573   2.159391   1.097427   2.164470   8.746713
    27  H    4.767986   2.827547   2.182130   1.095269   9.961975
    28  H    5.250658   3.518624   2.190447   1.095391  10.768847
    29  H    5.194843   2.839094   2.190912   1.095470   9.761678
                   11         12         13         14         15
    11  H    0.000000
    12  H    1.766273   0.000000
    13  H    2.528117   3.079726   0.000000
    14  H    3.081270   2.526440   1.756429   0.000000
    15  H    3.123047   2.575430   3.057425   2.500096   0.000000
    16  H    2.615578   3.150498   2.509658   3.061294   1.757027
    17  H    4.436342   4.759283   2.552614   3.079476   3.060587
    18  H    4.799757   4.451263   3.137788   2.579536   2.528931
    19  H    5.211183   5.513038   4.408280   4.760625   3.192243
    20  H    6.249745   5.615304   5.409830   4.668338   3.169241
    21  H    5.205919   4.742058   5.023740   4.544979   2.292142
    22  H    6.723323   6.414363   6.168956   5.833631   3.871763
    23  H    6.599936   6.875533   4.846690   5.215650   4.713201
    24  H    7.048259   6.876197   5.364126   5.139206   4.552641
    25  H    8.208322   8.125514   7.091413   6.997259   5.564545
    26  H    7.769224   8.067448   6.658347   7.003418   5.643093
    27  H    9.469950   9.434503   7.754913   7.713549   7.033596
    28  H   10.010655  10.161204   8.550998   8.727253   7.688816
    29  H    9.119297   9.414348   7.388515   7.749443   7.124287
                   16         17         18         19         20
    16  H    0.000000
    17  H    2.497132   0.000000
    18  H    3.069475   1.753552   0.000000
    19  H    2.596352   2.475069   3.054739   0.000000
    20  H    4.155911   3.803312   2.642337   3.073888   0.000000
    21  H    3.112289   3.840518   3.187361   2.509936   1.769766
    22  H    4.327489   4.328196   3.822262   2.512318   1.769763
    23  H    4.260726   2.305123   3.002495   2.475506   3.805370
    24  H    4.766386   2.998838   2.571940   3.055066   2.644565
    25  H    5.642421   4.706954   4.546191   3.189556   3.163524
    26  H    5.167625   4.257399   4.763009   2.594109   4.151816
    27  H    7.037928   5.245159   5.170139   4.790331   4.693951
    28  H    7.446516   6.003790   6.234003   4.932598   5.483521
    29  H    6.688671   4.871716   5.390892   4.436437   5.434461
                   21         22         23         24         25
    21  H    0.000000
    22  H    1.747207   0.000000
    23  H    4.329691   3.830807   0.000000
    24  H    3.823585   3.175369   1.753791   0.000000
    25  H    3.853832   2.268089   3.057547   2.524988   0.000000
    26  H    4.312285   3.095032   2.493906   3.066169   1.755936
    27  H    5.853212   4.547603   3.109699   2.609644   2.517507
    28  H    6.252649   4.740487   3.760725   3.797157   2.491164
    29  H    6.188886   5.030132   2.577858   3.159783   3.077078
                   26         27         28         29
    26  H    0.000000
    27  H    3.080150   0.000000
    28  H    2.514246   1.766347   0.000000
    29  H    2.532097   1.767575   1.767640   0.000000
 Stoichiometry    C9H20
 Framework group  C1[X(C9H20)]
 Deg. of freedom    81
 Full point group                 C1      NOp   1
 Largest Abelian subgroup         C1      NOp   1
 Largest concise Abelian subgroup C1      NOp   1
                         Standard orientation:                         
 ---------------------------------------------------------------------
[...]
 191,-0.00136987,-0.00007932,0.00002967,-0.00019683,0.00000421,0.001155
 17,-0.00015235,-0.00057819,0.00009821,-0.00021360,0.00013787,-0.000801
 59,0.00188607,0.00110013,0.00016487,-0.00004892,-0.00024852,0.07382742
 ,-0.00000030,0.00002002,-0.00001173,0.00005923,-0.00002539,0.00001334,
 0.00006034,0.00047722,0.00022269,-0.00171945,0.00039497,0.00062490,0.0
 0074862,-0.00329286,-0.00150057,0.00059211,0.00094711,0.00091428,0.057
 46429,-0.23330414,-0.09076795,0.00483167,-0.02545063,-0.01025226,0.001
 45892,0.00083913,-0.00085500,0.00001170,0.00000319,-0.00000299,0.00000
 194,-0.00000359,0.00000134,-0.00000470,0.00000091,0.00000410,0.0000018
 6,0.00002870,0.00000605,-0.00000086,0.00000092,-0.00000271,-0.00023705
 ,0.00002242,0.00006751,0.00003088,-0.00002691,-0.00000903,-0.00027890,
 0.00085626,-0.00002032,0.00003095,0.00000451,0.00007898,0.00029067,0.0
 0011205,0.00032692,-0.00010742,0.00006833,0.00001172,-0.00003480,-0.00
 023589,-0.00019588,-0.00018034,0.00014426,0.00001385,-0.05996498,0.259
 64867,0.00000303,0.00001912,0.00000077,0.00005353,-0.00001975,-0.00001
 123,-0.00002333,0.00038872,0.00005678,0.00009783,-0.00082906,-0.000191
 38,-0.00047150,-0.00015392,-0.00103550,0.00094587,0.00016699,0.0005862
 7,0.02613644,-0.09036148,-0.09219614,-0.00334266,0.01703112,0.00689669
 ,-0.00083917,0.00007514,0.00060406,0.00000576,-0.00000016,-0.00000037,
 -0.00000487,-0.00000141,-0.00000264,-0.00001090,0.00000142,0.00000169,
 0.00001003,0.00003440,0.00001658,0.00000523,0.00000076,-0.00001210,-0.
 00017294,-0.00000537,0.00001354,-0.00004651,-0.00000434,-0.00003818,0.
 00037562,0.00061445,0.00026644,0.00005873,-0.00009188,-0.00003293,0.00
 041306,0.00032808,0.00045444,-0.00020722,0.00033298,0.00046886,0.00019
 745,-0.00038670,0.00026852,0.00004258,-0.00006580,-0.00003446,-0.03210
 495,0.09708984,0.09693783,0.00001135,-0.00000726,-0.00000004,-0.000008
 89,0.00003094,0.00009020,-0.00013171,-0.00005317,0.00023313,0.00125067
 ,0.00113600,-0.00133772,-0.01513866,-0.00042265,-0.03199979,0.00185110
 ,-0.00099066,-0.00130751,-0.07884919,-0.00035234,-0.08213515,0.0038112
 2,-0.00000025,0.01333601,0.00134362,0.00031646,0.00076413,-0.00000999,
 -0.00000656,-0.00000007,0.00000618,0.00000653,0.00000101,-0.00000332,0
 .00000412,-0.00000010,0.00000058,-0.00000137,-0.00000552,-0.00001973,-
 0.00004955,0.00003832,-0.00001538,0.00000624,0.00001040,0.00025668,0.0
 0001563,0.00021318,-0.00005117,-0.00009834,0.00011002,-0.00006130,-0.0
 0048019,0.00091676,-0.00664626,0.00020753,0.00036139,0.00004754,0.0004
 6323,0.00104762,0.00033456,-0.00029104,0.00036138,-0.00008633,0.000140
 22,0.00008055,0.00284004,-0.00002964,0.00791787,0.08972173,0.00000089,
 -0.00000215,0.00001142,-0.00001106,-0.00000215,-0.00003446,-0.00003295
 ,-0.00005659,0.00008400,-0.00004273,0.00015710,-0.00065756,0.00102405,
 -0.00063827,0.00169124,0.00009751,0.00012873,0.00115081,-0.00065804,-0
 .04787795,-0.00370326,0.00838447,-0.00122956,0.02584856,0.00118612,0.0
 0052605,-0.00038608,-0.00000344,-0.00000130,-0.00000083,0.00000590,-0.
 00000032,0.00000061,0.00000140,-0.00000014,-0.00000070,-0.00000165,-0.
 00000053,-0.00000323,-0.00000472,0.00000012,0.00001998,0.00002359,-0.0
 0000476,-0.00000117,0.00002559,-0.00004859,0.00005365,-0.00000096,0.00
 007345,-0.00014202,-0.00028046,0.00018751,0.00021927,0.00040883,0.0005
 3822,0.00049526,0.00005701,0.00018009,-0.00020044,-0.00014553,-0.00001
 584,-0.00012581,0.00004521,0.00000818,0.00006541,-0.01045189,-0.000490
 73,-0.02652904,0.00240463,0.05047448,-0.00000196,-0.00002961,0.0000121
 4,-0.00009064,0.00001894,-0.00003696,0.00001758,-0.00015109,0.00044588
 ,0.00017108,0.00000315,0.00014882,-0.00019084,-0.00003659,-0.00077613,
 0.00044424,-0.00002773,0.00080445,-0.08197556,-0.00304796,-0.25979465,
 -0.00612048,0.00029969,-0.01799629,-0.00100953,-0.00052884,0.00029364,
 -0.00001577,-0.00000859,0.00000009,0.00000604,0.00000106,0.00000377,-0
 .00000066,0.00000349,-0.00000025,0.00000028,0.00000257,-0.00000669,-0.
 00001145,-0.00000568,0.00002011,-0.00002391,-0.00000247,0.00000482,0.0
 0020460,0.00006961,-0.00004720,-0.00006314,0.00006876,-0.00001539,-0.0
 0022223,-0.00039547,0.00050733,0.00019606,0.00005323,0.00126715,-0.000
 41970,0.00055993,0.00045938,0.00000115,0.00005948,0.00031040,0.0000135
 1,-0.00004542,-0.00001307,-0.00482974,-0.00037026,-0.01316415,0.090797
 18,-0.00001362,0.28611171,-0.00000081,0.00000366,-0.00000329,0.0000112
 8,0.00000983,0.00001037,-0.00004086,0.00008129,0.00002105,-0.00000315,
 -0.00001016,0.00012876,0.00061928,-0.00001234,-0.00075131,-0.00080675,
 -0.00047864,0.00067035,0.00260483,-0.01272255,-0.00659188,-0.05491263,
 0.04241346,0.01956402,-0.00949727,0.03046789,0.01582970,0.00000172,0.0
 0000014,0.00000006,0.00000048,-0.00000076,-0.00000029,-0.00000119,-0.0
 0000043,0.00000153,0.00000331,0.00000910,-0.00000076,-0.00000033,-0.00
 000096,-0.00000173,-0.00006054,-0.00001889,0.00000949,0.00000033,-0.00
 000255,-0.00000273,0.00001081,0.00019675,0.00001522,0.00000844,-0.0000
 0142,0.00001061,-0.00006894,-0.00002556,0.00004375,0.00001297,0.000075
 32,-0.00002634,0.00008086,0.00015268,-0.00011249,-0.00177185,0.0002477
 1,0.00067121,-0.00093834,-0.00223640,0.00179956,0.00039052,0.00081860,
 -0.00001031,0.06591487,0.00000677,-0.00001950,0.00000544,-0.00004776,0
 .00002722,0.00000660,0.00005082,0.00001882,0.00004632,-0.00026289,-0.0
 0010517,0.00001838,0.00115127,-0.00033825,-0.00043421,0.00052950,-0.00
 068917,0.00015282,0.00405921,-0.02354672,-0.01069020,0.04237042,-0.243
 31572,-0.09644154,0.00088981,-0.00307308,-0.00160290,-0.00001076,-0.00
 000474,0.00000075,-0.00000104,-0.00000043,-0.00000161,-0.00000962,0.00
 000407,0.00000510,0.00000678,0.00003181,0.00000239,0.00000301,-0.00000
 211,-0.00000200,-0.00013580,0.00003650,0.00005446,-0.00000812,-0.00000
 506,-0.00000546,-0.00002731,0.00036071,0.00006845,0.00002071,-0.000019
 77,0.00001714,-0.00011291,0.00005324,0.00005514,-0.00003499,0.00002021
 ,0.00004185,0.00016551,0.00060766,-0.00009198,0.00002996,0.00129536,-0
 .00045636,-0.00236219,-0.00285389,0.00337074,0.00038345,0.00117237,0.0
 0021855,-0.04730391,0.26773092,-0.00000031,-0.00000641,-0.00000046,-0.
 00002786,-0.00000309,0.00000487,0.00005620,-0.00012853,-0.00005605,-0.
 00012513,0.00009455,0.00005618,-0.00024288,-0.00066495,0.00028383,0.00
 063696,-0.00039086,0.00009506,-0.00380438,0.01695602,0.00771403,0.0196
 7342,-0.09738373,-0.09747870,0.00060570,-0.00180375,-0.00128348,-0.000
 00108,0.00000224,-0.00000018,0.00000108,-0.00000079,0.00000023,-0.0000
 0080,0.00000043,0.00000218,-0.00000255,0.00000397,-0.00000313,0.000000
 24,0.00000150,0.00000012,0.00002968,0.00002662,0.00001721,0.00000501,0
 .00000119,0.00000458,-0.00002359,-0.00010570,-0.00003510,-0.00001119,0
 .00000040,-0.00000380,0.00011233,-0.00003883,0.00005763,0.00001825,0.0
 0007742,-0.00019750,-0.00001863,0.00012404,-0.00011094,0.00069648,0.00
 034512,-0.00007494,0.00181678,0.00361228,-0.00083247,-0.00064686,-0.00
 055848,0.00112529,-0.02557635,0.10524164,0.10259650,-0.00000121,0.0000
 0772,-0.00000342,0.00001967,-0.00000272,-0.00000343,0.00000671,0.00004
 667,-0.00007245,0.00015125,-0.00012279,0.00014359,0.00145171,0.0002383
 6,0.00111174,-0.00002729,0.00006220,-0.00003255,0.00430178,-0.00063143
 ,0.01369600,-0.08475219,0.00259055,-0.08986990,-0.01604552,0.00033151,
 -0.03142062,0.00000269,-0.00000042,0.00000037,0.00000104,-0.00000085,0
 .00000114,-0.00000058,0.00000035,0.00000072,-0.00000155,0.00000337,0.0
 0000059,0.00000239,0.00000287,-0.00000039,-0.00000464,0.00000176,0.000
 00092,-0.00002774,-0.00000521,-0.00001047,0.00000160,0.00001787,-0.000
 00406,-0.00011175,-0.00000730,-0.00011526,-0.00000267,-0.00005021,-0.0
 0037230,0.00004295,-0.00002902,-0.00010330,-0.00002825,0.00002658,-0.0
 0002514,0.00003097,0.00005437,-0.00002454,0.00022790,0.00044113,-0.000
 61032,-0.00086879,-0.00240726,0.00182185,0.00229214,-0.00041632,0.0058
 6146,0.09720847,0.00000262,0.00000029,0.00000170,0.00001279,0.00001013
 ,0.00000361,-0.00000744,0.00002176,-0.00009321,0.00012297,-0.00007649,
 -0.00006851,0.00132557,0.00087682,-0.00004451,0.00000174,0.00000386,0.
 00000801,0.00880383,-0.00148643,0.02497974,0.00222593,-0.04957043,0.00
 263185,0.00197854,-0.00037291,0.00375867,-0.00000120,-0.00000137,0.000
 00115,-0.00000281,0.00000119,-0.00000107,0.00000021,-0.00000053,-0.000
 00149,0.00000202,-0.00000471,0.00000155,0.00000353,0.00000026,-0.00000
 533,-0.00000167,0.00000291,-0.00000253,-0.00004738,-0.00000379,-0.0000
 0540,0.00003195,-0.00004597,0.00002685,0.00001120,0.00006203,-0.000196
 76,-0.00051892,0.00013911,-0.00049629,0.00001118,-0.00013173,-0.000014
 64,0.00001900,0.00008970,0.00000448,-0.00011267,0.00000213,-0.00008829
 ,0.00067076,0.00094125,-0.00053328,-0.00227287,-0.00327990,0.00317082,
 -0.01172053,0.00046451,-0.02649783,-0.00093754,0.05122263,-0.00000748,
 0.00001299,-0.00001330,0.00002248,-0.00001628,0.00001156,0.00001885,0.
 00004933,-0.00002098,0.00027891,0.00005031,0.00043073,-0.00161198,-0.0
 0050166,0.00003565,0.00040969,-0.00002514,0.00004654,-0.00592344,0.001
 07043,-0.01853322,-0.09044445,0.00306117,-0.25737046,0.00163276,-0.000
 19417,0.00308188,0.00000803,0.00000273,-0.00000016,0.00000535,0.000000
 28,0.00000638,0.00000076,-0.00000048,-0.00000010,-0.00000338,0.0000014
 6,-0.00000422,-0.00000252,-0.00000473,0.00001006,0.00001188,-0.0000015
 8,0.00000184,0.00005555,0.00001964,0.00002715,-0.00002943,-0.00002783,
 -0.00004070,-0.00011378,-0.00020704,0.00021267,0.00119536,0.00012553,0
 .00061191,-0.00013682,0.00001966,0.00023274,0.00010663,-0.00001051,-0.
 00003019,-0.00006921,-0.00007198,-0.00024098,-0.00000108,0.00024082,0.
 00097319,0.00172228,0.00344819,-0.00052831,-0.00561584,-0.00010367,-0.
 01358550,0.09851038,-0.00704728,0.28204861,0.00000014,-0.00000192,-0.0
 0000065,-0.00000085,0.00000501,-0.00000650,0.00001072,0.00001119,-0.00
 000547,0.00001860,0.00000752,0.00009287,-0.00009617,0.00010827,0.00020
 594,0.00003461,0.00006234,-0.00004171,0.00177228,0.00078401,-0.0017392
 9,-0.01545240,-0.00015746,-0.03154390,-0.09099191,0.00047070,-0.097211
 38,-0.00000213,-0.00000230,0.00000078,0.00000154,0.00000091,0.00000198
 ,-0.00000019,0.00000069,-0.00000071,-0.00000034,-0.00000138,-0.0000011
 9,0.00000005,-0.00000186,0.00000536,0.00000054,-0.00000085,-0.00000115
 ,0.00000927,0.00000378,0.00000540,-0.00000250,-0.00000361,-0.00000725,
 -0.00002449,-0.00004328,0.00004638,0.00030598,0.00001681,0.00021153,-0
 .00003345,-0.00000953,0.00007521,0.00000080,-0.00002199,0.00002726,0.0
 0001240,-0.00007972,-0.00005976,-0.00004027,-0.00013423,0.00012130,-0.
 00008137,-0.00046221,0.00109366,0.00158782,0.00014984,0.00027675,-0.00
 675668,0.00082490,0.00111382,0.10198836,-0.00000218,0.00000520,-0.0000
 0179,0.00000458,-0.00000694,0.00000030,-0.00000731,0.00000500,0.000005
 18,-0.00000087,-0.00001310,-0.00002156,-0.00006378,-0.00005501,0.00007
 402,0.00000771,0.00001863,0.00000374,-0.00026264,0.00004879,-0.0007594
 5,0.00210408,-0.00074550,0.00424784,0.00045116,-0.04768827,0.00128164,
 0.00000327,0.00000260,-0.00000097,0.00000127,-0.00000101,0.00000163,0.
 00000113,-0.00000163,-0.00000029,-0.00000057,0.,-0.00000134,-0.0000007
 8,0.00000113,0.00000194,0.00000642,-0.00000220,-0.00000179,0.00000657,
 -0.00000068,0.00000224,-0.00000486,-0.00000442,-0.00000663,-0.00000307
 ,0.00000754,0.00001506,0.00000461,-0.00004608,0.00003447,0.00000351,0.
 00001161,-0.00001691,0.00000102,-0.00001820,-0.00001132,0.00000724,-0.
 00001215,0.00002498,-0.00002800,0.00002021,-0.00012961,-0.00010338,0.0
 0026599,0.00007072,-0.00022261,0.00009558,0.00054795,0.00103891,0.0008
 3052,-0.00006303,-0.00168094,0.04652073,0.00000153,-0.00000894,0.00000
 407,-0.00001485,0.00001176,-0.00001293,0.00000474,-0.00003356,0.000013
 48,-0.00009096,0.00002327,-0.00002031,0.00011181,-0.00010786,0.0003924
 4,-0.00003518,0.00001909,-0.00004514,0.00031249,-0.00005581,0.00073999
 ,0.00111503,0.00032291,0.00275595,-0.09800954,0.00134105,-0.26118916,-
 0.00000656,-0.00000549,0.00000120,0.00000189,0.00000118,0.00000044,-0.
 00000050,0.00000231,-0.00000027,-0.00000098,-0.00000088,-0.00000154,0.
 00000023,-0.00000116,0.00000653,-0.00000127,0.00000224,0.00000089,0.00
 000188,-0.00000180,0.00000255,0.00000204,0.00000371,-0.00000895,-0.000
 00873,0.00000286,0.00001269,0.00016087,0.00004817,-0.00008955,-0.00000
 428,-0.00001100,0.00002481,-0.00001747,0.00000022,0.00002029,0.0000173
 8,-0.00004071,-0.00001084,-0.00005811,0.00000750,-0.00005784,-0.000392
 05,-0.00040213,0.00035159,-0.00054537,0.00033269,0.00064033,0.00098493
 ,0.00031760,0.00155030,0.10843430,-0.00174270,0.28325170,0.00001345,-0
 .00006090,0.00002767,-0.00012146,0.00007641,-0.00004142,0.00007602,-0.
 00028574,0.00015896,-0.00077708,0.00031081,-0.00012889,0.00019363,-0.0
 0183056,0.00136907,-0.00001827,-0.00021991,-0.00007893,-0.00679136,0.0
 0304134,-0.00097890,-0.01278376,-0.02609949,0.01813402,-0.08785067,-0.
 07803194,0.05481174,-0.00003553,-0.00001920,0.00000466,-0.00000286,0.0
 0000469,-0.00000730,-0.00000235,0.00000736,0.00000029,0.00000417,-0.00
 000909,-0.00000371,0.00000164,-0.00000229,0.00000783,-0.00001510,0.000
 01640,0.00001026,-0.00000444,0.00000035,-0.00001776,0.00002616,0.00000
 399,-0.00003024,0.00001008,0.00000548,0.00003637,0.00001985,0.00000052
 ,-0.00010231,0.00000623,0.00001876,0.00002765,-0.00006227,0.00009134,0
 .00003680,0.00003053,0.00006578,-0.00001525,0.00012181,0.00009004,-0.0
 0032050,0.00013687,0.00018536,0.00019933,0.00140549,0.00041710,0.00011
 865,0.00128397,-0.00016867,-0.00067492,0.00528716,0.01101766,-0.006573
 21,0.09753987,0.00000619,-0.00000704,0.00000566,-0.00000189,0.00001435
 ,-0.00000910,0.00002719,-0.00000024,0.00000834,0.00006914,0.00001872,-
 0.00002203,0.00041988,0.00041414,0.00011935,-0.00016720,-0.00000376,-0
 .00000990,0.00043525,0.00031143,-0.00025119,0.00299395,0.00387080,-0.0
 0377744,-0.07916442,-0.19467600,0.10372608,-0.00000753,-0.00000677,0.0
 0000196,-0.00000177,0.00000153,-0.00000356,-0.00000229,0.00000317,0.00
 000042,0.00000019,-0.00000033,0.00000226,-0.00000020,-0.00000197,-0.00
 000011,-0.00000712,0.00000416,0.00000028,-0.00000413,-0.00000043,-0.00
 000409,0.00001146,0.00000820,0.00000862,-0.00000219,-0.00000561,0.0000
 0165,-0.00003355,-0.00000158,-0.00001814,0.00000830,-0.00000344,0.0000
 0439,-0.00004036,0.00003443,0.00003223,0.00002115,-0.00002171,-0.00000
 271,0.00019210,0.00055798,0.00002570,0.00005678,-0.00007156,0.00004827
 ,-0.00053892,0.00073237,-0.00005199,-0.00055386,0.00009156,-0.00019370
 ,0.00087568,0.00007899,-0.00090110,0.08621815,0.20901557,-0.00000571,0
 .00001560,-0.00000604,0.00002361,-0.00002352,0.00000685,-0.00002354,0.
 00005638,-0.00003613,0.00010887,-0.00007833,0.00002635,-0.00023599,0.0
 0041371,0.00031528,-0.00002540,0.00004590,-0.00000622,0.00080525,-0.00
 064642,0.00060322,-0.00017155,0.00048220,-0.00167181,0.05550777,0.1035
 7282,-0.11997929,0.00001041,0.00000722,-0.00000211,0.00000132,-0.00000
 183,0.00000283,0.00000141,-0.00000329,-0.00000070,-0.00000044,0.000002
 31,0.00000004,-0.00000011,0.00000227,-0.00000118,0.00000715,-0.0000043
 4,-0.00000341,0.00000027,-0.00000088,0.00000288,-0.00000283,-0.0000008
 0,0.00000177,-0.00000562,0.00001011,-0.00000500,0.00011293,-0.00000425
 ,0.00000657,-0.00001184,-0.00000351,-0.00000646,0.00001291,-0.00001300
 ,-0.00000463,-0.00001152,-0.00000683,0.00001253,-0.00004119,0.00028281
 ,-0.00001533,-0.00021721,-0.00025470,0.00051316,0.00011132,-0.00006011
 ,-0.00015964,0.00023398,-0.00040407,0.00053629,0.01217674,0.02267420,-
 0.01513045,-0.06143122,-0.11427381,0.12669020,0.00000093,-0.00000169,0
 .00000179,0.00000267,0.00000495,-0.00000444,-0.00000866,-0.00000220,0.
 00000896,0.00000893,-0.00001313,-0.00000450,0.00001974,-0.00001511,-0.
 00028523,-0.00005687,0.00026710,-0.00007877,0.00179431,0.00197793,-0.0
 0034772,-0.00869356,0.02982089,0.01647014,-0.05858919,0.04779226,0.025
 39806,-0.00000189,-0.00000156,0.00000058,-0.00000107,0.00000126,-0.000
 00016,0.00000252,-0.00000086,-0.00000239,0.00000008,-0.00001134,-0.000
 00063,-0.00000003,-0.00000042,0.00000044,0.00002539,-0.00000768,-0.000
 01516,-0.00000267,0.00000331,-0.00000085,-0.00001352,-0.00006646,0.000
 00074,-0.00000152,-0.00000022,-0.00000613,-0.00001011,0.00002317,-0.00
 000921,0.00000255,-0.00002064,0.00001783,-0.00004444,-0.00016575,0.000
 05109,0.00009263,-0.00031115,0.00005493,0.00000430,-0.00118526,-0.0000
 2902,-0.00003057,-0.00016627,0.00001936,-0.00684251,0.00049948,0.00057
 265,0.00160362,-0.00025703,-0.00045841,0.00245249,-0.01227817,-0.00539
 006,0.00230820,-0.01080997,-0.00692978,0.06597825,-0.00000395,0.000012
 29,-0.00000657,0.00001892,-0.00002007,0.00000713,-0.00001103,0.0000339
 5,-0.00003298,0.00008521,-0.00004926,0.00000549,0.00005428,0.00030710,
 0.00004121,-0.00015098,-0.00008846,0.00006191,-0.00064039,0.00080734,0
 .00055188,0.00126639,-0.00386770,-0.00135060,0.04859597,-0.23949365,-0
 .10182712,0.00000885,0.00000653,-0.00000226,0.00000148,-0.00000245,0.0
 0000242,-0.00000142,-0.00000111,0.00000168,-0.00000098,0.00000751,0.00
 000123,0.00000076,0.00000061,0.00000008,-0.00000240,0.00000258,0.00000
 484,0.00000514,-0.00000201,0.00000561,-0.00000142,0.00001493,0.0000047
 3,0.00000082,0.00000223,-0.00000458,0.00001867,-0.00001773,0.00000573,
 0.00000481,0.00000996,-0.00000400,-0.00000095,0.00003658,0.00001886,-0
 .00001867,0.00005626,-0.00002674,0.00030200,0.00059595,-0.00036764,-0.
 00001249,0.00000803,0.00001507,0.00082021,0.00132227,0.00059958,0.0003
 0072,0.00021364,0.00036654,-0.00072040,0.00068269,0.00087659,0.0051562
 6,-0.02035695,-0.01178582,-0.05507541,0.25977894,0.00000098,0.00000077
 ,0.00000155,0.00000437,-0.00000346,-0.00000147,0.00000302,0.00001989,0
 .00000264,0.00003909,-0.00003274,-0.00002497,0.00007911,0.00027192,0.0
 0011049,-0.00011430,-0.00003229,-0.00001767,-0.00031104,-0.00084140,-0
 .00018454,0.00030735,-0.00115700,-0.00125062,0.02585617,-0.10174146,-0
 .10170827,0.00000044,0.00000025,-0.00000050,-0.00000119,-0.00000034,-0
 .00000153,-0.00000249,0.00000116,0.00000087,0.00000087,0.00000511,0.00
 000339,0.00000102,-0.00000032,-0.00000224,-0.00001433,0.00000316,0.000
 00278,-0.00000402,-0.00000147,-0.00000336,0.00001056,0.00003694,0.0000
 1539,0.00000295,0.00000037,-0.00000789,-0.00002813,0.00000177,-0.00003
 242,0.00000046,-0.00000496,0.00000606,-0.00000743,0.00004222,0.0000203
 6,-0.00001000,0.00004807,-0.00000747,0.00033696,0.00046976,0.00007906,
 0.00004061,-0.00007486,-0.00000064,0.00035169,0.00025159,0.00122383,0.
 00030049,0.00059446,0.00055062,0.00672966,-0.02622853,-0.01320229,-0.0
 0453876,0.01553367,0.00831043,-0.02903408,0.11283774,0.10611841\\0.000
 00411,-0.00000003,-0.00000202,-0.00000271,0.00000175,-0.00000066,-0.00
 000166,-0.00000322,-0.00000035,-0.00000052,0.00000472,0.00000202,0.000
 00284,-0.00000706,-0.00000113,-0.00000153,0.00000542,0.00000475,-0.000
 00321,0.00000250,0.00000367,0.00000234,0.00000151,-0.00000308,-0.00000
 120,0.00000085,0.00000058,0.00000015,-0.00000010,0.00000046,-0.0000008
 6,-0.00000050,0.00000023,-0.00000137,0.00000027,0.00000022,0.00000126,
 -0.00000072,0.00000004,-0.00000021,-0.00000105,0.00000104,0.00000075,-
 0.00000187,0.00000048,0.00000047,0.00000050,-0.00000100,-0.00000035,-0
 .00000298,-0.00000113,0.00000065,-0.00000108,-0.00000298,0.00000228,0.
 00000010,0.00000573,0.00000131,-0.00000396,-0.00000308,-0.00000118,0.0
 0000330,0.00000024,-0.00000307,0.00000264,0.00000018,0.00000204,-0.000
 00128,-0.00000150,-0.00000151,-0.00000128,-0.00000253,0.00000185,-0.00
 000147,0.00000052,-0.00000106,0.00000052,-0.00000016,0.00000081,0.0000
 0085,0.,-0.00000043,0.00000092,-0.00000068,0.00000002,0.00000076,0.000
 00013\\\@


 The chemist is a guest at the physicist's table and
 frequently dines well.
                   -- Richard Bersohn
 Job cpu time:       0 days  2 hours 38 minutes 33.4 seconds.
 Elapsed time:       0 days  0 hours 39 minutes 39.0 seconds.
 File lengths (MBytes):  RWF=    254 Int=      0 D2E=      0 Chk=     11 Scr=      1
 Normal termination of Gaussian 16 at Sun May 28 06:44:24 2023.
### All Done ###
