### Starting Gaussian ###
 Entering Gaussian System, Link 0=g16
 Initial command:
 /cluster/software/gaussian/gaussian-16-A.03/avx2/g16/l1.exe "/local/scratch/linjian/Gau-13090.inp" -scrdir="/local/scratch/linjian/"
 Entering Link 1 = /cluster/software/gaussian/gaussian-16-A.03/avx2/g16/l1.exe PID=     13091.
  
 Copyright (c) 1988,1990,1992,1993,1995,1998,2003,2009,2016,
            Gaussian, Inc.  All Rights Reserved.
  
 This is part of the Gaussian(R) 16 program.  It is based on
 the Gaussian(R) 09 system (copyright 2009, Gaussian, Inc.),
 the Gaussian(R) 03 system (copyright 2003, Gaussian, Inc.),
 the Gaussian(R) 98 system (copyright 1998, Gaussian, Inc.),
 the Gaussian(R) 94 system (copyright 1995, Gaussian, Inc.),
 the Gaussian 92(TM) system (copyright 1992, Gaussian, Inc.),
 the Gaussian 90(TM) system (copyright 1990, Gaussian, Inc.),
 the Gaussian 88(TM) system (copyright 1988, Gaussian, Inc.),
 the Gaussian 86(TM) system (copyright 1986, Carnegie Mellon
 University), and the Gaussian 82(TM) system (copyright 1983,
 Carnegie Mellon University). Gaussian is a federally registered
 trademark of Gaussian, Inc.
  
 This software contains proprietary and confidential information,
 including trade secrets, belonging to Gaussian, Inc.
  
 This software is provided under written license and may be
 used, copied, transmitted, or stored only in accord with that
 written license.
  
 The following legend is applicable only to US Government
 contracts under FAR:
  
                    RESTRICTED RIGHTS LEGEND
  
 Use, reproduction and disclosure by the US Government is
 subject to restrictions as set forth in subparagraphs (a)
 and (c) of the Commercial Computer Software - Restricted
 Rights clause in FAR 52.227-19.
  
 Gaussian, Inc.
 340 Quinnipiac St., Bldg. 40, Wallingford CT 06492
  
  
 ---------------------------------------------------------------
 Warning -- This program may not be used in any manner that
 competes with the business of Gaussian, Inc. or will provide
 assistance to any competitor of Gaussian, Inc.  The licensee
 of this program is prohibited from giving any competitor of
 Gaussian, Inc. access to this program.  By using this program,
 the user acknowledges that Gaussian, Inc. is engaged in the
 business of creating and licensing software in the field of
 computational chemistry and represents and warrants to the
 licensee that it is not a competitor of Gaussian, Inc. and that
 it will not use this program in any manner prohibited above.
 ---------------------------------------------------------------
  

 Cite this work as:
 Gaussian 16, Revision A.03,
 M. J. Frisch, G. W. Trucks, H. B. Schlegel, G. E. Scuseria, 
 M. A. Robb, J. R. Cheeseman, G. Scalmani, V. Barone, 
 G. A. Petersson, H. Nakatsuji, X. Li, M. Caricato, A. V. Marenich, 
 J. Bloino, B. G. Janesko, R. Gomperts, B. Mennucci, H. P. Hratchian, 
 J. V. Ortiz, A. F. Izmaylov, J. L. Sonnenberg, D. Williams-Young, 
 F. Ding, F. Lipparini, F. Egidi, J. Goings, B. Peng, A. Petrone, 
 T. Henderson, D. Ranasinghe, V. G. Zakrzewski, J. Gao, N. Rega, 
 G. Zheng, W. Liang, M. Hada, M. Ehara, K. Toyota, R. Fukuda, 
 J. Hasegawa, M. Ishida, T. Nakajima, Y. Honda, O. Kitao, H. Nakai, 
 T. Vreven, K. Throssell, J. A. Montgomery, Jr., J. E. Peralta, 
 F. Ogliaro, M. J. Bearpark, J. J. Heyd, E. N. Brothers, K. N. Kudin, 
 V. N. Staroverov, T. A. Keith, R. Kobayashi, J. Normand, 
 K. Raghavachari, A. P. Rendell, J. C. Burant, S. S. Iyengar, 
 J. Tomasi, M. Cossi, J. M. Millam, M. Klene, C. Adamo, R. Cammi, 
 J. W. Ochterski, R. L. Martin, K. Morokuma, O. Farkas, 
 J. B. Foresman, and D. J. Fox, Gaussian, Inc., Wallingford CT, 2016.
 
 ******************************************
 Gaussian 16:  ES64L-G16RevA.03 25-Dec-2016
                28-May-2023 
 ******************************************
 %chk=CCCCC12CCqC1rC2.chk
 %NProcShared=20
 Will use up to   20 processors via shared memory.
 -----------------------------
 # opt freq b3lyp/6-31g(2df,p)
 -----------------------------
 1/18=20,19=15,26=3,38=1/1,3;
 2/9=110,12=2,17=6,18=5,40=1/2;
 3/5=1,6=6,7=104,11=2,25=1,30=1,71=1,74=-5/1,2,3;
 4//1;
 5/5=2,38=5/2;
 6/7=2,8=2,9=2,10=2,28=1/1;
 7//1,2,3,16;
 1/18=20,19=15,26=3/3(2);
 2/9=110/2;
 99//99;
 2/9=110/2;
 3/5=1,6=6,7=104,11=2,25=1,30=1,71=1,74=-5/1,2,3;
 4/5=5,16=3,69=1/1;
 5/5=2,38=5/2;
 7//1,2,3,16;
 1/18=20,19=15,26=3/3(-5);
 2/9=110/2;
 6/7=2,8=2,9=2,10=2,19=2,28=1/1;
 99/9=1/99;
 -------------------
 Title Card Required
 -------------------
 Symbolic Z-matrix:
 Charge =  0 Multiplicity = 1
 C                     0.91561  -0.11768   0.06073 
 C                     2.42615   0.03487   0.16006 
 C                     2.76169   1.38678   0.799 
 C                     4.18047   1.8341    0.56513 
 C                     5.70142   1.57835   0.3589 
 C                     5.38429   3.2325   -0.29106 
 C                     4.8685    3.13256   1.21388 
 C                     4.09832   3.97615   2.17522 
 C                     6.07505   2.19891   1.71756 
 H                     0.63519  -1.09736  -0.33002 
 H                     0.49015   0.64514  -0.6006 
 H                     0.46039   0.00661   1.0524 
 H                     2.84738  -0.05597  -0.86101 
 H                     2.86336  -0.77436   0.74597 
 H                     2.47814   1.40078   1.86418 
 H                     2.12043   2.13766   0.30625 
 H                     3.94177   1.79881  -0.53048 
 H                     5.60662   0.48945   0.34412 
 H                     4.54728   3.54006  -0.94338 
 H                     6.23237   3.89296  -0.44104 
 H                     4.32258   5.03645   2.06018 
 H                     3.02249   3.83961   2.04725 
 H                     4.32776   3.69635   3.21156 
 H                     5.9964    1.6166    2.62955 
 H                     7.09497   2.61396   1.6241 
 

 GradGradGradGradGradGradGradGradGradGradGradGradGradGradGradGradGradGrad
 Berny optimization.
 Initialization pass.
                           ----------------------------
                           !    Initial Parameters    !
                           ! (Angstroms and Degrees)  !
 --------------------------                            --------------------------
 ! Name  Definition              Value          Derivative Info.                !
 --------------------------------------------------------------------------------
 ! R1    R(1,2)                  1.5215         estimate D2E/DX2                !
 ! R2    R(1,10)                 1.0914         estimate D2E/DX2                !
 ! R3    R(1,11)                 1.0956         estimate D2E/DX2                !
 ! R4    R(1,12)                 1.0982         estimate D2E/DX2                !
 ! R5    R(2,3)                  1.5325         estimate D2E/DX2                !
 ! R6    R(2,13)                 1.1083         estimate D2E/DX2                !
 ! R7    R(2,14)                 1.0905         estimate D2E/DX2                !
 ! R8    R(3,4)                  1.5059         estimate D2E/DX2                !
 ! R9    R(3,15)                 1.1024         estimate D2E/DX2                !
 ! R10   R(3,16)                 1.1036         estimate D2E/DX2                !
 ! R11   R(4,5)                  1.556          estimate D2E/DX2                !
 ! R12   R(4,7)                  1.6063         estimate D2E/DX2                !
 ! R13   R(4,17)                 1.1219         estimate D2E/DX2                !
 ! R14   R(5,6)                  1.8053         estimate D2E/DX2                !
 ! R15   R(5,9)                  1.5397         estimate D2E/DX2                !
 ! R16   R(5,18)                 1.0931         estimate D2E/DX2                !
 ! R17   R(6,7)                  1.594          estimate D2E/DX2                !
 ! R18   R(6,19)                 1.1049         estimate D2E/DX2                !
 ! R19   R(6,20)                 1.0853         estimate D2E/DX2                !
 ! R20   R(7,8)                  1.493          estimate D2E/DX2                !
 ! R21   R(7,9)                  1.6066         estimate D2E/DX2                !
 ! R22   R(8,21)                 1.0898         estimate D2E/DX2                !
 ! R23   R(8,22)                 1.092          estimate D2E/DX2                !
 ! R24   R(8,23)                 1.0977         estimate D2E/DX2                !
 ! R25   R(9,24)                 1.0849         estimate D2E/DX2                !
 ! R26   R(9,25)                 1.1051         estimate D2E/DX2                !
 ! A1    A(2,1,10)             111.6216         estimate D2E/DX2                !
 ! A2    A(2,1,11)             110.8029         estimate D2E/DX2                !
 ! A3    A(2,1,12)             109.9519         estimate D2E/DX2                !
 ! A4    A(10,1,11)            108.0058         estimate D2E/DX2                !
 ! A5    A(10,1,12)            108.5654         estimate D2E/DX2                !
 ! A6    A(11,1,12)            107.7764         estimate D2E/DX2                !
 ! A7    A(1,2,3)              109.454          estimate D2E/DX2                !
 ! A8    A(1,2,13)             107.9978         estimate D2E/DX2                !
 ! A9    A(1,2,14)             111.0206         estimate D2E/DX2                !
 ! A10   A(3,2,13)             111.914          estimate D2E/DX2                !
 ! A11   A(3,2,14)             110.0491         estimate D2E/DX2                !
 ! A12   A(13,2,14)            106.3671         estimate D2E/DX2                !
 ! A13   A(2,3,4)              113.8022         estimate D2E/DX2                !
 ! A14   A(2,3,15)             110.9623         estimate D2E/DX2                !
 ! A15   A(2,3,16)             106.6695         estimate D2E/DX2                !
 ! A16   A(4,3,15)             112.8694         estimate D2E/DX2                !
 ! A17   A(4,3,16)             106.0222         estimate D2E/DX2                !
 ! A18   A(15,3,16)            105.8632         estimate D2E/DX2                !
 ! A19   A(3,4,5)              153.2107         estimate D2E/DX2                !
 ! A20   A(3,4,7)              125.5167         estimate D2E/DX2                !
 ! A21   A(3,4,17)              86.6671         estimate D2E/DX2                !
 ! A22   A(5,4,7)               76.5685         estimate D2E/DX2                !
 ! A23   A(5,4,17)              94.2075         estimate D2E/DX2                !
 ! A24   A(7,4,17)             120.7294         estimate D2E/DX2                !
 ! A25   A(4,5,6)               74.0628         estimate D2E/DX2                !
 ! A26   A(4,5,9)               93.0953         estimate D2E/DX2                !
 ! A27   A(4,5,18)              94.6316         estimate D2E/DX2                !
 ! A28   A(6,5,9)               89.486          estimate D2E/DX2                !
 ! A29   A(6,5,18)             153.2042         estimate D2E/DX2                !
 ! A30   A(9,5,18)             115.7511         estimate D2E/DX2                !
 ! A31   A(5,6,7)               70.092          estimate D2E/DX2                !
 ! A32   A(5,6,19)             126.92           estimate D2E/DX2                !
 ! A33   A(5,6,20)             118.0382         estimate D2E/DX2                !
 ! A34   A(7,6,19)             109.2529         estimate D2E/DX2                !
 ! A35   A(7,6,20)             114.9272         estimate D2E/DX2                !
 ! A36   A(19,6,20)            109.9369         estimate D2E/DX2                !
 ! A37   A(4,7,6)               78.9289         estimate D2E/DX2                !
 ! A38   A(4,7,8)              119.7253         estimate D2E/DX2                !
 ! A39   A(4,7,9)               88.7699         estimate D2E/DX2                !
 ! A40   A(6,7,8)              137.6823         estimate D2E/DX2                !
 ! A41   A(6,7,9)               95.1301         estimate D2E/DX2                !
 ! A42   A(8,7,9)              120.9245         estimate D2E/DX2                !
 ! A43   A(7,8,21)             112.0614         estimate D2E/DX2                !
 ! A44   A(7,8,22)             111.2307         estimate D2E/DX2                !
 ! A45   A(7,8,23)             110.8586         estimate D2E/DX2                !
 ! A46   A(21,8,22)            108.1802         estimate D2E/DX2                !
 ! A47   A(21,8,23)            107.7361         estimate D2E/DX2                !
 ! A48   A(22,8,23)            106.5407         estimate D2E/DX2                !
 ! A49   A(5,9,7)               77.0168         estimate D2E/DX2                !
 ! A50   A(5,9,24)             120.5217         estimate D2E/DX2                !
 ! A51   A(5,9,25)             107.5001         estimate D2E/DX2                !
 ! A52   A(7,9,24)             121.4006         estimate D2E/DX2                !
 ! A53   A(7,9,25)             116.6371         estimate D2E/DX2                !
 ! A54   A(24,9,25)            109.8519         estimate D2E/DX2                !
 ! D1    D(10,1,2,3)          -176.2664         estimate D2E/DX2                !
 ! D2    D(10,1,2,13)           61.6654         estimate D2E/DX2                !
 ! D3    D(10,1,2,14)          -54.5823         estimate D2E/DX2                !
 ! D4    D(11,1,2,3)            63.3169         estimate D2E/DX2                !
 ! D5    D(11,1,2,13)          -58.7512         estimate D2E/DX2                !
 ! D6    D(11,1,2,14)         -174.999          estimate D2E/DX2                !
 ! D7    D(12,1,2,3)           -55.7196         estimate D2E/DX2                !
 ! D8    D(12,1,2,13)         -177.7878         estimate D2E/DX2                !
 ! D9    D(12,1,2,14)           65.9644         estimate D2E/DX2                !
 ! D10   D(1,2,3,4)           -162.0275         estimate D2E/DX2                !
 ! D11   D(1,2,3,15)            69.3744         estimate D2E/DX2                !
 ! D12   D(1,2,3,16)           -45.4773         estimate D2E/DX2                !
 ! D13   D(13,2,3,4)           -42.3378         estimate D2E/DX2                !
 ! D14   D(13,2,3,15)         -170.9359         estimate D2E/DX2                !
 ! D15   D(13,2,3,16)           74.2124         estimate D2E/DX2                !
 ! D16   D(14,2,3,4)            75.7055         estimate D2E/DX2                !
 ! D17   D(14,2,3,15)          -52.8926         estimate D2E/DX2                !
 ! D18   D(14,2,3,16)         -167.7443         estimate D2E/DX2                !
 ! D19   D(2,3,4,5)            -32.833          estimate D2E/DX2                !
 ! D20   D(2,3,4,7)           -174.1332         estimate D2E/DX2                !
 ! D21   D(2,3,4,17)            59.9022         estimate D2E/DX2                !
 ! D22   D(15,3,4,5)            94.7868         estimate D2E/DX2                !
 ! D23   D(15,3,4,7)           -46.5134         estimate D2E/DX2                !
 ! D24   D(15,3,4,17)         -172.478          estimate D2E/DX2                !
 ! D25   D(16,3,4,5)          -149.7601         estimate D2E/DX2                !
 ! D26   D(16,3,4,7)            68.9398         estimate D2E/DX2                !
 ! D27   D(16,3,4,17)          -57.0248         estimate D2E/DX2                !
 ! D28   D(3,4,5,6)            160.172          estimate D2E/DX2                !
 ! D29   D(3,4,5,9)           -111.2483         estimate D2E/DX2                !
 ! D30   D(3,4,5,18)             4.9133         estimate D2E/DX2                !
 ! D31   D(7,4,5,6)            -51.3767         estimate D2E/DX2                !
 ! D32   D(7,4,5,9)             37.2031         estimate D2E/DX2                !
 ! D33   D(7,4,5,18)           153.3646         estimate D2E/DX2                !
 ! D34   D(17,4,5,6)            69.2341         estimate D2E/DX2                !
 ! D35   D(17,4,5,9)           157.8139         estimate D2E/DX2                !
 ! D36   D(17,4,5,18)          -86.0245         estimate D2E/DX2                !
 ! D37   D(3,4,7,6)           -136.7337         estimate D2E/DX2                !
 ! D38   D(3,4,7,8)              2.3695         estimate D2E/DX2                !
 ! D39   D(3,4,7,9)            127.7957         estimate D2E/DX2                !
 ! D40   D(5,4,7,6)             60.108          estimate D2E/DX2                !
 ! D41   D(5,4,7,8)           -160.7888         estimate D2E/DX2                !
 ! D42   D(5,4,7,9)            -35.3626         estimate D2E/DX2                !
 ! D43   D(17,4,7,6)           -26.7845         estimate D2E/DX2                !
 ! D44   D(17,4,7,8)           112.3187         estimate D2E/DX2                !
 ! D45   D(17,4,7,9)          -122.2551         estimate D2E/DX2                !
 ! D46   D(4,5,6,7)             54.5316         estimate D2E/DX2                !
 ! D47   D(4,5,6,19)           -45.0556         estimate D2E/DX2                !
 ! D48   D(4,5,6,20)           162.8917         estimate D2E/DX2                !
 ! D49   D(9,5,6,7)            -38.8348         estimate D2E/DX2                !
 ! D50   D(9,5,6,19)          -138.422          estimate D2E/DX2                !
 ! D51   D(9,5,6,20)            69.5254         estimate D2E/DX2                !
 ! D52   D(18,5,6,7)           122.2515         estimate D2E/DX2                !
 ! D53   D(18,5,6,19)           22.6643         estimate D2E/DX2                !
 ! D54   D(18,5,6,20)         -129.3884         estimate D2E/DX2                !
 ! D55   D(4,5,9,7)            -37.1158         estimate D2E/DX2                !
 ! D56   D(4,5,9,24)            81.8813         estimate D2E/DX2                !
 ! D57   D(4,5,9,25)          -151.3038         estimate D2E/DX2                !
 ! D58   D(6,5,9,7)             36.8936         estimate D2E/DX2                !
 ! D59   D(6,5,9,24)           155.8906         estimate D2E/DX2                !
 ! D60   D(6,5,9,25)           -77.2944         estimate D2E/DX2                !
 ! D61   D(18,5,9,7)          -133.7695         estimate D2E/DX2                !
 ! D62   D(18,5,9,24)          -14.7724         estimate D2E/DX2                !
 ! D63   D(18,5,9,25)          112.0425         estimate D2E/DX2                !
 ! D64   D(5,6,7,4)            -50.624          estimate D2E/DX2                !
 ! D65   D(5,6,7,8)           -173.0061         estimate D2E/DX2                !
 ! D66   D(5,6,7,9)             37.1106         estimate D2E/DX2                !
 ! D67   D(19,6,7,4)            72.7593         estimate D2E/DX2                !
 ! D68   D(19,6,7,8)           -49.6228         estimate D2E/DX2                !
 ! D69   D(19,6,7,9)           160.4938         estimate D2E/DX2                !
 ! D70   D(20,6,7,4)          -163.1423         estimate D2E/DX2                !
 ! D71   D(20,6,7,8)            74.4756         estimate D2E/DX2                !
 ! D72   D(20,6,7,9)           -75.4077         estimate D2E/DX2                !
 ! D73   D(4,7,8,21)          -143.3485         estimate D2E/DX2                !
 ! D74   D(4,7,8,22)           -22.1092         estimate D2E/DX2                !
 ! D75   D(4,7,8,23)            96.242          estimate D2E/DX2                !
 ! D76   D(6,7,8,21)           -35.9716         estimate D2E/DX2                !
 ! D77   D(6,7,8,22)            85.2677         estimate D2E/DX2                !
 ! D78   D(6,7,8,23)          -156.3811         estimate D2E/DX2                !
 ! D79   D(9,7,8,21)           108.3972         estimate D2E/DX2                !
 ! D80   D(9,7,8,22)          -130.3635         estimate D2E/DX2                !
 ! D81   D(9,7,8,23)           -12.0123         estimate D2E/DX2                !
 ! D82   D(4,7,9,5)             35.7195         estimate D2E/DX2                !
 ! D83   D(4,7,9,24)           -82.307          estimate D2E/DX2                !
 ! D84   D(4,7,9,25)           138.9928         estimate D2E/DX2                !
 ! D85   D(6,7,9,5)            -43.0492         estimate D2E/DX2                !
 ! D86   D(6,7,9,24)          -161.0756         estimate D2E/DX2                !
 ! D87   D(6,7,9,25)            60.2241         estimate D2E/DX2                !
 ! D88   D(8,7,9,5)            160.1411         estimate D2E/DX2                !
 ! D89   D(8,7,9,24)            42.1146         estimate D2E/DX2                !
 ! D90   D(8,7,9,25)           -96.5856         estimate D2E/DX2                !
 --------------------------------------------------------------------------------
 Trust Radius=3.00D-01 FncErr=1.00D-07 GrdErr=1.00D-06 EigMax=2.50D+02 EigMin=1.00D-04
 Number of steps in this run=    150 maximum allowed number of steps=    150.
 GradGradGradGradGradGradGradGradGradGradGradGradGradGradGradGradGradGrad

                          Input orientation:                          
 ---------------------------------------------------------------------
 Center     Atomic      Atomic             Coordinates (Angstroms)
 Number     Number       Type             X           Y           Z
 ---------------------------------------------------------------------
      1          6           0        0.915610   -0.117680    0.060730
      2          6           0        2.426150    0.034870    0.160060
      3          6           0        2.761690    1.386780    0.799000
      4          6           0        4.180470    1.834100    0.565130
      5          6           0        5.701420    1.578350    0.358900
      6          6           0        5.384290    3.232500   -0.291060
      7          6           0        4.868500    3.132560    1.213880
      8          6           0        4.098320    3.976150    2.175220
      9          6           0        6.075050    2.198910    1.717560
     10          1           0        0.635190   -1.097360   -0.330020
     11          1           0        0.490150    0.645140   -0.600600
     12          1           0        0.460390    0.006610    1.052400
     13          1           0        2.847380   -0.055970   -0.861010
     14          1           0        2.863360   -0.774360    0.745970
     15          1           0        2.478140    1.400780    1.864180
     16          1           0        2.120430    2.137660    0.306250
     17          1           0        3.941770    1.798810   -0.530480
     18          1           0        5.606620    0.489450    0.344120
     19          1           0        4.547280    3.540060   -0.943380
     20          1           0        6.232370    3.892960   -0.441040
     21          1           0        4.322580    5.036450    2.060180
     22          1           0        3.022490    3.839610    2.047250
     23          1           0        4.327760    3.696350    3.211560
     24          1           0        5.996400    1.616600    2.629550
     25          1           0        7.094970    2.613960    1.624100
 ---------------------------------------------------------------------
                    Distance matrix (angstroms):
                    1          2          3          4          5
     1  C    0.000000
     2  C    1.521469   0.000000
     3  C    2.493282   1.532479   0.000000
     4  C    3.837079   2.545378   1.505897   0.000000
     5  C    5.086197   3.626191   2.978657   1.556029   0.000000
     6  C    5.596120   4.379377   3.387173   2.034150   1.805334
     7  C    5.245870   4.083050   2.767403   1.606319   1.959672
     8  C    5.600014   4.731882   3.222638   2.680954   3.408576
     9  C    5.893343   4.519220   3.532940   2.247357   1.539692
    10  H    1.091372   2.174778   3.459428   4.686551   5.770678
    11  H    1.095567   2.167747   2.769261   4.048582   5.380414
    12  H    1.098218   2.159000   2.695378   4.173266   5.515406
    13  H    2.141296   1.108274   2.201023   2.717236   3.507809
    14  H    2.166682   1.090549   2.164180   2.927720   3.706704
    15  H    2.828366   2.184591   1.102363   2.184771   3.561872
    16  H    2.568741   2.129921   1.103557   2.098317   3.624788
    17  H    3.630442   2.425991   1.824794   1.121866   1.983927
    18  H    4.738617   3.218060   3.017572   1.972519   1.093119
    19  H    5.251317   4.243009   3.295578   2.306610   2.622266
    20  H    6.678693   5.452842   4.456934   3.075968   2.505839
    21  H    6.493866   5.676505   4.164978   3.537007   4.093166
    22  H    4.903606   4.288724   2.764511   2.749485   3.891078
    23  H    6.009769   5.131687   3.688785   3.239330   3.809270
    24  H    5.951554   4.620274   3.723853   2.758032   2.290050
    25  H    6.934729   5.531094   4.578654   3.197485   2.148302
                    6          7          8          9         10
     6  C    0.000000
     7  C    1.594011   0.000000
     8  C    2.879109   1.492982   0.000000
     9  C    2.362205   1.606599   2.697313   0.000000
    10  H    6.426753   6.180353   6.634003   6.682070   0.000000
    11  H    5.544624   5.352527   5.640895   6.243330   1.769338
    12  H    6.037884   5.406392   5.500228   6.064077   1.777749
    13  H    4.192230   4.307763   5.200148   4.706523   2.502045
    14  H    4.846179   4.416282   5.112262   4.483221   2.495361
    15  H    4.055363   3.022544   3.058473   3.687312   3.801537
    16  H    3.494029   3.060312   3.284074   4.199353   3.616093
    17  H    2.047841   2.383382   3.476511   3.124844   4.400165
    18  H    2.824395   2.878773   4.217223   2.242324   5.261896
    19  H    1.104853   2.218786   3.180787   3.348636   6.098059
    20  H    1.085330   2.275326   3.377263   2.748474   7.499603
    21  H    3.147982   2.153845   1.089845   3.352637   7.545431
    22  H    3.378517   2.145269   1.091984   3.481194   5.976980
    23  H    3.687785   2.144991   1.097694   2.743608   7.011242
    24  H    3.393490   2.361020   3.062123   1.084895   6.698299
    25  H    2.641374   2.322584   3.337545   1.105096   7.702028
                   11         12         13         14         15
    11  H    0.000000
    12  H    1.772291   0.000000
    13  H    2.473035   3.059865   0.000000
    14  H    3.075769   2.545207   1.760319   0.000000
    15  H    3.255493   2.583411   3.112092   2.475888   0.000000
    16  H    2.389101   2.802472   2.589008   3.037295   1.760140
    17  H    3.639993   4.223446   2.178795   3.068142   2.834614
    18  H    5.205286   5.217133   3.059939   3.046994   3.595621
    19  H    4.995835   5.759434   3.978426   4.929879   4.091485
    20  H    6.599006   7.116870   5.218101   5.877338   5.061546
    21  H    6.407096   6.421170   6.053289   6.133676   4.081479
    22  H    4.860915   4.716564   4.864585   4.796600   2.505539
    23  H    6.210451   5.764781   5.732125   5.311389   3.241322
    24  H    6.457274   5.977196   4.989772   4.368124   3.607010
    25  H    7.242181   7.151417   5.598778   5.491662   4.779599
                   16         17         18         19         20
    16  H    0.000000
    17  H    2.032785   0.000000
    18  H    3.856365   2.291522   0.000000
    19  H    3.068860   1.889201   3.476504   0.000000
    20  H    4.532943   3.104885   3.548509   1.793436   0.000000
    21  H    4.040881   4.163994   5.026811   3.363190   3.348278
    22  H    2.596426   3.413888   4.560916   3.370250   4.061744
    23  H    3.967700   4.213373   4.487973   4.163669   4.124037
    24  H    4.548887   3.773658   2.577903   4.308767   3.829624
    25  H    5.168137   3.905042   2.892590   3.733676   2.577736
                   21         22         23         24         25
    21  H    0.000000
    22  H    1.767152   0.000000
    23  H    1.766797   1.754956   0.000000
    24  H    3.849835   3.758322   2.729186   0.000000
    25  H    3.707394   4.273917   3.368835   1.792348   0.000000
 Stoichiometry    C9H16
 Framework group  C1[X(C9H16)]
 Deg. of freedom    69
 Full point group                 C1      NOp   1
 Largest Abelian subgroup         C1      NOp   1
 Largest concise Abelian subgroup C1      NOp   1
                         Standard orientation:                         
 ---------------------------------------------------------------------
 Center     Atomic      Atomic             Coordinates (Angstroms)
 Number     Number       Type             X           Y           Z
 ---------------------------------------------------------------------
      1          6           0        3.681375    0.265072    0.080513
      2          6           0        2.402434   -0.508002   -0.205030
      3          6           0        1.199163    0.433166   -0.083247
      4          6           0       -0.116693   -0.280686    0.080054
      5          6           0       -1.095176   -1.464432   -0.170031
      6          6           0       -1.708259   -0.616904    1.301382
      7          6           0       -1.562184    0.419634    0.099249
      8          6           0       -1.673168    1.894183   -0.106624
      9          6           0       -2.038229   -0.610893   -1.037655
     10          1           0        4.567130   -0.356719   -0.060582
     11          1           0        3.689358    0.637021    1.110978
     12          1           0        3.752587    1.132281   -0.589532
     13          1           0        2.343500   -1.349807    0.513414
     14          1           0        2.428886   -0.954228   -1.199756
     15          1           0        1.188722    1.168256   -0.904671
     16          1           0        1.346014    1.016648    0.841859
     17          1           0        0.316234   -0.727566    1.013573
     18          1           0       -0.365259   -2.068667   -0.715036
     19          1           0       -1.110986   -0.264035    2.161294
     20          1           0       -2.728649   -0.812812    1.615015
     21          1           0       -2.458972    2.335099    0.506457
     22          1           0       -0.733668    2.398227    0.129404
     23          1           0       -1.897505    2.126559   -1.155722
     24          1           0       -1.817204   -0.438058   -2.085640
     25          1           0       -3.055770   -1.029031   -0.932723
 ---------------------------------------------------------------------
 Rotational constants (GHZ):           2.9397928           0.8991124           0.8104434
 Standard basis: 6-31G(2df,p) (6D, 7F)
 There are   359 symmetry adapted cartesian basis functions of A   symmetry.
 There are   332 symmetry adapted basis functions of A   symmetry.
   332 basis functions,   508 primitive gaussians,   359 cartesian basis functions
    35 alpha electrons       35 beta electrons
       nuclear repulsion energy       461.2204403024 Hartrees.
 NAtoms=   25 NActive=   25 NUniq=   25 SFac= 1.00D+00 NAtFMM=   60 NAOKFM=F Big=F
 Integral buffers will be    131072 words long.
 Raffenetti 2 integral format.
 Two-electron integral symmetry is turned on.
 One-electron integrals computed using PRISM.
 PrsmSu:  requested number of processors reduced to:  13 ShMem   1 Linda.
 NBasis=   332 RedAO= T EigKep=  4.37D-04  NBF=   332
 NBsUse=   332 1.00D-06 EigRej= -1.00D+00 NBFU=   332
 ExpMin= 1.61D-01 ExpMax= 3.05D+03 ExpMxC= 4.57D+02 IAcc=3 IRadAn=         5 AccDes= 0.00D+00
 Harris functional with IExCor=  402 and IRadAn=       5 diagonalized for initial guess.
 HarFok:  IExCor=  402 AccDes= 0.00D+00 IRadAn=         5 IDoV= 1 UseB2=F ITyADJ=14
 ICtDFT=  3500011 ScaDFX=  1.000000  1.000000  1.000000  1.000000
 FoFCou: FMM=F IPFlag=           0 FMFlag=      100000 FMFlg1=           0
         NFxFlg=           0 DoJE=T BraDBF=F KetDBF=T FulRan=T
         wScrn=  0.000000 ICntrl=       500 IOpCl=  0 I1Cent=   200000004 NGrid=           0
         NMat0=    1 NMatS0=      1 NMatT0=    0 NMatD0=    1 NMtDS0=    0 NMtDT0=    0
 Petite list used in FoFCou.
 Requested convergence on RMS density matrix=1.00D-08 within 128 cycles.
 Requested convergence on MAX density matrix=1.00D-06.
 Requested convergence on             energy=1.00D-06.
 No special actions if energy rises.
 Integral accuracy reduced to 1.0D-05 until final iterations.
 Initial convergence to 1.0D-05 achieved.  Increase integral accuracy.
 SCF Done:  E(RB3LYP) =  -352.376907807     A.U. after   13 cycles
            NFock= 13  Conv=0.69D-08     -V/T= 2.0089

 **********************************************************************

            Population analysis using the SCF density.

 **********************************************************************

 Orbital symmetries:
       Occupied  (A) (A) (A) (A) (A) (A) (A) (A) (A) (A) (A) (A)
                 (A) (A) (A) (A) (A) (A) (A) (A) (A) (A) (A) (A)
                 (A) (A) (A) (A) (A) (A) (A) (A) (A) (A) (A)
       Virtual   (A) (A) (A) (A) (A) (A) (A) (A) (A) (A) (A) (A)
                 (A) (A) (A) (A) (A) (A) (A) (A) (A) (A) (A) (A)
                 (A) (A) (A) (A) (A) (A) (A) (A) (A) (A) (A) (A)
                 (A) (A) (A) (A) (A) (A) (A) (A) (A) (A) (A) (A)
                 (A) (A) (A) (A) (A) (A) (A) (A) (A) (A) (A) (A)
                 (A) (A) (A) (A) (A) (A) (A) (A) (A) (A) (A) (A)
                 (A) (A) (A) (A) (A) (A) (A) (A) (A) (A) (A) (A)
                 (A) (A) (A) (A) (A) (A) (A) (A) (A) (A) (A) (A)
                 (A) (A) (A) (A) (A) (A) (A) (A) (A) (A) (A) (A)
                 (A) (A) (A) (A) (A) (A) (A) (A) (A) (A) (A) (A)
                 (A) (A) (A) (A) (A) (A) (A) (A) (A) (A) (A) (A)
                 (A) (A) (A) (A) (A) (A) (A) (A) (A) (A) (A) (A)
                 (A) (A) (A) (A) (A) (A) (A) (A) (A) (A) (A) (A)
                 (A) (A) (A) (A) (A) (A) (A) (A) (A) (A) (A) (A)
                 (A) (A) (A) (A) (A) (A) (A) (A) (A) (A) (A) (A)
                 (A) (A) (A) (A) (A) (A) (A) (A) (A) (A) (A) (A)
                 (A) (A) (A) (A) (A) (A) (A) (A) (A) (A) (A) (A)
                 (A) (A) (A) (A) (A) (A) (A) (A) (A) (A) (A) (A)
                 (A) (A) (A) (A) (A) (A) (A) (A) (A) (A) (A) (A)
                 (A) (A) (A) (A) (A) (A) (A) (A) (A) (A) (A) (A)
                 (A) (A) (A) (A) (A) (A) (A) (A) (A) (A) (A) (A)
                 (A) (A) (A) (A) (A) (A) (A) (A) (A) (A) (A) (A)
                 (A) (A) (A) (A) (A) (A) (A) (A) (A) (A) (A) (A)
                 (A) (A) (A) (A) (A) (A) (A) (A) (A) (A) (A) (A)
                 (A) (A) (A) (A) (A) (A) (A) (A) (A)
 The electronic state is 1-A.
 Alpha  occ. eigenvalues --  -10.21699 -10.20517 -10.20130 -10.17747 -10.17657
 Alpha  occ. eigenvalues --  -10.17429 -10.17160 -10.16876 -10.16317  -0.87961
 Alpha  occ. eigenvalues --   -0.78802  -0.72438  -0.70600  -0.67243  -0.62078
 Alpha  occ. eigenvalues --   -0.59017  -0.56113  -0.51673  -0.46760  -0.45280
 Alpha  occ. eigenvalues --   -0.44146  -0.42938  -0.42280  -0.39621  -0.39451
 Alpha  occ. eigenvalues --   -0.37873  -0.36004  -0.35191  -0.33940  -0.32863
 Alpha  occ. eigenvalues --   -0.32224  -0.30610  -0.28475  -0.25323  -0.20237
 Alpha virt. eigenvalues --    0.01683   0.06187   0.09968   0.11629   0.12270
 Alpha virt. eigenvalues --    0.12514   0.13557   0.14292   0.14973   0.15479
 Alpha virt. eigenvalues --    0.16142   0.16723   0.17033   0.17542   0.18957
 Alpha virt. eigenvalues --    0.19774   0.21327   0.21553   0.22175   0.24111
 Alpha virt. eigenvalues --    0.25111   0.25783   0.26863   0.27814   0.28656
 Alpha virt. eigenvalues --    0.33825   0.42136   0.46298   0.47368   0.47755
 Alpha virt. eigenvalues --    0.48266   0.49441   0.50439   0.51807   0.54362
 Alpha virt. eigenvalues --    0.54820   0.55177   0.56810   0.57957   0.59345
 Alpha virt. eigenvalues --    0.60839   0.62137   0.62692   0.63676   0.63960
 Alpha virt. eigenvalues --    0.65745   0.67654   0.68291   0.69390   0.72607
 Alpha virt. eigenvalues --    0.73537   0.73947   0.74205   0.75247   0.75844
 Alpha virt. eigenvalues --    0.76511   0.76895   0.77662   0.79027   0.79437
 Alpha virt. eigenvalues --    0.79646   0.80460   0.82326   0.82663   0.83950
 Alpha virt. eigenvalues --    0.86333   0.86613   0.89532   0.90210   0.91951
 Alpha virt. eigenvalues --    0.93138   0.95464   1.03924   1.06664   1.09039
 Alpha virt. eigenvalues --    1.10544   1.13055   1.14542   1.16334   1.20071
 Alpha virt. eigenvalues --    1.21417   1.22800   1.24639   1.25851   1.31733
 Alpha virt. eigenvalues --    1.33347   1.34261   1.34667   1.38929   1.39730
 Alpha virt. eigenvalues --    1.41438   1.42174   1.43815   1.44541   1.47116
 Alpha virt. eigenvalues --    1.49608   1.52516   1.53355   1.56618   1.58049
 Alpha virt. eigenvalues --    1.58957   1.59697   1.62702   1.63268   1.65405
 Alpha virt. eigenvalues --    1.68655   1.68864   1.73244   1.75144   1.78313
 Alpha virt. eigenvalues --    1.79698   1.81167   1.84411   1.84550   1.86557
 Alpha virt. eigenvalues --    1.89765   1.92091   1.93771   1.94766   1.96237
 Alpha virt. eigenvalues --    1.97786   2.00724   2.02192   2.06626   2.10249
 Alpha virt. eigenvalues --    2.16232   2.18406   2.20746   2.24864   2.26153
 Alpha virt. eigenvalues --    2.27716   2.28578   2.33629   2.34376   2.36136
 Alpha virt. eigenvalues --    2.37612   2.39089   2.40763   2.43175   2.44669
 Alpha virt. eigenvalues --    2.46515   2.48614   2.49902   2.54828   2.56887
 Alpha virt. eigenvalues --    2.58221   2.61732   2.67097   2.70255   2.71040
 Alpha virt. eigenvalues --    2.72440   2.73825   2.74546   2.76681   2.78530
 Alpha virt. eigenvalues --    2.80608   2.82476   2.82918   2.84258   2.85642
 Alpha virt. eigenvalues --    2.86285   2.89210   2.90398   2.91698   2.93030
 Alpha virt. eigenvalues --    2.93648   2.94772   2.95233   2.97726   2.98916
 Alpha virt. eigenvalues --    2.99764   3.01103   3.02111   3.05243   3.06509
 Alpha virt. eigenvalues --    3.08887   3.11784   3.13682   3.14854   3.17316
 Alpha virt. eigenvalues --    3.19228   3.20901   3.23812   3.26982   3.28330
 Alpha virt. eigenvalues --    3.31112   3.32342   3.35178   3.36256   3.40301
 Alpha virt. eigenvalues --    3.41090   3.42536   3.43630   3.47412   3.48337
 Alpha virt. eigenvalues --    3.51073   3.53083   3.55830   3.56597   3.60155
 Alpha virt. eigenvalues --    3.60621   3.62950   3.63706   3.66028   3.67206
 Alpha virt. eigenvalues --    3.68936   3.69897   3.73805   3.74228   3.76709
 Alpha virt. eigenvalues --    3.78030   3.81291   3.84199   3.85981   3.87930
 Alpha virt. eigenvalues --    3.92717   3.93776   3.94104   4.01552   4.03115
 Alpha virt. eigenvalues --    4.07231   4.09030   4.13663   4.18614   4.22071
 Alpha virt. eigenvalues --    4.23130   4.28455   4.33889   4.37712   4.39630
 Alpha virt. eigenvalues --    4.41091   4.43288   4.44555   4.46437   4.48530
 Alpha virt. eigenvalues --    4.51816   4.52568   4.53398   4.54585   4.55688
 Alpha virt. eigenvalues --    4.57761   4.60050   4.61696   4.62489   4.64716
 Alpha virt. eigenvalues --    4.65591   4.66406   4.68568   4.69946   4.70048
 Alpha virt. eigenvalues --    4.71483   4.73321   4.74022   4.76606   4.77895
 Alpha virt. eigenvalues --    4.80018   4.81633   4.82683   4.84023   4.85591
 Alpha virt. eigenvalues --    4.87420   4.89580   4.91020   4.92378   4.93793
 Alpha virt. eigenvalues --    4.96554   4.97349   5.02607   5.08488   5.11096
 Alpha virt. eigenvalues --    5.13571   5.15824   5.20367   5.24240   5.25906
 Alpha virt. eigenvalues --    5.34289   5.35257   5.37366   5.42791   5.46258
 Alpha virt. eigenvalues --    5.48608   5.52716   5.59391   5.64883   5.71511
 Alpha virt. eigenvalues --    6.06336   6.14268   6.53485  10.96988  11.22433
 Alpha virt. eigenvalues --   11.45708  11.65678  11.82643  12.11522  12.12986
 Alpha virt. eigenvalues --   12.41307  12.89371
          Condensed to atoms (all electrons):
               1          2          3          4          5          6
     1  C    4.962556   0.396055  -0.035995   0.000482   0.000078   0.000007
     2  C    0.396055   4.805827   0.416112  -0.027524  -0.002464   0.000008
     3  C   -0.035995   0.416112   5.163151   0.350949  -0.052847   0.009618
     4  C    0.000482  -0.027524   0.350949   4.694647   0.309390  -0.052993
     5  C    0.000078  -0.002464  -0.052847   0.309390   5.208066   0.318980
     6  C    0.000007   0.000008   0.009618  -0.052993   0.318980   5.207017
     7  C   -0.000171   0.003735  -0.048756   0.380401  -0.109764   0.321621
     8  C    0.000004   0.000115  -0.004512  -0.056602   0.019418  -0.047497
     9  C    0.000000  -0.000227   0.003909  -0.052280   0.318962  -0.049575
    10  H    0.372086  -0.020868   0.003257  -0.000099  -0.000000  -0.000000
    11  H    0.379098  -0.029061  -0.005471   0.000416   0.000002   0.000000
    12  H    0.378148  -0.030618  -0.003917   0.000479   0.000001  -0.000000
    13  H   -0.037353   0.368803  -0.039723  -0.004223  -0.000480  -0.000228
    14  H   -0.035748   0.370845  -0.030615   0.002555   0.000782  -0.000007
    15  H   -0.003439  -0.024899   0.321108  -0.019128  -0.001519  -0.000104
    16  H   -0.006257  -0.044900   0.360492  -0.005571   0.006643   0.000764
    17  H   -0.000722  -0.008238  -0.102511   0.375389  -0.091447  -0.061945
    18  H   -0.000073   0.001746   0.001289  -0.053216   0.328892  -0.012022
    19  H    0.000006  -0.000125   0.002489  -0.021595  -0.009268   0.379235
    20  H   -0.000000   0.000003  -0.000886   0.008103  -0.025398   0.307699
    21  H   -0.000000  -0.000001  -0.000116   0.005049  -0.000895  -0.007673
    22  H    0.000021  -0.000198   0.003008  -0.014249   0.000246   0.002390
    23  H    0.000000  -0.000007   0.000214   0.001229   0.000212   0.003839
    24  H    0.000001  -0.000042   0.001591  -0.002998  -0.022222   0.007508
    25  H   -0.000000   0.000006  -0.000274   0.002496  -0.022131  -0.016616
               7          8          9         10         11         12
     1  C   -0.000171   0.000004   0.000000   0.372086   0.379098   0.378148
     2  C    0.003735   0.000115  -0.000227  -0.020868  -0.029061  -0.030618
     3  C   -0.048756  -0.004512   0.003909   0.003257  -0.005471  -0.003917
     4  C    0.380401  -0.056602  -0.052280  -0.000099   0.000416   0.000479
     5  C   -0.109764   0.019418   0.318962  -0.000000   0.000002   0.000001
     6  C    0.321621  -0.047497  -0.049575  -0.000000   0.000000  -0.000000
     7  C    4.553910   0.367758   0.364874   0.000001  -0.000003   0.000004
     8  C    0.367758   5.213139  -0.064458  -0.000000  -0.000000  -0.000001
     9  C    0.364874  -0.064458   5.054057  -0.000000   0.000000   0.000000
    10  H    0.000001  -0.000000  -0.000000   0.607650  -0.032737  -0.031394
    11  H   -0.000003  -0.000000   0.000000  -0.032737   0.602150  -0.033346
    12  H    0.000004  -0.000001   0.000000  -0.031394  -0.033346   0.601000
    13  H    0.000254  -0.000004   0.000044  -0.001214  -0.005195   0.005739
    14  H   -0.000094  -0.000002   0.000003  -0.002825   0.005491  -0.003480
    15  H   -0.003199  -0.000067   0.001380  -0.000116  -0.000181   0.004050
    16  H   -0.002837   0.000691  -0.000394  -0.000045   0.006703  -0.000339
    17  H   -0.009138  -0.000071   0.014166   0.000014   0.000075   0.000063
    18  H    0.013330  -0.001320  -0.039377   0.000001   0.000001   0.000001
    19  H   -0.026964   0.000565   0.005396  -0.000000  -0.000000  -0.000000
    20  H   -0.014771   0.000249  -0.005683   0.000000   0.000000   0.000000
    21  H   -0.015786   0.353783   0.003794   0.000000  -0.000000   0.000000
    22  H   -0.013871   0.359282   0.004974  -0.000000   0.000001   0.000002
    23  H   -0.007613   0.363987  -0.013140   0.000000   0.000000  -0.000000
    24  H   -0.022138  -0.000616   0.369345  -0.000000  -0.000000  -0.000000
    25  H   -0.007937   0.002871   0.344057   0.000000  -0.000000  -0.000000
              13         14         15         16         17         18
     1  C   -0.037353  -0.035748  -0.003439  -0.006257  -0.000722  -0.000073
     2  C    0.368803   0.370845  -0.024899  -0.044900  -0.008238   0.001746
     3  C   -0.039723  -0.030615   0.321108   0.360492  -0.102511   0.001289
     4  C   -0.004223   0.002555  -0.019128  -0.005571   0.375389  -0.053216
     5  C   -0.000480   0.000782  -0.001519   0.006643  -0.091447   0.328892
     6  C   -0.000228  -0.000007  -0.000104   0.000764  -0.061945  -0.012022
     7  C    0.000254  -0.000094  -0.003199  -0.002837  -0.009138   0.013330
     8  C   -0.000004  -0.000002  -0.000067   0.000691  -0.000071  -0.001320
     9  C    0.000044   0.000003   0.001380  -0.000394   0.014166  -0.039377
    10  H   -0.001214  -0.002825  -0.000116  -0.000045   0.000014   0.000001
    11  H   -0.005195   0.005491  -0.000181   0.006703   0.000075   0.000001
    12  H    0.005739  -0.003480   0.004050  -0.000339   0.000063   0.000001
    13  H    0.644991  -0.042296   0.006129  -0.004594   0.014729   0.000876
    14  H   -0.042296   0.638612  -0.006776   0.006425  -0.000920   0.000512
    15  H    0.006129  -0.006776   0.690128  -0.054180   0.014144   0.000010
    16  H   -0.004594   0.006425  -0.054180   0.664085  -0.030106  -0.000221
    17  H    0.014729  -0.000920   0.014144  -0.030106   0.810843   0.002419
    18  H    0.000876   0.000512   0.000010  -0.000221   0.002419   0.643123
    19  H   -0.000074   0.000004  -0.000098   0.001069  -0.002491   0.000041
    20  H    0.000007   0.000000   0.000026  -0.000040   0.005752   0.000534
    21  H    0.000000  -0.000000   0.000020  -0.000120   0.000070   0.000019
    22  H    0.000004   0.000011   0.002262   0.003264   0.000288   0.000034
    23  H   -0.000000   0.000000   0.000294  -0.000017  -0.000097   0.000036
    24  H   -0.000004   0.000000  -0.000112  -0.000006  -0.000462  -0.001367
    25  H   -0.000000  -0.000000  -0.000027   0.000007  -0.000712   0.001003
              19         20         21         22         23         24
     1  C    0.000006  -0.000000  -0.000000   0.000021   0.000000   0.000001
     2  C   -0.000125   0.000003  -0.000001  -0.000198  -0.000007  -0.000042
     3  C    0.002489  -0.000886  -0.000116   0.003008   0.000214   0.001591
     4  C   -0.021595   0.008103   0.005049  -0.014249   0.001229  -0.002998
     5  C   -0.009268  -0.025398  -0.000895   0.000246   0.000212  -0.022222
     6  C    0.379235   0.307699  -0.007673   0.002390   0.003839   0.007508
     7  C   -0.026964  -0.014771  -0.015786  -0.013871  -0.007613  -0.022138
     8  C    0.000565   0.000249   0.353783   0.359282   0.363987  -0.000616
     9  C    0.005396  -0.005683   0.003794   0.004974  -0.013140   0.369345
    10  H   -0.000000   0.000000   0.000000  -0.000000   0.000000  -0.000000
    11  H   -0.000000   0.000000  -0.000000   0.000001   0.000000  -0.000000
    12  H   -0.000000   0.000000   0.000000   0.000002  -0.000000  -0.000000
    13  H   -0.000074   0.000007   0.000000   0.000004  -0.000000  -0.000004
    14  H    0.000004   0.000000  -0.000000   0.000011   0.000000   0.000000
    15  H   -0.000098   0.000026   0.000020   0.002262   0.000294  -0.000112
    16  H    0.001069  -0.000040  -0.000120   0.003264  -0.000017  -0.000006
    17  H   -0.002491   0.005752   0.000070   0.000288  -0.000097  -0.000462
    18  H    0.000041   0.000534   0.000019   0.000034   0.000036  -0.001367
    19  H    0.589251  -0.050401   0.000130   0.000528  -0.000113  -0.000254
    20  H   -0.050401   0.680506   0.001327  -0.000187  -0.000053  -0.000432
    21  H    0.000130   0.001327   0.611170  -0.031522  -0.032227  -0.000171
    22  H    0.000528  -0.000187  -0.031522   0.595477  -0.034042   0.000011
    23  H   -0.000113  -0.000053  -0.032227  -0.034042   0.588758   0.002732
    24  H   -0.000254  -0.000432  -0.000171   0.000011   0.002732   0.617356
    25  H   -0.000069   0.006083   0.000082  -0.000092   0.000186  -0.047193
              25
     1  C   -0.000000
     2  C    0.000006
     3  C   -0.000274
     4  C    0.002496
     5  C   -0.022131
     6  C   -0.016616
     7  C   -0.007937
     8  C    0.002871
     9  C    0.344057
    10  H    0.000000
    11  H   -0.000000
    12  H   -0.000000
    13  H   -0.000000
    14  H   -0.000000
    15  H   -0.000027
    16  H    0.000007
    17  H   -0.000712
    18  H    0.001003
    19  H   -0.000069
    20  H    0.006083
    21  H    0.000082
    22  H   -0.000092
    23  H    0.000186
    24  H   -0.047193
    25  H    0.652805
 Mulliken charges:
               1
     1  C   -0.368783
     2  C   -0.174082
     3  C   -0.311564
     4  C    0.178893
     5  C   -0.173235
     6  C   -0.310024
     7  C    0.277156
     8  C   -0.506710
     9  C   -0.259826
    10  H    0.106289
    11  H    0.112056
    12  H    0.113608
    13  H    0.093812
    14  H    0.097525
    15  H    0.074294
    16  H    0.099481
    17  H    0.070907
    18  H    0.113725
    19  H    0.132738
    20  H    0.087563
    21  H    0.113065
    22  H    0.122357
    23  H    0.125821
    24  H    0.099473
    25  H    0.085458
 Sum of Mulliken charges =  -0.00000
 Mulliken charges with hydrogens summed into heavy atoms:
               1
     1  C   -0.036829
     2  C    0.017255
     3  C   -0.137789
     4  C    0.249801
     5  C   -0.059509
     6  C   -0.089722
     7  C    0.277156
     8  C   -0.145467
     9  C   -0.074895
 Electronic spatial extent (au):  <R**2>=           1600.4290
 Charge=             -0.0000 electrons
 Dipole moment (field-independent basis, Debye):
    X=              0.2679    Y=              0.6336    Z=              0.0670  Tot=              0.6912
 Quadrupole moment (field-independent basis, Debye-Ang):
   XX=            -59.5605   YY=            -60.5391   ZZ=            -56.5221
   XY=             -1.7738   XZ=             -0.1321   YZ=              0.7717
 Traceless Quadrupole moment (field-independent basis, Debye-Ang):
   XX=             -0.6866   YY=             -1.6652   ZZ=              2.3518
   XY=             -1.7738   XZ=             -0.1321   YZ=              0.7717
 Octapole moment (field-independent basis, Debye-Ang**2):
  XXX=             -0.7806  YYY=              6.1529  ZZZ=             -0.3833  XYY=              4.5768
  XXY=             -0.0849  XXZ=              1.2374  XZZ=             -0.3125  YZZ=              1.8830
  YYZ=             -2.1819  XYZ=             -0.0765
 Hexadecapole moment (field-independent basis, Debye-Ang**3):
 XXXX=          -1581.5619 YYYY=           -446.4089 ZZZZ=           -232.1440 XXXY=            -14.5686
 XXXZ=             -7.8473 YYYX=            -10.8749 YYYZ=              2.8827 ZZZX=              2.4296
 ZZZY=              2.5482 XXYY=           -334.6298 XXZZ=           -296.7937 YYZZ=           -111.4902
 XXYZ=              0.8842 YYXZ=              0.8640 ZZXY=             -3.0754
 N-N= 4.612204403024D+02 E-N=-1.736898433387D+03  KE= 3.492828866702D+02
 PrsmSu:  requested number of processors reduced to:  13 ShMem   1 Linda.
 Calling FoFJK, ICntrl=      2127 FMM=F ISym2X=0 I1Cent= 0 IOpClX= 0 NMat=1 NMatS=1 NMatT=0.
 ***** Axes restored to original set *****
 -------------------------------------------------------------------
 Center     Atomic                   Forces (Hartrees/Bohr)
 Number     Number              X              Y              Z
 -------------------------------------------------------------------
      1        6          -0.004254594   -0.004231439    0.003280371
      2        6          -0.003275180    0.002503339   -0.003346678
      3        6          -0.000624400   -0.023925810    0.040687325
      4        6          -0.028627242    0.021571959   -0.028179146
      5        6          -0.046918795   -0.011911521    0.028421109
      6        6           0.033916064    0.006363301    0.044292139
      7        6          -0.007319285   -0.042133093   -0.017779374
      8        6          -0.001800464    0.020290757   -0.001385945
      9        6           0.005106650    0.030139909   -0.043730874
     10        1          -0.002227997   -0.001692601   -0.000339133
     11        1          -0.000313018   -0.000238915    0.000169434
     12        1          -0.001631195   -0.001322162   -0.002349330
     13        1           0.001370348    0.003957071    0.006419841
     14        1           0.000858686   -0.003085424    0.001945552
     15        1          -0.005739173   -0.006494246    0.000162661
     16        1           0.003972403    0.001500677    0.004853624
     17        1           0.003692066    0.024677535    0.004104465
     18        1           0.041806693   -0.007569662   -0.039930241
     19        1           0.013915720   -0.017802189   -0.004663962
     20        1           0.015062073   -0.001544132   -0.002325663
     21        1          -0.001165071    0.006100634    0.003332062
     22        1          -0.002026054    0.002373271   -0.001801774
     23        1           0.001276515    0.000116144   -0.003559711
     24        1          -0.008724505   -0.004163441    0.000711409
     25        1          -0.006330245    0.006520038    0.011011842
 -------------------------------------------------------------------
 Cartesian Forces:  Max     0.046918795 RMS     0.016924435

 GradGradGradGradGradGradGradGradGradGradGradGradGradGradGradGradGradGrad
 Berny optimization.
 FormGI is forming the generalized inverse of G from B-inverse, IUseBI=4.
 Internal  Forces:  Max     0.029948027 RMS     0.008655067
 Search for a local minimum.
 Step number   1 out of a maximum of  150
 All quantities printed in internal units (Hartrees-Bohrs-Radians)
 Mixed Optimization -- RFO/linear search
 Second derivative matrix not updated -- first step.
 ITU=  0
     Eigenvalues ---    0.00336   0.00482   0.00688   0.00744   0.00859
     Eigenvalues ---    0.00895   0.01803   0.02028   0.02107   0.02547
     Eigenvalues ---    0.02935   0.03324   0.03392   0.03421   0.03794
     Eigenvalues ---    0.03838   0.04459   0.04906   0.05026   0.05429
     Eigenvalues ---    0.05550   0.05688   0.05725   0.05879   0.06965
     Eigenvalues ---    0.07672   0.07866   0.07884   0.08526   0.08621
     Eigenvalues ---    0.09438   0.11832   0.12481   0.12708   0.14415
     Eigenvalues ---    0.16000   0.16000   0.16000   0.16000   0.16000
     Eigenvalues ---    0.16000   0.16810   0.18100   0.19727   0.19951
     Eigenvalues ---    0.21812   0.21919   0.23137   0.25237   0.29196
     Eigenvalues ---    0.30225   0.31375   0.31766   0.32783   0.33125
     Eigenvalues ---    0.33125   0.33151   0.33292   0.33422   0.33880
     Eigenvalues ---    0.33938   0.34177   0.34455   0.34584   0.34655
     Eigenvalues ---    0.34749   0.34831   0.35358   0.35409
 RFO step:  Lambda=-7.87146052D-02 EMin= 3.36311854D-03
 Linear search not attempted -- first point.
 Maximum step size (   0.300) exceeded in Quadratic search.
    -- Step size scaled by   0.800
 Iteration  1 RMS(Cart)=  0.10239593 RMS(Int)=  0.00454260
 Iteration  2 RMS(Cart)=  0.00582655 RMS(Int)=  0.00134429
 Iteration  3 RMS(Cart)=  0.00001360 RMS(Int)=  0.00134422
 Iteration  4 RMS(Cart)=  0.00000003 RMS(Int)=  0.00134422
 Variable       Old X    -DE/DX   Delta X   Delta X   Delta X     New X
                                 (Linear)    (Quad)   (Total)
    R1        2.87516   0.00907   0.00000   0.01904   0.01904   2.89420
    R2        2.06240   0.00221   0.00000   0.00416   0.00416   2.06656
    R3        2.07032  -0.00015   0.00000  -0.00028  -0.00028   2.07004
    R4        2.07533  -0.00160   0.00000  -0.00306  -0.00306   2.07227
    R5        2.89597   0.00329   0.00000   0.00710   0.00710   2.90307
    R6        2.09433  -0.00572   0.00000  -0.01125  -0.01125   2.08308
    R7        2.06084   0.00368   0.00000   0.00691   0.00691   2.06775
    R8        2.84573   0.02898   0.00000   0.05851   0.05851   2.90424
    R9        2.08316   0.00155   0.00000   0.00301   0.00301   2.08617
   R10        2.08542  -0.00345   0.00000  -0.00671  -0.00671   2.07871
   R11        2.94047   0.02366   0.00000   0.06581   0.06841   3.00888
   R12        3.03550  -0.00212   0.00000  -0.01824  -0.01915   3.01635
   R13        2.12002  -0.00557   0.00000  -0.01136  -0.01136   2.10866
   R14        3.41159  -0.01634   0.00000  -0.08551  -0.08597   3.32562
   R15        2.90960  -0.00509   0.00000   0.00327   0.00220   2.91180
   R16        2.06570   0.00445   0.00000   0.00842   0.00842   2.07412
   R17        3.01224  -0.01414   0.00000  -0.03027  -0.03061   2.98164
   R18        2.08787  -0.01274   0.00000  -0.02486  -0.02486   2.06301
   R19        2.05098   0.01115   0.00000   0.02064   0.02064   2.07162
   R20        2.82133   0.01604   0.00000   0.03130   0.03130   2.85263
   R21        3.03603  -0.01915   0.00000  -0.05071  -0.05053   2.98551
   R22        2.05951   0.00534   0.00000   0.01001   0.01001   2.06952
   R23        2.06355   0.00191   0.00000   0.00360   0.00360   2.06715
   R24        2.07434  -0.00312   0.00000  -0.00598  -0.00598   2.06836
   R25        2.05015   0.00347   0.00000   0.00641   0.00641   2.05656
   R26        2.08833  -0.00433   0.00000  -0.00844  -0.00844   2.07989
    A1        1.94816   0.00166   0.00000   0.00536   0.00535   1.95351
    A2        1.93387  -0.00034   0.00000  -0.00121  -0.00121   1.93267
    A3        1.91902   0.00333   0.00000   0.01143   0.01141   1.93043
    A4        1.88506  -0.00094   0.00000  -0.00366  -0.00365   1.88140
    A5        1.89482  -0.00261   0.00000  -0.00867  -0.00870   1.88612
    A6        1.88105  -0.00132   0.00000  -0.00401  -0.00402   1.87703
    A7        1.91033   0.01271   0.00000   0.03575   0.03581   1.94614
    A8        1.88492   0.00010   0.00000   0.00836   0.00862   1.89354
    A9        1.93767  -0.00558   0.00000  -0.01545  -0.01543   1.92225
   A10        1.95327  -0.00765   0.00000  -0.02686  -0.02713   1.92613
   A11        1.92072  -0.00240   0.00000  -0.00536  -0.00537   1.91534
   A12        1.85646   0.00227   0.00000   0.00203   0.00187   1.85833
   A13        1.98622   0.00321   0.00000   0.00933   0.00931   1.99554
   A14        1.93666  -0.00796   0.00000  -0.03142  -0.03140   1.90526
   A15        1.86173   0.00365   0.00000   0.01643   0.01646   1.87820
   A16        1.96994   0.00516   0.00000   0.02123   0.02131   1.99125
   A17        1.85044  -0.00396   0.00000  -0.01194  -0.01202   1.83842
   A18        1.84766  -0.00015   0.00000  -0.00352  -0.00340   1.84426
   A19        2.67403  -0.01555   0.00000  -0.07175  -0.06942   2.60461
   A20        2.19068   0.01308   0.00000   0.04640   0.04558   2.23626
   A21        1.51263   0.01309   0.00000   0.06232   0.06501   1.57764
   A22        1.33637  -0.00002   0.00000   0.00428   0.00180   1.33817
   A23        1.64423  -0.00813   0.00000  -0.01729  -0.01423   1.63000
   A24        2.10713  -0.01606   0.00000  -0.07851  -0.07939   2.02774
   A25        1.29264   0.00828   0.00000   0.06818   0.06494   1.35758
   A26        1.62482  -0.01596   0.00000  -0.06444  -0.06237   1.56245
   A27        1.65163   0.00710   0.00000   0.03810   0.03917   1.69080
   A28        1.56183  -0.01804   0.00000  -0.06453  -0.06437   1.49746
   A29        2.67392   0.00652   0.00000   0.02539   0.01798   2.69190
   A30        2.02024   0.01454   0.00000   0.06753   0.06720   2.08744
   A31        1.22334   0.01168   0.00000   0.04154   0.04101   1.26435
   A32        2.21517  -0.00831   0.00000  -0.04287  -0.04679   2.16838
   A33        2.06016  -0.00369   0.00000  -0.01791  -0.01656   2.04360
   A34        1.90682  -0.00216   0.00000   0.02580   0.02812   1.93494
   A35        2.00586  -0.00086   0.00000   0.00073   0.00115   2.00701
   A36        1.91876   0.00650   0.00000   0.02146   0.01910   1.93786
   A37        1.37757   0.01385   0.00000   0.07636   0.07564   1.45321
   A38        2.08960  -0.00908   0.00000  -0.02449  -0.02336   2.06624
   A39        1.54933  -0.00168   0.00000  -0.01431  -0.01329   1.53603
   A40        2.40301   0.00073   0.00000  -0.00852  -0.00862   2.39439
   A41        1.66033  -0.01530   0.00000  -0.07175  -0.07180   1.58853
   A42        2.11053   0.01144   0.00000   0.05136   0.05001   2.16054
   A43        1.95584   0.00650   0.00000   0.02166   0.02167   1.97751
   A44        1.94134   0.00033   0.00000   0.00158   0.00154   1.94289
   A45        1.93485  -0.00389   0.00000  -0.01341  -0.01337   1.92148
   A46        1.88810  -0.00339   0.00000  -0.01071  -0.01076   1.87734
   A47        1.88035  -0.00180   0.00000  -0.00693  -0.00685   1.87350
   A48        1.85949   0.00197   0.00000   0.00685   0.00685   1.86634
   A49        1.34420   0.01216   0.00000   0.02961   0.02833   1.37253
   A50        2.10350  -0.00553   0.00000  -0.01715  -0.01578   2.08772
   A51        1.87623   0.00111   0.00000   0.02833   0.02842   1.90465
   A52        2.11884  -0.00664   0.00000  -0.02181  -0.02175   2.09709
   A53        2.03570  -0.00300   0.00000  -0.01579  -0.01621   2.01949
   A54        1.91728   0.00371   0.00000   0.00676   0.00605   1.92333
    D1       -3.07643  -0.00137   0.00000  -0.00601  -0.00588  -3.08231
    D2        1.07627   0.00022   0.00000  -0.00003  -0.00016   1.07610
    D3       -0.95264   0.00050   0.00000   0.00113   0.00110  -0.95154
    D4        1.10509  -0.00106   0.00000  -0.00416  -0.00402   1.10107
    D5       -1.02540   0.00053   0.00000   0.00183   0.00170  -1.02370
    D6       -3.05431   0.00081   0.00000   0.00298   0.00296  -3.05135
    D7       -0.97249  -0.00132   0.00000  -0.00570  -0.00555  -0.97804
    D8       -3.10298   0.00027   0.00000   0.00029   0.00017  -3.10282
    D9        1.15130   0.00055   0.00000   0.00144   0.00143   1.15272
   D10       -2.82791  -0.00042   0.00000  -0.00578  -0.00571  -2.83362
   D11        1.21081  -0.00332   0.00000  -0.01559  -0.01544   1.19537
   D12       -0.79373  -0.00114   0.00000  -0.00468  -0.00448  -0.79821
   D13       -0.73893   0.00329   0.00000   0.01135   0.01110  -0.72783
   D14       -2.98339   0.00039   0.00000   0.00155   0.00137  -2.98202
   D15        1.29525   0.00257   0.00000   0.01245   0.01233   1.30758
   D16        1.32131  -0.00023   0.00000  -0.00646  -0.00649   1.31482
   D17       -0.92315  -0.00313   0.00000  -0.01627  -0.01622  -0.93937
   D18       -2.92769  -0.00096   0.00000  -0.00536  -0.00526  -2.93295
   D19       -0.57304  -0.00189   0.00000  -0.04189  -0.04145  -0.61449
   D20       -3.03920   0.00126   0.00000   0.01094   0.01259  -3.02661
   D21        1.04549   0.00542   0.00000   0.04054   0.03833   1.08382
   D22        1.65434  -0.00567   0.00000  -0.05897  -0.05846   1.59589
   D23       -0.81181  -0.00252   0.00000  -0.00614  -0.00442  -0.81623
   D24       -3.01031   0.00164   0.00000   0.02346   0.02132  -2.98899
   D25       -2.61381  -0.00557   0.00000  -0.05941  -0.05892  -2.67272
   D26        1.20323  -0.00242   0.00000  -0.00658  -0.00488   1.19835
   D27       -0.99527   0.00174   0.00000   0.02302   0.02086  -0.97441
   D28        2.79553   0.01011   0.00000   0.08293   0.08535   2.88088
   D29       -1.94165  -0.00360   0.00000   0.03837   0.03690  -1.90474
   D30        0.08575   0.00991   0.00000   0.10274   0.09992   0.18567
   D31       -0.89669   0.01343   0.00000   0.06340   0.06698  -0.82971
   D32        0.64932  -0.00028   0.00000   0.01885   0.01854   0.66785
   D33        2.67672   0.01323   0.00000   0.08321   0.08155   2.75827
   D34        1.20836  -0.00120   0.00000  -0.01362  -0.01149   1.19687
   D35        2.75437  -0.01491   0.00000  -0.05818  -0.05993   2.69444
   D36       -1.50141  -0.00140   0.00000   0.00619   0.00308  -1.49833
   D37       -2.38645  -0.02995   0.00000  -0.16903  -0.16929  -2.55574
   D38        0.04136  -0.02340   0.00000  -0.13880  -0.13828  -0.09693
   D39        2.23046  -0.01412   0.00000  -0.09563  -0.09579   2.13467
   D40        1.04908  -0.01944   0.00000  -0.10636  -0.10526   0.94382
   D41       -2.80629  -0.01289   0.00000  -0.07613  -0.07426  -2.88055
   D42       -0.61719  -0.00361   0.00000  -0.03296  -0.03176  -0.64896
   D43       -0.46748  -0.01407   0.00000  -0.10962  -0.11076  -0.57824
   D44        1.96033  -0.00752   0.00000  -0.07939  -0.07976   1.88057
   D45       -2.13375   0.00176   0.00000  -0.03622  -0.03726  -2.17102
   D46        0.95176  -0.01540   0.00000  -0.08511  -0.08580   0.86595
   D47       -0.78637  -0.02283   0.00000  -0.15739  -0.15725  -0.94362
   D48        2.84300  -0.01049   0.00000  -0.06229  -0.06367   2.77932
   D49       -0.67779  -0.00376   0.00000  -0.03481  -0.03439  -0.71219
   D50       -2.41592  -0.01118   0.00000  -0.10708  -0.10584  -2.52176
   D51        1.21345   0.00116   0.00000  -0.01199  -0.01226   1.20118
   D52        2.13369   0.01363   0.00000   0.13499   0.13552   2.26921
   D53        0.39557   0.00620   0.00000   0.06271   0.06408   0.45964
   D54       -2.25825   0.01854   0.00000   0.15781   0.15765  -2.10060
   D55       -0.64779  -0.00184   0.00000  -0.02249  -0.02224  -0.67003
   D56        1.42910  -0.00327   0.00000  -0.03275  -0.03319   1.39591
   D57       -2.64075  -0.00150   0.00000  -0.00986  -0.01011  -2.65086
   D58        0.64391   0.00578   0.00000   0.04362   0.04367   0.68758
   D59        2.72080   0.00435   0.00000   0.03335   0.03272   2.75353
   D60       -1.34904   0.00613   0.00000   0.05624   0.05580  -1.29324
   D61       -2.33472  -0.00353   0.00000  -0.04077  -0.03946  -2.37418
   D62       -0.25783  -0.00496   0.00000  -0.05104  -0.05041  -0.30824
   D63        1.95551  -0.00319   0.00000  -0.02815  -0.02733   1.92818
   D64       -0.88356   0.00314   0.00000   0.03378   0.03884  -0.84472
   D65       -3.01953   0.00064   0.00000  -0.01397  -0.01094  -3.03047
   D66        0.64770   0.00582   0.00000   0.04089   0.04127   0.68897
   D67        1.26989  -0.00328   0.00000  -0.01025  -0.00751   1.26238
   D68       -0.86608  -0.00578   0.00000  -0.05800  -0.05729  -0.92337
   D69        2.80115  -0.00060   0.00000  -0.00314  -0.00508   2.79607
   D70       -2.84737   0.00297   0.00000   0.03932   0.04262  -2.80475
   D71        1.29984   0.00048   0.00000  -0.00842  -0.00716   1.29269
   D72       -1.31611   0.00565   0.00000   0.04644   0.04505  -1.27106
   D73       -2.50190  -0.00549   0.00000  -0.03856  -0.03871  -2.54061
   D74       -0.38588  -0.00507   0.00000  -0.03604  -0.03615  -0.42203
   D75        1.67974  -0.00491   0.00000  -0.03514  -0.03524   1.64450
   D76       -0.62782   0.00747   0.00000   0.05516   0.05552  -0.57231
   D77        1.48820   0.00790   0.00000   0.05767   0.05808   1.54628
   D78       -2.72936   0.00805   0.00000   0.05857   0.05899  -2.67038
   D79        1.89189  -0.00482   0.00000  -0.03930  -0.03961   1.85227
   D80       -2.27527  -0.00439   0.00000  -0.03679  -0.03705  -2.31232
   D81       -0.20965  -0.00424   0.00000  -0.03589  -0.03614  -0.24580
   D82        0.62342   0.00868   0.00000   0.04451   0.04510   0.66852
   D83       -1.43653   0.00868   0.00000   0.04918   0.04919  -1.38733
   D84        2.42588   0.01590   0.00000   0.09190   0.09122   2.51710
   D85       -0.75135  -0.00567   0.00000  -0.03370  -0.03263  -0.78397
   D86       -2.81130  -0.00568   0.00000  -0.02902  -0.02853  -2.83983
   D87        1.05111   0.00154   0.00000   0.01369   0.01350   1.06461
   D88        2.79499   0.00074   0.00000   0.02401   0.02565   2.82064
   D89        0.73504   0.00074   0.00000   0.02869   0.02974   0.76478
   D90       -1.68574   0.00795   0.00000   0.07140   0.07177  -1.61397
         Item               Value     Threshold  Converged?
 Maximum Force            0.029948     0.000450     NO 
 RMS     Force            0.008655     0.000300     NO 
 Maximum Displacement     0.509589     0.001800     NO 
 RMS     Displacement     0.101445     0.001200     NO 
 Predicted change in Energy=-5.301144D-02
 GradGradGradGradGradGradGradGradGradGradGradGradGradGradGradGradGradGrad

                          Input orientation:                          
 ---------------------------------------------------------------------
 Center     Atomic      Atomic             Coordinates (Angstroms)
 Number     Number       Type             X           Y           Z
 ---------------------------------------------------------------------
      1          6           0        0.884971   -0.214339    0.111507
      2          6           0        2.395845    0.032385    0.156493
      3          6           0        2.728246    1.368508    0.837899
      4          6           0        4.145478    1.889811    0.552181
      5          6           0        5.687516    1.589185    0.293436
      6          6           0        5.541026    3.262346   -0.232023
      7          6           0        4.879634    3.152347    1.196248
      8          6           0        4.090980    4.045417    2.123168
      9          6           0        6.020649    2.172594    1.680121
     10          1           0        0.643184   -1.190375   -0.318378
     11          1           0        0.384920    0.550640   -0.492397
     12          1           0        0.456722   -0.171442    1.120116
     13          1           0        2.782752    0.021560   -0.875636
     14          1           0        2.895603   -0.785818    0.683816
     15          1           0        2.481705    1.298867    1.911715
     16          1           0        2.049667    2.130044    0.426073
     17          1           0        3.908464    1.960294   -0.535933
     18          1           0        5.590892    0.502712    0.171316
     19          1           0        4.816943    3.613311   -0.969811
     20          1           0        6.462003    3.855652   -0.271521
     21          1           0        4.372902    5.101212    2.051348
     22          1           0        3.017553    3.976123    1.924300
     23          1           0        4.243253    3.736997    3.162247
     24          1           0        5.876215    1.562025    2.569339
     25          1           0        7.041658    2.583235    1.662828
 ---------------------------------------------------------------------
                    Distance matrix (angstroms):
                    1          2          3          4          5
     1  C    0.000000
     2  C    1.531547   0.000000
     3  C    2.535885   1.536238   0.000000
     4  C    3.905451   2.582211   1.536860   0.000000
     5  C    5.133247   3.643827   3.017021   1.592232   0.000000
     6  C    5.821013   4.525014   3.555712   2.108644   1.759840
     7  C    5.335595   4.121221   2.817617   1.596185   1.977680
     8  C    5.698315   4.779719   3.267232   2.667885   3.453972
     9  C    5.876494   4.476733   3.492250   2.206463   1.540856
    10  H    1.093576   2.189171   3.497477   4.744627   5.791853
    11  H    1.095420   2.175654   2.815985   4.126296   5.460186
    12  H    1.096600   2.174929   2.758789   4.263595   5.580718
    13  H    2.152132   1.102318   2.180239   2.717728   3.501690
    14  H    2.167202   1.094204   2.166303   2.956096   3.686165
    15  H    2.842552   2.166138   1.103954   2.228383   3.602823
    16  H    2.636589   2.143056   1.100003   2.113301   3.680226
    17  H    3.780174   2.546429   1.905398   1.115856   1.997649
    18  H    4.760612   3.229513   3.064095   2.039196   1.097576
    19  H    5.592902   4.466912   3.559440   2.395366   2.539839
    20  H    6.914826   5.597696   4.621432   3.147904   2.460870
    21  H    6.647084   5.761270   4.255635   3.551383   4.141594
    22  H    5.039255   4.366318   2.839652   2.740005   3.935212
    23  H    6.016488   5.115821   3.647956   3.199079   3.863815
    24  H    5.840284   4.502732   3.597922   2.678026   2.283873
    25  H    6.938141   5.509941   4.556489   3.178401   2.167272
                    6          7          8          9         10
     6  C    0.000000
     7  C    1.577814   0.000000
     8  C    2.874501   1.509546   0.000000
     9  C    2.252530   1.579862   2.725322   0.000000
    10  H    6.619897   6.253067   6.727701   6.649864   0.000000
    11  H    5.831515   5.461031   5.726214   6.253960   1.768648
    12  H    6.282462   5.533129   5.656487   6.063448   1.772642
    13  H    4.304069   4.300168   5.186108   4.652184   2.521324
    14  H    4.921855   4.439382   5.180877   4.417097   2.498290
    15  H    4.220226   3.114056   3.190300   3.652555   3.814421
    16  H    3.728912   3.105960   3.273491   4.164510   3.682063
    17  H    2.110204   2.316164   3.384061   3.068761   4.542698
    18  H    2.789400   2.928641   4.313957   2.291220   5.252253
    19  H    1.091698   2.215453   3.206284   3.247570   6.396877
    20  H    1.096253   2.269995   3.375247   2.614648   7.702158
    21  H    3.155903   2.187704   1.095144   3.380781   7.688334
    22  H    3.395162   2.162409   1.093890   3.511542   6.112278
    23  H    3.664775   2.147544   1.094530   2.793419   7.025258
    24  H    3.294097   2.325441   3.090853   1.088285   6.580216
    25  H    2.510687   2.283842   3.325116   1.100629   7.688029
                   11         12         13         14         15
    11  H    0.000000
    12  H    1.768264   0.000000
    13  H    2.485236   3.070944   0.000000
    14  H    3.077844   2.552637   1.759683   0.000000
    15  H    3.276600   2.624689   3.080823   2.454580   0.000000
    16  H    2.471738   2.883749   2.584099   3.047013   1.756315
    17  H    3.795311   4.381931   2.267447   3.170931   2.909314
    18  H    5.248329   5.264448   3.035336   3.031097   3.651013
    19  H    5.408392   6.140332   4.128859   5.077240   4.371862
    20  H    6.921187   7.363256   5.348094   5.930862   5.210224
    21  H    6.563715   6.633592   6.074428   6.221710   4.248994
    22  H    4.950264   4.940330   4.851118   4.922373   2.730382
    23  H    6.196453   5.812402   5.678207   5.330538   3.257508
    24  H    6.368002   5.871632   4.879590   4.236935   3.467625
    25  H    7.286192   7.158503   5.580704   5.431276   4.743914
                   16         17         18         19         20
    16  H    0.000000
    17  H    2.099857   0.000000
    18  H    3.905559   2.335661   0.000000
    19  H    3.436043   1.935472   3.402499   0.000000
    20  H    4.788848   3.191059   3.492441   1.803486   0.000000
    21  H    4.106918   4.095741   5.115098   3.396826   3.363255
    22  H    2.567001   3.303035   4.664720   3.427144   4.086610
    23  H    3.857560   4.116467   4.606777   4.173526   4.089950
    24  H    4.422523   3.697753   2.637057   4.225567   3.697886
    25  H    5.162840   3.878081   2.942432   3.597389   2.386787
                   21         22         23         24         25
    21  H    0.000000
    22  H    1.766051   0.000000
    23  H    1.764083   1.758418   0.000000
    24  H    3.879963   3.796827   2.783632   0.000000
    25  H    3.689637   4.266372   3.377942   1.795241   0.000000
 Stoichiometry    C9H16
 Framework group  C1[X(C9H16)]
 Deg. of freedom    69
 Full point group                 C1      NOp   1
 Largest Abelian subgroup         C1      NOp   1
 Largest concise Abelian subgroup C1      NOp   1
                         Standard orientation:                         
 ---------------------------------------------------------------------
 Center     Atomic      Atomic             Coordinates (Angstroms)
 Number     Number       Type             X           Y           Z
 ---------------------------------------------------------------------
      1          6           0        3.751469    0.237483    0.088136
      2          6           0        2.430045   -0.502342   -0.140201
      3          6           0        1.231354    0.457126   -0.089320
      4          6           0       -0.125221   -0.234664    0.118216
      5          6           0       -1.079782   -1.481401   -0.145726
      6          6           0       -1.894306   -0.663390    1.182598
      7          6           0       -1.581041    0.418602    0.077765
      8          6           0       -1.691465    1.917077   -0.067522
      9          6           0       -1.948182   -0.604722   -1.068523
     10          1           0        4.613829   -0.428432   -0.005682
     11          1           0        3.779096    0.682085    1.088891
     12          1           0        3.869051    1.050580   -0.638210
     13          1           0        2.328965   -1.283559    0.630894
     14          1           0        2.449306   -1.018901   -1.104606
     15          1           0        1.266036    1.127169   -0.965991
     16          1           0        1.363070    1.108109    0.787538
     17          1           0        0.214163   -0.619929    1.108935
     18          1           0       -0.318126   -2.139856   -0.582750
     19          1           0       -1.416367   -0.402546    2.128821
     20          1           0       -2.958526   -0.883369    1.326877
     21          1           0       -2.541195    2.343592    0.475971
     22          1           0       -0.786791    2.418849    0.287984
     23          1           0       -1.811039    2.184814   -1.122043
     24          1           0       -1.627056   -0.418066   -2.091461
     25          1           0       -2.981650   -0.983154   -1.057711
 ---------------------------------------------------------------------
 Rotational constants (GHZ):           2.9615966           0.8787364           0.7857640
 Standard basis: 6-31G(2df,p) (6D, 7F)
 There are   359 symmetry adapted cartesian basis functions of A   symmetry.
 There are   332 symmetry adapted basis functions of A   symmetry.
   332 basis functions,   508 primitive gaussians,   359 cartesian basis functions
    35 alpha electrons       35 beta electrons
       nuclear repulsion energy       458.7996993804 Hartrees.
 NAtoms=   25 NActive=   25 NUniq=   25 SFac= 1.00D+00 NAtFMM=   60 NAOKFM=F Big=F
 Integral buffers will be    131072 words long.
 Raffenetti 2 integral format.
 Two-electron integral symmetry is turned on.
 One-electron integrals computed using PRISM.
 PrsmSu:  requested number of processors reduced to:  13 ShMem   1 Linda.
 NBasis=   332 RedAO= T EigKep=  4.61D-04  NBF=   332
 NBsUse=   332 1.00D-06 EigRej= -1.00D+00 NBFU=   332
 Initial guess from the checkpoint file:  "CCCCC12CCqC1rC2.chk"
 B after Tr=    -0.000000   -0.000000   -0.000000
         Rot=    0.999930   -0.004042    0.011123    0.000962 Ang=  -1.36 deg.
 ExpMin= 1.61D-01 ExpMax= 3.05D+03 ExpMxC= 4.57D+02 IAcc=2 IRadAn=         4 AccDes= 0.00D+00
 Harris functional with IExCor=  402 and IRadAn=       4 diagonalized for initial guess.
 HarFok:  IExCor=  402 AccDes= 0.00D+00 IRadAn=         4 IDoV= 1 UseB2=F ITyADJ=14
 ICtDFT=  3500011 ScaDFX=  1.000000  1.000000  1.000000  1.000000
 FoFCou: FMM=F IPFlag=           0 FMFlag=      100000 FMFlg1=           0
         NFxFlg=           0 DoJE=T BraDBF=F KetDBF=T FulRan=T
         wScrn=  0.000000 ICntrl=       500 IOpCl=  0 I1Cent=   200000004 NGrid=           0
         NMat0=    1 NMatS0=      1 NMatT0=    0 NMatD0=    1 NMtDS0=    0 NMtDT0=    0
 Petite list used in FoFCou.
 Requested convergence on RMS density matrix=1.00D-08 within 128 cycles.
 Requested convergence on MAX density matrix=1.00D-06.
 Requested convergence on             energy=1.00D-06.
 No special actions if energy rises.
 Integral accuracy reduced to 1.0D-05 until final iterations.
 Initial convergence to 1.0D-05 achieved.  Increase integral accuracy.
 SCF Done:  E(RB3LYP) =  -352.428361026     A.U. after   11 cycles
            NFock= 11  Conv=0.43D-08     -V/T= 2.0094
 PrsmSu:  requested number of processors reduced to:  13 ShMem   1 Linda.
 Calling FoFJK, ICntrl=      2127 FMM=F ISym2X=0 I1Cent= 0 IOpClX= 0 NMat=1 NMatS=1 NMatT=0.
 ***** Axes restored to original set *****
 -------------------------------------------------------------------
 Center     Atomic                   Forces (Hartrees/Bohr)
 Number     Number              X              Y              Z
 -------------------------------------------------------------------
      1        6           0.000078413   -0.000711823    0.002197439
      2        6          -0.001538448    0.001445809   -0.002075988
      3        6           0.008715935   -0.018277803    0.033391480
      4        6          -0.019700933    0.022540957   -0.041729208
      5        6          -0.054110844    0.003744046    0.034457452
      6        6           0.021103777   -0.009700309    0.030656056
[...]
 0.00071618,0.00012883,-0.00379809,0.00632930,-0.01328956,-0.05726463,0
 .08562263,-0.23593271,0.00171864,-0.00260599,0.00214001,0.00294600,-0.
 00092070,0.00076996,-0.00713952,0.00905597,-0.01301929,-0.00021408,0.0
 0053715,0.00009771,-0.00297174,-0.00150266,-0.00159989,0.00009422,0.00
 007361,0.00002024,-0.00000489,-0.00000392,-0.00003701,-0.00020768,-0.0
 0021680,0.00005910,0.00040107,0.00043823,0.00091859,0.00003411,-0.0000
 1264,0.00005589,0.00244365,0.00122861,-0.00006768,0.00031334,-0.000412
 56,0.00020519,0.06499539,-0.09605717,0.25727592,0.00011838,-0.00033946
 ,-0.00015362,-0.00026269,0.00038415,0.00029037,0.00056924,0.00083623,-
 0.00002434,0.00330604,0.01499143,0.01107923,-0.08556112,0.07671846,0.0
 4399058,0.00395773,-0.00560163,-0.00708070,-0.00394644,0.00212846,0.00
 099262,0.00301469,0.00083572,0.00055113,0.00007298,-0.00444254,-0.0008
 9322,-0.00008123,-0.00005566,0.00001108,0.00012769,0.00007531,-0.00002
 732,-0.00000330,0.00002628,-0.00000048,0.00003011,-0.00001167,-0.00000
 088,-0.00013347,-0.00064140,-0.00015549,-0.00018262,-0.00021590,0.0002
 2705,-0.00041990,-0.00042025,0.00019800,0.00018857,0.00014193,-0.00038
 141,0.07870179,0.00001070,0.00017845,0.00011938,0.00040997,-0.00035254
 ,-0.00040586,0.00017013,0.00040870,0.00036094,-0.00248230,-0.00144255,
 0.00024426,0.07560047,-0.22398209,-0.10017406,0.00995449,-0.00592051,-
 0.01046475,0.00236072,-0.00760832,-0.00277248,0.00078834,0.00144406,-0
 .00113094,-0.00156530,0.00160812,0.00238396,0.00005266,0.00003781,-0.0
 0000853,-0.00005864,-0.00000216,0.00002489,-0.00000817,-0.00001998,0.0
 0000562,0.00000415,-0.00000776,0.00003601,-0.00029566,0.00023941,-0.00
 000872,0.00002468,0.00002120,-0.00003535,-0.00007905,-0.00001711,0.000
 05092,0.00019217,-0.00020735,0.00000162,-0.08502585,0.23581555,-0.0000
 1345,0.00008625,0.00000896,0.00028490,-0.00028425,-0.00005276,0.000171
 96,-0.00002858,-0.00011744,-0.00026419,0.00388627,0.00039218,0.0432960
 8,-0.10046576,-0.11030982,-0.00506296,0.00506237,0.00360824,0.00102833
 ,-0.00264192,-0.00451923,0.00048568,-0.00109382,0.00280072,0.00912219,
 -0.01665646,-0.00012365,0.00000833,0.00000181,0.00000005,-0.00004310,0
 .00000034,0.00001485,0.00001241,-0.00000912,-0.00000939,-0.00006903,0.
 00006054,-0.00000810,-0.00008889,0.00017146,0.00009533,-0.00005676,-0.
 00016233,0.00006082,-0.00005507,-0.00000383,0.00007010,0.00027685,0.00
 024839,0.00026905,-0.04900783,0.11255958,0.10738382,-0.00000561,0.0000
 1163,0.00000896,0.00001033,-0.00004680,-0.00002803,0.00034802,0.000287
 54,-0.00023272,0.00156719,-0.00097785,0.00496949,-0.00200501,-0.000148
 18,0.00303670,-0.06991496,0.02619674,-0.06322099,0.00444728,-0.0098503
 7,0.01227111,0.00056156,-0.00046857,-0.00045825,-0.00249064,-0.0018313
 7,0.00198161,0.00000863,0.00001164,0.00000208,-0.00000298,-0.00000161,
 0.,0.00000376,0.00000279,-0.00000290,-0.00001391,-0.00001809,-0.000010
 78,-0.00000681,0.00001225,0.00000100,0.00017521,0.00003036,0.00011996,
 0.00002580,0.00000876,0.00000882,-0.00038905,-0.00006754,-0.00052790,0
 .00010248,0.00023836,-0.00033749,0.07178677,-0.00001769,0.00001736,-0.
 00001465,0.00003976,-0.00003115,0.00002568,-0.00009750,0.00016879,-0.0
 0038127,0.00295365,-0.00190288,0.00042191,0.00487705,-0.00467324,0.024
 41159,0.02491059,-0.08608131,0.08878207,-0.00292151,0.00101643,-0.0071
 6473,-0.00055197,0.00067411,-0.00019729,-0.00308281,-0.00408204,0.0028
 5457,-0.00000634,-0.00000796,-0.00000058,-0.00000462,-0.00000036,0.000
 00190,0.00001241,0.00001074,-0.00001160,-0.00005258,-0.00000257,-0.000
 04996,0.00000041,0.00002925,0.00002980,0.00019708,0.00013313,-0.000128
 07,-0.00008947,-0.00004374,0.00001802,-0.00099195,0.00042743,-0.000608
 67,0.00025772,-0.00000372,-0.00010933,-0.02410480,0.09027970,-0.000002
 36,0.00001347,0.00003118,0.00004547,0.00000589,-0.00008142,0.00039413,
 -0.00010105,0.00051565,-0.00159572,-0.00233655,-0.00001015,0.00131715,
 -0.00257622,-0.00002480,-0.06127920,0.09020214,-0.24636567,-0.00770972
 ,0.01111378,-0.01310175,-0.00032707,0.00049307,0.00029032,0.00405775,0
 .00340575,-0.00451476,0.00001624,0.00001922,-0.00000128,0.00000706,-0.
 00000313,-0.00000582,-0.00000779,-0.00001043,0.00000487,0.00003705,0.0
 0000950,0.00005454,-0.00000529,-0.00001115,-0.00001258,-0.00019022,-0.
 00023302,0.00026842,0.00008527,0.00001612,-0.00000259,0.00101667,0.000
 03651,0.00105529,0.00023854,0.00027265,0.00030311,0.06499159,-0.103495
 94,0.26777826,0.00002191,-0.00017545,-0.00023967,-0.00038737,-0.000032
 09,0.00050618,0.00026834,-0.00027940,-0.00145799,-0.00544019,-0.003433
 18,0.00378330,-0.00250394,0.00212779,0.00080659,-0.27150106,-0.0567319
 0,-0.06965844,-0.01343396,-0.00770212,-0.00783168,0.00017629,-0.000308
 50,-0.00023052,0.00042124,0.00196849,-0.00116159,-0.00010132,-0.000093
 82,0.00001080,0.00000313,0.00002192,0.00000880,0.00000498,0.00000455,0
 .00002257,-0.00000016,0.00001690,-0.00002488,0.00001893,-0.00005234,-0
 .00002750,-0.00007187,-0.00014830,0.00018724,-0.00011611,-0.00001417,0
 .00006964,0.00042645,0.00019578,0.00016152,0.00023651,-0.00033644,0.00
 014986,-0.00568898,-0.00185177,-0.00074032,0.29597495,0.00001172,0.000
 00037,-0.00003370,0.00015835,0.00019985,0.00010274,-0.00155537,0.00192
 257,-0.00023514,-0.00264095,-0.00436196,0.00217344,-0.02563272,-0.0016
 8280,-0.00438765,-0.05496255,-0.05980910,-0.01380129,0.00755211,-0.000
 06159,0.00311871,0.00032027,0.00051712,0.00055432,-0.00119756,-0.00154
 431,-0.00285321,-0.00001335,-0.00003992,-0.00000659,0.00000970,-0.0000
 0493,0.00000757,-0.00000088,-0.00000015,0.00001116,-0.00002729,0.00000
 200,-0.00002547,0.00004675,0.00002448,-0.00001253,0.00013213,0.0000281
 4,0.00000434,-0.00065787,-0.00035142,0.00023351,-0.00004993,0.00007371
 ,-0.00038763,0.00016690,0.00011221,-0.00031197,0.01147823,0.00301474,0
 .00293078,0.06627799,0.06175933,0.00001977,0.00011176,0.00013833,0.000
 38774,0.00011362,-0.00031429,0.00088958,0.00086537,0.00185624,0.002053
 20,0.00142553,-0.00270464,-0.00026024,-0.00019322,-0.00274510,-0.07162
 750,-0.01485860,-0.07189615,0.01571026,0.00796984,0.00591654,-0.000322
 07,0.00046868,0.00066274,0.00444686,-0.00030793,0.00125834,0.00004629,
 0.00004139,-0.00002370,-0.00000645,-0.00000875,0.00000175,-0.00000806,
 -0.00000139,-0.00000136,0.00002869,-0.00000413,0.00002766,-0.00001183,
 0.00002736,0.00000198,-0.00025395,-0.00016506,0.00009962,-0.00000201,-
 0.00006830,0.00002017,0.00049925,-0.00022695,0.00061590,-0.00035019,-0
 .00019989,0.00002844,-0.02409577,-0.00685346,-0.00591460,0.07377828,0.
 01243313,0.07309074,0.00000685,0.00002899,0.00001769,0.00014797,0.0000
 2154,-0.00006522,-0.00025351,0.00014386,0.00016210,-0.00042262,0.00240
 360,0.00151651,0.00086178,-0.00001212,0.00014331,0.00077105,-0.0006044
 9,-0.00023163,0.01004557,0.00589466,0.00642170,-0.19012832,-0.09045833
 ,-0.09235885,0.00053901,-0.00051988,-0.00032916,0.00000648,-0.00000540
 ,-0.00000941,0.00001334,0.00000457,0.00000295,0.00000147,0.00000358,0.
 00000251,-0.00001614,-0.00001374,-0.00001428,-0.00001070,-0.00005052,-
 0.00003234,0.00002272,0.00002786,-0.00002803,0.00023062,0.00000453,-0.
 00000941,-0.00001452,0.00004300,0.00003861,-0.00020030,-0.00009969,-0.
 00009978,-0.00004709,0.00002159,0.00000238,0.00001059,-0.00017153,-0.0
 0023066,0.20476609,0.00001739,-0.00005663,-0.00010709,-0.00020521,-0.0
 0002653,0.00022322,0.00054522,0.00010310,-0.00042340,0.00328932,-0.001
 16209,-0.00041106,-0.00062517,-0.00006980,-0.00046464,0.00017400,0.000
 85806,0.00016631,-0.02305147,-0.01518910,-0.01432116,-0.09052154,-0.10
 277791,-0.05777256,-0.00060164,0.00076323,0.00070925,-0.00004955,-0.00
 004506,0.00000459,-0.00001483,0.00000554,0.00001029,-0.00000374,-0.000
 00476,0.00001709,0.00001558,0.00001065,0.00000392,0.00001250,0.0000140
 6,0.00000110,-0.00006325,-0.00004336,0.00009546,-0.00009435,0.00008105
 ,0.00011909,0.00001464,-0.00021424,-0.00029072,0.00079081,-0.00006053,
 0.00019802,0.00009843,0.00002932,0.00000447,0.00054777,-0.00002076,-0.
 00026668,0.09904418,0.11211476,0.00001070,-0.00004688,-0.00007544,-0.0
 0020928,-0.00003608,0.00016576,0.00034400,-0.00015657,-0.00030234,0.00
 220937,-0.00064088,0.00078860,-0.00023198,-0.00037486,0.00001578,-0.00
 058055,0.00055587,0.00010596,-0.01304002,-0.00790750,-0.00957914,-0.09
 240489,-0.05778873,-0.10504006,0.00047013,0.00006737,0.00052933,-0.000
 03478,-0.00002682,0.00000647,-0.00001214,0.00000379,0.00000114,-0.0000
 0062,-0.00000685,0.00001026,0.00001304,0.00002259,0.00001979,0.0000204
 9,0.00002702,0.00002349,-0.00001291,-0.00010427,0.00005675,-0.00015994
 ,0.00005367,-0.00004219,-0.00002592,0.00014749,0.00006272,0.00051659,-
 0.00002426,0.00004834,0.00005128,-0.00000328,0.00000140,0.00044178,-0.
 00005191,-0.00007098,0.10138243,0.06645266,0.11218498,-0.00000074,0.00
 000146,0.00000987,0.00000337,0.00002129,-0.00003526,0.00002810,-0.0000
 7077,0.00007238,0.00039654,-0.00008260,0.00049406,0.00017744,0.0003084
 6,-0.00018671,0.00006008,-0.00039483,-0.00065340,-0.00651854,0.0077642
 6,-0.00841691,-0.08867447,0.06628246,-0.06904445,0.00089523,0.00043453
 ,0.00155638,0.00000652,0.00000939,0.00000033,0.00000275,-0.00000265,-0
 .00000060,-0.00000116,0.00000379,-0.00000269,0.00000005,-0.00000666,-0
 .00001017,0.00000135,-0.00000416,-0.00000111,-0.00003681,0.00002803,-0
 .00000592,0.00000513,-0.00001665,0.00002000,0.00015873,0.00022670,0.00
 023769,0.00002450,-0.00004893,0.00039785,-0.00002143,-0.00000761,0.000
 37522,-0.00000155,0.00000550,0.00003498,-0.00971399,0.01596169,-0.0157
 1880,0.09323931,0.00001011,-0.00001185,-0.00001204,-0.00005140,0.00001
 883,0.00001806,-0.00000049,-0.00018514,-0.00006975,-0.00034006,0.00060
 571,0.00063969,0.00036693,-0.00023810,0.00055033,-0.00004773,0.0009323
 5,-0.00005015,0.01204920,-0.01975813,0.02045534,0.06633982,-0.15027581
 ,0.10822717,0.00010288,-0.00063065,-0.00355363,-0.00000864,-0.00000469
 ,0.00000037,-0.00001973,0.00000024,0.00000589,0.00000239,0.00000914,-0
 .00000618,-0.00000998,-0.00001892,-0.00004204,0.00000090,0.00004718,0.
 00002076,0.00005575,0.00015517,-0.00010236,-0.00018341,-0.00007010,0.0
 0006065,-0.00027368,-0.00015312,-0.00066061,-0.00018731,0.00007197,-0.
 00084495,0.00027567,0.00000071,-0.00063630,0.00000281,0.00003720,-0.00
 009836,-0.00595043,0.01041217,-0.01054243,-0.07546059,0.16485671,-0.00
 001087,0.00001448,0.00000968,0.00001525,-0.00003564,-0.00002029,-0.000
 10918,0.00007881,-0.00001652,-0.00037829,0.00047757,0.00069963,0.00017
 008,-0.00012981,0.00095199,-0.00012193,0.00067273,0.00088330,0.0072360
 0,-0.01069634,0.01204423,-0.06910728,0.10826023,-0.15923964,0.00114518
 ,-0.00285743,-0.00103941,0.00000874,0.00000715,0.00000216,0.00000501,-
 0.00000141,-0.00000452,0.00000336,-0.00000520,-0.00000068,-0.00000412,
 0.00000432,0.00001188,-0.00000338,0.00000017,0.00000243,0.00006280,-0.
 00003789,-0.00000569,0.00002838,0.00000030,-0.00004744,-0.00008311,0.0
 0024515,-0.00004608,-0.00009605,0.00015373,-0.00030043,-0.00016342,0.0
 0020782,-0.00004309,0.00000309,-0.00000892,-0.00005783,-0.00480548,0.0
 0958763,-0.01033370,0.07573654,-0.11829415,0.17079386,0.00000596,0.000
 02619,0.00005329,0.00008789,0.00006310,-0.00016706,0.00016700,0.000175
 40,0.00034714,0.00031101,0.00019935,-0.00016842,-0.00008938,0.00004844
 ,0.00047680,0.00150925,0.00148539,-0.00062106,-0.00948903,-0.00279932,
 0.00796048,-0.17257450,-0.04571797,0.12116526,0.00001614,-0.00039505,-
 0.00016144,0.00001919,0.00001493,-0.00000892,0.00000924,-0.00000108,-0
 .00000055,-0.00000082,0.00001158,-0.00000821,-0.00001239,-0.00002480,-
 0.00002528,-0.00001528,-0.00002683,-0.00001099,-0.00002412,0.00012162,
 -0.00006695,0.00007679,-0.00003866,0.00002305,0.00004501,-0.00000232,-
 0.00000176,0.00015796,0.00036232,-0.00014267,-0.00009994,0.00015797,0.
 00022419,0.00010247,-0.00011745,-0.00013908,-0.01658249,-0.00588974,0.
 01665115,0.00999412,0.00309258,-0.00964919,0.18639823,-0.00001503,0.00
 001378,0.00001599,-0.00005102,-0.00011966,-0.00001093,-0.00014443,0.00
 010685,-0.00002236,-0.00051557,0.00075145,0.00022991,0.00042490,0.0007
 1539,-0.00054843,0.00056542,-0.00356818,-0.00125101,0.02174350,0.00860
 732,-0.02045688,-0.04565380,-0.06309754,0.04401208,-0.00015512,0.00109
 278,0.00060274,0.00001215,0.00000941,0.00000185,-0.00000294,-0.0000038
 1,-0.00000375,-0.00000053,-0.00000978,-0.00000236,0.00002199,0.0000300
 9,0.00004422,-0.00000824,0.00005257,0.00002104,-0.00000926,-0.00017732
 ,0.00005696,-0.00018393,-0.00011255,-0.00006591,-0.00003402,-0.0000520
 4,0.00001069,-0.00033789,-0.00052035,0.00033172,0.00006574,-0.00013888
 ,-0.00018999,0.00016455,-0.00014188,-0.00009602,-0.00951425,-0.0044681
 5,0.01070889,-0.01508906,-0.00546111,0.01259153,0.04882540,0.06679981,
 -0.00000217,-0.00002772,-0.00000153,-0.00026518,-0.00003530,0.00001742
 ,0.00024920,-0.00023248,-0.00004006,0.00021061,0.00054881,0.00000461,0
 .00041489,-0.00006842,-0.00012737,-0.00072345,-0.00204904,0.00127028,0
 .01140631,0.00445919,-0.01257611,0.12119283,0.04390856,-0.16258405,-0.
 00023539,-0.00035577,0.00054638,-0.00000049,0.00001192,0.00000851,-0.0
 0002641,-0.00000573,-0.00000790,-0.00000099,-0.00000829,-0.00000335,0.
 00002566,0.00002185,0.00003930,0.00002000,0.00012118,0.00008058,0.0000
 2919,-0.00009896,0.00003991,-0.00050725,-0.00003368,-0.00008578,-0.000
 03856,-0.00002825,0.00003463,-0.00024162,-0.00046047,0.00014518,-0.000
 07384,0.00008732,0.00004937,0.00020144,-0.00018179,-0.00011824,-0.0113
 8908,-0.00377526,0.01121641,0.01513429,0.00496907,-0.01415245,-0.13556
 850,-0.04631138,0.17600271,-0.00000622,0.00002843,0.00004114,0.0001042
 7,-0.00010726,-0.00000522,-0.00187618,-0.00011523,-0.00129511,0.001014
 79,0.00110542,0.00064559,-0.00120180,0.00043587,-0.00045204,-0.0006648
 4,0.00046298,-0.00092036,0.00817172,0.00560619,-0.00871739,0.00046646,
 -0.00057775,-0.00017577,-0.12601411,-0.08337772,0.08620944,0.00001881,
 0.00002182,-0.00000229,-0.00000585,-0.00000047,-0.00000415,0.00000145,
 -0.00000702,-0.00001545,0.00001687,0.00002681,-0.00002174,-0.00001512,
 0.00001602,0.00003151,-0.00295602,-0.00062533,-0.00148404,0.00011808,0
 .00007163,0.00002115,0.00018170,-0.00007367,0.00016696,-0.00001979,-0.
 00016336,0.00037768,0.00114394,0.00009482,-0.00099826,0.00062074,0.000
 39824,-0.00014525,-0.00005363,0.00006224,0.00005363,-0.00011223,0.0000
 1492,0.00005886,-0.00003244,-0.00008095,0.00020419,0.13474432,0.000034
 85,0.00003925,0.00002441,0.00001584,0.00040190,-0.00031043,-0.00087361
 ,-0.00023240,0.00000174,-0.00033974,-0.00185747,-0.00092454,0.00749623
 ,0.00658354,-0.00582031,0.00148167,-0.00248993,0.00324961,-0.01460362,
 -0.00768715,0.01340377,-0.00061550,0.00060487,0.00046452,-0.08231836,-
 0.13612250,0.09487929,0.00000406,-0.00000336,-0.00001122,0.00001565,0.
 00000168,0.00000683,-0.00000703,0.00001999,0.00000422,-0.00004968,-0.0
 0016681,-0.00014816,0.00002156,-0.00007644,-0.00004111,-0.00076632,0.0
 0082558,-0.00089324,0.00000078,0.00005560,-0.00007741,0.00009618,0.000
 11550,0.00001387,0.00026865,0.00028768,0.00013494,-0.00121811,0.001118
 62,0.00140226,0.00017421,0.00009041,-0.00028423,0.00001058,-0.00003630
 ,0.00000389,0.00032542,-0.00010855,-0.00015757,0.00041689,-0.00023604,
 -0.00043282,0.09275607,0.14180455,-0.00006626,-0.00002016,-0.00002491,
 -0.00005967,-0.00041216,0.00027015,-0.00005017,0.00048662,-0.00082119,
 0.00316621,-0.00001489,-0.00005565,0.01003873,0.01812119,-0.00921845,-
 0.00254121,0.00286795,-0.00768242,0.00265358,-0.00132153,-0.00509479,-
 0.00036824,-0.00016623,0.00032596,0.08381262,0.09353302,-0.14707886,0.
 00001782,0.00001572,0.00001923,0.00001102,-0.00001540,0.00000353,-0.00
 003100,-0.00004222,0.00002332,0.00012815,0.00014857,0.00021551,0.00000
 612,0.00004409,-0.00009470,-0.00127719,-0.00075674,0.00111552,0.000116
 51,-0.00025735,0.00051461,-0.00011935,-0.00007245,0.00016091,0.0000950
 9,-0.00028233,0.00003309,0.00124080,0.00229563,-0.00065654,0.00025805,
 -0.00008694,0.00026623,-0.00000682,0.00003614,0.00005465,0.00005392,0.
 00002252,-0.00005465,-0.00014847,0.00029479,0.00018585,-0.09096522,-0.
 10786685,0.16054359,0.00005758,-0.00004159,-0.00006417,-0.00009629,0.0
 0015407,-0.00002534,0.00042574,0.00013662,-0.00008942,-0.00142699,0.00
 166389,-0.00231252,0.00150785,0.00161042,0.00180615,0.00123336,0.00025
 180,0.00257999,-0.01015417,-0.00590831,-0.00543455,0.00001283,-0.00032
 751,-0.00020454,-0.26665264,-0.04812520,-0.08108883,-0.00005035,-0.000
 04860,-0.00001102,-0.00000740,0.00001223,0.00000787,-0.00000199,0.0000
 0671,0.00002269,-0.00003521,-0.00009806,-0.00002170,0.00001041,-0.0000
 4286,0.00000445,0.00021412,0.00021623,-0.00019079,-0.00008026,0.000053
 86,-0.00014184,-0.00041937,-0.00061762,-0.00080347,0.00020219,-0.00000
 578,-0.00037088,0.00050544,0.00025757,0.00004722,0.00095997,0.00046958
 ,-0.00044184,0.00001979,0.00054670,0.00026724,0.00008769,0.00021949,0.
 00005901,0.00002012,-0.00002762,-0.00001570,-0.01364491,-0.00232665,-0
 .00596502,0.28731247,0.00000746,0.00004333,-0.00000643,0.00011268,0.00
 021375,-0.00012654,-0.00034385,0.00001692,0.00042695,0.00135717,-0.002
 10849,0.00224396,-0.01029674,-0.00242554,-0.00233973,0.00368189,-0.001
 12460,-0.00020183,0.01903091,0.00710431,0.00945512,-0.00006550,0.00114
 891,0.00030957,-0.04895188,-0.05710595,-0.01544937,-0.00000689,-0.0000
 0912,-0.00001316,-0.00000696,-0.00000114,0.00000452,0.00001452,0.00002
 288,-0.00000256,-0.00005839,-0.00007422,-0.00011881,-0.00000682,0.0000
 2096,0.00003835,0.00024362,0.00025914,-0.00043649,-0.00013059,0.000013
 68,-0.00009854,0.00052058,0.00163139,0.00109588,-0.00034248,-0.0000801
 9,-0.00012935,0.00001515,0.00004750,-0.00033184,-0.00034326,0.00023669
 ,0.00017629,-0.00025216,-0.00021671,-0.00033193,-0.00018848,-0.0002312
 4,-0.00007727,0.00001207,-0.00007216,-0.00002253,-0.01597270,-0.002932
 23,-0.00655099,0.05197065,0.05562213,-0.00000568,-0.00001066,-0.000021
 60,0.00003187,-0.00018788,0.00017568,0.00066412,0.00071489,-0.00045826
 ,-0.00230865,0.00248516,-0.00753508,-0.02315902,0.00108396,-0.00578441
 ,-0.00330293,-0.00289662,-0.00034631,-0.00219357,-0.00309070,-0.004490
 42,0.00045238,0.00015379,0.00023481,-0.07854781,-0.01453207,-0.0778351
 0,-0.00001180,-0.00001566,0.00000447,-0.00000789,-0.00000402,0.0000038
 1,-0.00001973,-0.00002965,0.00001868,0.00008013,0.00011525,0.00013854,
 -0.00001093,0.00003394,-0.00000124,-0.00016959,-0.00046464,0.00057627,
 0.00000125,-0.00010864,0.00023438,-0.00280597,0.00025352,-0.00036531,0
 .00022289,-0.00024594,0.00017856,0.00046867,-0.00011745,0.00038263,0.0
 0098345,0.00081506,-0.00013778,-0.00008003,0.00020335,0.00015199,-0.00
 004749,-0.00005690,-0.00003676,-0.00001282,0.00003661,0.00005570,0.017
 39217,0.00337854,0.00705001,0.09238698,0.01248674,0.08780674\\-0.00000
 101,-0.00000250,0.00000033,0.00000029,-0.00000117,0.00000003,-0.000002
 45,-0.00000378,0.00000334,-0.00000117,0.00000374,-0.00000042,0.0000115
 0,0.00000261,-0.00000485,-0.00000171,-0.00000571,-0.00000829,-0.000007
 76,0.00000723,0.00000464,0.00000294,0.00000125,0.00000157,0.00000022,-
 0.00000278,0.00000660,0.00000234,-0.00000126,0.00000047,0.00000125,-0.
 00000179,-0.00000024,0.00000132,-0.00000035,0.00000055,0.00000009,-0.0
 0000016,0.00000069,0.00000126,0.00000015,0.00000089,0.00000098,-0.0000
 0011,-0.00000194,0.00000081,0.00000057,-0.00000007,0.00000074,-0.00000
 010,0.00000157,0.00000065,0.00000044,-0.00000147,-0.00000162,0.0000005
 3,0.00000019,-0.00000228,0.00000020,0.00000124,-0.00000302,0.00000054,
 -0.00000146,-0.00000145,0.00000047,-0.00000111,-0.00000124,-0.00000075
 ,0.00000009,0.00000064,0.00000139,-0.00000124,-0.00000132,0.00000132,-
 0.00000110\\\@


 THE MOST BEAUTIFUL EXPERIENCE WE CAN HAVE IS THE MYSTERIOUS.
 IT IS THE FUNDAMENTAL EMOTION WHICH STANDS AT AT THE CRADLE 
 OF TRUE ART AND TRUE SCIENCE.

                                    -- ALBERT EINSTEIN
 Job cpu time:       0 days  2 hours 34 minutes 59.9 seconds.
 Elapsed time:       0 days  0 hours 38 minutes 45.8 seconds.
 File lengths (MBytes):  RWF=    199 Int=      0 D2E=      0 Chk=     10 Scr=      1
 Normal termination of Gaussian 16 at Sun May 28 14:38:58 2023.
### All Done ###
