### Starting Gaussian ###
 Entering Gaussian System, Link 0=g16
 Initial command:
 /cluster/software/gaussian/gaussian-16-A.03/avx2/g16/l1.exe "/local/scratch/cz9n3/Gau-12177.inp" -scrdir="/local/scratch/cz9n3/"
 Entering Link 1 = /cluster/software/gaussian/gaussian-16-A.03/avx2/g16/l1.exe PID=     12178.
  
 Copyright (c) 1988,1990,1992,1993,1995,1998,2003,2009,2016,
            Gaussian, Inc.  All Rights Reserved.
  
 This is part of the Gaussian(R) 16 program.  It is based on
 the Gaussian(R) 09 system (copyright 2009, Gaussian, Inc.),
 the Gaussian(R) 03 system (copyright 2003, Gaussian, Inc.),
 the Gaussian(R) 98 system (copyright 1998, Gaussian, Inc.),
 the Gaussian(R) 94 system (copyright 1995, Gaussian, Inc.),
 the Gaussian 92(TM) system (copyright 1992, Gaussian, Inc.),
 the Gaussian 90(TM) system (copyright 1990, Gaussian, Inc.),
 the Gaussian 88(TM) system (copyright 1988, Gaussian, Inc.),
 the Gaussian 86(TM) system (copyright 1986, Carnegie Mellon
 University), and the Gaussian 82(TM) system (copyright 1983,
 Carnegie Mellon University). Gaussian is a federally registered
 trademark of Gaussian, Inc.
  
 This software contains proprietary and confidential information,
 including trade secrets, belonging to Gaussian, Inc.
  
 This software is provided under written license and may be
 used, copied, transmitted, or stored only in accord with that
 written license.
  
 The following legend is applicable only to US Government
 contracts under FAR:
  
                    RESTRICTED RIGHTS LEGEND
  
 Use, reproduction and disclosure by the US Government is
 subject to restrictions as set forth in subparagraphs (a)
 and (c) of the Commercial Computer Software - Restricted
 Rights clause in FAR 52.227-19.
  
 Gaussian, Inc.
 340 Quinnipiac St., Bldg. 40, Wallingford CT 06492
  
  
 ---------------------------------------------------------------
 Warning -- This program may not be used in any manner that
 competes with the business of Gaussian, Inc. or will provide
 assistance to any competitor of Gaussian, Inc.  The licensee
 of this program is prohibited from giving any competitor of
 Gaussian, Inc. access to this program.  By using this program,
 the user acknowledges that Gaussian, Inc. is engaged in the
 business of creating and licensing software in the field of
 computational chemistry and represents and warrants to the
 licensee that it is not a competitor of Gaussian, Inc. and that
 it will not use this program in any manner prohibited above.
 ---------------------------------------------------------------
  

 Cite this work as:
 Gaussian 16, Revision A.03,
 M. J. Frisch, G. W. Trucks, H. B. Schlegel, G. E. Scuseria, 
 M. A. Robb, J. R. Cheeseman, G. Scalmani, V. Barone, 
 G. A. Petersson, H. Nakatsuji, X. Li, M. Caricato, A. V. Marenich, 
 J. Bloino, B. G. Janesko, R. Gomperts, B. Mennucci, H. P. Hratchian, 
 J. V. Ortiz, A. F. Izmaylov, J. L. Sonnenberg, D. Williams-Young, 
 F. Ding, F. Lipparini, F. Egidi, J. Goings, B. Peng, A. Petrone, 
 T. Henderson, D. Ranasinghe, V. G. Zakrzewski, J. Gao, N. Rega, 
 G. Zheng, W. Liang, M. Hada, M. Ehara, K. Toyota, R. Fukuda, 
 J. Hasegawa, M. Ishida, T. Nakajima, Y. Honda, O. Kitao, H. Nakai, 
 T. Vreven, K. Throssell, J. A. Montgomery, Jr., J. E. Peralta, 
 F. Ogliaro, M. J. Bearpark, J. J. Heyd, E. N. Brothers, K. N. Kudin, 
 V. N. Staroverov, T. A. Keith, R. Kobayashi, J. Normand, 
 K. Raghavachari, A. P. Rendell, J. C. Burant, S. S. Iyengar, 
 J. Tomasi, M. Cossi, J. M. Millam, M. Klene, C. Adamo, R. Cammi, 
 J. W. Ochterski, R. L. Martin, K. Morokuma, O. Farkas, 
 J. B. Foresman, and D. J. Fox, Gaussian, Inc., Wallingford CT, 2016.
 
 ******************************************
 Gaussian 16:  ES64L-G16RevA.03 25-Dec-2016
                26-May-2023 
 ******************************************
 %chk=CCCCCqCrOCCCqCCdOrCqdOrOCC.chk
 %NProcShared=20
 Will use up to   20 processors via shared memory.
 ----------------------------------------------------------------
 # opt freq b3lyp/6-31+g(2df,p) Geom=AllCheckpoint TD(NStates=10)
 ----------------------------------------------------------------
 1/18=20,19=15,26=3,29=7,38=1/1,3;
 2/9=110,12=2,40=1/2;
 3/5=1,6=6,7=114,11=9,14=-4,25=1,30=1,71=1,74=-5/1,2,3,8;
 4//1;
 5/5=2,38=5/2;
 8/6=1,10=2,108=10/1;
 9/15=2,41=10,42=1,70=2/14;
 10/5=4/2;
 6/7=2,8=2,9=2,10=2/1;
 7/12=6,13=5/1,2,3,16;
 1/18=20,19=15,26=3/3(2);
 2/9=110/2;
 99//99;
 2/9=110/2;
 3/5=1,6=6,7=114,11=9,14=-2,25=1,30=1,71=1,74=-5/1,2,3,8;
 4/5=5,16=3,69=1/1;
 5/5=2,38=5/2;
 8/6=1,10=2,108=10/1;
 9/15=2,41=10,42=1,49=4,70=2/14;
 10/5=4/2;
 7/12=6,13=5/1,2,3,16;
 1/18=20,19=15,26=3/3(-8);
 2/9=110/2;
 6/7=2,8=2,9=2,10=2/1;
 99//99;
 Structure from the checkpoint file:  "CCCCCqCrOCCCqCCdOrCqdOrOCC.chk"
 -------------------
 Title Card Required
 -------------------
 Charge =  0 Multiplicity = 1
 Redundant internal coordinates found in file.  (old form).
 C,0,1.4487338346,-0.8894828763,0.419445731
 C,0,2.9029728704,-0.4967017396,0.1465135116
 C,0,3.1008655877,0.1719031754,-1.2190818456
 C,0,4.5575039997,0.5671667095,-1.4828091367
 C,0,4.8287165541,1.1350656081,-2.8789442334
 C,0,4.122711155,2.4685103488,-3.1396940961
 O,0,6.2460322664,1.2704014624,-2.9722850199
 C,0,6.7632807542,1.3435653202,-4.2821132788
 C,0,8.2828766052,1.4143089778,-4.1669387007
 C,0,9.0243837066,1.3484861806,-5.5094850849
 C,0,8.7640535289,2.5608750438,-6.4405317513
 C,0,7.4685987433,2.4670494254,-7.2164273483
 O,0,6.6781173168,3.3632014362,-7.3569252108
 C,0,10.525157538,1.198186116,-5.2689148261
 O,0,11.0772192412,1.2928499972,-4.2026435213
 O,0,11.1714916236,0.935766618,-6.4236613467
 C,0,12.6035520346,0.7845188949,-6.325330754
 C,0,13.1328618124,0.5007283197,-7.7174231402
 H,0,1.3395713849,-1.364539298,1.3994517668
 H,0,1.0804658303,-1.5941496366,-0.3346958462
 H,0,0.7910931502,-0.0131635462,0.3995599494
 H,0,3.5423732107,-1.3870898446,0.208549229
 H,0,3.2542095106,0.1823153721,0.9346587135
 H,0,2.4515256293,1.0546962379,-1.279055268
 H,0,2.7568031357,-0.5121224798,-2.008167465
 H,0,5.2046349951,-0.308976766,-1.3569522702
 H,0,4.8882317724,1.3034716219,-0.7385825013
 H,0,4.4937201008,0.398631207,-3.6307105622
 H,0,4.4280553172,3.2088760929,-2.3929635681
 H,0,3.0363016374,2.3519533911,-3.0890784384
 H,0,4.3608591484,2.8636092573,-4.131182643
 H,0,6.3686798901,2.2202263472,-4.8156213846
 H,0,6.4628608054,0.4507839499,-4.8611607943
 H,0,8.6160299593,0.5860286511,-3.5352441478
 H,0,8.5646656732,2.3302036616,-3.6375827503
 H,0,8.7201132241,0.4447055264,-6.0579677635
 H,0,9.5580457795,2.5882261149,-7.198732469
 H,0,8.7867417161,3.506104752,-5.8906120568
 H,0,7.30095314,1.4727928705,-7.6963723979
 H,0,12.8234092414,-0.0293919197,-5.6276198734
 H,0,13.0271719024,1.7007007282,-5.9023928118
 H,0,12.6951951872,-0.4156535916,-8.1232060063
 H,0,14.2192194262,0.3771156937,-7.6819843799
 H,0,12.9028800594,1.3239965889,-8.3997442085
 Recover connectivity data from disk.

 GradGradGradGradGradGradGradGradGradGradGradGradGradGradGradGradGradGrad
 Berny optimization.
 Initialization pass.
                           ----------------------------
                           !    Initial Parameters    !
                           ! (Angstroms and Degrees)  !
 --------------------------                            --------------------------
 ! Name  Definition              Value          Derivative Info.                !
 --------------------------------------------------------------------------------
 ! R1    R(1,2)                  1.5309         estimate D2E/DX2                !
 ! R2    R(1,19)                 1.0945         estimate D2E/DX2                !
 ! R3    R(1,20)                 1.0959         estimate D2E/DX2                !
 ! R4    R(1,21)                 1.0958         estimate D2E/DX2                !
 ! R5    R(2,3)                  1.5333         estimate D2E/DX2                !
 ! R6    R(2,22)                 1.0979         estimate D2E/DX2                !
 ! R7    R(2,23)                 1.098          estimate D2E/DX2                !
 ! R8    R(3,4)                  1.5322         estimate D2E/DX2                !
 ! R9    R(3,24)                 1.0975         estimate D2E/DX2                !
 ! R10   R(3,25)                 1.0995         estimate D2E/DX2                !
 ! R11   R(4,5)                  1.5314         estimate D2E/DX2                !
 ! R12   R(4,26)                 1.0965         estimate D2E/DX2                !
 ! R13   R(4,27)                 1.0979         estimate D2E/DX2                !
 ! R14   R(5,6)                  1.5312         estimate D2E/DX2                !
 ! R15   R(5,7)                  1.4268         estimate D2E/DX2                !
 ! R16   R(5,28)                 1.1044         estimate D2E/DX2                !
 ! R17   R(6,29)                 1.095          estimate D2E/DX2                !
 ! R18   R(6,30)                 1.0938         estimate D2E/DX2                !
 ! R19   R(6,31)                 1.0936         estimate D2E/DX2                !
 ! R20   R(7,8)                  1.4102         estimate D2E/DX2                !
 ! R21   R(8,9)                  1.5256         estimate D2E/DX2                !
 ! R22   R(8,32)                 1.0995         estimate D2E/DX2                !
 ! R23   R(8,33)                 1.1057         estimate D2E/DX2                !
 ! R24   R(9,10)                 1.5351         estimate D2E/DX2                !
 ! R25   R(9,34)                 1.0937         estimate D2E/DX2                !
 ! R26   R(9,35)                 1.0948         estimate D2E/DX2                !
 ! R27   R(10,11)                1.5506         estimate D2E/DX2                !
 ! R28   R(10,14)                1.5273         estimate D2E/DX2                !
 ! R29   R(10,36)                1.1001         estimate D2E/DX2                !
 ! R30   R(11,12)                1.513          estimate D2E/DX2                !
 ! R31   R(11,37)                1.0982         estimate D2E/DX2                !
 ! R32   R(11,38)                1.0938         estimate D2E/DX2                !
 ! R33   R(12,13)                1.2032         estimate D2E/DX2                !
 ! R34   R(12,39)                1.1167         estimate D2E/DX2                !
 ! R35   R(14,15)                1.2044         estimate D2E/DX2                !
 ! R36   R(14,16)                1.3491         estimate D2E/DX2                !
 ! R37   R(16,17)                1.4434         estimate D2E/DX2                !
 ! R38   R(17,18)                1.5161         estimate D2E/DX2                !
 ! R39   R(17,40)                1.0943         estimate D2E/DX2                !
 ! R40   R(17,41)                1.0944         estimate D2E/DX2                !
 ! R41   R(18,42)                1.0936         estimate D2E/DX2                !
 ! R42   R(18,43)                1.0939         estimate D2E/DX2                !
 ! R43   R(18,44)                1.0937         estimate D2E/DX2                !
 ! A1    A(2,1,19)             111.4525         estimate D2E/DX2                !
 ! A2    A(2,1,20)             111.1938         estimate D2E/DX2                !
 ! A3    A(2,1,21)             111.2033         estimate D2E/DX2                !
 ! A4    A(19,1,20)            107.6715         estimate D2E/DX2                !
 ! A5    A(19,1,21)            107.6668         estimate D2E/DX2                !
 ! A6    A(20,1,21)            107.4611         estimate D2E/DX2                !
 ! A7    A(1,2,3)              113.1578         estimate D2E/DX2                !
 ! A8    A(1,2,22)             109.5765         estimate D2E/DX2                !
 ! A9    A(1,2,23)             109.5463         estimate D2E/DX2                !
 ! A10   A(3,2,22)             109.1949         estimate D2E/DX2                !
 ! A11   A(3,2,23)             109.1681         estimate D2E/DX2                !
 ! A12   A(22,2,23)            105.9418         estimate D2E/DX2                !
 ! A13   A(2,3,4)              112.8604         estimate D2E/DX2                !
 ! A14   A(2,3,24)             108.8473         estimate D2E/DX2                !
 ! A15   A(2,3,25)             109.1175         estimate D2E/DX2                !
 ! A16   A(4,3,24)             110.2161         estimate D2E/DX2                !
 ! A17   A(4,3,25)             109.5394         estimate D2E/DX2                !
 ! A18   A(24,3,25)            106.0243         estimate D2E/DX2                !
 ! A19   A(3,4,5)              114.8946         estimate D2E/DX2                !
 ! A20   A(3,4,26)             109.5848         estimate D2E/DX2                !
 ! A21   A(3,4,27)             110.0424         estimate D2E/DX2                !
 ! A22   A(5,4,26)             107.2437         estimate D2E/DX2                !
 ! A23   A(5,4,27)             108.4171         estimate D2E/DX2                !
 ! A24   A(26,4,27)            106.2775         estimate D2E/DX2                !
 ! A25   A(4,5,6)              113.3617         estimate D2E/DX2                !
 ! A26   A(4,5,7)              105.7078         estimate D2E/DX2                !
 ! A27   A(4,5,28)             108.6369         estimate D2E/DX2                !
 ! A28   A(6,5,7)              111.3628         estimate D2E/DX2                !
 ! A29   A(6,5,28)             108.961          estimate D2E/DX2                !
 ! A30   A(7,5,28)             108.6644         estimate D2E/DX2                !
 ! A31   A(5,6,29)             110.128          estimate D2E/DX2                !
 ! A32   A(5,6,30)             110.9335         estimate D2E/DX2                !
 ! A33   A(5,6,31)             111.6309         estimate D2E/DX2                !
 ! A34   A(29,6,30)            108.5095         estimate D2E/DX2                !
 ! A35   A(29,6,31)            108.2576         estimate D2E/DX2                !
 ! A36   A(30,6,31)            107.2628         estimate D2E/DX2                !
 ! A37   A(5,7,8)              115.4704         estimate D2E/DX2                !
 ! A38   A(7,8,9)              107.316          estimate D2E/DX2                !
 ! A39   A(7,8,32)             111.1269         estimate D2E/DX2                !
 ! A40   A(7,8,33)             110.1742         estimate D2E/DX2                !
 ! A41   A(9,8,32)             110.9248         estimate D2E/DX2                !
 ! A42   A(9,8,33)             110.3409         estimate D2E/DX2                !
 ! A43   A(32,8,33)            106.9878         estimate D2E/DX2                !
 ! A44   A(8,9,10)             114.4007         estimate D2E/DX2                !
 ! A45   A(8,9,34)             108.1745         estimate D2E/DX2                !
 ! A46   A(8,9,35)             109.3712         estimate D2E/DX2                !
 ! A47   A(10,9,34)            108.9975         estimate D2E/DX2                !
 ! A48   A(10,9,35)            109.5374         estimate D2E/DX2                !
 ! A49   A(34,9,35)            106.0165         estimate D2E/DX2                !
 ! A50   A(9,10,11)            114.2354         estimate D2E/DX2                !
 ! A51   A(9,10,14)            109.9436         estimate D2E/DX2                !
 ! A52   A(9,10,36)            109.7342         estimate D2E/DX2                !
 ! A53   A(11,10,14)           109.6623         estimate D2E/DX2                !
 ! A54   A(11,10,36)           107.2499         estimate D2E/DX2                !
 ! A55   A(14,10,36)           105.6319         estimate D2E/DX2                !
 ! A56   A(10,11,12)           113.7773         estimate D2E/DX2                !
 ! A57   A(10,11,37)           108.2177         estimate D2E/DX2                !
 ! A58   A(10,11,38)           111.7347         estimate D2E/DX2                !
 ! A59   A(12,11,37)           105.4585         estimate D2E/DX2                !
 ! A60   A(12,11,38)           109.2195         estimate D2E/DX2                !
 ! A61   A(37,11,38)           108.0948         estimate D2E/DX2                !
 ! A62   A(11,12,13)           125.186          estimate D2E/DX2                !
 ! A63   A(11,12,39)           113.8394         estimate D2E/DX2                !
 ! A64   A(13,12,39)           120.9526         estimate D2E/DX2                !
 ! A65   A(10,14,15)           125.5976         estimate D2E/DX2                !
 ! A66   A(10,14,16)           110.7981         estimate D2E/DX2                !
 ! A67   A(15,14,16)           123.604          estimate D2E/DX2                !
 ! A68   A(14,16,17)           115.9383         estimate D2E/DX2                !
 ! A69   A(16,17,18)           107.6647         estimate D2E/DX2                !
 ! A70   A(16,17,40)           108.7051         estimate D2E/DX2                !
 ! A71   A(16,17,41)           108.8231         estimate D2E/DX2                !
 ! A72   A(18,17,40)           112.0892         estimate D2E/DX2                !
 ! A73   A(18,17,41)           112.111          estimate D2E/DX2                !
 ! A74   A(40,17,41)           107.3658         estimate D2E/DX2                !
 ! A75   A(17,18,42)           110.9667         estimate D2E/DX2                !
 ! A76   A(17,18,43)           109.7615         estimate D2E/DX2                !
 ! A77   A(17,18,44)           111.0087         estimate D2E/DX2                !
 ! A78   A(42,18,43)           108.3467         estimate D2E/DX2                !
 ! A79   A(42,18,44)           108.3673         estimate D2E/DX2                !
 ! A80   A(43,18,44)           108.3054         estimate D2E/DX2                !
 ! D1    D(19,1,2,3)           179.9367         estimate D2E/DX2                !
 ! D2    D(19,1,2,22)           57.82           estimate D2E/DX2                !
 ! D3    D(19,1,2,23)          -58.0031         estimate D2E/DX2                !
 ! D4    D(20,1,2,3)            59.7922         estimate D2E/DX2                !
 ! D5    D(20,1,2,22)          -62.3245         estimate D2E/DX2                !
 ! D6    D(20,1,2,23)         -178.1477         estimate D2E/DX2                !
 ! D7    D(21,1,2,3)           -59.9183         estimate D2E/DX2                !
 ! D8    D(21,1,2,22)          177.9651         estimate D2E/DX2                !
 ! D9    D(21,1,2,23)           62.1419         estimate D2E/DX2                !
 ! D10   D(1,2,3,4)            179.7709         estimate D2E/DX2                !
 ! D11   D(1,2,3,24)            57.0751         estimate D2E/DX2                !
 ! D12   D(1,2,3,25)           -58.2041         estimate D2E/DX2                !
 ! D13   D(22,2,3,4)           -57.8993         estimate D2E/DX2                !
 ! D14   D(22,2,3,24)          179.4048         estimate D2E/DX2                !
 ! D15   D(22,2,3,25)           64.1256         estimate D2E/DX2                !
 ! D16   D(23,2,3,4)            57.4995         estimate D2E/DX2                !
 ! D17   D(23,2,3,24)          -65.1963         estimate D2E/DX2                !
 ! D18   D(23,2,3,25)          179.5245         estimate D2E/DX2                !
 ! D19   D(2,3,4,5)            175.249          estimate D2E/DX2                !
 ! D20   D(2,3,4,26)            54.4533         estimate D2E/DX2                !
 ! D21   D(2,3,4,27)           -62.0643         estimate D2E/DX2                !
 ! D22   D(24,3,4,5)           -62.8229         estimate D2E/DX2                !
 ! D23   D(24,3,4,26)          176.3813         estimate D2E/DX2                !
 ! D24   D(24,3,4,27)           59.8637         estimate D2E/DX2                !
 ! D25   D(25,3,4,5)            53.4618         estimate D2E/DX2                !
 ! D26   D(25,3,4,26)          -67.334          estimate D2E/DX2                !
 ! D27   D(25,3,4,27)          176.1484         estimate D2E/DX2                !
 ! D28   D(3,4,5,6)             65.0471         estimate D2E/DX2                !
 ! D29   D(3,4,5,7)           -172.6989         estimate D2E/DX2                !
 ! D30   D(3,4,5,28)           -56.2317         estimate D2E/DX2                !
 ! D31   D(26,4,5,6)          -172.8818         estimate D2E/DX2                !
 ! D32   D(26,4,5,7)           -50.6278         estimate D2E/DX2                !
 ! D33   D(26,4,5,28)           65.8394         estimate D2E/DX2                !
 ! D34   D(27,4,5,6)           -58.5085         estimate D2E/DX2                !
 ! D35   D(27,4,5,7)            63.7455         estimate D2E/DX2                !
 ! D36   D(27,4,5,28)         -179.7874         estimate D2E/DX2                !
 ! D37   D(4,5,6,29)            57.8996         estimate D2E/DX2                !
 ! D38   D(4,5,6,30)           -62.2465         estimate D2E/DX2                !
 ! D39   D(4,5,6,31)           178.1833         estimate D2E/DX2                !
 ! D40   D(7,5,6,29)           -61.1535         estimate D2E/DX2                !
 ! D41   D(7,5,6,30)           178.7004         estimate D2E/DX2                !
 ! D42   D(7,5,6,31)            59.1302         estimate D2E/DX2                !
 ! D43   D(28,5,6,29)          178.9961         estimate D2E/DX2                !
 ! D44   D(28,5,6,30)           58.8501         estimate D2E/DX2                !
 ! D45   D(28,5,6,31)          -60.7202         estimate D2E/DX2                !
 ! D46   D(4,5,7,8)            159.5969         estimate D2E/DX2                !
 ! D47   D(6,5,7,8)            -76.8774         estimate D2E/DX2                !
 ! D48   D(28,5,7,8)            43.1484         estimate D2E/DX2                !
 ! D49   D(5,7,8,9)           -177.2442         estimate D2E/DX2                !
 ! D50   D(5,7,8,32)            61.3212         estimate D2E/DX2                !
 ! D51   D(5,7,8,33)           -57.0815         estimate D2E/DX2                !
 ! D52   D(7,8,9,10)           173.8013         estimate D2E/DX2                !
 ! D53   D(7,8,9,34)            52.1229         estimate D2E/DX2                !
 ! D54   D(7,8,9,35)           -62.9172         estimate D2E/DX2                !
 ! D55   D(32,8,9,10)          -64.6373         estimate D2E/DX2                !
 ! D56   D(32,8,9,34)          173.6843         estimate D2E/DX2                !
 ! D57   D(32,8,9,35)           58.6442         estimate D2E/DX2                !
 ! D58   D(33,8,9,10)           53.7447         estimate D2E/DX2                !
 ! D59   D(33,8,9,34)          -67.9336         estimate D2E/DX2                !
 ! D60   D(33,8,9,35)          177.0263         estimate D2E/DX2                !
 ! D61   D(8,9,10,11)           65.3856         estimate D2E/DX2                !
 ! D62   D(8,9,10,14)         -170.843          estimate D2E/DX2                !
 ! D63   D(8,9,10,36)          -55.077          estimate D2E/DX2                !
 ! D64   D(34,9,10,11)        -173.3885         estimate D2E/DX2                !
 ! D65   D(34,9,10,14)         -49.6171         estimate D2E/DX2                !
 ! D66   D(34,9,10,36)          66.1489         estimate D2E/DX2                !
 ! D67   D(35,9,10,11)         -57.8063         estimate D2E/DX2                !
 ! D68   D(35,9,10,14)          65.965          estimate D2E/DX2                !
 ! D69   D(35,9,10,36)        -178.2689         estimate D2E/DX2                !
 ! D70   D(9,10,11,12)         -81.1814         estimate D2E/DX2                !
 ! D71   D(9,10,11,37)         161.9697         estimate D2E/DX2                !
 ! D72   D(9,10,11,38)          43.0744         estimate D2E/DX2                !
 ! D73   D(14,10,11,12)        154.8962         estimate D2E/DX2                !
 ! D74   D(14,10,11,37)         38.0473         estimate D2E/DX2                !
 ! D75   D(14,10,11,38)        -80.848          estimate D2E/DX2                !
 ! D76   D(36,10,11,12)         40.6559         estimate D2E/DX2                !
 ! D77   D(36,10,11,37)        -76.1929         estimate D2E/DX2                !
 ! D78   D(36,10,11,38)        164.9117         estimate D2E/DX2                !
 ! D79   D(9,10,14,15)          -9.0965         estimate D2E/DX2                !
 ! D80   D(9,10,14,16)         170.6936         estimate D2E/DX2                !
 ! D81   D(11,10,14,15)        117.2996         estimate D2E/DX2                !
 ! D82   D(11,10,14,16)        -62.9103         estimate D2E/DX2                !
 ! D83   D(36,10,14,15)       -127.4249         estimate D2E/DX2                !
 ! D84   D(36,10,14,16)         52.3653         estimate D2E/DX2                !
 ! D85   D(10,11,12,13)        135.1695         estimate D2E/DX2                !
 ! D86   D(10,11,12,39)        -46.5332         estimate D2E/DX2                !
 ! D87   D(37,11,12,13)       -106.3873         estimate D2E/DX2                !
 ! D88   D(37,11,12,39)         71.91           estimate D2E/DX2                !
 ! D89   D(38,11,12,13)          9.5685         estimate D2E/DX2                !
 ! D90   D(38,11,12,39)       -172.1342         estimate D2E/DX2                !
 ! D91   D(10,14,16,17)        179.4466         estimate D2E/DX2                !
 ! D92   D(15,14,16,17)         -0.7583         estimate D2E/DX2                !
 ! D93   D(14,16,17,18)       -179.8678         estimate D2E/DX2                !
 ! D94   D(14,16,17,40)         58.4983         estimate D2E/DX2                !
 ! D95   D(14,16,17,41)        -58.1386         estimate D2E/DX2                !
 ! D96   D(16,17,18,42)        -60.1308         estimate D2E/DX2                !
 ! D97   D(16,17,18,43)       -179.8564         estimate D2E/DX2                !
 ! D98   D(16,17,18,44)         60.4426         estimate D2E/DX2                !
 ! D99   D(40,17,18,42)         59.3723         estimate D2E/DX2                !
 ! D100  D(40,17,18,43)        -60.3533         estimate D2E/DX2                !
 ! D101  D(40,17,18,44)        179.9457         estimate D2E/DX2                !
 ! D102  D(41,17,18,42)       -179.7925         estimate D2E/DX2                !
 ! D103  D(41,17,18,43)         60.4819         estimate D2E/DX2                !
 ! D104  D(41,17,18,44)        -59.2191         estimate D2E/DX2                !
 --------------------------------------------------------------------------------
 Trust Radius=3.00D-01 FncErr=1.00D-07 GrdErr=1.00D-06 EigMax=2.50D+02 EigMin=1.00D-04
 Number of steps in this run=    237 maximum allowed number of steps=    264.
 GradGradGradGradGradGradGradGradGradGradGradGradGradGradGradGradGradGrad

                          Input orientation:                          
 ---------------------------------------------------------------------
 Center     Atomic      Atomic             Coordinates (Angstroms)
 Number     Number       Type             X           Y           Z
 ---------------------------------------------------------------------
      1          6           0        1.448734   -0.889483    0.419446
      2          6           0        2.902973   -0.496702    0.146514
      3          6           0        3.100866    0.171903   -1.219082
      4          6           0        4.557504    0.567167   -1.482809
      5          6           0        4.828717    1.135066   -2.878944
      6          6           0        4.122711    2.468510   -3.139694
      7          8           0        6.246032    1.270401   -2.972285
      8          6           0        6.763281    1.343565   -4.282113
      9          6           0        8.282877    1.414309   -4.166939
     10          6           0        9.024384    1.348486   -5.509485
     11          6           0        8.764054    2.560875   -6.440532
     12          6           0        7.468599    2.467049   -7.216427
     13          8           0        6.678117    3.363201   -7.356925
     14          6           0       10.525158    1.198186   -5.268915
     15          8           0       11.077219    1.292850   -4.202644
     16          8           0       11.171492    0.935767   -6.423661
     17          6           0       12.603552    0.784519   -6.325331
     18          6           0       13.132862    0.500728   -7.717423
     19          1           0        1.339571   -1.364539    1.399452
     20          1           0        1.080466   -1.594150   -0.334696
     21          1           0        0.791093   -0.013164    0.399560
     22          1           0        3.542373   -1.387090    0.208549
     23          1           0        3.254210    0.182315    0.934659
     24          1           0        2.451526    1.054696   -1.279055
     25          1           0        2.756803   -0.512122   -2.008167
     26          1           0        5.204635   -0.308977   -1.356952
     27          1           0        4.888232    1.303472   -0.738583
     28          1           0        4.493720    0.398631   -3.630711
     29          1           0        4.428055    3.208876   -2.392964
     30          1           0        3.036302    2.351953   -3.089078
     31          1           0        4.360859    2.863609   -4.131183
     32          1           0        6.368680    2.220226   -4.815621
     33          1           0        6.462861    0.450784   -4.861161
     34          1           0        8.616030    0.586029   -3.535244
     35          1           0        8.564666    2.330204   -3.637583
     36          1           0        8.720113    0.444706   -6.057968
     37          1           0        9.558046    2.588226   -7.198732
     38          1           0        8.786742    3.506105   -5.890612
     39          1           0        7.300953    1.472793   -7.696372
     40          1           0       12.823409   -0.029392   -5.627620
     41          1           0       13.027172    1.700701   -5.902393
     42          1           0       12.695195   -0.415654   -8.123206
     43          1           0       14.219219    0.377116   -7.681984
     44          1           0       12.902880    1.323997   -8.399744
 ---------------------------------------------------------------------
                    Distance matrix (angstroms):
                    1          2          3          4          5
     1  C    0.000000
     2  C    1.530876   0.000000
     3  C    2.557509   1.533312   0.000000
     4  C    3.924902   2.554209   1.532182   0.000000
     5  C    5.138332   3.940120   2.582304   1.531424   0.000000
     6  C    5.576177   4.591231   3.163436   2.559184   1.531179
     7  O    6.259633   4.901592   3.764637   2.358857   1.426819
     8  C    7.438788   6.156403   4.916120   3.647513   2.398936
     9  C    8.546806   7.155501   6.089883   4.669112   3.697043
    10  C    9.876801   8.536200   7.408102   6.064453   4.956704
    11  C   10.605572   9.332213   8.064888   6.800658   5.495882
    12  C   10.286479   9.156509   7.766141   6.705103   5.249468
    13  O   10.290953   9.244034   7.788083   6.842518   5.332653
    14  C   10.913170   9.502484   8.519068   7.095468   6.177814
    15  O   10.901102   9.430587   8.589551   7.101465   6.389121
    16  O   12.028785  10.657747   9.633594   8.263941   7.268806
    17  C   13.142460  11.731476  10.805097   9.393410   8.511670
    18  C   14.305949  12.941677  11.957321  10.602433   9.631827
    19  H    1.094535   2.183397   3.509919   4.732231   6.060267
    20  H    1.095859   2.181166   2.825437   4.251970   5.288781
    21  H    1.095820   2.181256   2.826535   4.250406   5.326295
    22  H    2.162271   1.097940   2.159518   2.776743   4.189101
    23  H    2.161929   1.098000   2.159218   2.773236   4.234427
    24  H    2.769536   2.154736   1.097526   2.171254   2.866556
    25  H    2.783299   2.159688   1.099512   2.164114   2.786450
    26  H    4.195160   2.755594   2.162429   1.096470   2.131439
    27  H    4.240310   2.822281   2.169333   1.097907   2.147801
    28  H    5.228283   4.195178   2.794173   2.155447   1.104405
    29  H    5.795045   4.744062   3.516054   2.797100   2.167348
    30  H    5.033589   4.312965   2.872921   2.842467   2.176631
    31  H    6.578328   5.631679   4.160913   3.510869   2.185144
    32  H    7.828288   6.634426   5.273456   4.137705   2.701810
    33  H    7.404228   6.216698   4.964426   3.880359   2.658543
    34  H    8.317863   6.882345   5.996094   4.548019   3.882771
    35  H    8.801270   7.373299   6.352993   4.879415   3.995147
    36  H    9.829034   8.556925   7.420592   6.186630   5.072056
    37  H   11.657274  10.380723   9.126336   7.858873   6.568013
    38  H   10.629411   9.332099   8.078941   6.778830   5.509803
    39  H   10.280823   9.204999   7.828687   6.852375   5.425277
    40  H   12.910848  11.487996  10.677246   9.266096   8.533832
    41  H   13.443769  11.996552  11.081615   9.620441   8.756475
    42  H   14.130970  12.817271  11.834835  10.549067   9.580631
    43  H   15.176388  13.787907  12.861921  11.481056  10.574745
    44  H   14.624468  13.279744  12.205274  10.865638   9.782998
                    6          7          8          9         10
     6  C    0.000000
     7  O    2.443764   0.000000
     8  C    3.089212   1.410159   0.000000
     9  C    4.412884   2.365722   1.525595   0.000000
    10  C    5.558485   3.763339   2.572752   1.535121   0.000000
    11  C    5.696150   4.475990   3.184918   2.591403   1.550647
    12  C    5.273966   4.575957   3.220231   3.327265   2.566184
    13  O    5.011548   4.877661   3.679762   4.068101   3.602371
    14  C    6.865757   4.857019   3.891867   2.507765   1.527346
    15  O    7.132827   4.985444   4.314968   2.797209   2.434145
    16  O    7.925847   6.023631   4.917810   3.696741   2.369837
    17  C    9.214595   7.203961   6.212571   4.870680   3.714042
    18  C   10.296144   8.398640   7.285828   6.079714   4.740599
    19  H    6.560639   7.080138   8.308468   9.322885  10.684112
    20  H    5.799007   6.468818   7.517091   8.695495   9.926902
    21  H    5.457536   6.540125   7.708813   8.889174  10.225359
    22  H    5.139375   4.948711   6.164152   7.033143   8.380437
    23  H    4.751982   5.039756   6.393496   7.268535   8.728222
    24  H    2.872927   4.160749   5.262417   6.517196   7.822104
    25  H    3.468462   4.035051   4.966515   6.237701   7.416445
    26  H    3.473206   2.487618   3.703625   4.510134   5.880578
    27  H    2.776450   2.614219   4.009243   4.825922   6.314372
    28  H    2.159432   2.064971   2.543252   3.959400   4.995891
    29  H    1.094981   2.719988   3.535753   4.607288   5.856619
    30  H    1.093816   3.389066   4.041108   5.437601   6.536241
    31  H    1.093557   2.726762   2.846918   4.181384   5.093503
    32  H    2.813317   2.077282   1.099489   2.175877   2.879955
    33  H    3.537085   2.070420   1.105715   2.173196   2.790626
    34  H    4.887751   2.530253   2.136435   1.093653   2.155394
    35  H    4.471910   2.634741   2.152641   1.094754   2.163129
    36  H    5.809321   4.040333   2.791201   2.169631   1.100106
    37  H    6.784761   5.528920   4.226885   3.492264   2.162246
    38  H    5.513378   4.468804   3.370199   2.756908   2.203871
    39  H    5.644111   4.844669   3.458751   3.663945   2.787139
    40  H    9.387835   7.211252   6.357716   4.983402   4.042907
    41  H    9.354756   7.399631   6.479906   5.059858   4.037418
    42  H   10.326726   8.424160   7.282613   6.202368   4.839275
    43  H   11.267023   9.303276   8.251313   6.976495   5.713986
    44  H   10.299000   8.589168   7.392560   6.266517   4.837037
                   11         12         13         14         15
    11  C    0.000000
    12  C    1.512951   0.000000
    13  O    2.415499   1.203199   0.000000
    14  C    2.516167   3.839970   4.883318   0.000000
    15  O    3.459301   4.846007   5.795511   1.204437   0.000000
    16  O    2.904655   4.084693   5.191708   1.349093   2.251514
    17  C    4.232075   5.476560   6.544048   2.367881   2.663436
    18  C    4.996113   6.016751   7.070179   3.644415   4.148108
    19  H   11.489001  11.246307  11.292730  11.636566  11.544132
    20  H   10.657532  10.230338  10.257716  11.015710  11.100940
    21  H   10.815758  10.428030  10.306307  11.329209  11.344176
    22  H    9.330737   9.241207   9.467553   9.243676   9.133160
    23  H    9.508384   9.456283   9.517959   9.611608   9.424683
    24  H    8.292010   7.900516   7.754597   9.006836   9.110800
    25  H    8.073179   7.629053   7.681409   8.596799   8.792211
    26  H    6.837272   6.867700   7.187191   6.773696   6.719453
    27  H    7.008230   7.069277   7.158815   7.232560   7.092489
    28  H    5.550328   5.097609   5.238792   6.300892   6.668523
    29  H    5.966875   5.749871   5.452294   7.034815   7.152446
    30  H    6.639505   6.057517   5.700874   7.884531   8.186457
    31  H    4.981251   4.397049   4.003085   6.485880   6.897962
    32  H    2.914479   2.652284   2.803635   4.304224   4.837986
    33  H    3.498912   3.259466   3.841530   4.150558   4.736562
    34  H    3.516053   4.290215   5.106216   2.650494   2.646218
    35  H    2.819484   3.745426   4.296470   2.790383   2.776386
    36  H    2.150921   2.645410   3.791392   2.109152   3.117295
    37  H    1.098199   2.093033   2.986570   2.567433   3.600338
    38  H    1.093794   2.138907   2.572313   2.955518   3.604722
    39  H    2.213983   1.116691   2.019107   4.045177   5.147689
    40  H    4.883511   6.118049   7.229440   2.630129   2.613056
    41  H    4.382199   5.762960   6.722356   2.629428   2.618741
    42  H    5.210085   6.037345   7.146479   3.931987   4.572487
    43  H    6.005734   7.082051   8.117302   4.488113   4.776667
    44  H    4.743234   5.677871   6.632760   3.933381   4.577080
                   16         17         18         19         20
    16  O    0.000000
    17  C    1.443379   0.000000
    18  C    2.389571   1.516122   0.000000
    19  H   12.773377  13.826351  15.022594   0.000000
    20  H   12.054243  13.203306  14.288227   1.768368   0.000000
    21  H   12.458310  13.615970  14.780689   1.768284   1.767027
    22  H   10.372335  11.380353  12.584211   2.504215   2.529620
    23  H   10.834940  11.852439  13.135741   2.504921   3.080950
    24  H   10.125163  11.340262  12.484006   3.776711   3.128579
    25  H    9.612489  10.829480  11.886297   3.787747   2.604112
    26  H    7.926178   8.979114  10.196470   4.863198   4.439082
    27  H    8.481432   9.539771  10.831553   4.927724   4.801918
    28  H    7.258217   8.554488   9.557532   6.193542   5.146377
    29  H    8.178477   9.390408  10.557348   6.696064   6.205794
    30  H    8.905411  10.220688  11.260068   6.069441   5.194579
    31  H    7.440212   8.779458   9.766901   7.589027   6.711625
    32  H    5.225192   6.573744   7.558524   8.761827   7.911597
    33  H    4.984759   6.321650   7.256007   8.290884   7.323989
    34  H    3.872422   4.870761   6.156271   9.005709   8.472391
    35  H    4.062294   5.091732   6.392221   9.551169   9.073194
    36  H    2.526683   3.907436   4.714794  10.647012   9.760993
    37  H    2.436096   3.645723   4.172049  12.533812  11.682321
    38  H    3.546521   4.707871   5.590911  11.503415  10.782740
    39  H    4.109654   5.520057   5.912403  11.239330  10.114093
    40  H    2.072208   1.094344   2.178088  13.529260  12.975370
    41  H    2.073739   1.094404   2.178403  14.117813  13.585988
    42  H    2.652633   2.163601   1.093603  14.850306  14.033947
    43  H    3.344266   2.148690   1.093942  15.855320  15.182074
    44  H    2.655811   2.164215   1.093720  15.393589  14.605823
                   21         22         23         24         25
    21  H    0.000000
    22  H    3.081185   0.000000
    23  H    2.528139   1.753085   0.000000
    24  H    2.591353   3.060267   2.511151   0.000000
    25  H    3.148035   2.509287   3.064292   1.754913   0.000000
    26  H    4.759432   2.525121   3.049100   3.073318   2.541108
    27  H    4.451454   3.153968   2.593599   2.508294   3.074283
    28  H    5.488361   4.339790   4.735586   3.182964   2.545388
    29  H    5.604215   5.354923   4.648769   3.128570   4.097192
    30  H    4.775493   5.011078   4.576601   2.302395   3.073991
    31  H    6.445671   6.129571   5.837530   3.879736   4.298343
    32  H    7.955854   6.800223   6.849725   5.404614   5.328525
    33  H    7.749799   6.132617   6.630162   5.411746   4.775105
    34  H    8.779029   6.606904   6.992291   6.581121   6.153734
    35  H    9.067432   7.337195   7.329377   6.675332   6.668214
    36  H   10.236145   8.332689   8.879289   7.906028   7.271690
    37  H   11.889522  10.337276  10.567820   9.375336   9.100056
    38  H   10.764846   9.415228   9.393658   8.210409   8.220686
    39  H   10.494306   9.208346   9.619572   8.054422   7.546182
    40  H   13.457481  11.047255  11.605081  11.298727  10.708409
    41  H   13.869880  11.697840  12.023376  11.560141  11.204555
    42  H   14.646064  12.415151  13.097125  12.407139  11.669389
    43  H   15.677316  13.392833  13.946897  13.413994  12.820684
    44  H   15.030340  13.002761  13.473357  12.649409  12.131219
                   26         27         28         29         30
    26  H    0.000000
    27  H    1.755700   0.000000
    28  H    2.485173   3.055942   0.000000
    29  H    3.748558   2.565016   3.071450   0.000000
    30  H    3.844799   3.170771   2.496578   1.776477   0.000000
    31  H    4.298094   3.771192   2.518778   1.773451   1.761314
    32  H    4.440074   4.433330   2.870139   3.257717   3.755402
    33  H    3.799980   4.494684   2.322551   4.223684   4.300701
    34  H    4.145311   4.715137   4.127671   5.071811   5.869491
    35  H    4.843176   4.793177   4.505954   4.408252   5.555550
    36  H    5.918291   6.611857   4.874023   6.284477   6.690113
    37  H    7.840431   8.074113   6.570578   7.056729   7.712213
    38  H    6.923901   6.825934   5.761387   5.596431   6.499863
    39  H    6.910680   7.366189   5.056084   6.276438   6.339348
    40  H    8.738563   9.415214   8.576396   9.561974  10.387612
    41  H    9.267789   9.647024   8.926126   9.409330  10.399825
    42  H   10.094655  10.882864   9.386680  10.691983  11.238163
    43  H   11.033562  11.667746  10.535588  11.483009  12.249589
    44  H   10.560800  11.087308   9.711537  10.557312  11.252077
                   31         32         33         34         35
    31  H    0.000000
    32  H    2.216696   0.000000
    33  H    3.282226   1.772532   0.000000
    34  H    4.863023   3.059502   2.532288   0.000000
    35  H    4.266164   2.494439   3.073588   1.747930   0.000000
    36  H    5.344782   3.197677   2.554911   2.528822   3.072056
    37  H    6.041229   3.998337   4.428665   4.279876   3.706099
    38  H    4.805916   2.942127   3.974315   3.755495   2.551118
    39  H    4.825878   3.118736   3.128151   4.453175   4.336577
    40  H    9.067719   6.883579   6.424531   4.739074   5.259737
    41  H    8.921576   6.766572   6.762887   5.128748   5.043768
    42  H    9.805660   7.610044   7.087570   6.220318   6.687438
    43  H   10.769313   8.558275   8.253700   6.973868   7.221199
    44  H    9.672494   7.506326   7.399860   6.525722   6.520026
                   36         37         38         39         40
    36  H    0.000000
    37  H    2.568688   0.000000
    38  H    3.066694   1.774427   0.000000
    39  H    2.399031   2.566380   3.098822   0.000000
    40  H    4.152951   4.470226   5.372484   6.085542   0.000000
    41  H    4.489152   3.808285   4.608782   6.004988   1.763587
    42  H    4.561437   4.440681   5.969981   5.731166   2.528554
    43  H    5.734297   5.181610   6.520077   7.004507   2.516734
    44  H    4.873665   3.772085   5.291496   5.647872   3.085879
                   41         42         43         44
    41  H    0.000000
    42  H    3.085640   0.000000
    43  H    2.517896   1.773643   0.000000
    44  H    2.528659   1.773694   1.773277   0.000000
 Stoichiometry    C14H26O4
 Framework group  C1[X(C14H26O4)]
 Deg. of freedom   126
 Full point group                 C1      NOp   1
 Largest Abelian subgroup         C1      NOp   1
 Largest concise Abelian subgroup C1      NOp   1
                         Standard orientation:                         
 ---------------------------------------------------------------------
 Center     Atomic      Atomic             Coordinates (Angstroms)
 Number     Number       Type             X           Y           Z
 ---------------------------------------------------------------------
      1          6           0        7.617341   -1.094461    0.718278
      2          6           0        6.231134   -1.432923    0.163793
      3          6           0        5.224583   -0.286224    0.315391
      4          6           0        3.841347   -0.630175   -0.246690
      5          6           0        2.768554    0.438468   -0.017830
      6          6           0        3.053173    1.751562   -0.752189
      7          8           0        1.542103   -0.145748   -0.454089
      8          6           0        0.370819    0.450325    0.057124
      9          6           0       -0.814369   -0.354305   -0.467606
     10          6           0       -2.172380    0.065415    0.112256
     11          6           0       -2.617873    1.497300   -0.282392
     12          6           0       -1.986911    2.585793    0.557900
     13          8           0       -1.517596    3.607733    0.130033
     14          6           0       -3.247213   -0.938836   -0.298842
     15          8           0       -3.106261   -1.828795   -1.098074
     16          8           0       -4.399827   -0.704209    0.361826
     17          6           0       -5.498768   -1.585329    0.046709
     18          6           0       -6.687517   -1.155769    0.883954
     19          1           0        8.312299   -1.931306    0.596907
     20          1           0        7.568995   -0.854435    1.786434
     21          1           0        8.048367   -0.227188    0.205564
     22          1           0        5.840381   -2.325510    0.669829
     23          1           0        6.315421   -1.700668   -0.897722
     24          1           0        5.625458    0.605642   -0.183044
     25          1           0        5.134444   -0.024520    1.379493
     26          1           0        3.478794   -1.558038    0.211428
     27          1           0        3.911337   -0.826123   -1.324700
     28          1           0        2.697807    0.641214    1.065498
     29          1           0        3.144892    1.569404   -1.828009
     30          1           0        3.982845    2.204826   -0.396246
     31          1           0        2.254965    2.482392   -0.595284
     32          1           0        0.296403    1.503829   -0.248600
     33          1           0        0.386460    0.435088    1.162624
     34          1           0       -0.639482   -1.408994   -0.237122
     35          1           0       -0.845383   -0.284892   -1.559717
     36          1           0       -2.135114    0.026568    1.211044
     37          1           0       -3.698663    1.581278   -0.106662
     38          1           0       -2.428592    1.703394   -1.339787
     39          1           0       -2.012766    2.380923    1.655332
     40          1           0       -5.195489   -2.614881    0.260328
     41          1           0       -5.705939   -1.521729   -1.026024
     42          1           0       -6.459142   -1.223018    1.951329
     43          1           0       -7.542336   -1.805041    0.673147
     44          1           0       -6.974838   -0.125099    0.657258
 ---------------------------------------------------------------------
 Rotational constants (GHZ):           0.7548758           0.1162644           0.1043906
 Standard basis: 6-31+G(2df,p) (6D, 7F)
 There are   760 symmetry adapted cartesian basis functions of A   symmetry.
 There are   706 symmetry adapted basis functions of A   symmetry.
   706 basis functions,  1046 primitive gaussians,   760 cartesian basis functions
    71 alpha electrons       71 beta electrons
       nuclear repulsion energy      1324.7845908213 Hartrees.
 NAtoms=   44 NActive=   44 NUniq=   44 SFac= 1.00D+00 NAtFMM=   60 NAOKFM=F Big=F
 Integral buffers will be    131072 words long.
 Regular integral format.
 Two-electron integral symmetry is turned on.
 One-electron integrals computed using PRISM.
 PrsmSu:  requested number of processors reduced to:  12 ShMem   1 Linda.
 NBasis=   706 RedAO= T EigKep=  2.94D-06  NBF=   706
 NBsUse=   706 1.00D-06 EigRej= -1.00D+00 NBFU=   706
 ExpMin= 4.38D-02 ExpMax= 5.48D+03 ExpMxC= 8.25D+02 IAcc=3 IRadAn=         5 AccDes= 0.00D+00
 Harris functional with IExCor=  402 and IRadAn=       5 diagonalized for initial guess.
 HarFok:  IExCor=  402 AccDes= 0.00D+00 IRadAn=         5 IDoV= 1 UseB2=F ITyADJ=14
 ICtDFT=  3500011 ScaDFX=  1.000000  1.000000  1.000000  1.000000
 FoFCou: FMM=F IPFlag=           0 FMFlag=      100000 FMFlg1=           0
         NFxFlg=           0 DoJE=T BraDBF=F KetDBF=T FulRan=T
         wScrn=  0.000000 ICntrl=       500 IOpCl=  0 I1Cent=   200000004 NGrid=           0
         NMat0=    1 NMatS0=      1 NMatT0=    0 NMatD0=    1 NMtDS0=    0 NMtDT0=    0
 Petite list used in FoFCou.
 Requested convergence on RMS density matrix=1.00D-08 within 128 cycles.
 Requested convergence on MAX density matrix=1.00D-06.
 Requested convergence on             energy=1.00D-06.
 No special actions if energy rises.
 SCF Done:  E(RB3LYP) =  -850.148647019     A.U. after   14 cycles
            NFock= 14  Conv=0.62D-08     -V/T= 2.0078
 DoSCS=F DFT=T ScalE2(SS,OS)=  1.000000  1.000000
 ExpMin= 4.38D-02 ExpMax= 5.48D+03 ExpMxC= 8.25D+02 IAcc=3 IRadAn=         5 AccDes= 0.00D+00
 HarFok:  IExCor=  205 AccDes= 0.00D+00 IRadAn=         5 IDoV=-2 UseB2=F ITyADJ=14
 ICtDFT= 12500011 ScaDFX=  1.000000  1.000000  1.000000  1.000000
 Range of M.O.s used for correlation:    19   706
 NBasis=   706 NAE=    71 NBE=    71 NFC=    18 NFV=     0
 NROrb=    688 NOA=    53 NOB=    53 NVA=   635 NVB=   635

 **** Warning!!: The largest alpha MO coefficient is  0.96350530D+02

 Orbital symmetries:
       Occupied  (A) (A) (A) (A) (A) (A) (A) (A) (A) (A) (A) (A)
                 (A) (A) (A) (A) (A) (A) (A) (A) (A) (A) (A) (A)
                 (A) (A) (A) (A) (A) (A) (A) (A) (A) (A) (A) (A)
                 (A) (A) (A) (A) (A) (A) (A) (A) (A) (A) (A) (A)
                 (A) (A) (A) (A) (A) (A) (A) (A) (A) (A) (A) (A)
                 (A) (A) (A) (A) (A) (A) (A) (A) (A) (A) (A)
       Virtual   (A) (A) (A) (A) (A) (A) (A) (A) (A) (A) (A) (A)
                 (A) (A) (A) (A) (A) (A) (A) (A) (A) (A) (A) (A)
                 (A) (A) (A) (A) (A) (A) (A) (A) (A) (A) (A) (A)
                 (A) (A) (A) (A) (A) (A) (A) (A) (A) (A) (A) (A)
                 (A) (A) (A) (A) (A) (A) (A) (A) (A) (A) (A) (A)
                 (A) (A) (A) (A) (A) (A) (A) (A) (A) (A) (A) (A)
                 (A) (A) (A) (A) (A) (A) (A) (A) (A) (A) (A) (A)
                 (A) (A) (A) (A) (A) (A) (A) (A) (A) (A) (A) (A)
                 (A) (A) (A) (A) (A) (A) (A) (A) (A) (A) (A) (A)
                 (A) (A) (A) (A) (A) (A) (A) (A) (A) (A) (A) (A)
                 (A) (A) (A) (A) (A) (A) (A) (A) (A) (A) (A) (A)
                 (A) (A) (A) (A) (A) (A) (A) (A) (A) (A) (A) (A)
                 (A) (A) (A) (A) (A) (A) (A) (A) (A) (A) (A) (A)
                 (A) (A) (A) (A) (A) (A) (A) (A) (A) (A) (A) (A)
                 (A) (A) (A) (A) (A) (A) (A) (A) (A) (A) (A) (A)
                 (A) (A) (A) (A) (A) (A) (A) (A) (A) (A) (A) (A)
                 (A) (A) (A) (A) (A) (A) (A) (A) (A) (A) (A) (A)
                 (A) (A) (A) (A) (A) (A) (A) (A) (A) (A) (A) (A)
                 (A) (A) (A) (A) (A) (A) (A) (A) (A) (A) (A) (A)
                 (A) (A) (A) (A) (A) (A) (A) (A) (A) (A) (A) (A)
                 (A) (A) (A) (A) (A) (A) (A) (A) (A) (A) (A) (A)
                 (A) (A) (A) (A) (A) (A) (A) (A) (A) (A) (A) (A)
                 (A) (A) (A) (A) (A) (A) (A) (A) (A) (A) (A) (A)
                 (A) (A) (A) (A) (A) (A) (A) (A) (A) (A) (A) (A)
                 (A) (A) (A) (A) (A) (A) (A) (A) (A) (A) (A) (A)
                 (A) (A) (A) (A) (A) (A) (A) (A) (A) (A) (A) (A)
                 (A) (A) (A) (A) (A) (A) (A) (A) (A) (A) (A) (A)
                 (A) (A) (A) (A) (A) (A) (A) (A) (A) (A) (A) (A)
                 (A) (A) (A) (A) (A) (A) (A) (A) (A) (A) (A) (A)
                 (A) (A) (A) (A) (A) (A) (A) (A) (A) (A) (A) (A)
                 (A) (A) (A) (A) (A) (A) (A) (A) (A) (A) (A) (A)
                 (A) (A) (A) (A) (A) (A) (A) (A) (A) (A) (A) (A)
                 (A) (A) (A) (A) (A) (A) (A) (A) (A) (A) (A) (A)
                 (A) (A) (A) (A) (A) (A) (A) (A) (A) (A) (A) (A)
                 (A) (A) (A) (A) (A) (A) (A) (A) (A) (A) (A) (A)
                 (A) (A) (A) (A) (A) (A) (A) (A) (A) (A) (A) (A)
                 (A) (A) (A) (A) (A) (A) (A) (A) (A) (A) (A) (A)
                 (A) (A) (A) (A) (A) (A) (A) (A) (A) (A) (A) (A)
                 (A) (A) (A) (A) (A) (A) (A) (A) (A) (A) (A) (A)
                 (A) (A) (A) (A) (A) (A) (A) (A) (A) (A) (A) (A)
                 (A) (A) (A) (A) (A) (A) (A) (A) (A) (A) (A) (A)
                 (A) (A) (A) (A) (A) (A) (A) (A) (A) (A) (A) (A)
                 (A) (A) (A) (A) (A) (A) (A) (A) (A) (A) (A) (A)
                 (A) (A) (A) (A) (A) (A) (A) (A) (A) (A) (A) (A)
                 (A) (A) (A) (A) (A) (A) (A) (A) (A) (A) (A) (A)
                 (A) (A) (A) (A) (A) (A) (A) (A) (A) (A) (A) (A)
                 (A) (A) (A) (A) (A) (A) (A) (A) (A) (A) (A) (A)
                 (A) (A) (A) (A) (A) (A) (A) (A) (A) (A) (A) (A)
                 (A) (A) (A) (A) (A) (A) (A) (A) (A) (A) (A) (A)
                 (A) (A) (A) (A) (A) (A) (A) (A) (A) (A) (A) (A)
                 (A) (A) (A) (A) (A) (A) (A) (A) (A) (A) (A) (A)
                 (A) (A) (A) (A) (A) (A) (A) (A) (A) (A) (A) (A)
                 (A) (A) (A) (A) (A) (A) (A) (A) (A) (A) (A)
    40 initial guesses have been made.
 Convergence on wavefunction:    0.000001000000000
 Iteration     1 Dimension    40 NMult     0 NNew     40
 CISAX will form     2 AO SS matrices at one time.
 New state      1 was old state      2
 New state      2 was old state      1
 New state      3 was old state     19
 New state      4 was old state      3
 New state      5 was old state      4
 New state      6 was old state      5
 New state      7 was old state      6
 New state      8 was old state      7
 New state     10 was old state      8
 Iteration     2 Dimension    60 NMult    40 NNew     20
 Iteration     3 Dimension    80 NMult    60 NNew     20
 Iteration     4 Dimension   100 NMult    80 NNew     20
 Iteration     5 Dimension   120 NMult   100 NNew     20
 Iteration     6 Dimension   140 NMult   120 NNew     20
 Iteration     7 Dimension   160 NMult   140 NNew     20
 Iteration     8 Dimension   180 NMult   160 NNew     20
 Iteration     9 Dimension   200 NMult   180 NNew     20
 Iteration    10 Dimension   216 NMult   200 NNew     16
 Iteration    11 Dimension   232 NMult   216 NNew     16
slurmstepd: error: *** JOB 27501048 ON lewis4-r630-hpc4-node539 CANCELLED AT 2023-05-26T18:10:05 DUE TO TIME LIMIT ***
