### Starting Gaussian ###
 Entering Gaussian System, Link 0=g16
 Initial command:
 /cluster/software/gaussian/gaussian-16-A.03/avx2/g16/l1.exe "/local/scratch/ks29c/Gau-14222.inp" -scrdir="/local/scratch/ks29c/"
 Entering Link 1 = /cluster/software/gaussian/gaussian-16-A.03/avx2/g16/l1.exe PID=     14223.
  
 Copyright (c) 1988,1990,1992,1993,1995,1998,2003,2009,2016,
            Gaussian, Inc.  All Rights Reserved.
  
 This is part of the Gaussian(R) 16 program.  It is based on
 the Gaussian(R) 09 system (copyright 2009, Gaussian, Inc.),
 the Gaussian(R) 03 system (copyright 2003, Gaussian, Inc.),
 the Gaussian(R) 98 system (copyright 1998, Gaussian, Inc.),
 the Gaussian(R) 94 system (copyright 1995, Gaussian, Inc.),
 the Gaussian 92(TM) system (copyright 1992, Gaussian, Inc.),
 the Gaussian 90(TM) system (copyright 1990, Gaussian, Inc.),
 the Gaussian 88(TM) system (copyright 1988, Gaussian, Inc.),
 the Gaussian 86(TM) system (copyright 1986, Carnegie Mellon
 University), and the Gaussian 82(TM) system (copyright 1983,
 Carnegie Mellon University). Gaussian is a federally registered
 trademark of Gaussian, Inc.
  
 This software contains proprietary and confidential information,
 including trade secrets, belonging to Gaussian, Inc.
  
 This software is provided under written license and may be
 used, copied, transmitted, or stored only in accord with that
 written license.
  
 The following legend is applicable only to US Government
 contracts under FAR:
  
                    RESTRICTED RIGHTS LEGEND
  
 Use, reproduction and disclosure by the US Government is
 subject to restrictions as set forth in subparagraphs (a)
 and (c) of the Commercial Computer Software - Restricted
 Rights clause in FAR 52.227-19.
  
 Gaussian, Inc.
 340 Quinnipiac St., Bldg. 40, Wallingford CT 06492
  
  
 ---------------------------------------------------------------
 Warning -- This program may not be used in any manner that
 competes with the business of Gaussian, Inc. or will provide
 assistance to any competitor of Gaussian, Inc.  The licensee
 of this program is prohibited from giving any competitor of
 Gaussian, Inc. access to this program.  By using this program,
 the user acknowledges that Gaussian, Inc. is engaged in the
 business of creating and licensing software in the field of
 computational chemistry and represents and warrants to the
 licensee that it is not a competitor of Gaussian, Inc. and that
 it will not use this program in any manner prohibited above.
 ---------------------------------------------------------------
  

 Cite this work as:
 Gaussian 16, Revision A.03,
 M. J. Frisch, G. W. Trucks, H. B. Schlegel, G. E. Scuseria, 
 M. A. Robb, J. R. Cheeseman, G. Scalmani, V. Barone, 
 G. A. Petersson, H. Nakatsuji, X. Li, M. Caricato, A. V. Marenich, 
 J. Bloino, B. G. Janesko, R. Gomperts, B. Mennucci, H. P. Hratchian, 
 J. V. Ortiz, A. F. Izmaylov, J. L. Sonnenberg, D. Williams-Young, 
 F. Ding, F. Lipparini, F. Egidi, J. Goings, B. Peng, A. Petrone, 
 T. Henderson, D. Ranasinghe, V. G. Zakrzewski, J. Gao, N. Rega, 
 G. Zheng, W. Liang, M. Hada, M. Ehara, K. Toyota, R. Fukuda, 
 J. Hasegawa, M. Ishida, T. Nakajima, Y. Honda, O. Kitao, H. Nakai, 
 T. Vreven, K. Throssell, J. A. Montgomery, Jr., J. E. Peralta, 
 F. Ogliaro, M. J. Bearpark, J. J. Heyd, E. N. Brothers, K. N. Kudin, 
 V. N. Staroverov, T. A. Keith, R. Kobayashi, J. Normand, 
 K. Raghavachari, A. P. Rendell, J. C. Burant, S. S. Iyengar, 
 J. Tomasi, M. Cossi, J. M. Millam, M. Klene, C. Adamo, R. Cammi, 
 J. W. Ochterski, R. L. Martin, K. Morokuma, O. Farkas, 
 J. B. Foresman, and D. J. Fox, Gaussian, Inc., Wallingford CT, 2016.
 
 ******************************************
 Gaussian 16:  ES64L-G16RevA.03 25-Dec-2016
                22-May-2023 
 ******************************************
 %chk=CCCCqCqCrOCCrCqCOrOC.chk
 %NProcShared=20
 Will use up to   20 processors via shared memory.
 -----------------------------
 # opt freq b3lyp/6-31g(2df,p)
 -----------------------------
 1/18=20,19=15,26=3,38=1/1,3;
 2/9=110,12=2,17=6,18=5,40=1/2;
 3/5=1,6=6,7=104,11=2,25=1,30=1,71=1,74=-5/1,2,3;
 4//1;
 5/5=2,38=5/2;
 6/7=2,8=2,9=2,10=2,28=1/1;
 7//1,2,3,16;
 1/18=20,19=15,26=3/3(2);
 2/9=110/2;
 99//99;
 2/9=110/2;
 3/5=1,6=6,7=104,11=2,25=1,30=1,71=1,74=-5/1,2,3;
 4/5=5,16=3,69=1/1;
 5/5=2,38=5/2;
 7//1,2,3,16;
 1/18=20,19=15,26=3/3(-5);
 2/9=110/2;
 6/7=2,8=2,9=2,10=2,19=2,28=1/1;
 99/9=1/99;
 -------------------
 Title Card Required
 -------------------
 Symbolic Z-matrix:
 Charge =  0 Multiplicity = 1
 C                     0.7991   -0.01751  -0.00809 
 C                     2.31622  -0.05006  -0.08058 
 C                     2.92141   1.2552    0.42948 
 C                     4.4755    1.3474    0.47977 
 C                     5.11059   1.14754  -0.94998 
 C                     6.638     1.19598  -0.97416 
 O                     4.736    -0.14821  -1.45867 
 C                     5.0037   -0.33533  -2.84758 
 C                     4.41954  -1.65578  -3.30327 
 C                     4.91828   2.70329   1.15755 
 C                     4.34229   2.93795   2.5763 
 O                     2.93869   3.13119   2.65026 
 O                     6.34976   2.71055   1.28791 
 C                     6.92362   3.98208   1.5651 
 H                     0.39222  -0.96171  -0.38146 
 H                     0.40765   0.79223  -0.63282 
 H                     0.44842   0.13284   1.01671 
 H                     2.55977  -0.22218  -1.12737 
 H                     2.70071  -0.88781   0.51222 
 H                     2.52869   1.34859   1.44316 
 H                     2.52728   2.1      -0.14996 
 H                     4.83325   0.52065   1.10887 
 H                     4.69802   1.91912  -1.61347 
 H                     7.04508   0.42294  -0.31336 
 H                     7.04232   2.17159  -0.71782 
 H                     7.03839   0.99818  -1.97028 
 H                     6.08098  -0.3876   -3.0151 
 H                     4.58268   0.48985  -3.43158 
 H                     4.76599  -2.47198  -2.66124 
 H                     4.72324  -1.8639   -4.33367 
 H                     3.32716  -1.64044  -3.25292 
 H                     4.60687   3.51781   0.48898 
 H                     4.77502   3.83944   3.01524 
 H                     4.63401   2.11099   3.23185 
 H                     2.66963   3.70144   1.91795 
 H                     8.00594   3.9036    1.43249 
 H                     6.74484   4.26712   2.60397 
 H                     6.54009   4.74834   0.88518 
 

 GradGradGradGradGradGradGradGradGradGradGradGradGradGradGradGradGradGrad
 Berny optimization.
 Initialization pass.
                           ----------------------------
                           !    Initial Parameters    !
                           ! (Angstroms and Degrees)  !
 --------------------------                            --------------------------
 ! Name  Definition              Value          Derivative Info.                !
 --------------------------------------------------------------------------------
 ! R1    R(1,2)                  1.5192         estimate D2E/DX2                !
 ! R2    R(1,15)                 1.0938         estimate D2E/DX2                !
 ! R3    R(1,16)                 1.0951         estimate D2E/DX2                !
 ! R4    R(1,17)                 1.0935         estimate D2E/DX2                !
 ! R5    R(2,3)                  1.5265         estimate D2E/DX2                !
 ! R6    R(2,18)                 1.0884         estimate D2E/DX2                !
 ! R7    R(2,19)                 1.0959         estimate D2E/DX2                !
 ! R8    R(3,4)                  1.5576         estimate D2E/DX2                !
 ! R9    R(3,20)                 1.0911         estimate D2E/DX2                !
 ! R10   R(3,21)                 1.0976         estimate D2E/DX2                !
 ! R11   R(4,5)                  1.5772         estimate D2E/DX2                !
 ! R12   R(4,10)                 1.5792         estimate D2E/DX2                !
 ! R13   R(4,22)                 1.0988         estimate D2E/DX2                !
 ! R14   R(5,6)                  1.5284         estimate D2E/DX2                !
 ! R15   R(5,7)                  1.4415         estimate D2E/DX2                !
 ! R16   R(5,23)                 1.0981         estimate D2E/DX2                !
 ! R17   R(6,24)                 1.0954         estimate D2E/DX2                !
 ! R18   R(6,25)                 1.0867         estimate D2E/DX2                !
 ! R19   R(6,26)                 1.0916         estimate D2E/DX2                !
 ! R20   R(7,8)                  1.4268         estimate D2E/DX2                !
 ! R21   R(8,9)                  1.5141         estimate D2E/DX2                !
 ! R22   R(8,27)                 1.0915         estimate D2E/DX2                !
 ! R23   R(8,28)                 1.0951         estimate D2E/DX2                !
 ! R24   R(9,29)                 1.0947         estimate D2E/DX2                !
 ! R25   R(9,30)                 1.0942         estimate D2E/DX2                !
 ! R26   R(9,31)                 1.0936         estimate D2E/DX2                !
 ! R27   R(10,11)                1.5491         estimate D2E/DX2                !
 ! R28   R(10,13)                1.4374         estimate D2E/DX2                !
 ! R29   R(10,32)                1.0988         estimate D2E/DX2                !
 ! R30   R(11,12)                1.4188         estimate D2E/DX2                !
 ! R31   R(11,33)                1.0921         estimate D2E/DX2                !
 ! R32   R(11,34)                1.0949         estimate D2E/DX2                !
 ! R33   R(12,35)                0.9664         estimate D2E/DX2                !
 ! R34   R(13,14)                1.4223         estimate D2E/DX2                !
 ! R35   R(14,36)                1.0932         estimate D2E/DX2                !
 ! R36   R(14,37)                1.092          estimate D2E/DX2                !
 ! R37   R(14,38)                1.0939         estimate D2E/DX2                !
 ! A1    A(2,1,15)             109.675          estimate D2E/DX2                !
 ! A2    A(2,1,16)             110.2181         estimate D2E/DX2                !
 ! A3    A(2,1,17)             111.5869         estimate D2E/DX2                !
 ! A4    A(15,1,16)            108.0944         estimate D2E/DX2                !
 ! A5    A(15,1,17)            108.6196         estimate D2E/DX2                !
 ! A6    A(16,1,17)            108.5623         estimate D2E/DX2                !
 ! A7    A(1,2,3)              111.2019         estimate D2E/DX2                !
 ! A8    A(1,2,18)             105.8269         estimate D2E/DX2                !
 ! A9    A(1,2,19)             109.933          estimate D2E/DX2                !
 ! A10   A(3,2,18)             111.5837         estimate D2E/DX2                !
 ! A11   A(3,2,19)             109.5            estimate D2E/DX2                !
 ! A12   A(18,2,19)            108.7129         estimate D2E/DX2                !
 ! A13   A(2,3,4)              117.1913         estimate D2E/DX2                !
 ! A14   A(2,3,20)             103.941          estimate D2E/DX2                !
 ! A15   A(2,3,21)             109.8385         estimate D2E/DX2                !
 ! A16   A(4,3,20)             108.908          estimate D2E/DX2                !
 ! A17   A(4,3,21)             109.2533         estimate D2E/DX2                !
 ! A18   A(20,3,21)            107.1771         estimate D2E/DX2                !
 ! A19   A(3,4,5)              111.407          estimate D2E/DX2                !
 ! A20   A(3,4,10)             110.1466         estimate D2E/DX2                !
 ! A21   A(3,4,22)             107.3856         estimate D2E/DX2                !
 ! A22   A(5,4,10)             112.642          estimate D2E/DX2                !
 ! A23   A(5,4,22)             107.0124         estimate D2E/DX2                !
 ! A24   A(10,4,22)            107.9997         estimate D2E/DX2                !
 ! A25   A(4,5,6)              114.3777         estimate D2E/DX2                !
 ! A26   A(4,5,7)              109.2179         estimate D2E/DX2                !
 ! A27   A(4,5,23)             107.9035         estimate D2E/DX2                !
 ! A28   A(6,5,7)              106.4152         estimate D2E/DX2                !
 ! A29   A(6,5,23)             110.0998         estimate D2E/DX2                !
 ! A30   A(7,5,23)             108.7082         estimate D2E/DX2                !
 ! A31   A(5,6,24)             109.8448         estimate D2E/DX2                !
 ! A32   A(5,6,25)             113.3619         estimate D2E/DX2                !
 ! A33   A(5,6,26)             112.0391         estimate D2E/DX2                !
 ! A34   A(24,6,25)            110.6698         estimate D2E/DX2                !
 ! A35   A(24,6,26)            106.6353         estimate D2E/DX2                !
 ! A36   A(25,6,26)            103.9719         estimate D2E/DX2                !
 ! A37   A(5,7,8)              114.3706         estimate D2E/DX2                !
 ! A38   A(7,8,9)              109.5701         estimate D2E/DX2                !
 ! A39   A(7,8,27)             109.9297         estimate D2E/DX2                !
 ! A40   A(7,8,28)             110.3754         estimate D2E/DX2                !
 ! A41   A(9,8,27)             107.028          estimate D2E/DX2                !
 ! A42   A(9,8,28)             110.3846         estimate D2E/DX2                !
 ! A43   A(27,8,28)            109.4932         estimate D2E/DX2                !
 ! A44   A(8,9,29)             110.586          estimate D2E/DX2                !
 ! A45   A(8,9,30)             110.0115         estimate D2E/DX2                !
 ! A46   A(8,9,31)             111.0559         estimate D2E/DX2                !
 ! A47   A(29,9,30)            108.8222         estimate D2E/DX2                !
 ! A48   A(29,9,31)            107.4314         estimate D2E/DX2                !
 ! A49   A(30,9,31)            108.8599         estimate D2E/DX2                !
 ! A50   A(4,10,11)            114.7644         estimate D2E/DX2                !
 ! A51   A(4,10,13)            108.8132         estimate D2E/DX2                !
 ! A52   A(4,10,32)            107.2083         estimate D2E/DX2                !
 ! A53   A(11,10,13)           106.6463         estimate D2E/DX2                !
 ! A54   A(11,10,32)           109.8515         estimate D2E/DX2                !
 ! A55   A(13,10,32)           109.4916         estimate D2E/DX2                !
 ! A56   A(10,11,12)           115.8633         estimate D2E/DX2                !
 ! A57   A(10,11,33)           110.2324         estimate D2E/DX2                !
 ! A58   A(10,11,34)           109.5657         estimate D2E/DX2                !
 ! A59   A(12,11,33)           104.9885         estimate D2E/DX2                !
 ! A60   A(12,11,34)           109.5884         estimate D2E/DX2                !
 ! A61   A(33,11,34)           106.097          estimate D2E/DX2                !
 ! A62   A(11,12,35)           108.4404         estimate D2E/DX2                !
 ! A63   A(10,13,14)           115.0871         estimate D2E/DX2                !
 ! A64   A(13,14,36)           108.1574         estimate D2E/DX2                !
 ! A65   A(13,14,37)           110.653          estimate D2E/DX2                !
 ! A66   A(13,14,38)           111.3243         estimate D2E/DX2                !
 ! A67   A(36,14,37)           107.2308         estimate D2E/DX2                !
 ! A68   A(36,14,38)           108.7844         estimate D2E/DX2                !
 ! A69   A(37,14,38)           110.5535         estimate D2E/DX2                !
 ! D1    D(15,1,2,3)           179.8355         estimate D2E/DX2                !
 ! D2    D(15,1,2,18)           58.4979         estimate D2E/DX2                !
 ! D3    D(15,1,2,19)          -58.7294         estimate D2E/DX2                !
 ! D4    D(16,1,2,3)            60.9419         estimate D2E/DX2                !
 ! D5    D(16,1,2,18)          -60.3957         estimate D2E/DX2                !
 ! D6    D(16,1,2,19)         -177.6229         estimate D2E/DX2                !
 ! D7    D(17,1,2,3)           -59.7581         estimate D2E/DX2                !
 ! D8    D(17,1,2,18)          178.9043         estimate D2E/DX2                !
 ! D9    D(17,1,2,19)           61.677          estimate D2E/DX2                !
 ! D10   D(1,2,3,4)            177.1981         estimate D2E/DX2                !
 ! D11   D(1,2,3,20)            57.0063         estimate D2E/DX2                !
 ! D12   D(1,2,3,21)           -57.3901         estimate D2E/DX2                !
 ! D13   D(18,2,3,4)           -64.8942         estimate D2E/DX2                !
 ! D14   D(18,2,3,20)          174.914          estimate D2E/DX2                !
 ! D15   D(18,2,3,21)           60.5177         estimate D2E/DX2                !
 ! D16   D(19,2,3,4)            55.5103         estimate D2E/DX2                !
 ! D17   D(19,2,3,20)          -64.6815         estimate D2E/DX2                !
 ! D18   D(19,2,3,21)         -179.0779         estimate D2E/DX2                !
 ! D19   D(2,3,4,5)             59.6521         estimate D2E/DX2                !
 ! D20   D(2,3,4,10)          -174.5961         estimate D2E/DX2                !
 ! D21   D(2,3,4,22)           -57.2233         estimate D2E/DX2                !
 ! D22   D(20,3,4,5)           177.1863         estimate D2E/DX2                !
 ! D23   D(20,3,4,10)          -57.0619         estimate D2E/DX2                !
 ! D24   D(20,3,4,22)           60.3109         estimate D2E/DX2                !
 ! D25   D(21,3,4,5)           -66.0504         estimate D2E/DX2                !
 ! D26   D(21,3,4,10)           59.7014         estimate D2E/DX2                !
 ! D27   D(21,3,4,22)          177.0742         estimate D2E/DX2                !
 ! D28   D(3,4,5,6)           -178.7782         estimate D2E/DX2                !
 ! D29   D(3,4,5,7)            -59.6655         estimate D2E/DX2                !
 ! D30   D(3,4,5,23)            58.3413         estimate D2E/DX2                !
 ! D31   D(10,4,5,6)            56.8635         estimate D2E/DX2                !
 ! D32   D(10,4,5,7)           175.9763         estimate D2E/DX2                !
 ! D33   D(10,4,5,23)          -66.0169         estimate D2E/DX2                !
 ! D34   D(22,4,5,6)           -61.676          estimate D2E/DX2                !
 ! D35   D(22,4,5,7)            57.4368         estimate D2E/DX2                !
 ! D36   D(22,4,5,23)          175.4436         estimate D2E/DX2                !
 ! D37   D(3,4,10,11)           55.9986         estimate D2E/DX2                !
 ! D38   D(3,4,10,13)          175.3683         estimate D2E/DX2                !
 ! D39   D(3,4,10,32)          -66.3028         estimate D2E/DX2                !
 ! D40   D(5,4,10,11)         -178.9526         estimate D2E/DX2                !
 ! D41   D(5,4,10,13)          -59.5829         estimate D2E/DX2                !
 ! D42   D(5,4,10,32)           58.746          estimate D2E/DX2                !
 ! D43   D(22,4,10,11)         -60.9926         estimate D2E/DX2                !
 ! D44   D(22,4,10,13)          58.377          estimate D2E/DX2                !
 ! D45   D(22,4,10,32)         176.7059         estimate D2E/DX2                !
 ! D46   D(4,5,6,24)            58.4807         estimate D2E/DX2                !
 ! D47   D(4,5,6,25)           -65.8989         estimate D2E/DX2                !
 ! D48   D(4,5,6,26)           176.8041         estimate D2E/DX2                !
 ! D49   D(7,5,6,24)           -62.1989         estimate D2E/DX2                !
 ! D50   D(7,5,6,25)           173.4215         estimate D2E/DX2                !
 ! D51   D(7,5,6,26)            56.1245         estimate D2E/DX2                !
 ! D52   D(23,5,6,24)         -179.8361         estimate D2E/DX2                !
 ! D53   D(23,5,6,25)           55.7843         estimate D2E/DX2                !
 ! D54   D(23,5,6,26)          -61.5127         estimate D2E/DX2                !
 ! D55   D(4,5,7,8)            167.213          estimate D2E/DX2                !
 ! D56   D(6,5,7,8)            -68.8434         estimate D2E/DX2                !
 ! D57   D(23,5,7,8)            49.712          estimate D2E/DX2                !
 ! D58   D(5,7,8,9)           -173.1477         estimate D2E/DX2                !
 ! D59   D(5,7,8,27)            69.4983         estimate D2E/DX2                !
 ! D60   D(5,7,8,28)           -51.3862         estimate D2E/DX2                !
 ! D61   D(7,8,9,29)           -52.9445         estimate D2E/DX2                !
 ! D62   D(7,8,9,30)          -173.1814         estimate D2E/DX2                !
 ! D63   D(7,8,9,31)            66.2313         estimate D2E/DX2                !
 ! D64   D(27,8,9,29)           66.2141         estimate D2E/DX2                !
 ! D65   D(27,8,9,30)          -54.0228         estimate D2E/DX2                !
 ! D66   D(27,8,9,31)         -174.6101         estimate D2E/DX2                !
 ! D67   D(28,8,9,29)         -174.7004         estimate D2E/DX2                !
 ! D68   D(28,8,9,30)           65.0627         estimate D2E/DX2                !
 ! D69   D(28,8,9,31)          -55.5246         estimate D2E/DX2                !
 ! D70   D(4,10,11,12)         -66.8829         estimate D2E/DX2                !
 ! D71   D(4,10,11,33)         174.1053         estimate D2E/DX2                !
 ! D72   D(4,10,11,34)          57.7075         estimate D2E/DX2                !
 ! D73   D(13,10,11,12)        172.5461         estimate D2E/DX2                !
 ! D74   D(13,10,11,33)         53.5342         estimate D2E/DX2                !
 ! D75   D(13,10,11,34)        -62.8635         estimate D2E/DX2                !
 ! D76   D(32,10,11,12)         53.9772         estimate D2E/DX2                !
 ! D77   D(32,10,11,33)        -65.0346         estimate D2E/DX2                !
 ! D78   D(32,10,11,34)        178.5676         estimate D2E/DX2                !
 ! D79   D(4,10,13,14)         164.884          estimate D2E/DX2                !
 ! D80   D(11,10,13,14)        -70.8005         estimate D2E/DX2                !
 ! D81   D(32,10,13,14)         48.0035         estimate D2E/DX2                !
 ! D82   D(10,11,12,35)        -41.5227         estimate D2E/DX2                !
 ! D83   D(33,11,12,35)         80.3243         estimate D2E/DX2                !
 ! D84   D(34,11,12,35)       -166.1014         estimate D2E/DX2                !
 ! D85   D(10,13,14,36)       -168.2169         estimate D2E/DX2                !
 ! D86   D(10,13,14,37)         74.604          estimate D2E/DX2                !
 ! D87   D(10,13,14,38)        -48.7569         estimate D2E/DX2                !
 --------------------------------------------------------------------------------
 Trust Radius=3.00D-01 FncErr=1.00D-07 GrdErr=1.00D-06 EigMax=2.50D+02 EigMin=1.00D-04
 Number of steps in this run=    203 maximum allowed number of steps=    228.
 GradGradGradGradGradGradGradGradGradGradGradGradGradGradGradGradGradGrad

                          Input orientation:                          
 ---------------------------------------------------------------------
 Center     Atomic      Atomic             Coordinates (Angstroms)
 Number     Number       Type             X           Y           Z
 ---------------------------------------------------------------------
      1          6           0        0.799100   -0.017510   -0.008090
      2          6           0        2.316220   -0.050060   -0.080580
      3          6           0        2.921410    1.255200    0.429480
      4          6           0        4.475500    1.347400    0.479770
      5          6           0        5.110590    1.147540   -0.949980
      6          6           0        6.638000    1.195980   -0.974160
      7          8           0        4.736000   -0.148210   -1.458670
      8          6           0        5.003700   -0.335330   -2.847580
      9          6           0        4.419540   -1.655780   -3.303270
     10          6           0        4.918280    2.703290    1.157550
     11          6           0        4.342290    2.937950    2.576300
     12          8           0        2.938690    3.131190    2.650260
     13          8           0        6.349760    2.710550    1.287910
     14          6           0        6.923620    3.982080    1.565100
     15          1           0        0.392220   -0.961710   -0.381460
     16          1           0        0.407650    0.792230   -0.632820
     17          1           0        0.448420    0.132840    1.016710
     18          1           0        2.559770   -0.222180   -1.127370
     19          1           0        2.700710   -0.887810    0.512220
     20          1           0        2.528690    1.348590    1.443160
     21          1           0        2.527280    2.100000   -0.149960
     22          1           0        4.833250    0.520650    1.108870
     23          1           0        4.698020    1.919120   -1.613470
     24          1           0        7.045080    0.422940   -0.313360
     25          1           0        7.042320    2.171590   -0.717820
     26          1           0        7.038390    0.998180   -1.970280
     27          1           0        6.080980   -0.387600   -3.015100
     28          1           0        4.582680    0.489850   -3.431580
     29          1           0        4.765990   -2.471980   -2.661240
     30          1           0        4.723240   -1.863900   -4.333670
     31          1           0        3.327160   -1.640440   -3.252920
     32          1           0        4.606870    3.517810    0.488980
     33          1           0        4.775020    3.839440    3.015240
     34          1           0        4.634010    2.110990    3.231850
     35          1           0        2.669630    3.701440    1.917950
     36          1           0        8.005940    3.903600    1.432490
     37          1           0        6.744840    4.267120    2.603970
     38          1           0        6.540090    4.748340    0.885180
 ---------------------------------------------------------------------
                    Distance matrix (angstroms):
                    1          2          3          4          5
     1  C    0.000000
     2  C    1.519200   0.000000
     3  C    2.513057   1.526473   0.000000
     4  C    3.951823   2.632371   1.557635   0.000000
     5  C    4.564367   3.162057   2.589789   1.577171   0.000000
     6  C    6.041407   4.585726   3.973255   2.610220   1.528369
     7  O    4.197672   2.786414   2.971095   2.462166   1.441545
     8  C    5.083540   3.867844   4.195812   3.765878   2.410646
     9  C    5.162337   4.169895   4.965040   4.830488   3.724799
    10  C    5.072387   3.985551   2.571875   1.579202   2.626599
    11  C    5.288479   4.482430   3.075611   2.634963   4.028710
    12  O    4.643165   4.238550   2.907147   3.202299   4.649059
    13  O    6.319158   5.075744   3.822111   2.454408   2.997782
    14  C    7.482071   6.339917   4.974253   3.756697   4.200872
    15  H    1.093833   2.150212   3.459641   4.769369   5.199535
    16  H    1.095080   2.158022   2.767998   4.253642   4.726995
    17  H    1.093525   2.173977   2.778527   4.240381   5.160747
    18  H    2.096339   1.088444   2.176515   2.952372   2.900738
    19  H    2.155056   1.095933   2.155933   2.854312   3.476809
    20  H    2.638908   2.079218   1.091099   2.172140   3.526152
    21  H    2.736893   2.161508   1.097623   2.181405   2.867177
    22  H    4.220377   2.841820   2.157838   1.098757   2.169970
    23  H    4.639974   3.449695   2.787611   2.181291   1.098075
    24  H    6.268928   4.758154   4.271899   2.843664   2.161616
    25  H    6.653846   5.260972   4.374696   2.949928   2.198672
    26  H    6.618954   5.193136   4.772256   3.562738   2.186260
    27  H    6.089116   4.785265   4.954473   4.219231   2.750097
    28  H    5.127687   4.081366   4.272395   4.005688   2.620989
    29  H    5.366549   4.304286   5.181399   4.953584   4.018468
    30  H    6.125249   5.212728   5.971848   5.791634   4.546226
    31  H    4.421980   3.689858   4.702067   4.917199   4.031995
    32  H    5.219644   4.277987   2.822006   2.174402   2.818248
    33  H    6.310668   5.545990   4.098819   3.567714   4.804363
    34  H    5.452913   4.584155   3.393914   2.860444   4.317762
    35  H    4.586840   4.265299   2.874548   3.297125   4.550353
    36  H    8.330001   7.091807   5.820008   4.461596   4.653502
    37  H    7.780279   6.742220   5.330918   4.264610   5.003310
    38  H    7.514667   6.465169   5.050201   3.999160   4.286845
                    6          7          8          9         10
     6  C    0.000000
     7  O    2.378907   0.000000
     8  C    2.919854   1.426796   0.000000
     9  C    4.298704   2.403219   1.514095   0.000000
    10  C    3.126277   3.874130   5.028079   6.256928   0.000000
    11  C    4.572801   5.095132   6.369482   7.461747   1.549090
    12  O    5.528685   5.555906   6.819624   7.781550   2.515961
    13  O    2.737511   4.280237   5.309571   6.623407   1.437422
    14  C    3.780446   5.566701   6.465127   7.858556   2.413046
    15  H    6.634507   4.548691   5.266863   5.023745   6.023786
    16  H    6.252742   4.505671   5.224962   5.405490   5.215684
    17  H    6.588227   4.958814   5.991869   6.134426   5.158168
    18  H    4.320487   2.202546   2.990772   3.201327   4.397932
    19  H    4.696143   2.928109   4.110627   4.254658   4.269668
    20  H    4.770027   3.941224   5.231798   5.927069   2.761689
    21  H    4.288890   3.412567   4.397800   5.256415   2.791133
    22  H    2.837641   2.655013   4.051574   4.937103   2.184838
    23  H    2.166834   2.073465   2.588245   3.963948   2.888250
    24  H    1.095428   2.640037   3.341329   4.489332   3.447731
    25  H    1.086738   3.354019   3.869948   5.311524   2.882926
    26  H    1.091646   2.622395   2.586091   3.959639   4.145550
    27  H    2.642619   2.070930   1.091479   2.109906   5.321323
    28  H    3.280529   2.079183   1.095096   2.155645   5.106081
    29  H    4.450235   2.616674   2.157893   1.094720   6.433488
    30  H    4.931073   3.348041   2.150267   1.094199   7.144982
    31  H    4.919318   2.725970   2.162961   1.093647   6.391549
    32  H    3.414259   4.153278   5.112416   6.417343   1.098820
    33  H    5.135551   5.993225   7.200948   8.381371   2.182286
    34  H    4.748025   5.207242   6.563583   7.546015   2.175856
    35  H    5.512675   5.521889   6.667359   7.682651   2.575061
    36  H    3.872264   5.955542   6.730600   8.136117   3.324151
    37  H    4.716602   6.327371   7.343944   8.682353   2.806068
    38  H    4.010735   5.720540   6.491355   7.940567   2.624249
                   11         12         13         14         15
    11  C    0.000000
    12  O    1.418769   0.000000
    13  O    2.396163   3.697071   0.000000
    14  C    2.962431   4.216782   1.422300   0.000000
    15  H    6.289574   5.694529   7.194760   8.419581   0.000000
    16  H    5.512164   4.759781   6.532827   7.580492   1.771927
    17  H    5.046106   4.226113   6.445460   7.552853   1.776535
    18  H    5.184686   5.065487   5.366424   6.630866   2.408643
    19  H    4.646682   4.558532   5.183190   6.531260   2.476540
    20  H    2.664435   2.191541   4.059509   5.124993   3.637476
    21  H    3.380668   3.012282   4.129358   5.080498   3.739805
    22  H    2.870145   3.574935   2.669742   4.069311   4.913372
    23  H    4.326515   4.769041   3.431124   4.394588   5.325124
    24  H    4.688335   5.742830   2.877620   4.026269   6.795766
    25  H    4.327666   5.394866   2.189308   2.916108   7.358977
    26  H    5.630546   6.535033   3.744626   4.627715   7.108945
    27  H    6.733950   7.372393   5.309112   6.386108   6.295050
    28  H    6.491964   6.831410   5.507056   6.530121   5.382398
    29  H    7.541796   7.933888   6.705425   8.010756   5.158311
    30  H    8.423216   8.769881   7.427875   8.591428   5.932255
    31  H    7.481440   7.600454   6.977561   8.231681   4.161710
    32  H    2.182463   2.757432   2.080294   2.596327   6.211847
    33  H    1.092066   2.001733   2.595740   2.596100   7.334681
    34  H    1.094856   2.062320   2.661235   3.394311   6.363197
    35  H    1.952981   0.966362   3.862922   4.277814   5.676165
    36  H    3.957665   5.268454   2.046266   1.093234   9.215768
    37  H    2.745852   3.972311   2.076298   1.091999   8.752670
    38  H    3.311755   4.324438   2.085906   1.093865   8.485597
                   16         17         18         19         20
    16  H    0.000000
    17  H    1.776909   0.000000
    18  H    2.430067   3.030003   0.000000
    19  H    3.064600   2.523697   1.775157   0.000000
    20  H    3.019609   2.446923   3.012625   2.428523   0.000000
    21  H    2.536976   3.090711   2.519704   3.065219   1.761434
    22  H    4.763735   4.402911   3.274336   2.624400   2.471484
    23  H    4.542998   5.307329   3.064893   4.048044   3.791370
    24  H    6.655367   6.735664   4.603998   4.612288   4.933555
    25  H    6.777072   7.116503   5.098149   5.451835   5.071491
    26  H    6.767417   7.286880   4.717819   5.341838   5.666723
    27  H    6.265296   6.946372   3.998726   4.911051   5.958960
    28  H    5.035411   6.083325   3.147783   4.581846   5.359048
    29  H    5.810739   6.241299   3.504535   4.104367   6.037248
    30  H    6.275001   7.133556   4.201929   5.340976   6.964762
    31  H    4.615880   5.446229   2.668016   3.890395   5.623613
    32  H    5.130367   5.387878   4.559685   4.800362   3.151953
    33  H    6.455056   6.037588   6.210097   5.737139   3.704290
    34  H    5.876812   5.132162   5.361805   4.486294   2.865840
    35  H    4.481795   4.298943   4.967981   4.799819   2.404411
    36  H    8.466412   8.456217   7.296281   7.207633   6.043878
    37  H    7.919069   7.697829   7.182724   6.877769   5.257492
    38  H    7.453989   7.643859   6.678276   6.829797   5.287814
                   21         22         23         24         25
    21  H    0.000000
    22  H    3.065371   0.000000
    23  H    2.624251   3.063518   0.000000
    24  H    4.821799   2.631440   3.072057   0.000000
    25  H    4.551173   3.307928   2.522236   1.794818   0.000000
    26  H    4.987754   3.817308   2.540231   1.753947   1.716264
    27  H    5.198650   4.403280   3.032837   2.980916   3.570872
    28  H    4.193600   4.547463   2.315522   3.973813   4.030207
    29  H    5.676385   4.813947   4.514887   4.368908   5.524609
    30  H    6.167509   5.943015   4.659546   5.175275   5.893868
    31  H    4.925349   5.095471   4.151809   5.169282   5.895822
    32  H    2.596753   3.068954   2.642804   4.020801   3.033165
    33  H    4.253995   3.827794   5.011837   5.282539   4.675266
    34  H    3.984353   2.660061   4.849540   4.607742   4.626394
    35  H    2.619375   3.931067   4.445442   5.905241   5.329929
    36  H    5.981040   4.649198   4.915116   4.010765   2.924424
    37  H    5.483462   4.463803   5.243031   4.835150   3.938785
    38  H    4.918116   4.564724   4.200114   4.516702   3.075953
                   26         27         28         29         30
    26  H    0.000000
    27  H    1.982087   0.000000
    28  H    2.902466   1.785575   0.000000
    29  H    4.205144   2.489790   3.065854   0.000000
    30  H    4.374590   2.400322   2.524611   1.780059   0.000000
    31  H    4.730825   3.034747   2.479190   1.764023   1.779605
    32  H    4.278877   5.450120   4.953778   6.769549   7.227330
    33  H    6.168550   7.479198   7.267616   8.488612   9.302540
    34  H    5.837940   6.881937   6.857990   7.466562   8.546625
    35  H    6.442982   7.258963   6.526220   7.967109   8.618183
    36  H    4.577823   6.473092   6.857957   8.240384   8.791404
    37  H    5.629911   7.326737   7.441140   8.778027   9.476662
    38  H    4.739795   6.465357   6.371861   8.237569   8.617369
                   31         32         33         34         35
    31  H    0.000000
    32  H    6.499770   0.000000
    33  H    8.450752   2.552197   0.000000
    34  H    7.604823   3.082728   1.747668   0.000000
    35  H    7.463640   2.414244   2.378183   2.848623   0.000000
    36  H    8.635996   3.548623   3.598341   4.221500   5.362159
    37  H    8.993496   3.099284   2.057242   3.082001   4.171085
    38  H    8.262161   2.325622   2.911825   4.011934   4.140420
                   36         37         38
    36  H    0.000000
    37  H    1.759229   0.000000
    38  H    1.778159   1.796590   0.000000
 Stoichiometry    C11H24O3
 Framework group  C1[X(C11H24O3)]
 Deg. of freedom   108
 Full point group                 C1      NOp   1
 Largest Abelian subgroup         C1      NOp   1
 Largest concise Abelian subgroup C1      NOp   1
                         Standard orientation:                         
 ---------------------------------------------------------------------
 Center     Atomic      Atomic             Coordinates (Angstroms)
 Number     Number       Type             X           Y           Z
 ---------------------------------------------------------------------
      1          6           0        1.700395    3.451019    0.135461
      2          6           0        1.445840    2.017863   -0.299549
      3          6           0        0.070407    1.538395    0.156973
      4          6           0       -0.362992    0.105579   -0.273642
      5          6           0        0.637945   -0.985973    0.268676
      6          6           0        0.292252   -2.417526   -0.140059
      7          8           0        1.956175   -0.720988   -0.251039
      8          6           0        2.999132   -1.457439    0.385850
      9          6           0        4.342242   -0.976661   -0.121490
     10          6           0       -1.855345   -0.166289    0.165501
     11          6           0       -2.884985    0.863666   -0.362434
     12          8           0       -2.765197    2.179369    0.154753
     13          8           0       -2.260661   -1.449619   -0.339441
     14          6           0       -3.443175   -1.981574    0.245045
     15          1           0        2.691773    3.767555   -0.201357
     16          1           0        1.672362    3.525663    1.227634
     17          1           0        0.955566    4.135741   -0.279488
     18          1           0        2.244007    1.426414    0.145229
     19          1           0        1.516797    1.940319   -1.390430
     20          1           0       -0.618834    2.262589   -0.280049
     21          1           0       -0.012627    1.629177    1.247679
     22          1           0       -0.319184    0.065149   -1.370781
     23          1           0        0.667579   -0.902752    1.363191
     24          1           0        0.266681   -2.496505   -1.232336
     25          1           0       -0.637893   -2.776457    0.292375
     26          1           0        1.038502   -3.134361    0.207720
     27          1           0        2.919539   -2.514796    0.127030
     28          1           0        2.938437   -1.341795    1.473131
     29          1           0        4.372254   -1.002738   -1.215488
     30          1           0        5.140408   -1.615260    0.268886
     31          1           0        4.532328    0.055225    0.186962
     32          1           0       -1.873177   -0.182234    1.264060
     33          1           0       -3.898871    0.550156   -0.104837
     34          1           0       -2.845321    0.894164   -1.456146
     35          1           0       -2.581446    2.120057    1.101628
     36          1           0       -3.530510   -3.028946   -0.055864
     37          1           0       -4.326531   -1.461961   -0.131975
     38          1           0       -3.404677   -1.930861    1.337056
 ---------------------------------------------------------------------
 Rotational constants (GHZ):           0.7646538           0.4339405           0.2871110
 Standard basis: 6-31G(2df,p) (6D, 7F)
 There are   554 symmetry adapted cartesian basis functions of A   symmetry.
 There are   512 symmetry adapted basis functions of A   symmetry.
   512 basis functions,   784 primitive gaussians,   554 cartesian basis functions
    57 alpha electrons       57 beta electrons
       nuclear repulsion energy      1023.5745735506 Hartrees.
 NAtoms=   38 NActive=   38 NUniq=   38 SFac= 1.00D+00 NAtFMM=   60 NAOKFM=F Big=F
 Integral buffers will be    131072 words long.
 Raffenetti 2 integral format.
 Two-electron integral symmetry is turned on.
 One-electron integrals computed using PRISM.
 PrsmSu:  requested number of processors reduced to:  12 ShMem   1 Linda.
 NBasis=   512 RedAO= T EigKep=  5.74D-04  NBF=   512
 NBsUse=   512 1.00D-06 EigRej= -1.00D+00 NBFU=   512
 ExpMin= 1.61D-01 ExpMax= 5.48D+03 ExpMxC= 8.25D+02 IAcc=3 IRadAn=         5 AccDes= 0.00D+00
 Harris functional with IExCor=  402 and IRadAn=       5 diagonalized for initial guess.
 HarFok:  IExCor=  402 AccDes= 0.00D+00 IRadAn=         5 IDoV= 1 UseB2=F ITyADJ=14
 ICtDFT=  3500011 ScaDFX=  1.000000  1.000000  1.000000  1.000000
 FoFCou: FMM=F IPFlag=           0 FMFlag=      100000 FMFlg1=           0
         NFxFlg=           0 DoJE=T BraDBF=F KetDBF=T FulRan=T
         wScrn=  0.000000 ICntrl=       500 IOpCl=  0 I1Cent=   200000004 NGrid=           0
         NMat0=    1 NMatS0=      1 NMatT0=    0 NMatD0=    1 NMtDS0=    0 NMtDT0=    0
 Petite list used in FoFCou.
 Requested convergence on RMS density matrix=1.00D-08 within 128 cycles.
 Requested convergence on MAX density matrix=1.00D-06.
 Requested convergence on             energy=1.00D-06.
 No special actions if energy rises.
 Integral accuracy reduced to 1.0D-05 until final iterations.
 Initial convergence to 1.0D-05 achieved.  Increase integral accuracy.
 SCF Done:  E(RB3LYP) =  -659.297288979     A.U. after   12 cycles
            NFock= 12  Conv=0.66D-08     -V/T= 2.0078

 **********************************************************************

            Population analysis using the SCF density.

 **********************************************************************

 Orbital symmetries:
       Occupied  (A) (A) (A) (A) (A) (A) (A) (A) (A) (A) (A) (A)
                 (A) (A) (A) (A) (A) (A) (A) (A) (A) (A) (A) (A)
                 (A) (A) (A) (A) (A) (A) (A) (A) (A) (A) (A) (A)
                 (A) (A) (A) (A) (A) (A) (A) (A) (A) (A) (A) (A)
                 (A) (A) (A) (A) (A) (A) (A) (A) (A)
       Virtual   (A) (A) (A) (A) (A) (A) (A) (A) (A) (A) (A) (A)
                 (A) (A) (A) (A) (A) (A) (A) (A) (A) (A) (A) (A)
                 (A) (A) (A) (A) (A) (A) (A) (A) (A) (A) (A) (A)
                 (A) (A) (A) (A) (A) (A) (A) (A) (A) (A) (A) (A)
                 (A) (A) (A) (A) (A) (A) (A) (A) (A) (A) (A) (A)
                 (A) (A) (A) (A) (A) (A) (A) (A) (A) (A) (A) (A)
                 (A) (A) (A) (A) (A) (A) (A) (A) (A) (A) (A) (A)
                 (A) (A) (A) (A) (A) (A) (A) (A) (A) (A) (A) (A)
                 (A) (A) (A) (A) (A) (A) (A) (A) (A) (A) (A) (A)
                 (A) (A) (A) (A) (A) (A) (A) (A) (A) (A) (A) (A)
                 (A) (A) (A) (A) (A) (A) (A) (A) (A) (A) (A) (A)
                 (A) (A) (A) (A) (A) (A) (A) (A) (A) (A) (A) (A)
                 (A) (A) (A) (A) (A) (A) (A) (A) (A) (A) (A) (A)
                 (A) (A) (A) (A) (A) (A) (A) (A) (A) (A) (A) (A)
                 (A) (A) (A) (A) (A) (A) (A) (A) (A) (A) (A) (A)
                 (A) (A) (A) (A) (A) (A) (A) (A) (A) (A) (A) (A)
                 (A) (A) (A) (A) (A) (A) (A) (A) (A) (A) (A) (A)
                 (A) (A) (A) (A) (A) (A) (A) (A) (A) (A) (A) (A)
                 (A) (A) (A) (A) (A) (A) (A) (A) (A) (A) (A) (A)
                 (A) (A) (A) (A) (A) (A) (A) (A) (A) (A) (A) (A)
                 (A) (A) (A) (A) (A) (A) (A) (A) (A) (A) (A) (A)
                 (A) (A) (A) (A) (A) (A) (A) (A) (A) (A) (A) (A)
                 (A) (A) (A) (A) (A) (A) (A) (A) (A) (A) (A) (A)
                 (A) (A) (A) (A) (A) (A) (A) (A) (A) (A) (A) (A)
                 (A) (A) (A) (A) (A) (A) (A) (A) (A) (A) (A) (A)
                 (A) (A) (A) (A) (A) (A) (A) (A) (A) (A) (A) (A)
                 (A) (A) (A) (A) (A) (A) (A) (A) (A) (A) (A) (A)
                 (A) (A) (A) (A) (A) (A) (A) (A) (A) (A) (A) (A)
                 (A) (A) (A) (A) (A) (A) (A) (A) (A) (A) (A) (A)
                 (A) (A) (A) (A) (A) (A) (A) (A) (A) (A) (A) (A)
                 (A) (A) (A) (A) (A) (A) (A) (A) (A) (A) (A) (A)
                 (A) (A) (A) (A) (A) (A) (A) (A) (A) (A) (A) (A)
                 (A) (A) (A) (A) (A) (A) (A) (A) (A) (A) (A) (A)
                 (A) (A) (A) (A) (A) (A) (A) (A) (A) (A) (A) (A)
                 (A) (A) (A) (A) (A) (A) (A) (A) (A) (A) (A) (A)
                 (A) (A) (A) (A) (A) (A) (A) (A) (A) (A) (A) (A)
                 (A) (A) (A) (A) (A) (A) (A) (A) (A) (A) (A) (A)
                 (A) (A) (A) (A) (A) (A) (A) (A) (A) (A) (A)
 The electronic state is 1-A.
 Alpha  occ. eigenvalues --  -19.14298 -19.13732 -19.12609 -10.24123 -10.22866
 Alpha  occ. eigenvalues --  -10.22711 -10.22689 -10.21939 -10.18847 -10.17071
 Alpha  occ. eigenvalues --  -10.16403 -10.15642 -10.15474 -10.15445  -1.03214
 Alpha  occ. eigenvalues --   -1.01652  -1.01406  -0.80391  -0.76278  -0.75239
 Alpha  occ. eigenvalues --   -0.72023  -0.69546  -0.68240  -0.63439  -0.61910
 Alpha  occ. eigenvalues --   -0.58859  -0.57081  -0.55776  -0.50885  -0.48945
 Alpha  occ. eigenvalues --   -0.48480  -0.47698  -0.46275  -0.45254  -0.44102
 Alpha  occ. eigenvalues --   -0.43532  -0.42563  -0.41618  -0.40870  -0.39982
 Alpha  occ. eigenvalues --   -0.38871  -0.37918  -0.37003  -0.36833  -0.35813
 Alpha  occ. eigenvalues --   -0.35232  -0.34425  -0.33594  -0.32625  -0.32139
 Alpha  occ. eigenvalues --   -0.31373  -0.31218  -0.30728  -0.29121  -0.26978
 Alpha  occ. eigenvalues --   -0.24466  -0.23678
 Alpha virt. eigenvalues --    0.06409   0.07975   0.09147   0.10421   0.11174
 Alpha virt. eigenvalues --    0.11709   0.12165   0.13538   0.13950   0.14477
 Alpha virt. eigenvalues --    0.14816   0.15464   0.15936   0.16784   0.16825
 Alpha virt. eigenvalues --    0.17816   0.17928   0.18117   0.18948   0.19496
 Alpha virt. eigenvalues --    0.20214   0.20375   0.20670   0.21044   0.22005
 Alpha virt. eigenvalues --    0.22950   0.23374   0.23670   0.24761   0.25732
 Alpha virt. eigenvalues --    0.26469   0.26806   0.27342   0.28329   0.29203
 Alpha virt. eigenvalues --    0.30422   0.31086   0.43061   0.43939   0.45406
 Alpha virt. eigenvalues --    0.46042   0.46797   0.47746   0.48840   0.49132
 Alpha virt. eigenvalues --    0.50688   0.51000   0.51881   0.53277   0.53715
 Alpha virt. eigenvalues --    0.53837   0.55382   0.55852   0.57032   0.57336
 Alpha virt. eigenvalues --    0.58983   0.59630   0.60481   0.61504   0.61563
 Alpha virt. eigenvalues --    0.62965   0.65071   0.65247   0.67241   0.69053
 Alpha virt. eigenvalues --    0.69648   0.70201   0.71363   0.71749   0.72158
 Alpha virt. eigenvalues --    0.73009   0.73185   0.73445   0.74307   0.74728
 Alpha virt. eigenvalues --    0.75108   0.75447   0.76004   0.76259   0.77274
 Alpha virt. eigenvalues --    0.77347   0.77774   0.77911   0.79443   0.80227
 Alpha virt. eigenvalues --    0.80666   0.81257   0.81741   0.82821   0.83284
 Alpha virt. eigenvalues --    0.83582   0.84941   0.86217   0.87663   0.88365
 Alpha virt. eigenvalues --    0.89177   0.89488   0.90370   0.91114   0.91811
 Alpha virt. eigenvalues --    0.92398   0.94465   0.95709   0.98425   0.98854
 Alpha virt. eigenvalues --    1.00132   1.00477   1.02636   1.04773   1.06637
 Alpha virt. eigenvalues --    1.08191   1.08922   1.09895   1.12216   1.13744
 Alpha virt. eigenvalues --    1.14829   1.15866   1.18210   1.20027   1.20803
 Alpha virt. eigenvalues --    1.22179   1.23459   1.24843   1.27732   1.28270
 Alpha virt. eigenvalues --    1.29412   1.29680   1.30698   1.31663   1.33714
 Alpha virt. eigenvalues --    1.34739   1.34955   1.36363   1.38325   1.39724
 Alpha virt. eigenvalues --    1.41883   1.42903   1.44039   1.45039   1.46217
 Alpha virt. eigenvalues --    1.47400   1.49434   1.50073   1.50600   1.51760
 Alpha virt. eigenvalues --    1.53715   1.55830   1.56248   1.57308   1.57980
 Alpha virt. eigenvalues --    1.59286   1.60677   1.61201   1.62469   1.63734
 Alpha virt. eigenvalues --    1.65434   1.65897   1.66091   1.68173   1.69524
 Alpha virt. eigenvalues --    1.70890   1.72966   1.75264   1.76526   1.76971
 Alpha virt. eigenvalues --    1.79218   1.79437   1.80636   1.82648   1.83962
 Alpha virt. eigenvalues --    1.85703   1.86815   1.88435   1.90295   1.91285
 Alpha virt. eigenvalues --    1.91773   1.93885   1.94589   1.94897   1.96068
 Alpha virt. eigenvalues --    1.96675   1.97057   1.99815   2.01333   2.03388
 Alpha virt. eigenvalues --    2.05725   2.06775   2.10393   2.13989   2.15745
 Alpha virt. eigenvalues --    2.18851   2.19408   2.21154   2.23757   2.25813
 Alpha virt. eigenvalues --    2.26973   2.27298   2.29125   2.30282   2.31328
 Alpha virt. eigenvalues --    2.32806   2.35434   2.35791   2.37205   2.40574
 Alpha virt. eigenvalues --    2.42119   2.43131   2.44251   2.45344   2.48309
 Alpha virt. eigenvalues --    2.50342   2.52036   2.52406   2.54719   2.55090
 Alpha virt. eigenvalues --    2.58407   2.60305   2.62712   2.63762   2.67731
 Alpha virt. eigenvalues --    2.68783   2.69489   2.72931   2.73530   2.75037
 Alpha virt. eigenvalues --    2.75591   2.77041   2.77549   2.77945   2.78599
 Alpha virt. eigenvalues --    2.79798   2.80652   2.81943   2.82828   2.83061
 Alpha virt. eigenvalues --    2.84321   2.85454   2.86117   2.87568   2.88119
 Alpha virt. eigenvalues --    2.88700   2.90237   2.90886   2.91312   2.91531
 Alpha virt. eigenvalues --    2.92863   2.93832   2.94228   2.95260   2.96162
 Alpha virt. eigenvalues --    2.96756   2.97302   2.98959   2.99655   3.00168
 Alpha virt. eigenvalues --    3.02155   3.02637   3.04870   3.05871   3.06694
 Alpha virt. eigenvalues --    3.10985   3.12421   3.13348   3.14316   3.16945
 Alpha virt. eigenvalues --    3.18506   3.20824   3.23725   3.24413   3.24822
 Alpha virt. eigenvalues --    3.26612   3.27658   3.28825   3.31070   3.32606
 Alpha virt. eigenvalues --    3.34673   3.36097   3.37877   3.38563   3.40054
 Alpha virt. eigenvalues --    3.40958   3.41684   3.42599   3.45213   3.46426
 Alpha virt. eigenvalues --    3.46977   3.49057   3.51478   3.51851   3.52327
 Alpha virt. eigenvalues --    3.55035   3.56935   3.58598   3.60067   3.61268
 Alpha virt. eigenvalues --    3.62438   3.63480   3.64687   3.65308   3.66275
 Alpha virt. eigenvalues --    3.67036   3.68159   3.70418   3.71766   3.72160
 Alpha virt. eigenvalues --    3.74452   3.75196   3.76906   3.78592   3.80161
 Alpha virt. eigenvalues --    3.81767   3.83114   3.84244   3.87771   3.90067
 Alpha virt. eigenvalues --    3.92761   3.93598   3.94906   3.95945   3.98674
 Alpha virt. eigenvalues --    3.99743   4.03688   4.04141   4.05804   4.11934
 Alpha virt. eigenvalues --    4.13847   4.19111   4.26561   4.27954   4.29820
 Alpha virt. eigenvalues --    4.30403   4.33254   4.35024   4.35409   4.37286
 Alpha virt. eigenvalues --    4.38386   4.39708   4.40663   4.41960   4.42995
 Alpha virt. eigenvalues --    4.43873   4.44990   4.45020   4.46021   4.47848
 Alpha virt. eigenvalues --    4.47999   4.48356   4.49024   4.51344   4.52497
 Alpha virt. eigenvalues --    4.52745   4.53503   4.54431   4.56291   4.57404
 Alpha virt. eigenvalues --    4.58245   4.58913   4.59905   4.60930   4.62068
 Alpha virt. eigenvalues --    4.62643   4.64296   4.64456   4.65887   4.66261
 Alpha virt. eigenvalues --    4.66908   4.67592   4.69418   4.69693   4.71348
 Alpha virt. eigenvalues --    4.72167   4.72894   4.73599   4.74202   4.74948
 Alpha virt. eigenvalues --    4.76798   4.77718   4.78103   4.78519   4.79460
 Alpha virt. eigenvalues --    4.80040   4.81656   4.82597   4.84119   4.85819
 Alpha virt. eigenvalues --    4.86923   4.88014   4.88760   4.89281   4.90307
 Alpha virt. eigenvalues --    4.91854   4.92183   4.92957   4.94900   4.98730
 Alpha virt. eigenvalues --    5.01013   5.02945   5.04982   5.07342   5.11713
 Alpha virt. eigenvalues --    5.16379   5.16990   5.24812   5.28256   5.28845
 Alpha virt. eigenvalues --    5.31997   5.33603   5.36917   5.37637   5.39579
 Alpha virt. eigenvalues --    5.42679   5.44896   5.46390   5.48591   5.49416
 Alpha virt. eigenvalues --    5.50391   5.52564   5.55116   5.55554   5.59303
 Alpha virt. eigenvalues --    5.60759   5.69189   5.75250   5.81346   5.87136
 Alpha virt. eigenvalues --    5.91713   5.93305   5.98434   5.99975   6.01003
 Alpha virt. eigenvalues --    6.04290   6.06642   6.08505   6.14168   6.20331
 Alpha virt. eigenvalues --    6.24212   6.34474   6.56716   7.06837   7.19189
 Alpha virt. eigenvalues --    7.22680  11.26309  11.27469  11.36892  11.52244
 Alpha virt. eigenvalues --   11.62116  11.90393  12.02154  12.24522  12.45127
 Alpha virt. eigenvalues --   12.50806  12.78615  13.22105  13.60743  13.68080
          Condensed to atoms (all electrons):
               1          2          3          4          5          6
     1  C    5.015691   0.377069  -0.039226   0.002239  -0.000082   0.000003
     2  C    0.377069   4.812579   0.418103  -0.025068  -0.005667   0.000239
     3  C   -0.039226   0.418103   4.878809   0.390746  -0.021357   0.003167
     4  C    0.002239  -0.025068   0.390746   4.801678   0.413089  -0.025547
     5  C   -0.000082  -0.005667  -0.021357   0.413089   4.610243   0.381186
     6  C    0.000003   0.000239   0.003167  -0.025547   0.381186   5.069890
     7  O    0.000846  -0.009321  -0.004190  -0.020974   0.335487  -0.035695
     8  C   -0.000078  -0.000073   0.000741   0.003661  -0.061835  -0.007388
     9  C    0.000007  -0.000353   0.000007  -0.000228   0.003307   0.000617
    10  C   -0.000090   0.002169  -0.032197   0.382524  -0.017301  -0.004120
    11  C   -0.000000  -0.000239  -0.002290  -0.013014   0.001228   0.000174
    12  O    0.000002   0.000891  -0.013261  -0.002899   0.000010   0.000000
    13  O    0.000000  -0.000011   0.001471  -0.018126  -0.006179  -0.011827
    14  C   -0.000000   0.000001  -0.000134   0.003785   0.000580   0.000135
    15  H    0.372269  -0.021851   0.003235  -0.000132   0.000002  -0.000000
    16  H    0.375382  -0.029023  -0.004363   0.000191  -0.000005   0.000000
    17  H    0.368192  -0.025129  -0.003093   0.000085   0.000004  -0.000000
    18  H   -0.039418   0.365513  -0.023093  -0.002504   0.001381   0.000151
    19  H   -0.040129   0.371802  -0.031098  -0.002535  -0.000587  -0.000008
    20  H   -0.006437  -0.033954   0.354372  -0.017341   0.002651  -0.000150
    21  H   -0.003008  -0.039094   0.351014  -0.033452  -0.006942   0.000035
    22  H    0.000093  -0.004589  -0.036894   0.331638  -0.031667  -0.006684
    23  H    0.000017   0.000669  -0.008061  -0.043010   0.338666  -0.065004
    24  H    0.000000   0.000001   0.000096  -0.007760  -0.017256   0.368939
    25  H   -0.000000  -0.000004  -0.000031  -0.003058  -0.012845   0.353185
    26  H   -0.000000  -0.000006  -0.000125   0.003589  -0.022980   0.355869
    27  H    0.000001  -0.000033  -0.000006  -0.000169  -0.001929   0.000343
    28  H    0.000002   0.000375  -0.000198   0.000525  -0.007296  -0.002005
    29  H    0.000001   0.000086  -0.000004   0.000016   0.000132  -0.000040
    30  H    0.000000   0.000006  -0.000001   0.000002  -0.000177   0.000022
    31  H    0.000013  -0.000184   0.000000  -0.000000  -0.000022  -0.000005
    32  H    0.000008  -0.000083  -0.001778  -0.039196  -0.007908   0.000395
    33  H   -0.000000   0.000009   0.000152   0.002341  -0.000104  -0.000001
    34  H    0.000001  -0.000056   0.000879  -0.006771   0.000166  -0.000004
    35  H    0.000008  -0.000150   0.003742  -0.000783   0.000009   0.000000
    36  H    0.000000  -0.000000   0.000001  -0.000190   0.000023   0.000185
    37  H    0.000000   0.000000   0.000001  -0.000187  -0.000017  -0.000018
    38  H    0.000000   0.000000   0.000024   0.000510  -0.000154   0.000325
               7          8          9         10         11         12
     1  C    0.000846  -0.000078   0.000007  -0.000090  -0.000000   0.000002
     2  C   -0.009321  -0.000073  -0.000353   0.002169  -0.000239   0.000891
     3  C   -0.004190   0.000741   0.000007  -0.032197  -0.002290  -0.013261
     4  C   -0.020974   0.003661  -0.000228   0.382524  -0.013014  -0.002899
     5  C    0.335487  -0.061835   0.003307  -0.017301   0.001228   0.000010
     6  C   -0.035695  -0.007388   0.000617  -0.004120   0.000174   0.000000
     7  O    7.766550   0.338498  -0.029453   0.000852  -0.000010   0.000000
     8  C    0.338498   4.700944   0.420560  -0.000116   0.000000  -0.000000
     9  C   -0.029453   0.420560   4.953000   0.000001  -0.000000   0.000000
    10  C    0.000852  -0.000116   0.000001   4.825596   0.361816  -0.031244
    11  C   -0.000010   0.000000  -0.000000   0.361816   4.860663   0.317581
    12  O    0.000000  -0.000000   0.000000  -0.031244   0.317581   7.850175
    13  O    0.000010   0.000002   0.000000   0.308389  -0.023458   0.001348
    14  C    0.000000  -0.000000   0.000000  -0.074785  -0.005825   0.000007
    15  H    0.000004  -0.000000  -0.000001   0.000001  -0.000000  -0.000000
    16  H    0.000008   0.000001   0.000001   0.000005   0.000000  -0.000001
    17  H   -0.000011   0.000001  -0.000000   0.000001  -0.000001  -0.000045
    18  H    0.013494   0.000250  -0.000422  -0.000042   0.000005  -0.000008
    19  H    0.000894  -0.000072   0.000069   0.000204  -0.000017   0.000004
    20  H   -0.000047   0.000008  -0.000001  -0.004325  -0.002448   0.023166
    21  H   -0.000252  -0.000050   0.000002  -0.003567  -0.001156   0.000339
    22  H    0.000047  -0.000110   0.000007  -0.028523  -0.006241  -0.000199
    23  H   -0.033608  -0.009045   0.000170  -0.001956  -0.000036  -0.000005
    24  H    0.000827   0.000457  -0.000093   0.000208  -0.000033   0.000000
    25  H    0.002653   0.000077  -0.000006   0.001007   0.000196  -0.000001
    26  H   -0.005503  -0.000525  -0.000131  -0.000104   0.000003  -0.000000
    27  H   -0.029357   0.361348  -0.038902   0.000003   0.000000  -0.000000
    28  H   -0.033058   0.357407  -0.038078   0.000024   0.000000  -0.000000
    29  H    0.001970  -0.024045   0.373935   0.000000   0.000000  -0.000000
    30  H    0.002141  -0.023366   0.366355  -0.000000   0.000000  -0.000000
    31  H    0.000217  -0.025452   0.377739   0.000000   0.000000  -0.000000
    32  H    0.000002  -0.000000   0.000000   0.325876  -0.063916   0.000765
    33  H    0.000000  -0.000000   0.000000  -0.033564   0.364846  -0.026118
    34  H    0.000000   0.000000   0.000000  -0.020922   0.350046  -0.016481
    35  H    0.000000   0.000000   0.000000  -0.004698  -0.066379   0.308521
    36  H    0.000000   0.000000  -0.000000   0.003589   0.000363  -0.000000
    37  H    0.000000   0.000000   0.000000   0.000218  -0.002111  -0.000244
    38  H    0.000000  -0.000000  -0.000000  -0.009066  -0.001758   0.000047
              13         14         15         16         17         18
     1  C    0.000000  -0.000000   0.372269   0.375382   0.368192  -0.039418
     2  C   -0.000011   0.000001  -0.021851  -0.029023  -0.025129   0.365513
     3  C    0.001471  -0.000134   0.003235  -0.004363  -0.003093  -0.023093
     4  C   -0.018126   0.003785  -0.000132   0.000191   0.000085  -0.002504
     5  C   -0.006179   0.000580   0.000002  -0.000005   0.000004   0.001381
     6  C   -0.011827   0.000135  -0.000000   0.000000  -0.000000   0.000151
     7  O    0.000010   0.000000   0.000004   0.000008  -0.000011   0.013494
     8  C    0.000002  -0.000000  -0.000000   0.000001   0.000001   0.000250
     9  C    0.000000   0.000000  -0.000001   0.000001  -0.000000  -0.000422
    10  C    0.308389  -0.074785   0.000001   0.000005   0.000001  -0.000042
    11  C   -0.023458  -0.005825  -0.000000   0.000000  -0.000001   0.000005
    12  O    0.001348   0.000007  -0.000000  -0.000001  -0.000045  -0.000008
    13  O    7.743320   0.350386  -0.000000  -0.000000  -0.000000  -0.000000
    14  C    0.350386   4.849175   0.000000   0.000000   0.000000  -0.000000
    15  H   -0.000000   0.000000   0.613373  -0.032736  -0.032107  -0.002700
    16  H   -0.000000   0.000000  -0.032736   0.616445  -0.034142  -0.004889
    17  H   -0.000000   0.000000  -0.032107  -0.034142   0.612171   0.005671
    18  H   -0.000000  -0.000000  -0.002700  -0.004889   0.005671   0.613076
    19  H    0.000000   0.000000  -0.002459   0.005843  -0.003978  -0.038052
    20  H   -0.000000   0.000004  -0.000027  -0.000478   0.006466   0.005547
    21  H    0.000002   0.000004  -0.000068   0.005532  -0.000386  -0.005198
    22  H   -0.000399  -0.000074   0.000003   0.000010   0.000000  -0.000309
    23  H   -0.000418  -0.000002   0.000001  -0.000005   0.000001  -0.000613
    24  H    0.000352   0.000055   0.000000  -0.000000  -0.000000  -0.000006
    25  H    0.010162   0.000680  -0.000000  -0.000000   0.000000  -0.000006
    26  H    0.000981  -0.000072   0.000000   0.000000   0.000000   0.000007
    27  H   -0.000000   0.000000   0.000000   0.000000  -0.000000   0.000216
    28  H    0.000000  -0.000000  -0.000000  -0.000002   0.000000  -0.000564
    29  H   -0.000000  -0.000000  -0.000000  -0.000000   0.000000  -0.000100
    30  H    0.000000  -0.000000  -0.000000   0.000000   0.000000   0.000009
    31  H   -0.000000   0.000000   0.000025  -0.000002   0.000000   0.002785
    32  H   -0.028053  -0.008832   0.000000  -0.000001   0.000000  -0.000001
    33  H   -0.003891   0.001634   0.000000  -0.000000  -0.000000  -0.000000
    34  H    0.002486   0.000029  -0.000000  -0.000000   0.000001   0.000001
    35  H    0.000052  -0.000057  -0.000000   0.000005   0.000017   0.000005
    36  H   -0.021373   0.383590  -0.000000   0.000000   0.000000  -0.000000
    37  H   -0.030292   0.375900  -0.000000   0.000000  -0.000000  -0.000000
    38  H   -0.030165   0.366240   0.000000  -0.000000  -0.000000  -0.000000
              19         20         21         22         23         24
     1  C   -0.040129  -0.006437  -0.003008   0.000093   0.000017   0.000000
     2  C    0.371802  -0.033954  -0.039094  -0.004589   0.000669   0.000001
     3  C   -0.031098   0.354372   0.351014  -0.036894  -0.008061   0.000096
     4  C   -0.002535  -0.017341  -0.033452   0.331638  -0.043010  -0.007760
     5  C   -0.000587   0.002651  -0.006942  -0.031667   0.338666  -0.017256
     6  C   -0.000008  -0.000150   0.000035  -0.006684  -0.065004   0.368939
     7  O    0.000894  -0.000047  -0.000252   0.000047  -0.033608   0.000827
     8  C   -0.000072   0.000008  -0.000050  -0.000110  -0.009045   0.000457
     9  C    0.000069  -0.000001   0.000002   0.000007   0.000170  -0.000093
    10  C    0.000204  -0.004325  -0.003567  -0.028523  -0.001956   0.000208
    11  C   -0.000017  -0.002448  -0.001156  -0.006241  -0.000036  -0.000033
    12  O    0.000004   0.023166   0.000339  -0.000199  -0.000005   0.000000
    13  O    0.000000  -0.000000   0.000002  -0.000399  -0.000418   0.000352
    14  C    0.000000   0.000004   0.000004  -0.000074  -0.000002   0.000055
    15  H   -0.002459  -0.000027  -0.000068   0.000003   0.000001   0.000000
    16  H    0.005843  -0.000478   0.005532   0.000010  -0.000005  -0.000000
    17  H   -0.003978   0.006466  -0.000386   0.000000   0.000001  -0.000000
    18  H   -0.038052   0.005547  -0.005198  -0.000309  -0.000613  -0.000006
    19  H    0.647637  -0.005437   0.006626   0.004861   0.000089   0.000003
    20  H   -0.005437   0.594345  -0.040307  -0.003902  -0.000091   0.000001
    21  H    0.006626  -0.040307   0.685195   0.006688   0.005099   0.000010
    22  H    0.004861  -0.003902   0.006688   0.665066   0.007354   0.005172
    23  H    0.000089  -0.000091   0.005099   0.007354   0.730892   0.006541
    24  H    0.000003   0.000001   0.000010   0.005172   0.006541   0.591706
    25  H   -0.000000   0.000002   0.000001   0.000037   0.001520  -0.026973
    26  H    0.000001   0.000002   0.000001  -0.000098  -0.004343  -0.038735
    27  H   -0.000000  -0.000000  -0.000000  -0.000008  -0.001687   0.000561
    28  H    0.000002  -0.000000   0.000002   0.000040   0.016271   0.000214
    29  H    0.000018  -0.000000   0.000000   0.000004   0.000057   0.000026
    30  H    0.000000   0.000000   0.000000   0.000000   0.000007   0.000000
    31  H   -0.000013   0.000000   0.000000   0.000001  -0.000029   0.000001
    32  H    0.000009  -0.000209   0.005676   0.007114   0.005018   0.000117
    33  H   -0.000000   0.000503  -0.000041  -0.000141   0.000003   0.000001
    34  H   -0.000003  -0.001024   0.000086   0.004427   0.000007   0.000004
    35  H    0.000007  -0.002711   0.002233   0.000145  -0.000005  -0.000000
    36  H    0.000000   0.000000   0.000000   0.000005   0.000004   0.000017
    37  H    0.000000  -0.000000   0.000000  -0.000001  -0.000000  -0.000002
    38  H   -0.000000   0.000001  -0.000001   0.000033  -0.000001   0.000003
              25         26         27         28         29         30
     1  C   -0.000000  -0.000000   0.000001   0.000002   0.000001   0.000000
     2  C   -0.000004  -0.000006  -0.000033   0.000375   0.000086   0.000006
     3  C   -0.000031  -0.000125  -0.000006  -0.000198  -0.000004  -0.000001
     4  C   -0.003058   0.003589  -0.000169   0.000525   0.000016   0.000002
     5  C   -0.012845  -0.022980  -0.001929  -0.007296   0.000132  -0.000177
     6  C    0.353185   0.355869   0.000343  -0.002005  -0.000040   0.000022
     7  O    0.002653  -0.005503  -0.029357  -0.033058   0.001970   0.002141
     8  C    0.000077  -0.000525   0.361348   0.357407  -0.024045  -0.023366
     9  C   -0.000006  -0.000131  -0.038902  -0.038078   0.373935   0.366355
    10  C    0.001007  -0.000104   0.000003   0.000024   0.000000  -0.000000
    11  C    0.000196   0.000003   0.000000   0.000000   0.000000   0.000000
    12  O   -0.000001  -0.000000  -0.000000  -0.000000  -0.000000  -0.000000
    13  O    0.010162   0.000981  -0.000000   0.000000  -0.000000   0.000000
    14  C    0.000680  -0.000072   0.000000  -0.000000  -0.000000  -0.000000
    15  H   -0.000000   0.000000   0.000000  -0.000000  -0.000000  -0.000000
    16  H   -0.000000   0.000000   0.000000  -0.000002  -0.000000   0.000000
    17  H    0.000000   0.000000  -0.000000   0.000000   0.000000   0.000000
    18  H   -0.000006   0.000007   0.000216  -0.000564  -0.000100   0.000009
    19  H   -0.000000   0.000001  -0.000000   0.000002   0.000018   0.000000
    20  H    0.000002   0.000002  -0.000000  -0.000000  -0.000000   0.000000
    21  H    0.000001   0.000001  -0.000000   0.000002   0.000000   0.000000
    22  H    0.000037  -0.000098  -0.000008   0.000040   0.000004   0.000000
    23  H    0.001520  -0.004343  -0.001687   0.016271   0.000057   0.000007
    24  H   -0.026973  -0.038735   0.000561   0.000214   0.000026   0.000000
    25  H    0.585790  -0.032138  -0.000671   0.000096   0.000000  -0.000000
    26  H   -0.032138   0.642668   0.003965   0.000792   0.000023   0.000019
    27  H   -0.000671   0.003965   0.671035  -0.059790  -0.005678  -0.000437
    28  H    0.000096   0.000792  -0.059790   0.682126   0.006139   0.000866
    29  H    0.000000   0.000023  -0.005678   0.006139   0.581312  -0.028392
    30  H   -0.000000   0.000019  -0.000437   0.000866  -0.028392   0.600666
    31  H    0.000000   0.000002   0.005693  -0.006840  -0.033224  -0.029628
    32  H   -0.000346  -0.000020  -0.000000   0.000001  -0.000000   0.000000
    33  H   -0.000003  -0.000000   0.000000  -0.000000   0.000000  -0.000000
    34  H   -0.000006  -0.000000  -0.000000  -0.000000  -0.000000   0.000000
    35  H   -0.000000   0.000000   0.000000  -0.000000  -0.000000  -0.000000
    36  H    0.000172  -0.000026  -0.000000   0.000000   0.000000  -0.000000
    37  H    0.000170   0.000002  -0.000000   0.000000   0.000000  -0.000000
    38  H   -0.000343  -0.000000  -0.000000  -0.000000  -0.000000  -0.000000
              31         32         33         34         35         36
     1  C    0.000013   0.000008  -0.000000   0.000001   0.000008   0.000000
     2  C   -0.000184  -0.000083   0.000009  -0.000056  -0.000150  -0.000000
     3  C    0.000000  -0.001778   0.000152   0.000879   0.003742   0.000001
     4  C   -0.000000  -0.039196   0.002341  -0.006771  -0.000783  -0.000190
     5  C   -0.000022  -0.007908  -0.000104   0.000166   0.000009   0.000023
     6  C   -0.000005   0.000395  -0.000001  -0.000004   0.000000   0.000185
     7  O    0.000217   0.000002   0.000000   0.000000   0.000000   0.000000
     8  C   -0.025452  -0.000000  -0.000000   0.000000   0.000000   0.000000
     9  C    0.377739   0.000000   0.000000   0.000000   0.000000  -0.000000
    10  C    0.000000   0.325876  -0.033564  -0.020922  -0.004698   0.003589
    11  C    0.000000  -0.063916   0.364846   0.350046  -0.066379   0.000363
    12  O   -0.000000   0.000765  -0.026118  -0.016481   0.308521  -0.000000
    13  O   -0.000000  -0.028053  -0.003891   0.002486   0.000052  -0.021373
    14  C    0.000000  -0.008832   0.001634   0.000029  -0.000057   0.383590
    15  H    0.000025   0.000000   0.000000  -0.000000  -0.000000  -0.000000
    16  H   -0.000002  -0.000001  -0.000000  -0.000000   0.000005   0.000000
    17  H    0.000000   0.000000  -0.000000   0.000001   0.000017   0.000000
    18  H    0.002785  -0.000001  -0.000000   0.000001   0.000005  -0.000000
    19  H   -0.000013   0.000009  -0.000000  -0.000003   0.000007   0.000000
    20  H    0.000000  -0.000209   0.000503  -0.001024  -0.002711   0.000000
    21  H    0.000000   0.005676  -0.000041   0.000086   0.002233   0.000000
    22  H    0.000001   0.007114  -0.000141   0.004427   0.000145   0.000005
    23  H   -0.000029   0.005018   0.000003   0.000007  -0.000005   0.000004
    24  H    0.000001   0.000117   0.000001   0.000004  -0.000000   0.000017
    25  H    0.000000  -0.000346  -0.000003  -0.000006  -0.000000   0.000172
    26  H    0.000002  -0.000020  -0.000000  -0.000000   0.000000  -0.000026
    27  H    0.005693  -0.000000   0.000000  -0.000000   0.000000  -0.000000
    28  H   -0.006840   0.000001  -0.000000  -0.000000  -0.000000   0.000000
    29  H   -0.033224  -0.000000   0.000000  -0.000000  -0.000000   0.000000
    30  H   -0.029628   0.000000  -0.000000   0.000000  -0.000000  -0.000000
    31  H    0.586904   0.000000   0.000000   0.000000   0.000000   0.000000
    32  H    0.000000   0.722777  -0.004886   0.006547   0.007333   0.000005
    33  H    0.000000  -0.004886   0.651310  -0.048633  -0.001736  -0.000013
    34  H    0.000000   0.006547  -0.048633   0.598778   0.006637  -0.000056
    35  H    0.000000   0.007333  -0.001736   0.006637   0.464553  -0.000001
    36  H    0.000000   0.000005  -0.000013  -0.000056  -0.000001   0.574916
    37  H   -0.000000  -0.001373   0.004823  -0.000084  -0.000024  -0.037985
    38  H    0.000000   0.015568   0.000648   0.000165   0.000060  -0.033156
              37         38
     1  C    0.000000   0.000000
     2  C    0.000000   0.000000
     3  C    0.000001   0.000024
     4  C   -0.000187   0.000510
     5  C   -0.000017  -0.000154
     6  C   -0.000018   0.000325
     7  O    0.000000   0.000000
     8  C    0.000000  -0.000000
     9  C    0.000000  -0.000000
    10  C    0.000218  -0.009066
    11  C   -0.002111  -0.001758
    12  O   -0.000244   0.000047
    13  O   -0.030292  -0.030165
    14  C    0.375900   0.366240
    15  H   -0.000000   0.000000
    16  H    0.000000  -0.000000
    17  H   -0.000000  -0.000000
    18  H   -0.000000  -0.000000
    19  H    0.000000  -0.000000
    20  H   -0.000000   0.000001
    21  H    0.000000  -0.000001
    22  H   -0.000001   0.000033
    23  H   -0.000000  -0.000001
    24  H   -0.000002   0.000003
    25  H    0.000170  -0.000343
    26  H    0.000002  -0.000000
    27  H   -0.000000  -0.000000
    28  H    0.000000  -0.000000
    29  H    0.000000  -0.000000
    30  H   -0.000000  -0.000000
    31  H   -0.000000   0.000000
    32  H   -0.001373   0.015568
    33  H    0.004823   0.000648
    34  H   -0.000084   0.000165
    35  H   -0.000024   0.000060
    36  H   -0.037985  -0.033156
    37  H    0.618993  -0.047569
    38  H   -0.047569   0.632673
 Mulliken charges:
               1
     1  C   -0.383377
     2  C   -0.154624
     3  C   -0.185162
     4  C   -0.073674
     5  C    0.134148
     6  C   -0.376366
     7  O   -0.263023
     8  C   -0.031799
     9  C   -0.388111
    10  C    0.054139
    11  C   -0.067989
    12  O   -0.412350
    13  O   -0.244768
    14  C   -0.242424
    15  H    0.103170
    16  H    0.102223
    17  H    0.106280
    18  H    0.109812
    19  H    0.086318
    20  H    0.131824
    21  H    0.064975
    22  H    0.087093
    23  H    0.055536
    24  H    0.115544
    25  H    0.120684
    26  H    0.096883
    27  H    0.095504
    28  H    0.082949
    29  H    0.127764
    30  H    0.111906
    31  H    0.122018
    32  H    0.059391
    33  H    0.092862
    34  H    0.123783
    35  H    0.283216
    36  H    0.129931
    37  H    0.119801
    38  H    0.105915
 Sum of Mulliken charges =  -0.00000
 Mulliken charges with hydrogens summed into heavy atoms:
               1
     1  C   -0.071704
     2  C    0.041506
     3  C    0.011637
     4  C    0.013419
     5  C    0.189683
     6  C   -0.043255
     7  O   -0.263023
     8  C    0.146654
     9  C   -0.026423
    10  C    0.113530
    11  C    0.148655
    12  O   -0.129134
    13  O   -0.244768
    14  C    0.113223
 Electronic spatial extent (au):  <R**2>=           3957.2357
 Charge=             -0.0000 electrons
 Dipole moment (field-independent basis, Debye):
    X=             -0.8814    Y=             -1.6039    Z=              2.0565  Tot=              2.7529
 Quadrupole moment (field-independent basis, Debye-Ang):
   XX=            -83.7174   YY=            -93.5960   ZZ=            -86.3658
   XY=              2.3942   XZ=             -2.1595   YZ=             -0.0531
 Traceless Quadrupole moment (field-independent basis, Debye-Ang):
   XX=              4.1757   YY=             -5.7029   ZZ=              1.5273
   XY=              2.3942   XZ=             -2.1595   YZ=             -0.0531
 Octapole moment (field-independent basis, Debye-Ang**2):
  XXX=            -20.2179  YYY=            -26.9722  ZZZ=             -0.6182  XYY=              2.1019
  XXY=            -29.3120  XXZ=             10.9224  XZZ=            -10.7051  YZZ=              5.4700
  YYZ=              4.6180  XYZ=             -3.6574
 Hexadecapole moment (field-independent basis, Debye-Ang**3):
 XXXX=          -3044.0315 YYYY=          -1912.8265 ZZZZ=           -199.0938 XXXY=             33.0239
 XXXZ=             -7.1476 YYYX=             13.0396 YYYZ=              7.4971 ZZZX=             -9.4078
 ZZZY=             10.8132 XXYY=           -837.0097 XXZZ=           -543.9489 YYZZ=           -334.4438
 XXYZ=              3.5151 YYXZ=            -18.2421 ZZXY=            -20.8664
 N-N= 1.023574573551D+03 E-N=-3.583143413714D+03  KE= 6.542155163908D+02
 PrsmSu:  requested number of processors reduced to:  13 ShMem   1 Linda.
 Calling FoFJK, ICntrl=      2127 FMM=F ISym2X=0 I1Cent= 0 IOpClX= 0 NMat=1 NMatS=1 NMatT=0.
 ***** Axes restored to original set *****
 -------------------------------------------------------------------
 Center     Atomic                   Forces (Hartrees/Bohr)
 Number     Number              X              Y              Z
 -------------------------------------------------------------------
      1        6          -0.003177915   -0.001817249    0.003335830
      2        6          -0.003815684    0.000753324   -0.009703893
      3        6           0.005921293   -0.005100497    0.004334512
      4        6          -0.000141757   -0.000798876   -0.005445153
      5        6           0.007537018   -0.005245424    0.006015075
      6        6           0.008379242    0.004881215   -0.005099841
      7        8          -0.001670929    0.005078750   -0.002495767
      8        6           0.000719601   -0.005277851    0.009702307
      9        6          -0.006584809   -0.002965684    0.003163203
     10        6           0.006278448   -0.015567547    0.001695747
     11        6          -0.004975869    0.008309182   -0.003634100
     12        8          -0.006376692   -0.003415707    0.000082618
     13        8          -0.005599700    0.005395292    0.002270347
     14        6          -0.000907212   -0.009603758    0.001520692
     15        1          -0.003023891    0.000233987    0.000627107
     16        1          -0.002303273    0.000339562    0.000671366
     17        1          -0.003138046    0.000513332    0.000939563
     18        1           0.005586300   -0.002857860    0.002660157
     19        1           0.001734021   -0.000917458   -0.002487188
     20        1           0.002382644    0.006856785    0.000077467
     21        1          -0.001181247    0.001112236   -0.001104337
     22        1           0.002242794    0.001602754    0.000124032
     23        1          -0.001642037    0.002688602   -0.002311904
     24        1           0.000126318    0.003982960    0.002150496
     25        1          -0.001192468   -0.001624073    0.005240087
     26        1          -0.004085875   -0.003177181   -0.003244775
     27        1           0.003842454    0.004663321   -0.002933890
     28        1           0.000722731    0.003956862   -0.001989415
     29        1           0.001175479    0.000539906   -0.000837885
     30        1          -0.000477269   -0.000151414    0.000051869
     31        1          -0.000698389   -0.000822517   -0.001119764
     32        1          -0.000984912    0.005191519   -0.000686443
     33        1           0.010241164    0.001281929   -0.002116544
     34        1          -0.005260224   -0.002820196   -0.001768162
     35        1           0.002387138   -0.001890732    0.003764545
     36        1          -0.000247814   -0.002748415   -0.002289392
     37        1          -0.000322240    0.005710140    0.001403713
     38        1          -0.001468392    0.003710781   -0.000562280
 -------------------------------------------------------------------
 Cartesian Forces:  Max     0.015567547 RMS     0.004078605

 GradGradGradGradGradGradGradGradGradGradGradGradGradGradGradGradGradGrad
 Berny optimization.
 FormGI is forming the generalized inverse of G from B-inverse, IUseBI=4.
 Internal  Forces:  Max     0.011877470 RMS     0.003394219
 Search for a local minimum.
 Step number   1 out of a maximum of  203
 All quantities printed in internal units (Hartrees-Bohrs-Radians)
 Mixed Optimization -- RFO/linear search
 Second derivative matrix not updated -- first step.
 ITU=  0
     Eigenvalues ---    0.00230   0.00230   0.00230   0.00230   0.00391
     Eigenvalues ---    0.00416   0.00512   0.00579   0.01142   0.01197
     Eigenvalues ---    0.01337   0.01397   0.01444   0.03096   0.03297
     Eigenvalues ---    0.03819   0.03994   0.04049   0.04327   0.04646
     Eigenvalues ---    0.04750   0.04790   0.04842   0.04860   0.04967
     Eigenvalues ---    0.05232   0.05309   0.05559   0.05605   0.05635
     Eigenvalues ---    0.05721   0.05773   0.05818   0.06176   0.07544
     Eigenvalues ---    0.07580   0.08090   0.09033   0.10035   0.10496
     Eigenvalues ---    0.11165   0.11987   0.12111   0.12719   0.13720
     Eigenvalues ---    0.14226   0.16000   0.16000   0.16000   0.16000
[...]
 789,-0.00006930,0.00003632,0.00002911,-0.00006030,0.00048852,0.0000058
 0,0.00002298,-0.00000505,-0.00006872,-0.00000264,0.00000461,0.00000034
 ,0.00003868,0.00009751,-0.00003873,-0.00001635,0.00005172,0.00001924,0
 .00000305,-0.00000053,0.00000460,0.00000594,0.00000076,0.00000509,-0.0
 0000418,0.00000133,-0.00000055,-0.00000062,0.00000793,0.00000342,0.000
 00216,0.00000101,-0.00000146,-0.00127904,0.00090994,0.00213037,-0.0032
 6659,-0.01697054,0.00841854,0.07572891,0.00001623,-0.00000544,0.000038
 45,0.00006313,0.00006914,-0.00009699,-0.00045151,0.00017508,-0.0002563
 1,-0.00076658,0.00077579,-0.00065980,-0.00004745,0.00017093,-0.0001446
 3,0.00003816,0.00002990,-0.00006349,0.00001285,0.00006892,0.00014860,-
 0.00002576,0.00000405,-0.00003245,-0.00000027,-0.00000059,0.00001461,0
 .00144888,0.00469865,-0.00264051,-0.05691498,-0.24210172,0.09525092,0.
 00459296,-0.02111071,0.00861561,-0.00158248,0.00043016,0.00023259,-0.0
 0003270,-0.00011369,-0.00016494,-0.00000172,-0.00000022,-0.00001115,-0
 .00000230,0.00000550,-0.00001077,0.00001154,0.00000458,-0.00000983,-0.
 00002050,-0.00006366,-0.00003931,-0.00000536,-0.00000275,0.00001574,0.
 00011231,-0.00002046,-0.00051441,0.00006634,0.00004503,-0.00031280,0.0
 0019086,0.00031625,0.00058390,0.00006911,-0.00004561,-0.00001319,0.000
 01447,-0.00000646,0.00000578,-0.00000397,-0.00002537,-0.00001857,0.000
 00908,-0.00003172,0.00001199,0.00000324,0.00000051,0.00001005,0.000005
 29,-0.00000307,0.00001212,-0.00000031,-0.00000086,-0.00000069,0.000000
 88,0.00000570,0.00000003,0.00000162,0.00000370,-0.00000119,0.00062334,
 0.00059116,-0.00157619,-0.00594391,-0.01343196,0.00673467,0.05524423,0
 .26931464,-0.00004447,0.00001454,-0.00001143,-0.00019989,-0.00019416,0
 .00027475,0.00022395,-0.00006619,-0.00086632,-0.00006398,0.00148428,0.
 00156464,0.00033195,0.00003435,0.00013027,0.00005751,0.00021335,0.0000
 1905,-0.00008661,-0.00009721,0.00006408,0.00003963,-0.00001215,-0.0000
 4086,0.00000074,0.00000492,0.00000153,0.00742763,0.02606159,-0.0153872
 5,0.02726889,0.09493990,-0.09559196,-0.00104338,0.00391819,0.00028743,
 0.00063376,-0.00120425,0.00058344,-0.00051665,-0.00091065,-0.00042030,
 0.00002540,0.00001620,0.00001650,0.00001150,-0.00001407,0.00000878,-0.
 00002481,-0.00001462,0.00000271,0.00009049,0.00012433,0.00011412,0.000
 00546,-0.00002888,-0.00004307,-0.00136946,-0.00007956,-0.00031075,0.00
 013099,-0.00004176,0.00034759,0.00019358,-0.00083613,-0.00006475,-0.00
 002402,0.00001208,0.00016740,-0.00002189,-0.00003540,-0.00000631,-0.00
 010345,-0.00019403,0.00004110,-0.00003784,-0.00010522,-0.00000406,-0.0
 0002504,0.00000047,0.00002423,-0.00000547,0.00001020,-0.00000662,-0.00
 000216,0.00000257,-0.00000307,-0.00000168,0.00000240,0.00000773,-0.000
 00545,-0.00001480,-0.00000303,0.00267185,-0.00050307,-0.00451598,-0.00
 532488,-0.01715902,0.00878670,-0.02950789,-0.10551924,0.10388699,0.000
 04410,-0.00008848,0.00002746,0.00001199,0.00016000,-0.00019346,0.00001
 411,-0.00059227,0.00048231,0.00025279,0.00003383,0.00029387,0.00009553
 ,0.00005939,0.00024788,-0.00000326,0.00003371,-0.00002854,-0.00004555,
 -0.00016296,-0.00023479,0.00004814,0.00002523,0.00014334,-0.00000360,0
 .00000309,-0.00001764,0.00034715,0.00184394,-0.00155750,0.00069369,0.0
 4231562,-0.01587664,-0.06886834,-0.12588972,0.05439630,0.00049167,-0.0
 0076936,0.00007125,-0.00010490,0.00005963,0.00015729,-0.00004200,0.000
 00810,-0.00001320,-0.00002997,0.00002390,-0.00003872,0.00000892,0.0000
 0617,0.00001004,-0.00003066,-0.00007184,-0.00003884,-0.00000037,0.0000
 3248,0.00001534,0.00001814,0.00042472,-0.00011825,-0.00002373,0.000086
 44,-0.00018651,-0.00008246,-0.00023024,-0.00002944,-0.00002902,0.00000
 405,-0.00003833,-0.00002746,0.00002409,0.00002186,-0.00002246,-0.00005
 879,0.00005641,0.00001027,-0.00002716,-0.00004815,-0.00000092,0.000000
 44,-0.00001505,-0.00001741,0.00000392,-0.00001929,-0.00000015,0.000002
 34,0.00000402,0.00000034,-0.00001352,-0.00001171,-0.00000193,-0.000002
 50,0.00000651,-0.00023448,-0.00085439,0.00128237,0.00074311,-0.0000140
 4,-0.00067067,-0.00510899,0.00324949,-0.00034148,0.07200769,-0.0000183
 8,0.00003603,0.00005663,-0.00002082,0.00006792,-0.00026879,-0.00004750
 ,-0.00043088,0.00056827,-0.00016667,-0.00015839,-0.00005400,0.00011567
 ,-0.00005342,-0.00025632,-0.00001419,0.00000953,0.00002078,-0.00002582
 ,0.00021314,0.00029764,-0.00002114,-0.00003600,-0.00018683,0.00000226,
 0.00000121,0.00002483,-0.00071930,-0.00002304,-0.00093928,-0.00745100,
 -0.02287696,0.00957663,-0.07532975,-0.41890298,0.16397127,-0.00204089,
 0.00070040,0.00032687,0.00058039,0.00081209,0.00022761,0.00003769,0.00
 002407,0.00000068,-0.00000970,-0.00001336,-0.00000951,0.00000750,-0.00
 000125,-0.00001628,-0.00001429,-0.00003131,0.00000455,0.00003017,0.000
 08331,0.00003315,0.00017579,-0.00008930,-0.00014399,-0.00016727,0.0000
 8651,-0.00033949,-0.00003561,0.00018818,0.00011366,0.00000240,0.000002
 46,0.00000067,0.00001706,-0.00001879,-0.00002632,0.00003496,0.00004209
 ,-0.00004654,-0.00001444,0.00001643,0.00005208,-0.00001118,-0.00000119
 ,0.00002839,0.00001264,-0.00000195,0.00002068,-0.00000082,-0.00000021,
 -0.00000647,0.00000083,0.00001699,0.00001497,-0.00000023,-0.00000242,-
 0.00000751,0.00083974,0.00005918,-0.00130140,-0.00108147,0.00240701,0.
 00005204,0.00488241,0.00002714,-0.00013522,0.08049234,0.43811133,0.000
 00972,0.00000194,0.00006168,-0.00002865,0.00006708,-0.00035579,0.00006
 120,-0.00077978,0.00063231,-0.00000582,-0.00014097,-0.00054826,0.00011
 650,-0.00022266,-0.00013565,-0.00001973,-0.00005428,0.00000192,-0.0000
 4640,0.00020779,0.00015916,0.00001327,-0.00005435,-0.00013685,0.000003
 03,-0.00000345,0.00001277,0.00053131,-0.00379395,0.00366624,0.00181072
 ,0.00496831,-0.00390610,0.03615157,0.16829814,-0.06849007,-0.00078012,
 0.00035150,-0.00111297,0.00030386,0.00065560,0.00057131,0.00002388,0.0
 0002903,-0.00000019,-0.00002556,-0.00000411,-0.00001815,0.00000699,0.0
 0000244,-0.00001694,-0.00001737,-0.00006304,-0.00002097,0.00003106,0.0
 0009241,0.00003274,0.00014132,0.00028642,-0.00024912,-0.00024400,0.000
 06605,-0.00035437,-0.00000598,0.00020803,-0.00005937,-0.00004289,0.000
 00659,-0.00006814,-0.00002118,0.00003629,0.00000325,0.00007437,0.00005
 394,-0.00001681,-0.00002083,0.00002483,0.00002097,-0.00000722,-0.00000
 133,0.00001927,-0.00000434,0.00000281,0.00001138,-0.00000529,0.0000045
 1,-0.00000676,0.00000044,0.00001174,0.00001278,0.00000131,-0.00000134,
 -0.00000588,0.00037731,0.00106062,-0.00066649,0.00108182,0.00046755,0.
 00014057,-0.00190763,0.00010284,0.00032136,-0.03756932,-0.17152329,0.0
 7090665,0.00000458,-0.00008025,-0.00005382,-0.00014099,0.00014366,0.00
 006985,0.00007364,-0.00046040,-0.00030206,-0.00100531,0.00064970,0.000
 26813,-0.00016337,0.00002780,0.00036449,0.00000981,0.00006504,-0.00013
 038,0.00008460,-0.00012707,-0.00023156,-0.00001380,0.00002003,0.000120
 00,-0.00000845,0.00000227,-0.00002261,0.00163680,-0.00364568,0.0002796
 8,0.00023246,-0.00017949,-0.00064339,-0.00039886,0.00026531,0.00021763
 ,-0.02624348,-0.00143207,-0.00623185,-0.26565426,0.08687028,-0.0456207
 5,-0.00004817,-0.00001666,-0.00000357,0.00000148,0.00000816,0.00000304
 ,0.00000279,0.00000765,0.00000657,-0.00001104,-0.00001420,-0.00003174,
 0.00000260,-0.00001830,0.00000773,0.00003868,0.00002014,0.00000556,-0.
 00000259,0.00001909,-0.00000143,0.00002524,-0.00003985,0.00002615,0.00
 004019,0.00000795,-0.00003603,-0.00004163,-0.00005498,0.00001793,-0.00
 004953,-0.00003535,0.00002446,0.00004647,-0.00001295,-0.00003756,0.000
 01632,0.00000208,-0.00003128,0.00000222,-0.00000529,-0.00000873,0.0000
 0569,-0.00000656,0.00000498,0.00000090,-0.00001298,-0.00000849,0.00000
 249,0.00000610,0.00000452,0.00012763,0.00003961,-0.00002166,0.00005704
 ,0.00005013,-0.00006580,-0.00007320,-0.00006035,0.00000753,0.00006709,
 -0.00009053,-0.00001865,0.29727217,-0.00000226,-0.00006610,-0.00004054
 ,-0.00015574,0.00009087,0.00006056,0.00003194,-0.00048564,-0.00032233,
 -0.00139887,0.00071004,-0.00011374,-0.00010923,-0.00001107,0.00012850,
 -0.00002653,-0.00012376,0.00000709,0.00006724,0.00001160,-0.00004976,-
 0.00000972,-0.00001000,-0.00000252,-0.00000290,0.00000076,-0.00000682,
 -0.00153837,-0.00432903,-0.00027654,-0.00040140,-0.00001062,-0.0009037
 4,-0.00011707,0.00020417,0.00037876,-0.03679930,0.00633551,-0.00795754
 ,0.09883034,-0.08530132,0.02134063,-0.00003159,-0.00000436,0.00000234,
 0.00000083,0.00000413,-0.00000070,0.00000083,0.00000150,0.00000381,-0.
 00000207,-0.00000285,-0.00001439,0.00000216,-0.00001080,0.00000520,0.0
 0001506,-0.00000579,0.00001684,0.00001285,0.00001589,-0.00000826,0.000
 11964,0.00003639,0.00011920,0.00001258,0.00000536,-0.00000725,-0.00000
 139,0.00002614,-0.00005331,0.00000158,0.00002141,-0.00005454,0.0000292
 2,0.00004334,0.00002340,0.00000569,-0.00000225,-0.00001043,0.00000410,
 -0.00000365,0.00000445,0.00000231,-0.00000316,-0.00000086,0.00000131,-
 0.00000224,0.00000093,0.00000140,0.00000444,0.00000007,-0.00012288,0.0
 0042042,-0.00040916,0.00011311,0.00014302,0.00036226,0.00007186,0.0000
 4425,0.00005271,-0.00009559,-0.00006179,-0.00004971,-0.08807580,0.0921
 1190,-0.00000141,-0.00001791,-0.00001484,-0.00004853,0.00001954,0.0000
 3147,0.00003470,-0.00010679,-0.00008703,-0.00030413,0.00000458,0.00022
 046,-0.00000384,-0.00000222,0.00015569,-0.00004382,0.00030445,-0.00014
 566,0.00000592,-0.00004768,-0.00005778,-0.00001784,0.00000211,0.000037
 62,-0.00000265,0.00000099,-0.00000745,0.00019328,-0.00089490,0.0001588
 9,-0.00040493,-0.00006384,-0.00035055,0.00008813,0.00001439,0.00019186
 ,-0.00693834,0.00016682,-0.00052734,-0.04529160,0.01855634,-0.05926776
 ,-0.00001092,-0.00000286,0.00000023,0.00000006,0.00000176,-0.00000020,
 0.00000100,-0.00000021,0.00000135,-0.00000121,0.00000247,-0.00000552,0
 .00000072,-0.00000095,0.00000162,-0.00000561,-0.00001140,0.00001586,0.
 00000312,0.00000456,-0.00000243,-0.00002172,-0.00003780,-0.00000572,0.
 00005158,0.00001832,-0.00000783,-0.00000316,-0.00018796,-0.00001321,-0
 .00003659,-0.00000311,0.00013898,0.00005075,-0.00009949,-0.00001412,0.
 00000789,0.00000490,-0.00001186,0.00000451,-0.00000169,-0.00000314,0.0
 0000022,-0.00000409,0.00000245,0.00000009,-0.00000325,-0.00000154,0.00
 000347,0.00000220,0.00000071,0.00032176,-0.00031519,0.00013813,-0.0000
 7154,0.00004053,0.00044241,0.00010834,0.00010974,0.00020978,-0.0000559
 9,-0.00004763,-0.00011257,0.05338605,-0.01819441,0.05774856,-0.0000017
 8,-0.00001316,-0.00000713,-0.00002943,0.00000691,0.00003101,-0.0000075
 1,-0.00003117,-0.00007316,-0.00044164,0.00002089,-0.00011003,0.0000174
 5,0.00001352,0.00016509,0.00013796,0.00000237,-0.00005822,0.00002533,0
 .00003509,0.00002125,-0.00001891,-0.00000021,-0.00000400,-0.00000108,0
 .00000123,-0.00000101,0.00286858,-0.00017430,-0.00165319,-0.00008891,-
 0.00100706,0.00024521,0.00047895,0.00021621,0.00003725,0.00520489,-0.0
 1892911,-0.01744932,-0.08048700,0.04648249,0.06466487,-0.00000519,-0.0
 0000021,0.00000097,0.00000076,-0.00000001,-0.00000058,0.00000058,-0.00
 000124,0.,0.00000132,0.00000442,-0.00000123,0.00000073,-0.00000034,0.0
 0000086,-0.00001778,-0.00001286,0.00000922,-0.00001347,0.00000906,-0.0
 0000840,-0.00001662,0.00015927,0.00000480,0.00002395,0.00001095,-0.000
 00913,-0.00010943,-0.00006600,0.00003048,-0.00004482,0.00006177,-0.000
 00122,-0.00000384,0.00002849,-0.00002687,0.00000370,0.00000084,-0.0000
 0469,0.00000436,-0.00000142,-0.00000054,0.00000007,-0.00000245,0.00000
 074,0.00000015,0.00000063,0.00000120,0.00000224,0.00000159,-0.00000039
 ,-0.00031118,-0.00007076,-0.00019881,-0.00147221,-0.00077721,0.0010079
 0,0.00009892,0.00009894,-0.00015221,-0.00012667,0.00006110,-0.00004134
 ,-0.00818338,0.01447408,0.02358913,0.08118876,0.00000618,-0.00006073,-
 0.00004301,-0.00011295,0.00007259,0.00008204,0.00010799,-0.00018214,-0
 .00026622,-0.00062173,0.00007832,0.00007516,-0.00003514,0.00026251,0.0
 0047449,0.00037150,-0.00029212,0.00009873,0.00004521,-0.00006970,-0.00
 019370,0.00001485,0.00003932,0.00013088,0.00000046,0.00000129,-0.00001
 326,0.00537601,-0.00033515,0.00158131,-0.00132022,-0.00006006,-0.00183
 882,0.00009761,0.00023603,0.00099624,-0.00470165,-0.02892996,-0.024987
 43,0.04291047,-0.11513453,-0.09615687,-0.00003793,-0.00001328,-0.00000
 121,-0.00000208,0.00000801,-0.00000047,-0.00000439,0.00000129,0.000011
 67,0.00000539,0.00000772,-0.00000189,0.00000541,-0.00000465,-0.0000004
 1,-0.00004882,-0.00002604,0.00004752,-0.00005563,0.00002164,-0.0000151
 7,0.00009429,0.00023675,0.00000497,-0.00002262,-0.00002192,-0.00006214
 ,-0.00018638,0.00006793,0.00015870,-0.00015031,0.00014841,-0.00005194,
 -0.00004228,0.00010986,-0.00014310,0.00000497,-0.00000326,-0.00002200,
 -0.00001068,0.00000175,-0.00002038,0.00000016,0.00000191,0.00000641,-0
 .00000189,-0.00001117,-0.00001213,-0.00000064,0.00000079,0.00000572,-0
 .00071891,0.00044124,-0.00009198,-0.00034762,0.00049261,0.00110107,0.0
 0024104,0.00014212,0.00028615,-0.00003728,-0.00010121,-0.00025102,0.00
 534719,-0.00490472,-0.00971896,-0.04152596,0.13704756,0.00000707,-0.00
 002315,-0.00001291,-0.00004727,0.00002729,0.00002478,0.00005960,-0.000
 08439,-0.00009736,-0.00031026,0.00006465,-0.00004292,0.00037283,0.0001
 9372,-0.00006897,-0.00022204,0.00022106,0.00011031,-0.00019140,-0.0002
 6227,-0.00008268,0.00004892,0.00004995,0.00015483,-0.00000748,0.000003
 67,-0.00000895,0.00357134,-0.00104621,0.00074009,-0.00072981,0.0009964
 9,-0.00087975,-0.00015861,-0.00007001,0.00053449,-0.00749206,-0.009287
 22,0.00064034,0.06357397,-0.09808369,-0.19697604,-0.00001500,-0.000004
 06,0.00000027,-0.00000403,0.00000510,-0.00000368,-0.00000926,-0.000002
 07,0.00001082,0.00001582,0.00001244,0.00002255,0.00000372,0.00000467,-
 0.00000354,-0.00007023,-0.00004275,0.00004676,-0.00002514,0.00000490,-
 0.00001919,0.00007157,0.00010586,0.00005663,-0.00007399,-0.00002516,-0
 .00002841,-0.00008500,0.00009513,0.00008539,0.00017412,-0.00020813,0.0
 0021362,-0.00005687,-0.00006501,-0.00007717,-0.00001109,0.00000760,0.0
 0000638,-0.00001840,0.00000457,-0.00002328,0.00000064,0.00000234,0.000
 00419,-0.00000007,-0.00001138,-0.00001077,-0.00000399,-0.00000990,0.00
 000523,-0.00015679,0.00041536,-0.00050014,0.00094888,0.00051054,0.0006
 4628,0.00023998,0.00015152,0.00027121,-0.00016468,-0.00014284,-0.00018
 122,-0.00193469,0.00442814,0.00544934,-0.06850604,0.11547703,0.2111425
 2,0.00000174,-0.00000150,-0.00000046,0.00001079,0.00001751,-0.00000715
 ,0.00000222,0.00005199,-0.00000781,0.00014238,-0.00030989,-0.00005979,
 -0.00005964,0.00001858,0.00001120,-0.00002343,-0.00043598,0.00011695,0
 .00001368,0.00001995,-0.00002965,0.00000329,0.00000265,0.00000003,-0.0
 0000074,0.00000067,-0.00000167,0.00477480,-0.00347621,0.00406731,-0.00
 007122,0.00033087,-0.00025250,-0.00036322,0.00026778,0.00013581,-0.007
 40114,-0.02115899,0.01398404,-0.05183134,0.00311517,-0.00080794,-0.000
 00242,-0.00000202,-0.00000128,-0.00000047,0.00000077,0.00000022,0.0000
 0094,0.00000128,-0.00000017,-0.00000181,-0.00000435,-0.00000436,0.0000
 0401,0.00000252,0.00000333,0.00001075,0.00000861,-0.00000998,-0.000045
 39,0.00000535,-0.00001470,-0.00006052,0.00017445,-0.00009047,-0.000019
 93,-0.00000650,-0.00004520,-0.00007227,0.00013568,-0.00000141,0.000063
 04,-0.00002554,-0.00027106,-0.00002795,0.00012155,-0.00000211,0.000001
 06,-0.00000162,-0.00000329,-0.00000071,-0.00000064,-0.00000024,0.00000
 105,-0.00000016,0.00000008,0.00000043,-0.00000094,-0.00000058,-0.00000
 052,0.00000036,0.00000106,0.00031523,0.00148053,-0.00071066,0.00007871
 ,-0.00001097,-0.00013525,-0.00004004,-0.00001280,-0.00021815,-0.000050
 40,-0.00001191,0.00007264,0.00228717,0.01509256,-0.02458691,0.00132217
 ,-0.00464363,0.01120575,0.05103972,0.00000180,-0.00003923,-0.00003014,
 -0.00004666,0.00005577,0.00006380,0.00003600,-0.00006545,-0.00022440,-
 0.00001047,0.00025177,0.00000589,-0.00067374,-0.00004776,0.00053326,0.
 00054000,-0.00065906,0.00014947,0.00029721,0.00027932,-0.00015682,-0.0
 0006364,-0.00002803,-0.00002257,0.00001441,-0.00000693,-0.00000899,0.0
 0627745,-0.00031215,0.00151712,-0.00025183,-0.00006550,-0.00098830,-0.
 00042931,0.00032128,0.00039922,-0.01611175,-0.03177908,0.01990124,0.00
 064720,-0.11589193,0.10584105,-0.00002591,-0.00001188,-0.00000239,0.00
 000108,0.00000623,0.00000271,0.00000963,0.00000438,-0.00000237,-0.0000
 1870,-0.00001132,-0.00004112,0.00000018,-0.00000880,0.00000667,0.00005
 546,0.00001182,-0.00001631,-0.00005181,0.00000942,0.00000069,0.0001053
 8,0.00028705,0.00001407,0.00008819,-0.00000415,-0.00007822,-0.00008914
 ,-0.00016185,0.00009917,-0.00049026,0.00040286,-0.00064220,0.00007111,
 0.00027673,0.00000867,0.00003155,-0.00001234,-0.00004277,0.00001147,-0
 .00000276,0.00000611,-0.00000327,-0.00000018,0.00000360,-0.00000233,0.
 00000047,-0.00000239,0.00000766,0.00001788,0.00000060,-0.00120344,0.00
 119881,-0.00069256,0.00007201,0.00005556,0.00018008,0.00019424,0.00004
 109,-0.00001260,0.00001520,-0.00010060,-0.00006320,0.00081657,-0.00489
 197,0.01050867,0.00092361,0.01073098,-0.01341381,0.00925483,0.14014956
 ,-0.00000151,0.00003007,0.00001055,0.00004169,-0.00003179,-0.00002641,
 0.00002169,0.00014407,0.00007842,0.00034165,-0.00065106,0.00023607,0.0
 0003481,-0.00001430,-0.00018408,-0.00038187,-0.00026439,-0.00003659,-0
 .00007564,-0.00008414,0.00005155,0.00000574,0.00000941,-0.00002038,-0.
 00000154,0.00000210,0.00000419,-0.00065833,-0.00047264,0.00094938,-0.0
 0070052,0.00009065,-0.00066730,0.00049898,-0.00026612,0.00023492,0.002
 84161,-0.00002871,0.01085476,-0.00006300,0.10954178,-0.22194129,0.0000
 1481,0.00000581,0.00000214,0.00000159,-0.00000585,0.00000068,-0.000004
 93,-0.00000295,0.00000259,0.00000591,0.00000776,0.00001795,0.00000192,
 0.00000267,-0.00000275,-0.00003456,-0.00001677,0.00001284,0.00000576,-
 0.00000248,0.00000700,-0.00016803,-0.00014417,-0.00015066,-0.00000836,
 0.00000317,0.00002230,0.00007943,-0.00001255,0.00000444,-0.00010466,-0
 .00030467,-0.00019204,0.00003565,-0.00001433,0.00006615,-0.00000508,0.
 00000534,0.00001201,0.00000217,0.00000037,0.00000184,0.00000167,-0.000
 00115,-0.00000271,0.00000103,0.00000244,0.00000457,-0.00000308,-0.0000
 0499,-0.00000107,0.00134114,0.00008294,0.00032879,0.00010213,0.0001921
 7,0.00023810,-0.00000384,0.00004727,0.00014437,0.00005195,0.00006031,-
 0.00011167,0.00062171,0.00154165,-0.00430885,-0.00150248,0.01335402,-0
 .02114906,-0.00233563,-0.12280095,0.23550928\\0.00000600,0.00000394,-0
 .00000245,-0.00000578,-0.00001137,0.00001939,0.00000008,0.00000756,-0.
 00001213,0.00000997,0.00000235,0.00000637,-0.00001314,-0.00001050,-0.0
 0001276,0.00000386,0.00000366,0.00000650,0.00000688,0.00001355,0.00000
 951,-0.00001061,-0.00000636,-0.00000024,-0.00000131,-0.00000092,-0.000
 00290,-0.00002875,-0.00000022,-0.00001166,-0.00001190,-0.00000057,0.00
 000226,0.00001184,-0.00000438,0.00000167,0.00002333,-0.00000101,0.0000
 0779,0.00000197,-0.00000327,-0.00000166,0.00000041,0.00000007,0.000000
 77,-0.00000091,0.00000019,-0.00000004,0.00000049,0.00000193,0.00000071
 ,-0.00000132,0.00000498,-0.00000632,-0.00000294,0.00000261,-0.00000420
 ,-0.00000044,-0.00000010,0.00000484,0.00000378,-0.00000107,0.00000074,
 0.00000018,-0.00000006,-0.00000258,0.00000024,0.00000180,0.00000378,-0
 .00000105,-0.00000014,0.00000014,0.00000101,-0.00000166,-0.00000227,-0
 .00000066,-0.00000407,-0.00000196,0.00000050,-0.00000081,-0.00000111,0
 .00000145,0.00000073,-0.00000021,-0.00000071,-0.00000003,-0.00000049,-
 0.00000056,-0.00000097,0.00000028,-0.00000008,0.00000324,-0.00000030,0
 .00000157,-0.00000221,-0.00000123,0.00000099,-0.00000010,-0.00000062,0
 .00000266,-0.00000035,0.00000166,-0.00000113,0.00000370,-0.00000195,0.
 00000351,0.00000222,0.00000345,-0.00000096,-0.00000063,-0.00000141,0.0
 0000152,-0.00000175,-0.00000135\\\@


 Statistics are no substitute for judgment.
                            -- Henry Clay
 Job cpu time:       0 days 11 hours  6 minutes  3.0 seconds.
 Elapsed time:       0 days  2 hours 46 minutes 39.0 seconds.
 File lengths (MBytes):  RWF=    717 Int=      0 D2E=      0 Chk=     22 Scr=      1
 Normal termination of Gaussian 16 at Tue May 23 00:40:26 2023.
### All Done ###
