### Starting Gaussian ###
 Entering Gaussian System, Link 0=g16
 Initial command:
 /cluster/software/gaussian/gaussian-16-A.03/avx2/g16/l1.exe "/local/scratch/yxie/Gau-29068.inp" -scrdir="/local/scratch/yxie/"
 Entering Link 1 = /cluster/software/gaussian/gaussian-16-A.03/avx2/g16/l1.exe PID=     29069.
  
 Copyright (c) 1988,1990,1992,1993,1995,1998,2003,2009,2016,
            Gaussian, Inc.  All Rights Reserved.
  
 This is part of the Gaussian(R) 16 program.  It is based on
 the Gaussian(R) 09 system (copyright 2009, Gaussian, Inc.),
 the Gaussian(R) 03 system (copyright 2003, Gaussian, Inc.),
 the Gaussian(R) 98 system (copyright 1998, Gaussian, Inc.),
 the Gaussian(R) 94 system (copyright 1995, Gaussian, Inc.),
 the Gaussian 92(TM) system (copyright 1992, Gaussian, Inc.),
 the Gaussian 90(TM) system (copyright 1990, Gaussian, Inc.),
 the Gaussian 88(TM) system (copyright 1988, Gaussian, Inc.),
 the Gaussian 86(TM) system (copyright 1986, Carnegie Mellon
 University), and the Gaussian 82(TM) system (copyright 1983,
 Carnegie Mellon University). Gaussian is a federally registered
 trademark of Gaussian, Inc.
  
 This software contains proprietary and confidential information,
 including trade secrets, belonging to Gaussian, Inc.
  
 This software is provided under written license and may be
 used, copied, transmitted, or stored only in accord with that
 written license.
  
 The following legend is applicable only to US Government
 contracts under FAR:
  
                    RESTRICTED RIGHTS LEGEND
  
 Use, reproduction and disclosure by the US Government is
 subject to restrictions as set forth in subparagraphs (a)
 and (c) of the Commercial Computer Software - Restricted
 Rights clause in FAR 52.227-19.
  
 Gaussian, Inc.
 340 Quinnipiac St., Bldg. 40, Wallingford CT 06492
  
  
 ---------------------------------------------------------------
 Warning -- This program may not be used in any manner that
 competes with the business of Gaussian, Inc. or will provide
 assistance to any competitor of Gaussian, Inc.  The licensee
 of this program is prohibited from giving any competitor of
 Gaussian, Inc. access to this program.  By using this program,
 the user acknowledges that Gaussian, Inc. is engaged in the
 business of creating and licensing software in the field of
 computational chemistry and represents and warrants to the
 licensee that it is not a competitor of Gaussian, Inc. and that
 it will not use this program in any manner prohibited above.
 ---------------------------------------------------------------
  

 Cite this work as:
 Gaussian 16, Revision A.03,
 M. J. Frisch, G. W. Trucks, H. B. Schlegel, G. E. Scuseria, 
 M. A. Robb, J. R. Cheeseman, G. Scalmani, V. Barone, 
 G. A. Petersson, H. Nakatsuji, X. Li, M. Caricato, A. V. Marenich, 
 J. Bloino, B. G. Janesko, R. Gomperts, B. Mennucci, H. P. Hratchian, 
 J. V. Ortiz, A. F. Izmaylov, J. L. Sonnenberg, D. Williams-Young, 
 F. Ding, F. Lipparini, F. Egidi, J. Goings, B. Peng, A. Petrone, 
 T. Henderson, D. Ranasinghe, V. G. Zakrzewski, J. Gao, N. Rega, 
 G. Zheng, W. Liang, M. Hada, M. Ehara, K. Toyota, R. Fukuda, 
 J. Hasegawa, M. Ishida, T. Nakajima, Y. Honda, O. Kitao, H. Nakai, 
 T. Vreven, K. Throssell, J. A. Montgomery, Jr., J. E. Peralta, 
 F. Ogliaro, M. J. Bearpark, J. J. Heyd, E. N. Brothers, K. N. Kudin, 
 V. N. Staroverov, T. A. Keith, R. Kobayashi, J. Normand, 
 K. Raghavachari, A. P. Rendell, J. C. Burant, S. S. Iyengar, 
 J. Tomasi, M. Cossi, J. M. Millam, M. Klene, C. Adamo, R. Cammi, 
 J. W. Ochterski, R. L. Martin, K. Morokuma, O. Farkas, 
 J. B. Foresman, and D. J. Fox, Gaussian, Inc., Wallingford CT, 2016.
 
 ******************************************
 Gaussian 16:  ES64L-G16RevA.03 25-Dec-2016
                23-May-2023 
 ******************************************
 %chk=CCCCCqCrONqCrCqCCCCrOC.chk
 %NProcShared=20
 Will use up to   20 processors via shared memory.
 -----------------------------
 # opt freq b3lyp/6-31g(2df,p)
 -----------------------------
 1/18=20,19=15,26=3,38=1/1,3;
 2/9=110,12=2,17=6,18=5,40=1/2;
 3/5=1,6=6,7=104,11=2,25=1,30=1,71=1,74=-5/1,2,3;
 4//1;
 5/5=2,38=5/2;
 6/7=2,8=2,9=2,10=2,28=1/1;
 7//1,2,3,16;
 1/18=20,19=15,26=3/3(2);
 2/9=110/2;
 99//99;
 2/9=110/2;
 3/5=1,6=6,7=104,11=2,25=1,30=1,71=1,74=-5/1,2,3;
 4/5=5,16=3,69=1/1;
 5/5=2,38=5/2;
 7//1,2,3,16;
 1/18=20,19=15,26=3/3(-5);
 2/9=110/2;
 6/7=2,8=2,9=2,10=2,19=2,28=1/1;
 99/9=1/99;
 -------------------
 Title Card Required
 -------------------
 Symbolic Z-matrix:
 Charge =  0 Multiplicity = 1
 C                     0.88036  -0.05537  -0.03172 
 C                     2.40514  -0.08644  -0.06981 
 C                     2.91647   1.33341  -0.22524 
 C                     4.44186   1.48904  -0.16032 
 C                     4.86529   2.97997  -0.16093 
 C                     4.124     3.71297   0.96243 
 O                     6.29028   3.08012   0.10342 
 N                     6.85573   4.35367  -0.39653 
 C                     6.64511   5.32102   0.69392 
 C                     8.32834   4.18273  -0.52799 
 C                     8.7664    3.25738  -1.67273 
 C                     8.30656   1.82026  -1.53958 
 C                     8.8549    0.96058  -2.66828 
 C                     8.33955  -0.45691  -2.51234 
 O                     8.91119   5.47605  -0.78049 
 C                     10.3133   5.55871  -0.59968 
 H                     0.47431  -1.06068   0.09305 
 H                     0.47818   0.37449  -0.95622 
 H                     0.52102   0.56138   0.80163 
 H                     2.75838  -0.71758  -0.88794 
 H                     2.77591  -0.50718   0.87392 
 H                     2.443     1.86814   0.59648 
 H                     2.54171   1.78333  -1.1551 
 H                     4.90601   0.96148  -1.00218 
 H                     4.8324    1.00113   0.74486 
 H                     4.63201   3.40793  -1.14956 
 H                     4.58085   3.46558   1.92842 
 H                     3.0563    3.52916   1.02261 
 H                     4.14728   4.7863    0.82798 
 H                     5.66765   5.78194   0.59138 
 H                     7.31221   6.18482   0.65903 
 H                     6.74594   4.84823   1.67772 
 H                     8.72528   3.79504   0.42588 
 H                     9.86107   3.24187  -1.72156 
 H                     8.44235   3.68521  -2.63226 
 H                     7.21903   1.76462  -1.58104 
 H                     8.63323   1.41896  -0.56968 
 H                     9.9501    0.96839  -2.66369 
 H                     8.52693   1.36887  -3.63301 
 H                     8.6842   -0.88807  -1.56602 
 H                     8.69206  -1.08581  -3.33212 
 H                     7.2445   -0.46959  -2.51092 
 H                     10.59354   6.61402  -0.61755 
 H                     10.83386   5.07009  -1.42631 
 H                     10.62194   5.12916   0.35855 
 

 GradGradGradGradGradGradGradGradGradGradGradGradGradGradGradGradGradGrad
 Berny optimization.
 Initialization pass.
                           ----------------------------
                           !    Initial Parameters    !
                           ! (Angstroms and Degrees)  !
 --------------------------                            --------------------------
 ! Name  Definition              Value          Derivative Info.                !
 --------------------------------------------------------------------------------
 ! R1    R(1,2)                  1.5256         estimate D2E/DX2                !
 ! R2    R(1,17)                 1.0914         estimate D2E/DX2                !
 ! R3    R(1,18)                 1.096          estimate D2E/DX2                !
 ! R4    R(1,19)                 1.0973         estimate D2E/DX2                !
 ! R5    R(2,3)                  1.5171         estimate D2E/DX2                !
 ! R6    R(2,20)                 1.092          estimate D2E/DX2                !
 ! R7    R(2,21)                 1.0978         estimate D2E/DX2                !
 ! R8    R(3,4)                  1.5347         estimate D2E/DX2                !
 ! R9    R(3,22)                 1.0887         estimate D2E/DX2                !
 ! R10   R(3,23)                 1.0989         estimate D2E/DX2                !
 ! R11   R(4,5)                  1.5499         estimate D2E/DX2                !
 ! R12   R(4,24)                 1.0966         estimate D2E/DX2                !
 ! R13   R(4,25)                 1.1            estimate D2E/DX2                !
 ! R14   R(5,6)                  1.5326         estimate D2E/DX2                !
 ! R15   R(5,7)                  1.4528         estimate D2E/DX2                !
 ! R16   R(5,26)                 1.1023         estimate D2E/DX2                !
 ! R17   R(6,27)                 1.0968         estimate D2E/DX2                !
 ! R18   R(6,28)                 1.0851         estimate D2E/DX2                !
 ! R19   R(6,29)                 1.082          estimate D2E/DX2                !
 ! R20   R(7,8)                  1.4804         estimate D2E/DX2                !
 ! R21   R(8,9)                  1.4728         estimate D2E/DX2                !
 ! R22   R(8,10)                 1.4883         estimate D2E/DX2                !
 ! R23   R(9,30)                 1.0855         estimate D2E/DX2                !
 ! R24   R(9,31)                 1.092          estimate D2E/DX2                !
 ! R25   R(9,32)                 1.0962         estimate D2E/DX2                !
 ! R26   R(10,11)                1.5358         estimate D2E/DX2                !
 ! R27   R(10,15)                1.4409         estimate D2E/DX2                !
 ! R28   R(10,33)                1.1035         estimate D2E/DX2                !
 ! R29   R(11,12)                1.5148         estimate D2E/DX2                !
 ! R30   R(11,34)                1.0959         estimate D2E/DX2                !
 ! R31   R(11,35)                1.0994         estimate D2E/DX2                !
 ! R32   R(12,13)                1.5211         estimate D2E/DX2                !
 ! R33   R(12,36)                1.0897         estimate D2E/DX2                !
 ! R34   R(12,37)                1.0993         estimate D2E/DX2                !
 ! R35   R(13,14)                1.5163         estimate D2E/DX2                !
 ! R36   R(13,38)                1.0952         estimate D2E/DX2                !
 ! R37   R(13,39)                1.0977         estimate D2E/DX2                !
 ! R38   R(14,40)                1.0955         estimate D2E/DX2                !
 ! R39   R(14,41)                1.0917         estimate D2E/DX2                !
 ! R40   R(14,42)                1.0951         estimate D2E/DX2                !
 ! R41   R(15,16)                1.4161         estimate D2E/DX2                !
 ! R42   R(16,43)                1.092          estimate D2E/DX2                !
 ! R43   R(16,44)                1.0923         estimate D2E/DX2                !
 ! R44   R(16,45)                1.0945         estimate D2E/DX2                !
 ! A1    A(2,1,17)             110.852          estimate D2E/DX2                !
 ! A2    A(2,1,18)             110.713          estimate D2E/DX2                !
 ! A3    A(2,1,19)             110.9608         estimate D2E/DX2                !
 ! A4    A(17,1,18)            108.7347         estimate D2E/DX2                !
 ! A5    A(17,1,19)            108.0043         estimate D2E/DX2                !
 ! A6    A(18,1,19)            107.4584         estimate D2E/DX2                !
 ! A7    A(1,2,3)              108.6851         estimate D2E/DX2                !
 ! A8    A(1,2,20)             110.7193         estimate D2E/DX2                !
 ! A9    A(1,2,21)             108.8997         estimate D2E/DX2                !
 ! A10   A(3,2,20)             110.8017         estimate D2E/DX2                !
 ! A11   A(3,2,21)             109.4471         estimate D2E/DX2                !
 ! A12   A(20,2,21)            108.2584         estimate D2E/DX2                !
 ! A13   A(2,3,4)              115.1872         estimate D2E/DX2                !
 ! A14   A(2,3,22)             103.6368         estimate D2E/DX2                !
 ! A15   A(2,3,23)             110.7899         estimate D2E/DX2                !
 ! A16   A(4,3,22)             110.5188         estimate D2E/DX2                !
 ! A17   A(4,3,23)             109.4663         estimate D2E/DX2                !
 ! A18   A(22,3,23)            106.8136         estimate D2E/DX2                !
 ! A19   A(3,4,5)              111.6589         estimate D2E/DX2                !
 ! A20   A(3,4,24)             109.8431         estimate D2E/DX2                !
 ! A21   A(3,4,25)             110.0431         estimate D2E/DX2                !
 ! A22   A(5,4,24)             110.2951         estimate D2E/DX2                !
 ! A23   A(5,4,25)             109.2699         estimate D2E/DX2                !
 ! A24   A(24,4,25)            105.5503         estimate D2E/DX2                !
 ! A25   A(4,5,6)              109.1266         estimate D2E/DX2                !
 ! A26   A(4,5,7)              109.5252         estimate D2E/DX2                !
 ! A27   A(4,5,26)             108.4226         estimate D2E/DX2                !
 ! A28   A(6,5,7)              107.9446         estimate D2E/DX2                !
 ! A29   A(6,5,26)             111.6768         estimate D2E/DX2                !
 ! A30   A(7,5,26)             110.1229         estimate D2E/DX2                !
 ! A31   A(5,6,27)             109.6462         estimate D2E/DX2                !
 ! A32   A(5,6,28)             115.8223         estimate D2E/DX2                !
 ! A33   A(5,6,29)             111.8991         estimate D2E/DX2                !
 ! A34   A(27,6,28)            108.8319         estimate D2E/DX2                !
 ! A35   A(27,6,29)            108.9187         estimate D2E/DX2                !
 ! A36   A(28,6,29)            101.3095         estimate D2E/DX2                !
 ! A37   A(5,7,8)              111.8704         estimate D2E/DX2                !
 ! A38   A(7,8,9)              105.0919         estimate D2E/DX2                !
 ! A39   A(7,8,10)             107.9958         estimate D2E/DX2                !
 ! A40   A(9,8,10)             106.3992         estimate D2E/DX2                !
 ! A41   A(8,9,30)             109.7373         estimate D2E/DX2                !
 ! A42   A(8,9,31)             114.1133         estimate D2E/DX2                !
 ! A43   A(8,9,32)             111.5953         estimate D2E/DX2                !
 ! A44   A(30,9,31)            102.1924         estimate D2E/DX2                !
 ! A45   A(30,9,32)            110.5327         estimate D2E/DX2                !
 ! A46   A(31,9,32)            108.2808         estimate D2E/DX2                !
 ! A47   A(8,10,11)            114.6623         estimate D2E/DX2                !
 ! A48   A(8,10,15)            108.2176         estimate D2E/DX2                !
 ! A49   A(8,10,33)            108.6576         estimate D2E/DX2                !
 ! A50   A(11,10,15)           107.1469         estimate D2E/DX2                !
 ! A51   A(11,10,33)           109.2701         estimate D2E/DX2                !
 ! A52   A(15,10,33)           108.7426         estimate D2E/DX2                !
 ! A53   A(10,11,12)           114.8053         estimate D2E/DX2                !
 ! A54   A(10,11,34)           109.0666         estimate D2E/DX2                !
 ! A55   A(10,11,35)           109.39           estimate D2E/DX2                !
 ! A56   A(12,11,34)           107.0814         estimate D2E/DX2                !
 ! A57   A(12,11,35)           110.8813         estimate D2E/DX2                !
 ! A58   A(34,11,35)           105.1318         estimate D2E/DX2                !
 ! A59   A(11,12,13)           111.1952         estimate D2E/DX2                !
 ! A60   A(11,12,36)           110.3683         estimate D2E/DX2                !
 ! A61   A(11,12,37)           109.4925         estimate D2E/DX2                !
 ! A62   A(13,12,36)           107.6183         estimate D2E/DX2                !
 ! A63   A(13,12,37)           109.953          estimate D2E/DX2                !
 ! A64   A(36,12,37)           108.1489         estimate D2E/DX2                !
 ! A65   A(12,13,14)           109.2391         estimate D2E/DX2                !
 ! A66   A(12,13,38)           110.6918         estimate D2E/DX2                !
 ! A67   A(12,13,39)           109.5252         estimate D2E/DX2                !
 ! A68   A(14,13,38)           110.2487         estimate D2E/DX2                !
 ! A69   A(14,13,39)           109.6665         estimate D2E/DX2                !
 ! A70   A(38,13,39)           107.4454         estimate D2E/DX2                !
 ! A71   A(13,14,40)           110.4766         estimate D2E/DX2                !
 ! A72   A(13,14,41)           110.5828         estimate D2E/DX2                !
 ! A73   A(13,14,42)           110.5367         estimate D2E/DX2                !
 ! A74   A(40,14,41)           108.6834         estimate D2E/DX2                !
 ! A75   A(40,14,42)           107.9927         estimate D2E/DX2                !
 ! A76   A(41,14,42)           108.4925         estimate D2E/DX2                !
 ! A77   A(10,15,16)           115.5006         estimate D2E/DX2                !
 ! A78   A(15,16,43)           107.9628         estimate D2E/DX2                !
 ! A79   A(15,16,44)           110.434          estimate D2E/DX2                !
 ! A80   A(15,16,45)           111.5964         estimate D2E/DX2                !
 ! A81   A(43,16,44)           107.3144         estimate D2E/DX2                !
 ! A82   A(43,16,45)           108.7367         estimate D2E/DX2                !
 ! A83   A(44,16,45)           110.6471         estimate D2E/DX2                !
 ! D1    D(17,1,2,3)          -179.2439         estimate D2E/DX2                !
 ! D2    D(17,1,2,20)           58.8358         estimate D2E/DX2                !
 ! D3    D(17,1,2,21)          -60.0822         estimate D2E/DX2                !
 ! D4    D(18,1,2,3)            59.9937         estimate D2E/DX2                !
 ! D5    D(18,1,2,20)          -61.9266         estimate D2E/DX2                !
 ! D6    D(18,1,2,21)          179.1554         estimate D2E/DX2                !
 ! D7    D(19,1,2,3)           -59.2369         estimate D2E/DX2                !
 ! D8    D(19,1,2,20)          178.8427         estimate D2E/DX2                !
 ! D9    D(19,1,2,21)           59.9247         estimate D2E/DX2                !
 ! D10   D(1,2,3,4)            175.0015         estimate D2E/DX2                !
 ! D11   D(1,2,3,22)            54.1593         estimate D2E/DX2                !
 ! D12   D(1,2,3,23)           -60.0761         estimate D2E/DX2                !
 ! D13   D(20,2,3,4)           -63.1284         estimate D2E/DX2                !
 ! D14   D(20,2,3,22)          176.0295         estimate D2E/DX2                !
 ! D15   D(20,2,3,23)           61.794          estimate D2E/DX2                !
 ! D16   D(21,2,3,4)            56.1834         estimate D2E/DX2                !
 ! D17   D(21,2,3,22)          -64.6588         estimate D2E/DX2                !
 ! D18   D(21,2,3,23)         -178.8942         estimate D2E/DX2                !
 ! D19   D(2,3,4,5)           -173.3314         estimate D2E/DX2                !
 ! D20   D(2,3,4,24)            63.9802         estimate D2E/DX2                !
 ! D21   D(2,3,4,25)           -51.8073         estimate D2E/DX2                !
 ! D22   D(22,3,4,5)           -56.3181         estimate D2E/DX2                !
 ! D23   D(22,3,4,24)         -179.0065         estimate D2E/DX2                !
 ! D24   D(22,3,4,25)           65.206          estimate D2E/DX2                !
 ! D25   D(23,3,4,5)            61.0601         estimate D2E/DX2                !
 ! D26   D(23,3,4,24)          -61.6282         estimate D2E/DX2                !
 ! D27   D(23,3,4,25)         -177.4157         estimate D2E/DX2                !
 ! D28   D(3,4,5,6)             53.5099         estimate D2E/DX2                !
 ! D29   D(3,4,5,7)            171.4778         estimate D2E/DX2                !
 ! D30   D(3,4,5,26)           -68.3326         estimate D2E/DX2                !
 ! D31   D(24,4,5,6)           175.9397         estimate D2E/DX2                !
 ! D32   D(24,4,5,7)           -66.0925         estimate D2E/DX2                !
 ! D33   D(24,4,5,26)           54.0971         estimate D2E/DX2                !
 ! D34   D(25,4,5,6)           -68.4606         estimate D2E/DX2                !
 ! D35   D(25,4,5,7)            49.5073         estimate D2E/DX2                !
 ! D36   D(25,4,5,26)          169.6969         estimate D2E/DX2                !
 ! D37   D(4,5,6,27)            76.1046         estimate D2E/DX2                !
 ! D38   D(4,5,6,28)           -47.5037         estimate D2E/DX2                !
 ! D39   D(4,5,6,29)          -162.9283         estimate D2E/DX2                !
 ! D40   D(7,5,6,27)           -42.8521         estimate D2E/DX2                !
 ! D41   D(7,5,6,28)          -166.4605         estimate D2E/DX2                !
 ! D42   D(7,5,6,29)            78.1149         estimate D2E/DX2                !
 ! D43   D(26,5,6,27)         -164.0416         estimate D2E/DX2                !
 ! D44   D(26,5,6,28)           72.35           estimate D2E/DX2                !
 ! D45   D(26,5,6,29)          -43.0746         estimate D2E/DX2                !
 ! D46   D(4,5,7,8)            157.4046         estimate D2E/DX2                !
 ! D47   D(6,5,7,8)            -83.8926         estimate D2E/DX2                !
 ! D48   D(26,5,7,8)            38.2588         estimate D2E/DX2                !
 ! D49   D(5,7,8,9)             86.3361         estimate D2E/DX2                !
 ! D50   D(5,7,8,10)          -160.3946         estimate D2E/DX2                !
 ! D51   D(7,8,9,30)           -87.8127         estimate D2E/DX2                !
 ! D52   D(7,8,9,31)           158.2072         estimate D2E/DX2                !
 ! D53   D(7,8,9,32)            35.0607         estimate D2E/DX2                !
 ! D54   D(10,8,9,30)          157.799          estimate D2E/DX2                !
 ! D55   D(10,8,9,31)           43.8189         estimate D2E/DX2                !
 ! D56   D(10,8,9,32)          -79.3276         estimate D2E/DX2                !
 ! D57   D(7,8,10,11)           70.6361         estimate D2E/DX2                !
 ! D58   D(7,8,10,15)         -169.8489         estimate D2E/DX2                !
 ! D59   D(7,8,10,33)          -51.9336         estimate D2E/DX2                !
 ! D60   D(9,8,10,11)         -176.97           estimate D2E/DX2                !
 ! D61   D(9,8,10,15)          -57.455          estimate D2E/DX2                !
 ! D62   D(9,8,10,33)           60.4603         estimate D2E/DX2                !
 ! D63   D(8,10,11,12)         -63.0224         estimate D2E/DX2                !
 ! D64   D(8,10,11,34)         176.838          estimate D2E/DX2                !
 ! D65   D(8,10,11,35)          62.3535         estimate D2E/DX2                !
 ! D66   D(15,10,11,12)        176.8669         estimate D2E/DX2                !
 ! D67   D(15,10,11,34)         56.7273         estimate D2E/DX2                !
 ! D68   D(15,10,11,35)        -57.7572         estimate D2E/DX2                !
 ! D69   D(33,10,11,12)         59.2157         estimate D2E/DX2                !
 ! D70   D(33,10,11,34)        -60.9239         estimate D2E/DX2                !
 ! D71   D(33,10,11,35)       -175.4084         estimate D2E/DX2                !
 ! D72   D(8,10,15,16)         164.7307         estimate D2E/DX2                !
 ! D73   D(11,10,15,16)        -71.1257         estimate D2E/DX2                !
 ! D74   D(33,10,15,16)         46.8698         estimate D2E/DX2                !
 ! D75   D(10,11,12,13)       -176.5312         estimate D2E/DX2                !
 ! D76   D(10,11,12,36)         64.1115         estimate D2E/DX2                !
 ! D77   D(10,11,12,37)        -54.8278         estimate D2E/DX2                !
 ! D78   D(34,11,12,13)        -55.2998         estimate D2E/DX2                !
 ! D79   D(34,11,12,36)       -174.6572         estimate D2E/DX2                !
 ! D80   D(34,11,12,37)         66.4036         estimate D2E/DX2                !
 ! D81   D(35,11,12,13)         58.8742         estimate D2E/DX2                !
 ! D82   D(35,11,12,36)        -60.4831         estimate D2E/DX2                !
 ! D83   D(35,11,12,37)       -179.4224         estimate D2E/DX2                !
 ! D84   D(11,12,13,14)       -178.5433         estimate D2E/DX2                !
 ! D85   D(11,12,13,38)         59.8784         estimate D2E/DX2                !
 ! D86   D(11,12,13,39)        -58.4134         estimate D2E/DX2                !
 ! D87   D(36,12,13,14)        -57.5576         estimate D2E/DX2                !
 ! D88   D(36,12,13,38)       -179.1359         estimate D2E/DX2                !
 ! D89   D(36,12,13,39)         62.5723         estimate D2E/DX2                !
 ! D90   D(37,12,13,14)         60.0219         estimate D2E/DX2                !
 ! D91   D(37,12,13,38)        -61.5564         estimate D2E/DX2                !
 ! D92   D(37,12,13,39)       -179.8482         estimate D2E/DX2                !
 ! D93   D(12,13,14,40)        -61.6212         estimate D2E/DX2                !
 ! D94   D(12,13,14,41)        178.0148         estimate D2E/DX2                !
 ! D95   D(12,13,14,42)         57.8506         estimate D2E/DX2                !
 ! D96   D(38,13,14,40)         60.2248         estimate D2E/DX2                !
 ! D97   D(38,13,14,41)        -60.1391         estimate D2E/DX2                !
 ! D98   D(38,13,14,42)        179.6966         estimate D2E/DX2                !
 ! D99   D(39,13,14,40)        178.3357         estimate D2E/DX2                !
 ! D100  D(39,13,14,41)         57.9718         estimate D2E/DX2                !
 ! D101  D(39,13,14,42)        -62.1925         estimate D2E/DX2                !
 ! D102  D(10,15,16,43)       -168.4854         estimate D2E/DX2                !
 ! D103  D(10,15,16,44)         74.4714         estimate D2E/DX2                !
 ! D104  D(10,15,16,45)        -49.0454         estimate D2E/DX2                !
 --------------------------------------------------------------------------------
 Trust Radius=3.00D-01 FncErr=1.00D-07 GrdErr=1.00D-06 EigMax=2.50D+02 EigMin=1.00D-04
 Number of steps in this run=    241 maximum allowed number of steps=    270.
 GradGradGradGradGradGradGradGradGradGradGradGradGradGradGradGradGradGrad

                          Input orientation:                          
 ---------------------------------------------------------------------
 Center     Atomic      Atomic             Coordinates (Angstroms)
 Number     Number       Type             X           Y           Z
 ---------------------------------------------------------------------
      1          6           0        0.880360   -0.055370   -0.031720
      2          6           0        2.405140   -0.086440   -0.069810
      3          6           0        2.916470    1.333410   -0.225240
      4          6           0        4.441860    1.489040   -0.160320
      5          6           0        4.865290    2.979970   -0.160930
      6          6           0        4.124000    3.712970    0.962430
      7          8           0        6.290280    3.080120    0.103420
      8          7           0        6.855730    4.353670   -0.396530
      9          6           0        6.645110    5.321020    0.693920
     10          6           0        8.328340    4.182730   -0.527990
     11          6           0        8.766400    3.257380   -1.672730
     12          6           0        8.306560    1.820260   -1.539580
     13          6           0        8.854900    0.960580   -2.668280
     14          6           0        8.339550   -0.456910   -2.512340
     15          8           0        8.911190    5.476050   -0.780490
     16          6           0       10.313300    5.558710   -0.599680
     17          1           0        0.474310   -1.060680    0.093050
     18          1           0        0.478180    0.374490   -0.956220
     19          1           0        0.521020    0.561380    0.801630
     20          1           0        2.758380   -0.717580   -0.887940
     21          1           0        2.775910   -0.507180    0.873920
     22          1           0        2.443000    1.868140    0.596480
     23          1           0        2.541710    1.783330   -1.155100
     24          1           0        4.906010    0.961480   -1.002180
     25          1           0        4.832400    1.001130    0.744860
     26          1           0        4.632010    3.407930   -1.149560
     27          1           0        4.580850    3.465580    1.928420
     28          1           0        3.056300    3.529160    1.022610
     29          1           0        4.147280    4.786300    0.827980
     30          1           0        5.667650    5.781940    0.591380
     31          1           0        7.312210    6.184820    0.659030
     32          1           0        6.745940    4.848230    1.677720
     33          1           0        8.725280    3.795040    0.425880
     34          1           0        9.861070    3.241870   -1.721560
     35          1           0        8.442350    3.685210   -2.632260
     36          1           0        7.219030    1.764620   -1.581040
     37          1           0        8.633230    1.418960   -0.569680
     38          1           0        9.950100    0.968390   -2.663690
     39          1           0        8.526930    1.368870   -3.633010
     40          1           0        8.684200   -0.888070   -1.566020
     41          1           0        8.692060   -1.085810   -3.332120
     42          1           0        7.244500   -0.469590   -2.510920
     43          1           0       10.593540    6.614020   -0.617550
     44          1           0       10.833860    5.070090   -1.426310
     45          1           0       10.621940    5.129160    0.358550
 ---------------------------------------------------------------------
                    Distance matrix (angstroms):
                    1          2          3          4          5
     1  C    0.000000
     2  C    1.525572   0.000000
     3  C    2.472226   1.517099   0.000000
     4  C    3.884073   2.576540   1.534682   0.000000
     5  C    5.010953   3.932367   2.552096   1.549892   0.000000
     6  C    5.070495   4.295988   2.920787   2.511467   1.532559
     7  O    6.254342   5.015120   3.813346   2.453110   1.452759
     8  N    7.434902   6.295163   4.966798   3.753488   2.429899
     9  C    7.916089   6.913845   5.536122   4.502011   3.062522
    10  C    8.583716   7.315739   6.123612   4.742982   3.684302
    11  C    8.709584   7.363159   6.326023   4.910810   4.192989
    12  C    7.806412   6.373577   5.569343   4.116791   3.884320
    13  C    8.460313   7.031906   6.432138   5.103338   5.126571
    14  C    7.871101   6.428096   6.151900   4.950829   5.423261
    15  O    9.780158   8.589240   7.307971   6.021276   4.794119
    16  C   10.991853   9.730749   8.526808   7.157448   6.043444
    17  H    1.091372   2.168818   3.434694   4.722999   5.972609
    18  H    1.096006   2.170565   2.720132   4.193619   5.164082
    19  H    1.097259   2.174623   2.718211   4.142329   5.064463
    20  H    2.167624   1.091995   2.161186   2.869270   4.317347
    21  H    2.148820   1.097779   2.148414   2.798202   4.194835
    22  H    2.556632   2.065371   1.088730   2.170692   2.770799
    23  H    2.720824   2.166228   1.098869   2.164894   2.796309
    24  H    4.263993   2.867368   2.168003   1.096578   2.187158
    25  H    4.163879   2.781742   2.173083   1.099967   2.176544
    26  H    5.226748   4.281989   2.846239   2.167231   1.102252
    27  H    5.471093   4.619901   3.457537   2.879039   2.163818
    28  H    4.323793   3.832748   2.529427   2.735176   2.230431
    29  H    5.903695   5.252111   3.814002   3.454770   2.180896
    30  H    7.574998   6.746779   5.293891   4.527318   3.010114
    31  H    8.988092   7.996202   6.606106   5.564224   4.114707
    32  H    7.834061   6.800542   5.535346   4.468930   3.226124
    33  H    8.750876   7.433422   6.342385   4.899893   3.988509
    34  H    9.714963   8.330475   7.355859   5.905736   5.240417
    35  H    8.828275   7.565672   6.469935   5.190142   4.404565
    36  H    6.774326   5.374363   4.531684   3.131623   3.005641
    37  H    7.910123   6.426912   5.727766   4.211896   4.098927
    38  H    9.499239   8.047813   7.453270   6.072779   6.013780
    39  H    8.571335   7.231226   6.564405   5.363004   5.297036
    40  H    7.996711   6.504448   6.324506   5.062025   5.614275
    41  H    8.542664   7.153095   6.990191   5.895284   6.421151
    42  H    6.842535   5.433712   5.216032   4.149258   4.804431
    43  H   11.797026  10.594625   9.326101   8.019828   6.799093
    44  H   11.282171   9.973626   8.836878   7.435342   6.449311
    45  H   11.042194   9.741754   8.609460   7.191181   6.166676
                    6          7          8          9         10
     6  C    0.000000
     7  O    2.414781   0.000000
     8  N    3.117630   1.480410   0.000000
     9  C    3.002319   2.344403   1.472823   0.000000
    10  C    4.485365   2.401690   1.488315   2.371082   0.000000
    11  C    5.357566   3.052425   2.545820   3.789395   1.535773
    12  C    5.228404   2.889997   3.135225   4.472612   2.570030
    13  C    6.568038   4.330363   4.546492   5.933043   3.903890
    14  C    6.872611   4.853070   5.460774   6.821708   5.046190
    15  O    5.391049   3.659364   2.373200   2.707958   1.440884
    16  C    6.644876   4.777285   3.667176   3.896860   2.416304
    17  H    6.071556   7.139457   8.383161   8.897523   9.463870
    18  H    5.302704   6.497983   7.537922   8.076023   8.735622
    19  H    4.789555   6.333712   7.479679   7.756949   8.708405
    20  H    4.991849   5.280117   6.538145   7.353478   7.427453
    21  H    4.431123   5.080668   6.472004   6.997930   7.402033
    22  H    2.522514   4.063689   5.161019   5.439633   6.423316
    23  H    3.272779   4.161408   5.078666   5.724685   6.295671
    24  H    3.470148   2.761737   3.959188   4.990673   4.723733
    25  H    2.811271   2.618980   4.078745   4.685079   4.895337
    26  H    2.193542   2.104110   2.531088   3.333302   3.827469
    27  H    1.096837   2.530090   3.371821   3.037732   4.537834
    28  H    1.085077   3.391928   4.138773   4.024718   5.534069
    29  H    1.081969   2.833458   3.003714   2.557939   4.436690
    30  H    2.607905   2.815245   2.104152   1.085537   3.299960
    31  H    4.045587   3.315450   2.162335   1.091966   2.539666
    32  H    2.945339   2.410863   2.135218   1.096157   2.795002
    33  H    4.633185   2.558186   2.117461   2.593756   1.103509
    34  H    6.351355   4.013385   3.467546   4.527671   2.158492
    35  H    5.618782   3.532914   2.821824   4.119396   2.165289
    36  H    4.454719   2.330348   2.870232   4.260611   2.861248
    37  H    5.286114   2.949904   3.435405   4.558002   2.780849
    38  H    7.390866   5.050800   5.116176   6.414195   4.186084
    39  H    6.782232   4.678877   4.709219   6.154922   4.195044
    40  H    6.953995   4.925892   5.673345   6.915057   5.188175
    41  H    7.895481   5.909861   6.448080   7.838780   5.979377
    42  H    6.268611   4.510626   5.280684   6.645407   5.172118
    43  H    7.264116   5.614828   4.373700   4.356822   3.324203
    44  H    7.250522   5.190778   4.171238   4.701486   2.805712
    45  H    6.677836   4.798639   3.918656   3.995555   2.634821
                   11         12         13         14         15
    11  C    0.000000
    12  C    1.514759   0.000000
    13  C    2.504844   1.521082   0.000000
    14  C    3.831853   2.476460   1.516305   0.000000
    15  O    2.395736   3.782406   4.894526   6.206939   0.000000
    16  C    2.973290   4.345852   5.248699   6.613746   1.416135
    17  H    9.514325   8.503496   9.052333   8.307502  10.708541
    18  H    8.804489   7.982111   8.569953   8.056915   9.857609
    19  H    9.020929   8.226827   9.036216   8.552703   9.851499
    20  H    7.246551   6.135761   6.569124   5.818598   8.730960
    21  H    7.519528   6.467615   7.187184   6.513323   8.727988
    22  H    6.860371   6.240704   7.252226   7.059739   7.533296
    23  H    6.417751   5.777775   6.543928   6.362053   7.372027
    24  H    4.541300   3.548245   4.285980   4.010188   6.039202
    25  H    5.139237   4.237857   5.275573   5.003532   6.244048
    26  H    4.170078   4.021832   5.111637   5.526302   4.767045
    27  H    5.525437   5.349301   6.758120   7.016702   5.489265
    28  H    6.320124   6.086903   7.337849   7.503156   6.428164
    29  H    5.470596   5.630483   7.001547   7.498274   5.075211
    30  H    4.593675   5.215337   6.635470   7.462934   3.534989
    31  H    4.015181   4.987184   6.383069   7.431392   2.265239
    32  H    4.223574   4.685633   6.200746   6.945553   3.335455
    33  H    2.166779   2.817466   4.198189   5.182760   2.077423
    34  H    1.095868   2.114378   2.667010   4.076926   2.603737
    35  H    1.099429   2.165739   2.755922   4.145130   2.618391
    36  H    2.151998   1.089741   2.122414   2.656705   4.156801
    37  H    2.148079   1.099300   2.159484   2.716443   4.072061
    38  H    2.760910   2.165763   1.095237   2.155982   4.994474
    39  H    2.732492   2.152850   1.097711   2.150462   5.015322
    40  H    4.147638   2.734659   2.159079   1.095538   6.416432
    41  H    4.649989   3.436139   2.157525   1.091704   7.043922
    42  H    4.112061   2.704605   2.159522   1.095124   6.412712
    43  H    3.964704   5.390784   6.260171   7.659553   2.037603
    44  H    2.760622   4.118431   4.727245   6.160258   2.068465
    45  H    3.327565   4.462365   5.446209   6.682476   2.084325
                   16         17         18         19         20
    16  C    0.000000
    17  H   11.878633   0.000000
    18  H   11.123527   1.777834   0.000000
    19  H   11.082677   1.770691   1.768276   0.000000
    20  H    9.826074   2.509389   2.529148   3.081585   0.000000
    21  H    9.786663   2.492686   3.066972   2.496312   1.774465
    22  H    8.774550   3.564712   2.915885   2.333177   2.998152
    23  H    8.657921   3.731007   2.506499   3.066780   2.524455
    24  H    7.108820   4.992857   4.466805   4.758356   2.728481
    25  H    7.253936   4.865066   4.716522   4.334120   3.149851
    26  H    6.099613   6.228886   5.147178   5.367516   4.538586
    27  H    6.605563   6.381166   5.891340   5.117251   5.362099
    28  H    7.708109   5.347652   4.529284   3.909501   4.666236
    29  H    6.376099   6.943919   6.009137   5.567801   5.930103
    30  H    4.801096   8.604683   7.652854   7.333911   7.272964
    31  H    3.314047   9.978701   9.114435   8.818371   8.412705
    32  H    4.291549   8.761264   8.138600   7.608827   7.311736
    33  H    2.585365   9.579525   9.034657   8.826530   7.595641
    34  H    2.613594  10.484084   9.841049  10.039325   8.174373
    35  H    3.337939   9.666460   8.786238   9.181361   7.398292
    36  H    4.993265   7.501743   6.911000   7.210287   5.151612
    37  H    4.467781   8.553116   8.230745   8.271873   6.259389
    38  H    5.046096  10.075085   9.642896  10.053937   7.597145
    39  H    5.472382   9.199507   8.540279   9.187637   6.720480
    40  H    6.719282   8.377625   8.324943   8.622307   5.966926
    41  H    7.365073   8.903024   8.674399   9.304140   6.427921
    42  H    7.029280   7.277741   6.993758   7.565783   4.777116
    43  H    1.092032  12.720251  11.889783  11.836561  10.733834
    44  H    1.092268  12.133222  11.380235  11.473746   9.949892
    45  H    1.094521  11.889449  11.279689  11.094572   9.877939
                   21         22         23         24         25
    21  H    0.000000
    22  H    2.414528   0.000000
    23  H    3.068910   1.756408   0.000000
    24  H    3.195941   3.073136   2.507735   0.000000
    25  H    2.553587   2.546165   3.077165   1.749040   0.000000
    26  H    4.782015   3.195524   2.647397   2.466154   3.069474
    27  H    4.489165   2.982663   4.061546   3.868419   2.745470
    28  H    4.048798   1.821184   2.838159   3.756885   3.102034
    29  H    5.468427   3.387303   3.940595   4.307482   3.847572
    30  H    6.927844   5.071117   5.367548   5.133845   4.855651
    31  H    8.087463   6.507445   6.739574   5.986042   5.746953
    32  H    6.714734   5.344652   5.924022   5.066955   4.396822
    33  H    7.355599   6.573362   6.692011   4.965404   4.802312
    34  H    8.425639   7.892288   7.484734   5.501846   6.032550
    35  H    7.872609   7.051149   6.373123   4.752007   5.625030
    36  H    5.561404   5.250026   4.696711   2.515984   3.418879
    37  H    6.332629   6.315112   6.130424   3.780015   4.043378
    38  H    8.133941   8.233760   7.604223   5.310697   6.148995
    39  H    7.543621   7.426443   6.491123   4.494251   5.740255
    40  H    6.403614   7.157212   6.710843   4.244228   4.872946
    41  H    7.281924   7.950501   7.127285   4.894302   5.989496
    42  H    5.605966   6.178618   5.387962   3.129344   4.310609
    43  H   10.679481   9.509393   9.405131   8.027898   8.157906
    44  H   10.066159   9.206014   8.923906   7.224955   7.568879
    45  H    9.674405   8.808287   8.875575   7.203680   7.121000
                   26         27         28         29         30
    26  H    0.000000
    27  H    3.078945   0.000000
    28  H    2.686239   1.774482   0.000000
    29  H    2.458766   1.772922   1.675864   0.000000
    30  H    3.120792   2.886925   3.475648   1.832704   0.000000
    31  H    4.262111   4.057825   5.029661   3.464273   1.694540
    32  H    3.812699   2.581121   3.972727   2.734763   1.792947
    33  H    4.403036   4.420687   5.706497   4.701315   3.650242
    34  H    5.262873   6.422859   7.342881   6.444596   5.420924
    35  H    4.098045   5.979901   6.510911   5.624348   4.742056
    36  H    3.095047   4.708457   5.217367   4.936555   4.823386
    37  H    4.505777   5.181789   6.171749   5.780673   5.401696
    38  H    6.043677   7.493482   8.226228   7.774376   7.218388
    39  H    5.049326   7.134230   7.501296   7.124647   6.745083
    40  H    5.920245   6.928410   7.608297   7.649402   7.631709
    41  H    6.437490   8.080252   8.486661   8.511353   8.467993
    42  H    4.869658   6.502948   6.783572   6.954524   7.154883
    43  H    6.789837   7.248936   8.307615   6.854516   5.139870
    44  H    6.426687   7.275218   8.298320   7.062061   5.591738
    45  H    6.412199   6.459625   7.761436   6.500703   5.002531
                   31         32         33         34         35
    31  H    0.000000
    32  H    1.773376   0.000000
    33  H    2.786068   2.567898   0.000000
    34  H    4.563425   4.882574   2.491488   0.000000
    35  H    4.284607   4.775599   3.073163   1.743184   0.000000
    36  H    4.956285   4.511317   3.227867   3.030246   2.508035
    37  H    5.095905   4.513598   2.577861   2.481415   3.070270
    38  H    6.723844   6.645874   4.362978   2.462569   3.107315
    39  H    6.564337   6.594067   4.732888   2.990267   2.524695
    40  H    7.540489   6.869049   5.089290   4.297164   4.702154
    41  H    8.408051   8.006167   6.160062   4.763329   4.828539
    42  H    7.371183   6.787671   5.385589   4.609172   4.325729
    43  H    3.546970   4.815631   3.539179   3.623085   4.155070
    44  H    4.241849   5.137637   3.082608   2.091861   3.015216
    45  H    3.486978   4.103962   2.319855   2.909922   3.972474
                   36         37         38         39         40
    36  H    0.000000
    37  H    1.772651   0.000000
    38  H    3.043823   2.514366   0.000000
    39  H    2.465320   3.065583   1.767874   0.000000
    40  H    3.030464   2.513499   2.500765   3.064467   0.000000
    41  H    3.655277   3.729398   2.499840   2.478559   1.777153
    42  H    2.420128   3.043617   3.067800   2.506721   1.772201
    43  H    5.986010   5.552815   6.039358   6.393393   7.799136
    44  H    4.900721   4.348257   4.374481   4.887789   6.335632
    45  H    5.163520   4.310703   5.186262   5.870383   6.608015
                   41         42         43         44         45
    41  H    0.000000
    42  H    1.774691   0.000000
    43  H    8.382834   8.060921   0.000000
    44  H    6.790768   6.689390   1.759422   0.000000
    45  H    7.481399   7.140515   1.777185   1.798367   0.000000
 Stoichiometry    C13H29NO2
 Framework group  C1[X(C13H29NO2)]
 Deg. of freedom   129
 Full point group                 C1      NOp   1
 Largest Abelian subgroup         C1      NOp   1
 Largest concise Abelian subgroup C1      NOp   1
                         Standard orientation:                         
 ---------------------------------------------------------------------
 Center     Atomic      Atomic             Coordinates (Angstroms)
 Number     Number       Type             X           Y           Z
 ---------------------------------------------------------------------
      1          6           0        6.093236    0.073892   -0.243811
      2          6           0        4.756874    0.629004    0.239261
      3          6           0        3.643646   -0.257053   -0.287252
      4          6           0        2.235882    0.097663    0.210370
      5          6           0        1.188397   -0.951873   -0.240643
      6          6           0        1.658561   -2.346436    0.186998
      7          8           0       -0.079548   -0.685898    0.416686
      8          7           0       -1.219600   -1.265098   -0.329250
      9          6           0       -1.327903   -2.652647    0.152609
     10          6           0       -2.458965   -0.569121    0.111968
     11          6           0       -2.577448    0.888184   -0.357950
     12          6           0       -1.504770    1.816419    0.173309
     13          6           0       -1.748133    3.250211   -0.272455
     14          6           0       -0.632358    4.132779    0.252234
     15          8           0       -3.590850   -1.281656   -0.424015
     16          6           0       -4.841658   -0.967723    0.161101
     17          1           0        6.922207    0.679160    0.127065
     18          1           0        6.132583    0.056318   -1.338969
     19          1           0        6.240881   -0.955084    0.107453
     20          1           0        4.623111    1.659850   -0.095277
     21          1           0        4.743643    0.619168    1.336917
     22          1           0        3.927536   -1.252936    0.048839
     23          1           0        3.649030   -0.278796   -1.385893
     24          1           0        1.954333    1.094730   -0.148894
     25          1           0        2.230506    0.167370    1.308114
     26          1           0        1.071160   -0.879321   -1.334238
     27          1           0        1.493955   -2.477078    1.263514
     28          1           0        2.691620   -2.587522   -0.041164
     29          1           0        1.135322   -3.129602   -0.345475
     30          1           0       -0.687180   -3.297737   -0.440453
     31          1           0       -2.311475   -3.102069    0.000963
     32          1           0       -1.074172   -2.731367    1.216086
     33          1           0       -2.508894   -0.601657    1.213867
     34          1           0       -3.542738    1.291988   -0.032243
     35          1           0       -2.610717    0.915895   -1.456527
     36          1           0       -0.525468    1.516899   -0.199239
     37          1           0       -1.484442    1.763209    1.271133
     38          1           0       -2.717423    3.608919    0.089968
     39          1           0       -1.769795    3.294820   -1.369045
     40          1           0       -0.617493    4.121223    1.347610
     41          1           0       -0.766706    5.162412   -0.084846
     42          1           0        0.339789    3.775018   -0.103062
     43          1           0       -5.568195   -1.708442   -0.179507
     44          1           0       -5.188582    0.009538   -0.181907
     45          1           0       -4.794186   -0.998579    1.254156
 ---------------------------------------------------------------------
 Rotational constants (GHZ):           0.6227189           0.2380160           0.1768604
 Standard basis: 6-31G(2df,p) (6D, 7F)
 There are   641 symmetry adapted cartesian basis functions of A   symmetry.
 There are   593 symmetry adapted basis functions of A   symmetry.
   593 basis functions,   907 primitive gaussians,   641 cartesian basis functions
    65 alpha electrons       65 beta electrons
       nuclear repulsion energy      1217.1016857112 Hartrees.
 NAtoms=   45 NActive=   45 NUniq=   45 SFac= 1.00D+00 NAtFMM=   60 NAOKFM=F Big=F
 Integral buffers will be    131072 words long.
 Raffenetti 2 integral format.
 Two-electron integral symmetry is turned on.
 One-electron integrals computed using PRISM.
 PrsmSu:  requested number of processors reduced to:  12 ShMem   1 Linda.
 NBasis=   593 RedAO= T EigKep=  3.14D-04  NBF=   593
 NBsUse=   593 1.00D-06 EigRej= -1.00D+00 NBFU=   593
 ExpMin= 1.61D-01 ExpMax= 5.48D+03 ExpMxC= 8.25D+02 IAcc=3 IRadAn=         5 AccDes= 0.00D+00
 Harris functional with IExCor=  402 and IRadAn=       5 diagonalized for initial guess.
 HarFok:  IExCor=  402 AccDes= 0.00D+00 IRadAn=         5 IDoV= 1 UseB2=F ITyADJ=14
 ICtDFT=  3500011 ScaDFX=  1.000000  1.000000  1.000000  1.000000
 FoFCou: FMM=F IPFlag=           0 FMFlag=      100000 FMFlg1=           0
         NFxFlg=           0 DoJE=T BraDBF=F KetDBF=T FulRan=T
         wScrn=  0.000000 ICntrl=       500 IOpCl=  0 I1Cent=   200000004 NGrid=           0
         NMat0=    1 NMatS0=      1 NMatT0=    0 NMatD0=    1 NMtDS0=    0 NMtDT0=    0
 Petite list used in FoFCou.
 Requested convergence on RMS density matrix=1.00D-08 within 128 cycles.
 Requested convergence on MAX density matrix=1.00D-06.
 Requested convergence on             energy=1.00D-06.
 No special actions if energy rises.
 Integral accuracy reduced to 1.0D-05 until final iterations.
 Initial convergence to 1.0D-05 achieved.  Increase integral accuracy.
 SCF Done:  E(RB3LYP) =  -718.013894977     A.U. after   13 cycles
            NFock= 13  Conv=0.43D-08     -V/T= 2.0080

 **********************************************************************

            Population analysis using the SCF density.

 **********************************************************************

 Orbital symmetries:
       Occupied  (A) (A) (A) (A) (A) (A) (A) (A) (A) (A) (A) (A)
                 (A) (A) (A) (A) (A) (A) (A) (A) (A) (A) (A) (A)
                 (A) (A) (A) (A) (A) (A) (A) (A) (A) (A) (A) (A)
                 (A) (A) (A) (A) (A) (A) (A) (A) (A) (A) (A) (A)
                 (A) (A) (A) (A) (A) (A) (A) (A) (A) (A) (A) (A)
                 (A) (A) (A) (A) (A)
       Virtual   (A) (A) (A) (A) (A) (A) (A) (A) (A) (A) (A) (A)
                 (A) (A) (A) (A) (A) (A) (A) (A) (A) (A) (A) (A)
                 (A) (A) (A) (A) (A) (A) (A) (A) (A) (A) (A) (A)
                 (A) (A) (A) (A) (A) (A) (A) (A) (A) (A) (A) (A)
                 (A) (A) (A) (A) (A) (A) (A) (A) (A) (A) (A) (A)
                 (A) (A) (A) (A) (A) (A) (A) (A) (A) (A) (A) (A)
                 (A) (A) (A) (A) (A) (A) (A) (A) (A) (A) (A) (A)
                 (A) (A) (A) (A) (A) (A) (A) (A) (A) (A) (A) (A)
                 (A) (A) (A) (A) (A) (A) (A) (A) (A) (A) (A) (A)
                 (A) (A) (A) (A) (A) (A) (A) (A) (A) (A) (A) (A)
                 (A) (A) (A) (A) (A) (A) (A) (A) (A) (A) (A) (A)
                 (A) (A) (A) (A) (A) (A) (A) (A) (A) (A) (A) (A)
                 (A) (A) (A) (A) (A) (A) (A) (A) (A) (A) (A) (A)
                 (A) (A) (A) (A) (A) (A) (A) (A) (A) (A) (A) (A)
                 (A) (A) (A) (A) (A) (A) (A) (A) (A) (A) (A) (A)
                 (A) (A) (A) (A) (A) (A) (A) (A) (A) (A) (A) (A)
                 (A) (A) (A) (A) (A) (A) (A) (A) (A) (A) (A) (A)
                 (A) (A) (A) (A) (A) (A) (A) (A) (A) (A) (A) (A)
                 (A) (A) (A) (A) (A) (A) (A) (A) (A) (A) (A) (A)
                 (A) (A) (A) (A) (A) (A) (A) (A) (A) (A) (A) (A)
                 (A) (A) (A) (A) (A) (A) (A) (A) (A) (A) (A) (A)
                 (A) (A) (A) (A) (A) (A) (A) (A) (A) (A) (A) (A)
                 (A) (A) (A) (A) (A) (A) (A) (A) (A) (A) (A) (A)
                 (A) (A) (A) (A) (A) (A) (A) (A) (A) (A) (A) (A)
                 (A) (A) (A) (A) (A) (A) (A) (A) (A) (A) (A) (A)
                 (A) (A) (A) (A) (A) (A) (A) (A) (A) (A) (A) (A)
                 (A) (A) (A) (A) (A) (A) (A) (A) (A) (A) (A) (A)
                 (A) (A) (A) (A) (A) (A) (A) (A) (A) (A) (A) (A)
                 (A) (A) (A) (A) (A) (A) (A) (A) (A) (A) (A) (A)
                 (A) (A) (A) (A) (A) (A) (A) (A) (A) (A) (A) (A)
                 (A) (A) (A) (A) (A) (A) (A) (A) (A) (A) (A) (A)
                 (A) (A) (A) (A) (A) (A) (A) (A) (A) (A) (A) (A)
                 (A) (A) (A) (A) (A) (A) (A) (A) (A) (A) (A) (A)
                 (A) (A) (A) (A) (A) (A) (A) (A) (A) (A) (A) (A)
                 (A) (A) (A) (A) (A) (A) (A) (A) (A) (A) (A) (A)
                 (A) (A) (A) (A) (A) (A) (A) (A) (A) (A) (A) (A)
                 (A) (A) (A) (A) (A) (A) (A) (A) (A) (A) (A) (A)
                 (A) (A) (A) (A) (A) (A) (A) (A) (A) (A) (A) (A)
                 (A) (A) (A) (A) (A) (A) (A) (A) (A) (A) (A) (A)
                 (A) (A) (A) (A) (A) (A) (A) (A) (A) (A) (A) (A)
                 (A) (A) (A) (A) (A) (A) (A) (A) (A) (A) (A) (A)
                 (A) (A) (A) (A) (A) (A) (A) (A) (A) (A) (A) (A)
                 (A) (A) (A) (A) (A) (A) (A) (A) (A) (A) (A) (A)
                 (A) (A) (A) (A) (A) (A) (A) (A) (A) (A) (A) (A)
 The electronic state is 1-A.
 Alpha  occ. eigenvalues --  -19.15710 -19.13842 -14.36809 -10.25398 -10.23049
 Alpha  occ. eigenvalues --  -10.22494 -10.18398 -10.17791 -10.17587 -10.17481
 Alpha  occ. eigenvalues --  -10.17050 -10.16761 -10.16670 -10.16293 -10.16209
 Alpha  occ. eigenvalues --  -10.16007  -1.04444  -1.02195  -0.85767  -0.80239
 Alpha  occ. eigenvalues --   -0.79362  -0.75519  -0.73951  -0.70310  -0.69507
 Alpha  occ. eigenvalues --   -0.65940  -0.64254  -0.62485  -0.58454  -0.57311
 Alpha  occ. eigenvalues --   -0.56623  -0.56283  -0.50549  -0.48545  -0.48374
 Alpha  occ. eigenvalues --   -0.46848  -0.45866  -0.45128  -0.44890  -0.43062
 Alpha  occ. eigenvalues --   -0.42641  -0.41953  -0.41299  -0.40880  -0.40376
 Alpha  occ. eigenvalues --   -0.39346  -0.38571  -0.38237  -0.37897  -0.36680
 Alpha  occ. eigenvalues --   -0.35974  -0.34873  -0.33895  -0.33657  -0.33167
 Alpha  occ. eigenvalues --   -0.32986  -0.32922  -0.32057  -0.31803  -0.31690
 Alpha  occ. eigenvalues --   -0.30701  -0.30476  -0.26213  -0.25063  -0.21992
 Alpha virt. eigenvalues --    0.05964   0.08113   0.09181   0.09397   0.10484
 Alpha virt. eigenvalues --    0.11640   0.12390   0.12783   0.13179   0.13492
 Alpha virt. eigenvalues --    0.13948   0.14175   0.14925   0.15392   0.15475
 Alpha virt. eigenvalues --    0.15997   0.16633   0.16891   0.17792   0.17927
 Alpha virt. eigenvalues --    0.18088   0.18692   0.19204   0.19598   0.19758
 Alpha virt. eigenvalues --    0.19967   0.20710   0.21518   0.21874   0.22306
 Alpha virt. eigenvalues --    0.22808   0.23223   0.24249   0.24365   0.25221
 Alpha virt. eigenvalues --    0.26032   0.26673   0.26696   0.28004   0.28495
 Alpha virt. eigenvalues --    0.29350   0.30519   0.31365   0.31575   0.41515
 Alpha virt. eigenvalues --    0.43292   0.45400   0.46481   0.47391   0.48199
 Alpha virt. eigenvalues --    0.48544   0.49243   0.49742   0.50420   0.50969
 Alpha virt. eigenvalues --    0.51636   0.51905   0.52381   0.52958   0.53720
 Alpha virt. eigenvalues --    0.54354   0.54911   0.55547   0.56147   0.58114
 Alpha virt. eigenvalues --    0.59089   0.59222   0.60447   0.61095   0.61873
 Alpha virt. eigenvalues --    0.62414   0.63351   0.63701   0.65339   0.65844
 Alpha virt. eigenvalues --    0.66726   0.67411   0.68101   0.68585   0.70224
 Alpha virt. eigenvalues --    0.71702   0.72205   0.72320   0.72856   0.73424
 Alpha virt. eigenvalues --    0.73579   0.73755   0.74309   0.74466   0.74680
 Alpha virt. eigenvalues --    0.75179   0.75682   0.75832   0.76965   0.77094
 Alpha virt. eigenvalues --    0.77625   0.78391   0.78675   0.78908   0.79922
 Alpha virt. eigenvalues --    0.80130   0.80879   0.81453   0.81752   0.82265
 Alpha virt. eigenvalues --    0.82383   0.83167   0.83964   0.84554   0.85238
 Alpha virt. eigenvalues --    0.85896   0.86490   0.87267   0.87440   0.89046
 Alpha virt. eigenvalues --    0.89199   0.89435   0.91113   0.92423   0.93613
 Alpha virt. eigenvalues --    0.94600   0.96327   0.98418   0.98739   1.00493
 Alpha virt. eigenvalues --    1.01270   1.03613   1.04740   1.06408   1.09034
 Alpha virt. eigenvalues --    1.11089   1.11801   1.13029   1.13823   1.15928
 Alpha virt. eigenvalues --    1.16137   1.18239   1.19970   1.20703   1.21619
 Alpha virt. eigenvalues --    1.22029   1.22655   1.24306   1.24942   1.25384
 Alpha virt. eigenvalues --    1.26801   1.27451   1.28978   1.30048   1.32678
 Alpha virt. eigenvalues --    1.34330   1.34919   1.36732   1.37367   1.37859
 Alpha virt. eigenvalues --    1.39481   1.39832   1.40225   1.41408   1.42146
 Alpha virt. eigenvalues --    1.44429   1.45079   1.46047   1.47638   1.48253
 Alpha virt. eigenvalues --    1.49043   1.49863   1.51112   1.52373   1.53439
 Alpha virt. eigenvalues --    1.54390   1.55772   1.56264   1.56901   1.57950
 Alpha virt. eigenvalues --    1.58356   1.59404   1.60093   1.60970   1.62249
 Alpha virt. eigenvalues --    1.64327   1.65353   1.66407   1.68002   1.68204
 Alpha virt. eigenvalues --    1.70319   1.71856   1.73555   1.75189   1.76302
 Alpha virt. eigenvalues --    1.78877   1.80442   1.80584   1.81492   1.82840
 Alpha virt. eigenvalues --    1.83481   1.84789   1.85331   1.85846   1.87875
 Alpha virt. eigenvalues --    1.88363   1.89420   1.90373   1.90747   1.92505
 Alpha virt. eigenvalues --    1.92841   1.94628   1.95226   1.96052   1.96689
 Alpha virt. eigenvalues --    1.97382   1.98143   1.99242   2.00574   2.02091
 Alpha virt. eigenvalues --    2.03609   2.04714   2.05824   2.06921   2.09031
 Alpha virt. eigenvalues --    2.14407   2.15868   2.16996   2.18497   2.19741
 Alpha virt. eigenvalues --    2.21005   2.21563   2.22682   2.24631   2.25202
 Alpha virt. eigenvalues --    2.25767   2.29446   2.30480   2.30939   2.32480
 Alpha virt. eigenvalues --    2.33745   2.34273   2.35635   2.37157   2.37471
 Alpha virt. eigenvalues --    2.38546   2.41766   2.43365   2.44515   2.46111
 Alpha virt. eigenvalues --    2.46742   2.48644   2.50226   2.53021   2.53150
 Alpha virt. eigenvalues --    2.57250   2.57571   2.61781   2.63669   2.64345
 Alpha virt. eigenvalues --    2.68131   2.68973   2.69455   2.71030   2.71472
 Alpha virt. eigenvalues --    2.72365   2.73497   2.75043   2.75611   2.76348
 Alpha virt. eigenvalues --    2.76917   2.77368   2.77737   2.78513   2.78952
 Alpha virt. eigenvalues --    2.79603   2.81112   2.81552   2.82425   2.83740
 Alpha virt. eigenvalues --    2.84565   2.84824   2.85782   2.86949   2.87854
 Alpha virt. eigenvalues --    2.88779   2.89623   2.89935   2.91167   2.91346
 Alpha virt. eigenvalues --    2.92658   2.92915   2.93475   2.94157   2.94500
 Alpha virt. eigenvalues --    2.95342   2.95752   2.96479   2.97057   2.98473
 Alpha virt. eigenvalues --    2.98833   3.00048   3.00200   3.00827   3.02715
 Alpha virt. eigenvalues --    3.04083   3.04357   3.05478   3.06051   3.06264
 Alpha virt. eigenvalues --    3.10339   3.11237   3.12494   3.15492   3.16804
 Alpha virt. eigenvalues --    3.17539   3.19518   3.20837   3.21786   3.23923
 Alpha virt. eigenvalues --    3.25716   3.26505   3.26736   3.28677   3.30174
 Alpha virt. eigenvalues --    3.31484   3.34883   3.34984   3.36370   3.36644
 Alpha virt. eigenvalues --    3.37003   3.38274   3.38602   3.40843   3.42184
 Alpha virt. eigenvalues --    3.42942   3.44737   3.45435   3.47284   3.48340
 Alpha virt. eigenvalues --    3.49469   3.51089   3.53005   3.53104   3.54757
 Alpha virt. eigenvalues --    3.55142   3.56556   3.57142   3.57831   3.58345
 Alpha virt. eigenvalues --    3.59763   3.61282   3.61502   3.63000   3.63198
 Alpha virt. eigenvalues --    3.65237   3.66825   3.67001   3.68284   3.70401
 Alpha virt. eigenvalues --    3.71638   3.72359   3.73287   3.74511   3.74942
 Alpha virt. eigenvalues --    3.75537   3.77330   3.77751   3.78841   3.80154
 Alpha virt. eigenvalues --    3.81228   3.83286   3.84037   3.85678   3.87271
 Alpha virt. eigenvalues --    3.87772   3.89965   3.92471   3.93069   3.95532
 Alpha virt. eigenvalues --    3.97812   3.99126   4.00091   4.03379   4.05546
 Alpha virt. eigenvalues --    4.08008   4.09800   4.10439   4.13407   4.16250
 Alpha virt. eigenvalues --    4.17506   4.22856   4.29150   4.31689   4.32692
 Alpha virt. eigenvalues --    4.33346   4.34976   4.36113   4.37084   4.37628
 Alpha virt. eigenvalues --    4.39676   4.40027   4.41042   4.41630   4.42986
 Alpha virt. eigenvalues --    4.43983   4.44392   4.44909   4.45160   4.47625
 Alpha virt. eigenvalues --    4.48306   4.49228   4.50512   4.50901   4.52105
 Alpha virt. eigenvalues --    4.53243   4.53753   4.54080   4.54614   4.55054
 Alpha virt. eigenvalues --    4.56387   4.57048   4.57394   4.58703   4.58751
 Alpha virt. eigenvalues --    4.61451   4.61624   4.62222   4.62411   4.63004
 Alpha virt. eigenvalues --    4.64354   4.64618   4.64835   4.65779   4.67091
 Alpha virt. eigenvalues --    4.67756   4.68348   4.69280   4.69789   4.70365
 Alpha virt. eigenvalues --    4.71485   4.72087   4.73434   4.73728   4.74719
 Alpha virt. eigenvalues --    4.74986   4.76117   4.76681   4.76972   4.77499
 Alpha virt. eigenvalues --    4.78784   4.79554   4.80255   4.80977   4.81435
 Alpha virt. eigenvalues --    4.82325   4.83486   4.84573   4.85074   4.86743
 Alpha virt. eigenvalues --    4.87125   4.88324   4.90149   4.91765   4.92814
 Alpha virt. eigenvalues --    4.93351   4.95250   4.96125   4.97687   4.97918
 Alpha virt. eigenvalues --    4.98403   4.99338   5.00575   5.02639   5.06275
 Alpha virt. eigenvalues --    5.07574   5.11570   5.13155   5.17958   5.20984
 Alpha virt. eigenvalues --    5.22197   5.26276   5.28416   5.30444   5.33602
 Alpha virt. eigenvalues --    5.34975   5.35875   5.37458   5.41224   5.42454
 Alpha virt. eigenvalues --    5.44189   5.47257   5.49414   5.49677   5.50990
 Alpha virt. eigenvalues --    5.53695   5.55299   5.57183   5.61039   5.63403
 Alpha virt. eigenvalues --    5.65054   5.69588   5.79145   5.87140   5.88448
 Alpha virt. eigenvalues --    5.94883   5.96776   6.03143   6.05863   6.10163
 Alpha virt. eigenvalues --    6.15453   6.22497   6.41760   6.52563   7.11041
 Alpha virt. eigenvalues --    7.26339  11.15099  11.21180  11.28450  11.32861
 Alpha virt. eigenvalues --   11.49494  11.64912  11.76840  11.88217  12.04083
 Alpha virt. eigenvalues --   12.16581  12.29567  12.35164  12.51847  12.61884
 Alpha virt. eigenvalues --   13.52874  13.71295  17.32617
          Condensed to atoms (all electrons):
               1          2          3          4          5          6
     1  C    4.945532   0.406821  -0.037010   0.002218  -0.000115   0.000028
     2  C    0.406821   4.794659   0.430002  -0.030405   0.001345   0.000675
     3  C   -0.037010   0.430002   4.783058   0.400742  -0.034623  -0.006866
     4  C    0.002218  -0.030405   0.400742   4.914030   0.420581  -0.044968
     5  C   -0.000115   0.001345  -0.034623   0.420581   4.586374   0.376240
     6  C    0.000028   0.000675  -0.006866  -0.044968   0.376240   5.089691
     7  O    0.000000  -0.000023   0.001267  -0.022208   0.322112  -0.042155
     8  N   -0.000000   0.000000  -0.000039   0.001974  -0.052031   0.003083
     9  C    0.000000   0.000000   0.000015  -0.000065  -0.003273  -0.006764
    10  C    0.000000  -0.000000   0.000001  -0.000250  -0.000215   0.000098
    11  C   -0.000000   0.000000  -0.000001   0.000011   0.000790  -0.000022
    12  C    0.000000   0.000000   0.000011  -0.000499  -0.000597   0.000033
    13  C    0.000000   0.000000   0.000000   0.000023  -0.000050   0.000001
    14  C    0.000000  -0.000000   0.000001  -0.000071   0.000002  -0.000000
    15  O   -0.000000   0.000000  -0.000000   0.000000  -0.000035   0.000000
    16  C    0.000000  -0.000000   0.000000  -0.000000   0.000001  -0.000000
    17  H    0.372411  -0.022623   0.003303  -0.000161   0.000001   0.000000
    18  H    0.379314  -0.030612  -0.003729   0.000168   0.000005   0.000001
    19  H    0.379058  -0.029345  -0.006203   0.000187   0.000010  -0.000031
    20  H   -0.033703   0.369017  -0.032295  -0.001170   0.000042  -0.000013
    21  H   -0.034715   0.368743  -0.030336  -0.003032   0.000205  -0.000000
    22  H   -0.004557  -0.039598   0.371280  -0.033249  -0.006118  -0.003603
    23  H   -0.002246  -0.037740   0.367273  -0.035770  -0.000051  -0.000727
    24  H    0.000019  -0.001536  -0.028458   0.355986  -0.023136   0.005223
    25  H    0.000127  -0.004361  -0.029711   0.351602  -0.021164  -0.007720
    26  H    0.000006  -0.000012  -0.001608  -0.038032   0.347909  -0.059852
    27  H    0.000001  -0.000070   0.000163  -0.003443  -0.017440   0.362982
    28  H   -0.000021   0.000071  -0.005812  -0.007000  -0.017038   0.357706
    29  H   -0.000001  -0.000013   0.000599   0.004247  -0.022356   0.371077
    30  H   -0.000000  -0.000000  -0.000005  -0.000002  -0.001312  -0.005642
    31  H   -0.000000   0.000000  -0.000000   0.000004   0.000014   0.000236
    32  H    0.000000   0.000000   0.000007   0.000002   0.001969  -0.002620
    33  H    0.000000   0.000000   0.000000   0.000032   0.000598  -0.000110
    34  H    0.000000  -0.000000   0.000000  -0.000000   0.000001  -0.000000
    35  H    0.000000   0.000000   0.000000   0.000005  -0.000026  -0.000000
    36  H    0.000000  -0.000000   0.000026  -0.000428   0.000682   0.000081
    37  H    0.000000   0.000000   0.000003   0.000137  -0.000049  -0.000002
    38  H   -0.000000  -0.000000   0.000000  -0.000001   0.000000  -0.000000
    39  H    0.000000  -0.000000   0.000000   0.000002   0.000001   0.000000
    40  H    0.000000  -0.000000   0.000000   0.000004   0.000000   0.000000
    41  H    0.000000   0.000000  -0.000000   0.000001  -0.000000   0.000000
    42  H   -0.000000  -0.000000  -0.000002  -0.000089  -0.000011   0.000000
    43  H   -0.000000   0.000000  -0.000000   0.000000  -0.000000   0.000000
    44  H   -0.000000   0.000000   0.000000   0.000000  -0.000000  -0.000000
    45  H    0.000000  -0.000000   0.000000  -0.000000   0.000000  -0.000000
               7          8          9         10         11         12
     1  C    0.000000  -0.000000   0.000000   0.000000  -0.000000   0.000000
     2  C   -0.000023   0.000000   0.000000  -0.000000   0.000000   0.000000
     3  C    0.001267  -0.000039   0.000015   0.000001  -0.000001   0.000011
     4  C   -0.022208   0.001974  -0.000065  -0.000250   0.000011  -0.000499
     5  C    0.322112  -0.052031  -0.003273  -0.000215   0.000790  -0.000597
     6  C   -0.042155   0.003083  -0.006764   0.000098  -0.000022   0.000033
     7  O    7.920992   0.187661  -0.054501  -0.028321  -0.002456  -0.001999
     8  N    0.187661   6.397009   0.348304   0.358740  -0.016203  -0.003925
     9  C   -0.054501   0.348304   5.016004  -0.072391   0.003694   0.000319
    10  C   -0.028321   0.358740  -0.072391   4.631908   0.392291  -0.026810
    11  C   -0.002456  -0.016203   0.003694   0.392291   4.938887   0.387403
    12  C   -0.001999  -0.003925   0.000319  -0.026810   0.387403   4.823902
    13  C    0.000702  -0.000037   0.000008   0.002217  -0.029278   0.395715
    14  C   -0.000004   0.000000  -0.000000  -0.000145   0.001722  -0.036443
    15  O    0.000282  -0.021349  -0.012291   0.336784  -0.026342   0.002758
    16  C   -0.000040   0.003004   0.000629  -0.076471  -0.004218  -0.000151
    17  H   -0.000000   0.000000  -0.000000  -0.000000   0.000000  -0.000000
    18  H    0.000000   0.000000  -0.000000  -0.000000   0.000000  -0.000000
    19  H    0.000000   0.000000  -0.000000   0.000000  -0.000000   0.000000
    20  H    0.000000   0.000000  -0.000000   0.000000   0.000000  -0.000000
    21  H    0.000001   0.000000  -0.000000   0.000000   0.000000  -0.000000
    22  H    0.000033   0.000001   0.000001   0.000000   0.000000  -0.000000
    23  H    0.000018   0.000003  -0.000000   0.000000  -0.000000   0.000000
    24  H    0.000402   0.000125   0.000005   0.000030  -0.000021  -0.000115
    25  H    0.000660  -0.000043  -0.000002   0.000025  -0.000002   0.000078
    26  H   -0.028633   0.008676  -0.000134   0.000998  -0.000190   0.000170
    27  H    0.002047  -0.000838  -0.000426   0.000007   0.000000  -0.000002
    28  H    0.002436  -0.000064   0.000306   0.000006   0.000000  -0.000000
    29  H   -0.000188  -0.000598  -0.005146  -0.000025   0.000001  -0.000001
    30  H    0.000963  -0.028484   0.384784   0.003284  -0.000176  -0.000002
    31  H    0.003062  -0.017263   0.352975  -0.005754   0.000634  -0.000036
    32  H    0.007682  -0.037138   0.351684   0.001018   0.000046  -0.000040
    33  H    0.007425  -0.058884  -0.006714   0.337252  -0.067491   0.000078
    34  H   -0.000080   0.002408  -0.000257  -0.022069   0.357310  -0.034577
    35  H   -0.000143  -0.002436  -0.000008  -0.014704   0.343351  -0.028505
    36  H    0.007679   0.001071   0.000031  -0.003401  -0.027804   0.373088
    37  H    0.001021  -0.000758  -0.000037  -0.003224  -0.033337   0.367180
    38  H   -0.000007  -0.000001  -0.000000   0.000075  -0.002842  -0.029422
    39  H    0.000002  -0.000004   0.000000   0.000222  -0.001717  -0.031452
    40  H   -0.000001   0.000000   0.000000   0.000007   0.000250  -0.003915
    41  H    0.000000   0.000000   0.000000   0.000001  -0.000170   0.003420
    42  H   -0.000019  -0.000001  -0.000000   0.000007   0.000225  -0.004458
    43  H    0.000000  -0.000081   0.000068   0.003690   0.000197  -0.000000
    44  H    0.000001  -0.000101  -0.000023   0.001149  -0.001453  -0.000666
    45  H    0.000004  -0.000014  -0.000021  -0.008189  -0.001336   0.000192
              13         14         15         16         17         18
     1  C    0.000000   0.000000  -0.000000   0.000000   0.372411   0.379314
     2  C    0.000000  -0.000000   0.000000  -0.000000  -0.022623  -0.030612
     3  C    0.000000   0.000001  -0.000000   0.000000   0.003303  -0.003729
     4  C    0.000023  -0.000071   0.000000  -0.000000  -0.000161   0.000168
     5  C   -0.000050   0.000002  -0.000035   0.000001   0.000001   0.000005
     6  C    0.000001  -0.000000   0.000000  -0.000000   0.000000   0.000001
     7  O    0.000702  -0.000004   0.000282  -0.000040  -0.000000   0.000000
     8  N   -0.000037   0.000000  -0.021349   0.003004   0.000000   0.000000
     9  C    0.000008  -0.000000  -0.012291   0.000629  -0.000000  -0.000000
    10  C    0.002217  -0.000145   0.336784  -0.076471  -0.000000  -0.000000
    11  C   -0.029278   0.001722  -0.026342  -0.004218   0.000000   0.000000
    12  C    0.395715  -0.036443   0.002758  -0.000151  -0.000000  -0.000000
    13  C    4.832890   0.404777  -0.000048  -0.000001  -0.000000   0.000000
    14  C    0.404777   4.954827   0.000000  -0.000000  -0.000000  -0.000000
    15  O   -0.000048   0.000000   7.731519   0.367674   0.000000  -0.000000
    16  C   -0.000001  -0.000000   0.367674   4.823111  -0.000000  -0.000000
    17  H   -0.000000  -0.000000   0.000000  -0.000000   0.606207  -0.031132
    18  H    0.000000  -0.000000  -0.000000  -0.000000  -0.031132   0.600363
    19  H    0.000000  -0.000000  -0.000000   0.000000  -0.032009  -0.033771
    20  H    0.000000  -0.000000  -0.000000   0.000000  -0.001910  -0.003982
    21  H    0.000000  -0.000000  -0.000000  -0.000000  -0.002080   0.005575
    22  H    0.000000  -0.000000  -0.000000   0.000000   0.000027  -0.000590
    23  H    0.000000   0.000000   0.000000   0.000000  -0.000049   0.005124
    24  H   -0.000050   0.000021  -0.000000   0.000000   0.000005   0.000004
    25  H    0.000001   0.000001   0.000000   0.000000   0.000003   0.000010
    26  H   -0.000001  -0.000000  -0.000004   0.000001   0.000000  -0.000001
    27  H    0.000000  -0.000000   0.000000   0.000000  -0.000000  -0.000000
    28  H   -0.000000  -0.000000  -0.000000   0.000000  -0.000000   0.000006
    29  H   -0.000000   0.000000   0.000000  -0.000000   0.000000  -0.000000
    30  H   -0.000000   0.000000   0.000503  -0.000012  -0.000000  -0.000000
    31  H   -0.000000  -0.000000   0.016607   0.000290   0.000000  -0.000000
    32  H    0.000000  -0.000000  -0.000271  -0.000025   0.000000  -0.000000
    33  H   -0.000050   0.000013  -0.039969  -0.006208   0.000000  -0.000000
    34  H   -0.006940   0.000126  -0.004946   0.000597  -0.000000  -0.000000
    35  H   -0.004253   0.000112   0.000547   0.000949   0.000000   0.000000
    36  H   -0.037523  -0.003822   0.000013  -0.000000   0.000000   0.000000
    37  H   -0.040566  -0.002281   0.000009   0.000034   0.000000  -0.000000
    38  H    0.362667  -0.035144  -0.000001  -0.000008  -0.000000  -0.000000
    39  H    0.367930  -0.035756  -0.000000   0.000001   0.000000  -0.000000
    40  H   -0.029486   0.378594   0.000000   0.000000   0.000000   0.000000
    41  H   -0.022411   0.369673  -0.000000  -0.000000   0.000000   0.000000
    42  H   -0.029890   0.378649   0.000000  -0.000000   0.000000   0.000000
    43  H   -0.000000   0.000000  -0.020702   0.384487   0.000000   0.000000
    44  H    0.000021  -0.000001  -0.035401   0.373993   0.000000   0.000000
    45  H   -0.000002   0.000000  -0.030573   0.366009  -0.000000   0.000000
              19         20         21         22         23         24
     1  C    0.379058  -0.033703  -0.034715  -0.004557  -0.002246   0.000019
     2  C   -0.029345   0.369017   0.368743  -0.039598  -0.037740  -0.001536
     3  C   -0.006203  -0.032295  -0.030336   0.371280   0.367273  -0.028458
     4  C    0.000187  -0.001170  -0.003032  -0.033249  -0.035770   0.355986
     5  C    0.000010   0.000042   0.000205  -0.006118  -0.000051  -0.023136
     6  C   -0.000031  -0.000013  -0.000000  -0.003603  -0.000727   0.005223
     7  O    0.000000   0.000000   0.000001   0.000033   0.000018   0.000402
     8  N    0.000000   0.000000   0.000000   0.000001   0.000003   0.000125
     9  C   -0.000000  -0.000000  -0.000000   0.000001  -0.000000   0.000005
    10  C    0.000000   0.000000   0.000000   0.000000   0.000000   0.000030
    11  C   -0.000000   0.000000   0.000000   0.000000  -0.000000  -0.000021
    12  C    0.000000  -0.000000  -0.000000  -0.000000   0.000000  -0.000115
    13  C    0.000000   0.000000   0.000000   0.000000   0.000000  -0.000050
    14  C   -0.000000  -0.000000  -0.000000  -0.000000   0.000000   0.000021
    15  O   -0.000000  -0.000000  -0.000000  -0.000000   0.000000  -0.000000
    16  C    0.000000   0.000000  -0.000000   0.000000   0.000000   0.000000
    17  H   -0.032009  -0.001910  -0.002080   0.000027  -0.000049   0.000005
    18  H   -0.033771  -0.003982   0.005575  -0.000590   0.005124   0.000004
    19  H    0.601444   0.005460  -0.004550   0.007396  -0.000366   0.000006
    20  H    0.005460   0.642406  -0.041017   0.006869  -0.005845   0.003415
    21  H   -0.004550  -0.041017   0.641538  -0.006676   0.006309  -0.000389
    22  H    0.007396   0.006869  -0.006676   0.641025  -0.044367   0.005844
    23  H   -0.000366  -0.005845   0.006309  -0.044367   0.650647  -0.005673
    24  H    0.000006   0.003415  -0.000389   0.005844  -0.005673   0.631155
    25  H    0.000003  -0.000492   0.005231  -0.004269   0.006137  -0.041931
    26  H    0.000000  -0.000004   0.000007  -0.000026   0.004504  -0.005783
    27  H    0.000000   0.000001   0.000005   0.001077   0.000096  -0.000097
    28  H   -0.000004   0.000003   0.000064   0.004648   0.001770   0.000070
    29  H    0.000000   0.000000  -0.000001  -0.000381  -0.000099  -0.000192
    30  H    0.000000  -0.000000   0.000000   0.000001   0.000000   0.000000
    31  H    0.000000   0.000000  -0.000000   0.000000  -0.000000  -0.000000
    32  H    0.000000   0.000000  -0.000000  -0.000000  -0.000000  -0.000001
    33  H    0.000000   0.000000  -0.000000  -0.000000  -0.000000   0.000001
    34  H   -0.000000  -0.000000  -0.000000  -0.000000  -0.000000   0.000001
    35  H   -0.000000   0.000000  -0.000000   0.000000  -0.000000   0.000001
    36  H   -0.000000  -0.000001   0.000000   0.000001   0.000000   0.003200
    37  H   -0.000000   0.000000  -0.000000   0.000000   0.000000   0.000009
    38  H    0.000000  -0.000000  -0.000000  -0.000000   0.000000   0.000002
    39  H   -0.000000  -0.000000  -0.000000   0.000000  -0.000000  -0.000002
    40  H    0.000000  -0.000000  -0.000000   0.000000   0.000000  -0.000004
    41  H    0.000000   0.000000   0.000000   0.000000   0.000000  -0.000004
    42  H    0.000000   0.000004  -0.000000   0.000000  -0.000000   0.001454
    43  H    0.000000   0.000000   0.000000  -0.000000   0.000000   0.000000
    44  H   -0.000000  -0.000000   0.000000  -0.000000   0.000000  -0.000000
    45  H    0.000000  -0.000000  -0.000000  -0.000000  -0.000000   0.000000
              25         26         27         28         29         30
     1  C    0.000127   0.000006   0.000001  -0.000021  -0.000001  -0.000000
     2  C   -0.004361  -0.000012  -0.000070   0.000071  -0.000013  -0.000000
     3  C   -0.029711  -0.001608   0.000163  -0.005812   0.000599  -0.000005
     4  C    0.351602  -0.038032  -0.003443  -0.007000   0.004247  -0.000002
     5  C   -0.021164   0.347909  -0.017440  -0.017038  -0.022356  -0.001312
     6  C   -0.007720  -0.059852   0.362982   0.357706   0.371077  -0.005642
     7  O    0.000660  -0.028633   0.002047   0.002436  -0.000188   0.000963
     8  N   -0.000043   0.008676  -0.000838  -0.000064  -0.000598  -0.028484
     9  C   -0.000002  -0.000134  -0.000426   0.000306  -0.005146   0.384784
    10  C    0.000025   0.000998   0.000007   0.000006  -0.000025   0.003284
    11  C   -0.000002  -0.000190   0.000000   0.000000   0.000001  -0.000176
    12  C    0.000078   0.000170  -0.000002  -0.000000  -0.000001  -0.000002
    13  C    0.000001  -0.000001   0.000000  -0.000000  -0.000000  -0.000000
    14  C    0.000001  -0.000000  -0.000000  -0.000000   0.000000   0.000000
    15  O    0.000000  -0.000004   0.000000  -0.000000   0.000000   0.000503
    16  C    0.000000   0.000001   0.000000   0.000000  -0.000000  -0.000012
    17  H    0.000003   0.000000  -0.000000  -0.000000   0.000000  -0.000000
    18  H    0.000010  -0.000001  -0.000000   0.000006  -0.000000  -0.000000
    19  H    0.000003   0.000000   0.000000  -0.000004   0.000000   0.000000
    20  H   -0.000492  -0.000004   0.000001   0.000003   0.000000  -0.000000
    21  H    0.005231   0.000007   0.000005   0.000064  -0.000001   0.000000
    22  H   -0.004269  -0.000026   0.001077   0.004648  -0.000381   0.000001
    23  H    0.006137   0.004504   0.000096   0.001770  -0.000099   0.000000
    24  H   -0.041931  -0.005783  -0.000097   0.000070  -0.000192   0.000000
    25  H    0.632607   0.006533   0.003841   0.000669  -0.000100  -0.000000
    26  H    0.006533   0.674657   0.006058   0.002736  -0.005396  -0.000357
    27  H    0.003841   0.006058   0.588934  -0.030772  -0.032853  -0.000241
    28  H    0.000669   0.002736  -0.030772   0.609680  -0.032733   0.000411
[...]
 000177,0.00000247,0.00000034,-0.00000484,0.00000141,-0.00000517,0.0000
 0402,0.00000021,-0.00000022,0.00001449,-0.00001564,0.00000696,0.000013
 30,-0.00000585,-0.00001541,-0.00000210,-0.00000286,-0.00000566,-0.0000
 1080,0.00000881,-0.00001426,0.00002782,-0.00001298,0.00003358,0.000016
 89,-0.00001370,-0.00001600,-0.00000286,0.00001005,-0.00001590,0.000002
 72,-0.00000247,-0.00000428,-0.00000283,0.00000210,0.00000011,0.0000006
 4,0.00000090,0.00000021,0.00000091,-0.00000079,-0.00000298,-0.00000227
 ,0.00000390,0.00000109,-0.00000666,0.00000139,-0.00000599,-0.00000838,
 0.00000415,-0.00000783,-0.00004678,0.00009990,0.00000934,-0.00001727,0
 .00002316,-0.00001243,0.00013405,-0.00035433,-0.00018553,-0.00004123,-
 0.00003606,0.00011704,0.00120581,0.00168357,-0.00042827,0.00080880,-0.
 00063624,-0.00029461,-0.01834127,-0.01004180,0.02292085,0.00315722,0.0
 0260994,-0.00472410,0.15310379,0.00000306,0.00001255,0.00001575,0.0000
 3932,-0.00002900,-0.00002552,-0.00000004,0.00003906,0.00002751,0.00018
 619,-0.00015601,-0.00005600,-0.00007845,-0.00006446,0.00004620,0.00003
 069,0.00003249,-0.00001288,0.00003184,0.00007908,-0.00002207,-0.000024
 34,-0.00007652,-0.00004358,0.00003338,0.00000562,-0.00001400,0.0000316
 0,0.00005042,0.00001961,0.00022334,-0.00003146,-0.00011276,-0.00080736
 ,0.00187420,0.00155681,-0.02108373,-0.01245071,0.02422969,-0.05272721,
 -0.07540971,0.06145396,0.00006258,0.00003793,-0.00001527,-0.00003875,0
 .00002236,0.00004031,-0.00000804,-0.00000931,-0.00000045,-0.00000037,0
 .00000074,-0.00000497,-0.00001144,0.00000053,-0.00000324,-0.00000630,0
 .00003778,0.00001031,-0.00000658,0.00000512,0.00000470,-0.00003651,0.0
 0000306,-0.00000732,0.00000365,-0.00001129,-0.00000693,-0.00004422,0.0
 0003437,-0.00001255,-0.00003300,0.00003515,0.00001459,-0.00000091,0.00
 000169,-0.00001150,0.00000002,-0.00000411,-0.00000154,-0.00000066,-0.0
 0000657,0.00000096,-0.00001008,0.00002245,0.00000542,0.00000051,-0.000
 00863,-0.00001246,0.00000193,0.00001134,0.00001002,-0.00000538,-0.0000
 0288,-0.00000122,-0.00000407,-0.00001852,-0.00002766,0.00012027,0.0002
 7227,-0.00016328,-0.00003627,0.00000936,0.00004234,0.00042869,-0.00016
 569,-0.00101415,0.00000144,-0.00006277,-0.00014111,0.00153794,-0.00651
 137,0.00090562,0.00028763,0.00154022,-0.00034778,0.00242522,0.00079824
 ,-0.00374659,0.01167904,0.00590104,-0.01204165,0.05781404,0.08420622,0
 .00000250,-0.00002803,-0.00001079,-0.00009046,0.00008309,0.00003161,0.
 00001963,-0.00000219,0.00001104,-0.00007325,0.00005208,0.00001659,0.00
 014434,0.00006012,-0.00000334,-0.00002906,-0.00002134,0.00000601,-0.00
 011906,-0.00000380,0.00002780,-0.00002287,0.00004639,0.00002953,-0.000
 01930,-0.00001683,0.00000206,0.00003421,-0.00006576,-0.00011278,-0.000
 15475,-0.00008028,0.00026876,-0.00060027,-0.00062296,0.00072230,0.0033
 4993,0.00232933,-0.00503022,0.11313960,0.06211524,-0.18052114,0.000006
 03,0.00007648,0.00002972,-0.00001373,-0.00001698,-0.00001809,-0.000010
 01,-0.00000118,0.00000327,-0.00000915,0.00000840,-0.00000230,0.0000219
 1,-0.00000684,-0.00000292,0.00002860,-0.00004641,0.00000215,0.00001920
 ,-0.00001391,-0.00001660,0.00001354,-0.00001995,-0.00000813,-0.0000133
 8,0.00001520,-0.00000609,0.00004644,0.00001393,0.00002431,0.00001485,-
 0.00002097,-0.00001225,-0.00000125,0.00000040,0.00000171,0.00000151,0.
 00000358,0.00000324,-0.00001311,0.00001153,-0.00000284,0.00000877,-0.0
 0001915,-0.00000347,-0.00000471,0.00000846,0.00001223,0.00000190,-0.00
 000658,-0.00000805,0.00000388,0.00000187,0.00000176,-0.00001294,0.0000
 0794,0.00000221,0.00000536,-0.00015980,-0.00006907,0.00000641,0.000021
 55,-0.00003696,0.00017230,0.00031430,0.00054351,-0.00001695,0.00000618
 ,0.00004629,-0.00080378,0.00115199,0.00095090,-0.00025633,0.00000147,-
 0.00004735,-0.00640489,-0.00403495,0.00745761,0.01692473,0.00936053,-0
 .01880078,-0.12529393,-0.07051000,0.19450176,0.00000445,-0.00001245,0.
 00000734,-0.00001662,0.00001657,-0.00001620,0.00002399,-0.00003789,0.0
 0002706,-0.00009198,0.00003121,-0.00005510,0.00033804,-0.00005928,0.00
 031154,-0.00006692,-0.00002025,-0.00003152,-0.00111924,-0.00021256,0.0
 0039155,0.00022211,-0.00168157,-0.00018595,-0.00012231,-0.00012692,-0.
 00014820,-0.00501300,0.00342880,-0.00082427,-0.00010166,-0.00042048,0.
 00068312,-0.00015105,-0.00000361,-0.00034372,0.00004728,-0.00010017,0.
 00008947,-0.00001583,-0.00001034,-0.00005116,-0.02373570,-0.03887187,0
 .01160858,-0.05876254,-0.05010914,0.01203950,-0.00000761,-0.00000672,-
 0.00000218,-0.00000010,0.00000137,-0.00000224,-0.00000168,0.00000222,-
 0.00000007,0.00000050,-0.00000121,0.00000006,-0.00000030,-0.00000132,0
 .00000155,-0.00000728,0.00000269,0.00000038,-0.00000164,-0.00000069,-0
 .00000403,0.00000652,0.00000974,-0.00000019,0.00000291,0.00000378,0.00
 000150,-0.00001940,0.00001521,-0.00005007,0.00000554,0.00000079,0.0000
 0502,-0.00003377,0.00001754,0.00000261,0.00002318,-0.00000837,0.000003
 45,-0.00000610,0.00003224,0.00007807,0.00001853,-0.00001663,-0.0000119
 7,0.00002107,-0.00000145,0.00005915,0.00034736,-0.00019261,0.00047083,
 0.00015910,0.00004419,-0.00018904,0.00001400,-0.00000590,-0.00004687,0
 .00001168,0.00004349,0.00001298,0.00004429,-0.00004824,0.00003265,0.00
 000586,0.00000023,-0.00002157,0.00000433,0.00000742,0.00001103,0.00000
 777,-0.00000493,0.00000401,0.00000412,-0.00002620,-0.00000229,0.000001
 30,0.00000465,0.00000126,0.07934482,0.00000447,-0.00000705,0.00000578,
 -0.00000455,0.00001087,-0.00001137,0.00001549,-0.00001309,0.00001713,-
 0.00002108,0.00000320,-0.00002216,0.00018283,-0.00000098,0.00007332,-0
 .00002762,0.00000025,-0.00000727,-0.00016941,0.00003420,0.00001640,-0.
 00010531,-0.00000294,-0.00018305,-0.00004924,-0.00010688,-0.00005517,0
 .00110531,0.00190353,-0.00039009,-0.00000739,0.00023140,0.00001474,0.0
 0007035,0.00005699,-0.00001530,-0.00000733,0.00001281,0.00005911,-0.00
 000707,0.00000690,-0.00002727,-0.00366550,0.00292174,0.00019145,-0.062
 15623,-0.28714753,0.06042671,-0.00000607,-0.00000703,-0.00000149,0.000
 00029,0.00000108,-0.00000191,-0.00000302,0.00000266,0.00000008,-0.0000
 0148,0.00000164,0.00000094,-0.00000066,-0.00000154,0.00000153,-0.00000
 867,0.00000251,0.00000034,0.00000116,-0.00000125,-0.00000128,0.0000018
 0,0.00001499,0.00000120,-0.00000266,-0.00000094,0.00000515,-0.00000183
 ,0.00000008,-0.00000632,0.00000057,0.00000119,0.00000548,-0.00002188,0
 .00000182,-0.00000094,0.00002219,-0.00001240,0.00000215,-0.00002303,0.
 00000837,0.00004216,0.00001187,-0.00003107,-0.00005700,0.00003059,0.00
 000638,0.00001580,-0.00017694,0.00025184,-0.00025243,0.00007579,-0.000
 00954,0.00020588,-0.00009492,-0.00004578,0.00001811,-0.00002506,-0.000
 03187,0.00000176,-0.00003760,0.00004730,-0.00002687,0.00000913,0.00000
 157,0.00000371,-0.00001621,-0.00001396,-0.00001610,0.00000155,0.000004
 94,0.00000613,-0.00000231,-0.00002806,-0.00001163,-0.00000117,-0.00000
 207,0.00000625,0.06928169,0.30530515,-0.00000121,0.00000290,-0.0000012
 1,0.00000395,-0.00000418,0.00000326,-0.00000495,0.00000904,-0.00000524
 ,0.00002176,-0.00000852,0.00000863,-0.00004798,0.00000790,-0.00004652,
 0.00001420,0.00000093,0.00000816,0.00009166,0.00002696,0.00000672,0.00
 031645,-0.00000849,0.00025113,-0.00000324,0.00015804,-0.00002949,0.000
 22077,-0.00026191,0.00009000,0.00023396,0.00018864,-0.00004205,0.00002
 106,0.00003388,0.00003609,0.00000608,0.00002223,-0.00001392,-0.0000030
 5,0.00000272,0.00000539,0.00220224,0.00301033,-0.00006836,0.01492607,0
 .05918724,-0.06506710,0.00000182,0.00000190,0.00000040,0.00000016,-0.0
 0000048,0.00000032,0.00000033,-0.00000066,0.00000014,-0.00000011,0.000
 00077,-0.00000005,-0.00000019,0.00000058,-0.00000040,0.00000090,-0.000
 00074,0.00000026,0.00000088,-0.00000035,0.00000055,-0.00000156,0.00000
 025,-0.00000121,-0.00000216,0.00000064,-0.00000011,0.00001083,-0.00000
 598,0.00000447,-0.00000102,0.00000316,-0.00000264,0.00000736,-0.000001
 71,-0.00000071,-0.00001127,0.00000825,0.00000273,0.00002193,-0.0000202
 5,0.00000399,0.00002566,0.00003838,-0.00002119,-0.00001876,-0.00004522
 ,0.00001432,0.00020603,-0.00051552,0.00033683,0.00016366,0.00004101,0.
 00029271,-0.00008348,0.00000239,0.00020033,-0.00001794,-0.00004087,0.0
 0000023,0.00000591,0.00003604,-0.00004218,0.00000133,0.00000240,0.0000
 1977,-0.00000892,-0.00000663,-0.00000047,-0.00000091,0.00000337,-0.000
 00269,-0.00000054,-0.00000043,0.00000016,-0.00000219,-0.00000402,0.000
 00086,-0.01905301,-0.06581492,0.06342869,0.00000384,-0.00001353,0.0000
 0782,-0.00001973,0.00002004,-0.00001452,0.00001913,-0.00003845,0.00003
 329,-0.00009526,0.00003987,-0.00004976,0.00031568,-0.00000924,0.000253
 20,-0.00004819,0.00001181,-0.00003971,-0.00050904,-0.00053204,0.000180
 99,-0.00017527,-0.00040328,-0.00004764,0.00004486,0.00030698,-0.000063
 80,0.00295552,0.00638199,-0.00035783,-0.00046163,-0.00072380,0.0008206
 1,0.00012635,-0.00010732,-0.00050015,-0.00000899,-0.00012648,0.0000540
 5,0.00000360,-0.00001946,-0.00002946,-0.03139713,0.02016765,0.02789162
 ,-0.06736097,0.03925030,0.04626614,-0.00000800,-0.00000715,-0.00000201
 ,-0.00000106,0.00000216,-0.00000299,0.00000076,0.00000162,-0.00000086,
 0.00000279,-0.00000652,-0.00000040,0.00000045,-0.00000104,0.00000010,0
 .00000225,0.00000113,-0.00000235,-0.00000486,0.00000125,-0.00000714,0.
 00000726,-0.00001093,0.00000258,0.00000833,0.00000278,-0.00000496,-0.0
 0004669,0.00002627,-0.00006283,0.00001104,-0.00000591,-0.00000155,-0.0
 0003550,0.00000302,-0.00000106,0.00003706,-0.00002883,0.00000641,-0.00
 005828,-0.00010991,0.00006565,-0.00004201,-0.00025433,-0.00031125,-0.0
 0002203,-0.00010696,0.00007295,-0.00025648,-0.00080038,0.00027810,-0.0
 0052323,-0.00036805,-0.00108868,0.00027867,0.00018945,-0.00019504,0.00
 001411,0.00021367,-0.00000789,0.00000411,-0.00006782,0.00006607,0.0000
 1811,-0.00001191,-0.00004641,0.00001146,0.00001114,0.00000743,0.000001
 59,-0.00000163,0.00000130,0.00000094,-0.00000669,0.00000427,0.00000205
 ,0.00001419,-0.00000698,0.00390637,-0.00345973,-0.00561613,0.08711757,
 -0.00000283,0.00000754,-0.00000545,0.00000780,-0.00001179,0.00000872,-
 0.00001164,0.00001485,-0.00001847,0.00003049,-0.00001165,0.00002295,-0
 .00015739,-0.00000981,-0.00010793,0.00002217,-0.00000573,0.00001664,0.
 00019602,0.00008661,-0.00000219,0.00002521,-0.00004438,0.00000069,-0.0
 0000185,-0.00008650,0.00010783,-0.00066657,-0.00055851,0.00219550,0.00
 008248,0.00088820,-0.00056709,0.00013840,0.00006371,0.00012356,-0.0000
 2962,0.00008064,-0.00007915,0.00000125,0.00000551,0.00004352,0.0049691
 7,0.00571765,0.00052874,0.04280961,-0.14875126,-0.10907315,0.00000531,
 0.00000519,0.00000110,0.00000054,-0.00000154,0.00000226,0.00000030,-0.
 00000136,0.00000053,-0.00000106,0.00000259,-0.00000022,0.00000026,0.00
 000071,-0.00000031,0.00000082,-0.00000054,0.00000108,0.00000153,-0.000
 00020,0.00000333,-0.00000398,0.00000023,-0.00000082,-0.00000067,-0.000
 00086,0.00000022,0.00001137,-0.00000291,0.00002887,-0.00000585,-0.0000
 0028,-0.00000020,0.00002017,-0.00000010,0.00000219,-0.00001842,0.00001
 534,-0.00000575,0.00001923,0.00001561,-0.00003540,-0.00000505,0.000046
 75,0.00004965,-0.00000189,0.00004493,-0.00003774,-0.00013291,0.0003068
 5,0.00007881,-0.00042351,-0.00018557,-0.00015149,0.00002861,0.00008667
 ,0.00026951,0.00002397,-0.00003053,0.00003089,-0.00001022,-0.00000451,
 -0.00000523,-0.00001395,0.00000225,0.00003078,-0.00000430,0.00000110,-
 0.00000033,-0.00000404,0.00000134,-0.00000689,-0.00000016,0.00002464,0
 .00000498,-0.00000289,-0.00000919,0.00000294,0.00768107,-0.01763656,-0
 .02288084,-0.05208205,0.15442888,-0.00000134,0.00000679,-0.00000350,0.
 00001187,-0.00001162,0.00000434,-0.00000876,0.00001904,-0.00001533,0.0
 0004997,-0.00002550,0.00001751,-0.00013594,-0.00000377,-0.00013410,0.0
 0002179,-0.00000642,0.00002101,0.00026912,0.00024258,0.00000408,-0.000
 11912,0.00023580,0.00008386,-0.00013674,-0.00012060,-0.00006238,-0.000
 86747,-0.00322660,0.00085858,-0.00037497,0.00094405,-0.00018232,0.0004
 3250,0.00014303,0.00012914,-0.00003934,0.00010520,-0.00003377,0.000014
 85,0.00001635,0.00002051,0.00965064,0.00197649,0.00370489,0.04824700,-
 0.10903463,-0.17742352,0.00000394,0.00000314,0.00000058,0.00000111,-0.
 00000152,0.00000191,-0.00000210,0.,0.00000079,-0.00000304,0.00000608,0
 .00000081,-0.00000061,0.00000018,0.00000110,-0.00000608,0.00000053,0.0
 0000163,0.00000409,-0.00000170,0.00000479,-0.00000568,0.00001567,-0.00
 000056,-0.00000645,-0.00000177,0.00000629,0.00002318,-0.00001177,0.000
 04314,-0.00001160,-0.00000009,0.00000642,0.00001575,0.00000066,0.00000
 434,-0.00001530,0.00001662,-0.00000816,0.00006491,0.00003925,0.0000083
 9,-0.00005948,0.00012020,0.00008566,0.00003203,-0.00003822,0.00004478,
 -0.00028954,0.00020421,-0.00052404,-0.00011727,-0.00027457,0.00019510,
 -0.00012053,-0.00004189,0.00020969,-0.00006461,-0.00002720,-0.00000041
 ,-0.00007908,0.00014126,-0.00010250,0.00000721,-0.00000263,0.00004359,
 -0.00002797,-0.00002273,-0.00002631,-0.00000937,0.00001489,-0.00000397
 ,-0.00000690,-0.00000050,-0.00000460,-0.00000974,-0.00001275,0.0000088
 9,-0.00313442,0.00541792,0.00615321,-0.05961588,0.12225964,0.18757394,
 0.00000316,-0.00000721,0.00000446,-0.00000606,0.00001183,-0.00000968,0
 .00001293,-0.00001317,0.00001231,-0.00002021,0.00001260,-0.00001719,0.
 00017939,0.00003172,0.00003622,-0.00001487,0.00000754,-0.00001172,-0.0
 0017267,-0.00017770,0.00030959,0.00019657,-0.00022614,0.00039150,-0.00
 012586,-0.00006783,-0.00028910,0.00233179,0.00832481,-0.00438557,0.000
 13852,-0.00086942,0.00066498,-0.00013619,-0.00002644,-0.00034674,0.000
 04670,-0.00010202,0.00010237,-0.00001484,-0.00000827,-0.00006007,-0.03
 821932,0.00559368,-0.02815902,-0.08258918,0.02105744,-0.07804342,-0.00
 000539,-0.00000610,-0.00000117,0.00000028,0.00000150,-0.00000074,-0.00
 000134,0.00000209,-0.00000038,0.00000005,-0.00000087,-0.00000039,-0.00
 000110,-0.00000205,0.00000287,-0.00000405,0.00000145,-0.00000065,0.000
 00066,0.00000020,0.00000177,0.00000289,0.00000541,-0.00000105,-0.00000
 354,-0.00000357,0.00000703,-0.00000240,0.00001336,-0.00000095,-0.00000
 607,-0.00000779,0.00001510,-0.00001731,0.00000572,0.00000285,0.0000216
 0,-0.00001560,-0.00001175,0.00004864,0.00000898,0.00010566,-0.00005917
 ,0.00003125,-0.00021797,-0.00000143,-0.00013224,0.00018543,0.00087599,
 -0.00154913,0.00140512,0.00003750,0.00012408,-0.00000170,0.00007773,0.
 00008990,0.00008722,-0.00000249,-0.00000116,0.00001285,0.00004597,-0.0
 0005908,0.00002080,0.00000514,0.00000344,-0.00001390,0.00000312,0.0000
 0641,0.00000636,0.00000837,-0.00000317,0.00000522,0.00000308,-0.000032
 98,-0.00000474,-0.00000068,0.00000251,0.00000327,0.00470960,-0.0007111
 0,0.00637365,0.00618047,-0.00249494,0.00641939,0.10647401,-0.00000173,
 0.00000352,-0.00000196,0.00000233,-0.00000537,0.00000526,-0.00000665,0
 .00000604,-0.00000520,0.00001000,-0.00000290,0.00001343,-0.00008494,-0
 .00001590,-0.00004385,0.00001408,-0.00000143,0.00000887,0.00014116,0.0
 0003210,-0.00010472,-0.00019519,0.00001344,0.00011668,0.00004078,0.000
 09957,0.00009262,-0.00212156,0.00170077,-0.00292938,0.00015104,-0.0001
 0287,-0.00011929,-0.00000672,-0.00001026,0.00001539,0.00003483,0.00000
 785,-0.00003469,-0.00000486,-0.00000031,0.00001580,0.00231264,0.001633
 68,0.00089118,0.02355284,-0.06761675,0.05387751,0.00000258,0.00000307,
 0.00000055,-0.00000007,-0.00000075,0.00000017,0.00000104,-0.00000126,0
 .00000020,0.00000035,-0.00000020,-0.00000029,0.00000033,0.00000106,-0.
 00000161,0.00000322,-0.00000095,0.00000037,0.00000002,0.00000011,-0.00
 000083,-0.00000126,-0.00000498,-0.00000167,0.00000028,0.00000062,-0.00
 000277,0.00000589,-0.00000600,0.00000759,0.00000264,0.00000522,-0.0000
 0748,0.00000964,-0.00000575,-0.00000270,-0.00000697,0.00000409,0.00000
 665,-0.00001753,-0.00002747,-0.00003620,0.00006283,-0.00006060,0.00006
 259,-0.00001974,0.00005717,-0.00002315,0.00084285,0.00036706,0.0003030
 1,0.00013230,0.00003811,0.00017890,-0.00006783,-0.00005480,0.00019750,
 -0.00000262,-0.00002290,-0.00000406,0.00002355,-0.00003881,-0.00001914
 ,-0.00000477,0.00000386,0.00001687,-0.00000088,0.00000470,0.00001382,-
 0.00000046,-0.00000057,-0.00000497,0.00000105,0.00001019,0.00000422,-0
 .00000060,-0.00000308,-0.00000132,0.01135590,-0.00573287,0.02683181,-0
 .00734185,0.00550599,-0.01906311,-0.02881795,0.06421857,0.00000156,-0.
 00000361,0.00000077,-0.00000261,0.00000730,-0.00000595,0.00000652,-0.0
 0000651,0.00000143,-0.00000987,0.00000690,-0.00001141,0.00005970,-0.00
 000291,0.00000903,-0.00000455,-0.00000254,0.00000024,-0.00027631,-0.00
 007054,0.00012629,0.00088965,-0.00058731,0.00020820,-0.00019735,0.0003
 3863,-0.00011111,0.00114780,0.00074236,0.00098939,0.00005266,0.0001798
 6,-0.00045041,-0.00023180,0.00011046,-0.00005032,0.00007559,-0.0000335
 6,0.00001528,-0.00002912,0.00000474,-0.00001996,-0.00481615,-0.0007423
 0,0.00951024,-0.08183146,0.05445071,-0.24128153,-0.00000313,-0.0000040
 7,-0.00000045,0.00000063,0.00000100,0.00000139,-0.00000060,0.00000135,
 -0.00000024,0.00000011,-0.00000014,-0.00000130,-0.00000142,-0.00000173
 ,0.00000414,-0.00000221,0.00000056,0.00000034,0.00000196,-0.00000006,0
 .00000510,0.00000108,0.00000518,-0.00000443,-0.00000498,-0.00000164,0.
 00000892,0.00000599,0.00000225,0.00001528,-0.00000322,0.00000066,0.000
 00986,-0.00000350,0.00000596,-0.00000076,-0.00000202,0.00000037,-0.000
 00523,0.00000586,-0.00006261,0.00005297,-0.00007706,-0.00011100,-0.000
 05381,0.00005783,-0.00011732,0.00005721,-0.00066167,-0.00126473,0.0003
 3671,-0.00004448,0.00005127,0.00019227,-0.00002072,-0.00001945,0.00010
 707,0.00001418,-0.00007480,0.00003883,0.00009276,-0.00006182,0.0000010
 8,-0.00001904,0.00001100,0.00002409,0.00001288,0.00000968,0.00002434,0
 .00001551,-0.00000970,0.00000009,0.00000576,-0.00001592,-0.00000138,-0
 .00000271,-0.00001054,0.00000708,-0.00166865,0.00036338,-0.00552383,-0
 .00793530,0.00716374,-0.02071351,0.09540188,-0.06025257,0.25648797\\-0
 .00000182,0.00000058,-0.00000136,0.00000391,-0.00000114,0.00000217,-0.
 00000042,0.00000473,-0.00000065,-0.00000085,-0.00000422,-0.00000094,-0
 .00000231,0.00000889,0.00000744,0.00000155,-0.00000939,-0.00000227,0.0
 0001119,0.00000403,0.00000283,0.00000210,-0.00000303,-0.00000395,-0.00
 001017,-0.00001024,-0.00001591,-0.00001025,0.00000069,0.00000432,-0.00
 000072,0.00000534,0.00000677,-0.00000053,-0.00000507,0.00000119,-0.000
 00176,0.00000699,0.00000344,0.00000079,-0.00000220,0.00000159,0.000000
 89,-0.00000285,-0.00000139,-0.00000011,-0.00000007,-0.00000204,0.00000
 100,0.00000045,0.00000029,0.00000071,0.00000025,0.00000020,0.00000032,
 0.00000006,0.00000021,-0.00000042,0.00000062,0.00000031,-0.00000059,0.
 00000015,-0.00000023,0.00000009,0.00000017,0.00000030,0.00000064,-0.00
 000024,0.00000004,0.00000092,0.00000296,-0.00000138,0.00000120,0.00000
 235,0.00000013,-0.00000339,0.00000063,-0.00000402,-0.00000193,0.000001
 12,0.00000104,-0.00000152,0.00000010,-0.00000022,0.00000107,-0.0000010
 6,-0.00000139,0.00000133,-0.00000247,-0.00000026,0.00000090,-0.0000011
 8,0.00000194,0.00000490,0.00000064,0.00000491,0.00000405,-0.00000173,0
 .00000272,0.00000069,-0.00000142,0.00000023,-0.00000099,-0.00000092,-0
 .00000161,0.00000009,0.00000008,-0.00000119,0.00000126,0.00000283,-0.0
 0000229,0.00000017,-0.00000115,-0.00000168,0.00000051,-0.00000019,-0.0
 0000143,0.00000003,0.00000065,-0.00000018,0.00000003,0.00000162,-0.000
 00003,-0.00000009,0.00000097,-0.00000012,-0.00000060,0.00000037,0.0000
 0175,-0.00000124,0.00000229,0.00000067,-0.00000063,-0.00000099,0.00000
 004\\\@


 WE HAVE LEARNED THAT NOTHING IS SIMPLE AND
 RATIONAL EXCEPT WHAT WE OURSELVES HAVE INVENTED;
 THAT GOD THINKS IN TERMS NEITHER OF EUCLID OR RIEMANN; THAT SCIENCE HAS "EXPLAINED" NOTHING;
 THAT THE MORE WE KNOW THE MORE FANTASTIC THE WORLD BECOMES
 AND THE PROFOUNDER THE SURROUNDING DARKNESS.
   --  ALDOUS HUXLEY
 Job cpu time:       0 days 16 hours 31 minutes 57.0 seconds.
 Elapsed time:       0 days  4 hours  8 minutes  2.7 seconds.
 File lengths (MBytes):  RWF=   1091 Int=      0 D2E=      0 Chk=     30 Scr=      1
 Normal termination of Gaussian 16 at Tue May 23 20:08:04 2023.
### All Done ###
