### Starting Gaussian ###
 Entering Gaussian System, Link 0=g16
 Initial command:
 /cluster/software/gaussian/gaussian-16-A.03/avx2/g16/l1.exe "/local/scratch/yxie/Gau-32549.inp" -scrdir="/local/scratch/yxie/"
 Entering Link 1 = /cluster/software/gaussian/gaussian-16-A.03/avx2/g16/l1.exe PID=     32564.
  
 Copyright (c) 1988,1990,1992,1993,1995,1998,2003,2009,2016,
            Gaussian, Inc.  All Rights Reserved.
  
 This is part of the Gaussian(R) 16 program.  It is based on
 the Gaussian(R) 09 system (copyright 2009, Gaussian, Inc.),
 the Gaussian(R) 03 system (copyright 2003, Gaussian, Inc.),
 the Gaussian(R) 98 system (copyright 1998, Gaussian, Inc.),
 the Gaussian(R) 94 system (copyright 1995, Gaussian, Inc.),
 the Gaussian 92(TM) system (copyright 1992, Gaussian, Inc.),
 the Gaussian 90(TM) system (copyright 1990, Gaussian, Inc.),
 the Gaussian 88(TM) system (copyright 1988, Gaussian, Inc.),
 the Gaussian 86(TM) system (copyright 1986, Carnegie Mellon
 University), and the Gaussian 82(TM) system (copyright 1983,
 Carnegie Mellon University). Gaussian is a federally registered
 trademark of Gaussian, Inc.
  
 This software contains proprietary and confidential information,
 including trade secrets, belonging to Gaussian, Inc.
  
 This software is provided under written license and may be
 used, copied, transmitted, or stored only in accord with that
 written license.
  
 The following legend is applicable only to US Government
 contracts under FAR:
  
                    RESTRICTED RIGHTS LEGEND
  
 Use, reproduction and disclosure by the US Government is
 subject to restrictions as set forth in subparagraphs (a)
 and (c) of the Commercial Computer Software - Restricted
 Rights clause in FAR 52.227-19.
  
 Gaussian, Inc.
 340 Quinnipiac St., Bldg. 40, Wallingford CT 06492
  
  
 ---------------------------------------------------------------
 Warning -- This program may not be used in any manner that
 competes with the business of Gaussian, Inc. or will provide
 assistance to any competitor of Gaussian, Inc.  The licensee
 of this program is prohibited from giving any competitor of
 Gaussian, Inc. access to this program.  By using this program,
 the user acknowledges that Gaussian, Inc. is engaged in the
 business of creating and licensing software in the field of
 computational chemistry and represents and warrants to the
 licensee that it is not a competitor of Gaussian, Inc. and that
 it will not use this program in any manner prohibited above.
 ---------------------------------------------------------------
  

 Cite this work as:
 Gaussian 16, Revision A.03,
 M. J. Frisch, G. W. Trucks, H. B. Schlegel, G. E. Scuseria, 
 M. A. Robb, J. R. Cheeseman, G. Scalmani, V. Barone, 
 G. A. Petersson, H. Nakatsuji, X. Li, M. Caricato, A. V. Marenich, 
 J. Bloino, B. G. Janesko, R. Gomperts, B. Mennucci, H. P. Hratchian, 
 J. V. Ortiz, A. F. Izmaylov, J. L. Sonnenberg, D. Williams-Young, 
 F. Ding, F. Lipparini, F. Egidi, J. Goings, B. Peng, A. Petrone, 
 T. Henderson, D. Ranasinghe, V. G. Zakrzewski, J. Gao, N. Rega, 
 G. Zheng, W. Liang, M. Hada, M. Ehara, K. Toyota, R. Fukuda, 
 J. Hasegawa, M. Ishida, T. Nakajima, Y. Honda, O. Kitao, H. Nakai, 
 T. Vreven, K. Throssell, J. A. Montgomery, Jr., J. E. Peralta, 
 F. Ogliaro, M. J. Bearpark, J. J. Heyd, E. N. Brothers, K. N. Kudin, 
 V. N. Staroverov, T. A. Keith, R. Kobayashi, J. Normand, 
 K. Raghavachari, A. P. Rendell, J. C. Burant, S. S. Iyengar, 
 J. Tomasi, M. Cossi, J. M. Millam, M. Klene, C. Adamo, R. Cammi, 
 J. W. Ochterski, R. L. Martin, K. Morokuma, O. Farkas, 
 J. B. Foresman, and D. J. Fox, Gaussian, Inc., Wallingford CT, 2016.
 
 ******************************************
 Gaussian 16:  ES64L-G16RevA.03 25-Dec-2016
                21-May-2023 
 ******************************************
 %chk=CCCCOCC1CC1CdCCOC.chk
 %NProcShared=20
 Will use up to   20 processors via shared memory.
 -----------------------------
 # opt freq b3lyp/6-31g(2df,p)
 -----------------------------
 1/18=20,19=15,26=3,38=1/1,3;
 2/9=110,12=2,17=6,18=5,40=1/2;
 3/5=1,6=6,7=104,11=2,25=1,30=1,71=1,74=-5/1,2,3;
 4//1;
 5/5=2,38=5/2;
 6/7=2,8=2,9=2,10=2,28=1/1;
 7//1,2,3,16;
 1/18=20,19=15,26=3/3(2);
 2/9=110/2;
 99//99;
 2/9=110/2;
 3/5=1,6=6,7=104,11=2,25=1,30=1,71=1,74=-5/1,2,3;
 4/5=5,16=3,69=1/1;
 5/5=2,38=5/2;
 7//1,2,3,16;
 1/18=20,19=15,26=3/3(-5);
 2/9=110/2;
 6/7=2,8=2,9=2,10=2,19=2,28=1/1;
 99/9=1/99;
 -------------------
 Title Card Required
 -------------------
 Symbolic Z-matrix:
 Charge =  0 Multiplicity = 1
 C                     1.03983   0.05052   0.04859 
 C                     2.55735   0.06854   0.05054 
 C                     3.08147   1.4893    0.24047 
 C                     4.59808   1.51515   0.23621 
 O                     5.0536    2.8666    0.40092 
 C                     6.47401   2.87441   0.37837 
 C                     7.08029   4.2095    0.66783 
 C                     7.66378   4.84079  -0.58429 
 C                     6.7886    5.66702   0.29685 
 C                     7.46657   6.7056    1.10985 
 C                     6.85691   7.55583   1.9635 
 C                     7.57573   8.57848   2.78669 
 O                     6.61352   9.29751   3.56023 
 C                     7.24139   10.28699   4.3678 
 H                     0.67042  -0.96964  -0.08998 
 H                     0.64652   0.67128  -0.76263 
 H                     0.64682   0.43261   0.996 
 H                     2.92701  -0.34538  -0.8954 
 H                     2.92846  -0.58058   0.85286 
 H                     2.71421   1.90916   1.18446 
 H                     2.70585   2.14469  -0.55409 
 H                     4.97546   1.11004  -0.7118 
 H                     4.98194   0.89425   1.05622 
 H                     6.82227   2.48331  -0.587 
 H                     6.84075   2.17808   1.14404 
 H                     7.58254   4.15469   1.62764 
 H                     7.22794   4.58978  -1.55116 
 H                     8.73724   4.95733  -0.6269 
 H                     5.81163   5.94116  -0.08303 
 H                     8.55211   6.76829   1.02824 
 H                     5.77962   7.50322   2.06777 
 H                     8.10443   9.28382   2.13611 
 H                     8.28444   8.09235   3.46688 
 H                     6.47357   10.81264   4.94235 
 H                     7.76676   11.01455   3.74124 
 H                     7.94175   9.82062   5.06774 
 

 GradGradGradGradGradGradGradGradGradGradGradGradGradGradGradGradGradGrad
 Berny optimization.
 Initialization pass.
                           ----------------------------
                           !    Initial Parameters    !
                           ! (Angstroms and Degrees)  !
 --------------------------                            --------------------------
 ! Name  Definition              Value          Derivative Info.                !
 --------------------------------------------------------------------------------
 ! R1    R(1,2)                  1.5176         estimate D2E/DX2                !
 ! R2    R(1,15)                 1.0938         estimate D2E/DX2                !
 ! R3    R(1,16)                 1.0946         estimate D2E/DX2                !
 ! R4    R(1,17)                 1.0945         estimate D2E/DX2                !
 ! R5    R(2,3)                  1.5262         estimate D2E/DX2                !
 ! R6    R(2,18)                 1.0967         estimate D2E/DX2                !
 ! R7    R(2,19)                 1.0967         estimate D2E/DX2                !
 ! R8    R(3,4)                  1.5168         estimate D2E/DX2                !
 ! R9    R(3,20)                 1.0965         estimate D2E/DX2                !
 ! R10   R(3,21)                 1.0963         estimate D2E/DX2                !
 ! R11   R(4,5)                  1.4356         estimate D2E/DX2                !
 ! R12   R(4,22)                 1.0978         estimate D2E/DX2                !
 ! R13   R(4,23)                 1.0979         estimate D2E/DX2                !
 ! R14   R(5,6)                  1.4206         estimate D2E/DX2                !
 ! R15   R(6,7)                  1.4946         estimate D2E/DX2                !
 ! R16   R(6,24)                 1.0983         estimate D2E/DX2                !
 ! R17   R(6,25)                 1.098          estimate D2E/DX2                !
 ! R18   R(7,8)                  1.5188         estimate D2E/DX2                !
 ! R19   R(7,9)                  1.532          estimate D2E/DX2                !
 ! R20   R(7,26)                 1.0847         estimate D2E/DX2                !
 ! R21   R(8,9)                  1.4916         estimate D2E/DX2                !
 ! R22   R(8,27)                 1.0899         estimate D2E/DX2                !
 ! R23   R(8,28)                 1.0806         estimate D2E/DX2                !
 ! R24   R(9,10)                 1.483          estimate D2E/DX2                !
 ! R25   R(9,29)                 1.0835         estimate D2E/DX2                !
 ! R26   R(10,11)                1.3503         estimate D2E/DX2                !
 ! R27   R(10,30)                1.0904         estimate D2E/DX2                !
 ! R28   R(11,12)                1.4967         estimate D2E/DX2                !
 ! R29   R(11,31)                1.0836         estimate D2E/DX2                !
 ! R30   R(12,13)                1.4287         estimate D2E/DX2                !
 ! R31   R(12,32)                1.0956         estimate D2E/DX2                !
 ! R32   R(12,33)                1.096          estimate D2E/DX2                !
 ! R33   R(13,14)                1.4232         estimate D2E/DX2                !
 ! R34   R(14,34)                1.0936         estimate D2E/DX2                !
 ! R35   R(14,35)                1.0945         estimate D2E/DX2                !
 ! R36   R(14,36)                1.0945         estimate D2E/DX2                !
 ! A1    A(2,1,15)             110.4228         estimate D2E/DX2                !
 ! A2    A(2,1,16)             110.7026         estimate D2E/DX2                !
 ! A3    A(2,1,17)             110.7186         estimate D2E/DX2                !
 ! A4    A(15,1,16)            108.282          estimate D2E/DX2                !
 ! A5    A(15,1,17)            108.2989         estimate D2E/DX2                !
 ! A6    A(16,1,17)            108.3308         estimate D2E/DX2                !
 ! A7    A(1,2,3)              110.7689         estimate D2E/DX2                !
 ! A8    A(1,2,18)             109.3567         estimate D2E/DX2                !
 ! A9    A(1,2,19)             109.4066         estimate D2E/DX2                !
 ! A10   A(3,2,18)             110.0553         estimate D2E/DX2                !
 ! A11   A(3,2,19)             110.1045         estimate D2E/DX2                !
 ! A12   A(18,2,19)            107.0706         estimate D2E/DX2                !
 ! A13   A(2,3,4)              111.0311         estimate D2E/DX2                !
 ! A14   A(2,3,20)             110.3999         estimate D2E/DX2                !
 ! A15   A(2,3,21)             110.4046         estimate D2E/DX2                !
 ! A16   A(4,3,20)             109.3164         estimate D2E/DX2                !
 ! A17   A(4,3,21)             109.2894         estimate D2E/DX2                !
 ! A18   A(20,3,21)            106.2772         estimate D2E/DX2                !
 ! A19   A(3,4,5)              109.4491         estimate D2E/DX2                !
 ! A20   A(3,4,22)             109.8667         estimate D2E/DX2                !
 ! A21   A(3,4,23)             109.7464         estimate D2E/DX2                !
 ! A22   A(5,4,22)             109.7168         estimate D2E/DX2                !
 ! A23   A(5,4,23)             109.6187         estimate D2E/DX2                !
 ! A24   A(22,4,23)            108.4272         estimate D2E/DX2                !
 ! A25   A(4,5,6)              108.6995         estimate D2E/DX2                !
 ! A26   A(5,6,7)              114.0433         estimate D2E/DX2                !
 ! A27   A(5,6,24)             109.2112         estimate D2E/DX2                !
 ! A28   A(5,6,25)             108.6268         estimate D2E/DX2                !
 ! A29   A(7,6,24)             111.0822         estimate D2E/DX2                !
 ! A30   A(7,6,25)             107.2147         estimate D2E/DX2                !
 ! A31   A(24,6,25)            106.3318         estimate D2E/DX2                !
 ! A32   A(6,7,8)              111.5593         estimate D2E/DX2                !
 ! A33   A(6,7,9)              136.5278         estimate D2E/DX2                !
 ! A34   A(6,7,26)             108.3048         estimate D2E/DX2                !
 ! A35   A(8,7,26)             124.9334         estimate D2E/DX2                !
 ! A36   A(9,7,26)             110.5188         estimate D2E/DX2                !
 ! A37   A(7,8,27)             118.8167         estimate D2E/DX2                !
 ! A38   A(7,8,28)             117.3205         estimate D2E/DX2                !
 ! A39   A(9,8,27)             114.6449         estimate D2E/DX2                !
 ! A40   A(9,8,28)             123.1201         estimate D2E/DX2                !
 ! A41   A(27,8,28)            112.7751         estimate D2E/DX2                !
 ! A42   A(7,9,10)             116.5181         estimate D2E/DX2                !
 ! A43   A(7,9,29)             119.8212         estimate D2E/DX2                !
 ! A44   A(8,9,10)             116.3292         estimate D2E/DX2                !
 ! A45   A(8,9,29)             117.5214         estimate D2E/DX2                !
 ! A46   A(10,9,29)            115.2924         estimate D2E/DX2                !
 ! A47   A(9,10,11)            125.5308         estimate D2E/DX2                !
 ! A48   A(9,10,30)            117.0235         estimate D2E/DX2                !
 ! A49   A(11,10,30)           117.4259         estimate D2E/DX2                !
 ! A50   A(10,11,12)           124.1313         estimate D2E/DX2                !
 ! A51   A(10,11,31)           118.6289         estimate D2E/DX2                !
 ! A52   A(12,11,31)           117.2399         estimate D2E/DX2                !
 ! A53   A(11,12,13)           108.5541         estimate D2E/DX2                !
 ! A54   A(11,12,32)           110.185          estimate D2E/DX2                !
 ! A55   A(11,12,33)           110.4154         estimate D2E/DX2                !
 ! A56   A(13,12,32)           108.8147         estimate D2E/DX2                !
 ! A57   A(13,12,33)           108.8264         estimate D2E/DX2                !
 ! A58   A(32,12,33)           110.0012         estimate D2E/DX2                !
 ! A59   A(12,13,14)           111.1006         estimate D2E/DX2                !
 ! A60   A(13,14,34)           108.8173         estimate D2E/DX2                !
 ! A61   A(13,14,35)           110.432          estimate D2E/DX2                !
 ! A62   A(13,14,36)           110.422          estimate D2E/DX2                !
 ! A63   A(34,14,35)           108.5576         estimate D2E/DX2                !
 ! A64   A(34,14,36)           108.5481         estimate D2E/DX2                !
 ! A65   A(35,14,36)           110.0103         estimate D2E/DX2                !
 ! D1    D(15,1,2,3)           179.8786         estimate D2E/DX2                !
 ! D2    D(15,1,2,18)           58.4146         estimate D2E/DX2                !
 ! D3    D(15,1,2,19)          -58.5628         estimate D2E/DX2                !
 ! D4    D(16,1,2,3)            59.9739         estimate D2E/DX2                !
 ! D5    D(16,1,2,18)          -61.4901         estimate D2E/DX2                !
 ! D6    D(16,1,2,19)         -178.4676         estimate D2E/DX2                !
 ! D7    D(17,1,2,3)           -60.1852         estimate D2E/DX2                !
 ! D8    D(17,1,2,18)          178.3508         estimate D2E/DX2                !
 ! D9    D(17,1,2,19)           61.3734         estimate D2E/DX2                !
 ! D10   D(1,2,3,4)           -179.7089         estimate D2E/DX2                !
 ! D11   D(1,2,3,20)            58.8853         estimate D2E/DX2                !
 ! D12   D(1,2,3,21)           -58.3341         estimate D2E/DX2                !
 ! D13   D(18,2,3,4)           -58.657          estimate D2E/DX2                !
 ! D14   D(18,2,3,20)          179.9372         estimate D2E/DX2                !
 ! D15   D(18,2,3,21)           62.7177         estimate D2E/DX2                !
 ! D16   D(19,2,3,4)            59.144          estimate D2E/DX2                !
 ! D17   D(19,2,3,20)          -62.2618         estimate D2E/DX2                !
 ! D18   D(19,2,3,21)         -179.4812         estimate D2E/DX2                !
 ! D19   D(2,3,4,5)            179.3216         estimate D2E/DX2                !
 ! D20   D(2,3,4,22)            58.7894         estimate D2E/DX2                !
 ! D21   D(2,3,4,23)           -60.3416         estimate D2E/DX2                !
 ! D22   D(20,3,4,5)           -58.6395         estimate D2E/DX2                !
 ! D23   D(20,3,4,22)         -179.1717         estimate D2E/DX2                !
 ! D24   D(20,3,4,23)           61.6973         estimate D2E/DX2                !
 ! D25   D(21,3,4,5)            57.2951         estimate D2E/DX2                !
 ! D26   D(21,3,4,22)          -63.2371         estimate D2E/DX2                !
 ! D27   D(21,3,4,23)          177.6319         estimate D2E/DX2                !
 ! D28   D(3,4,5,6)           -179.3013         estimate D2E/DX2                !
 ! D29   D(22,4,5,6)           -58.6778         estimate D2E/DX2                !
 ! D30   D(23,4,5,6)            60.284          estimate D2E/DX2                !
 ! D31   D(4,5,6,7)           -174.6072         estimate D2E/DX2                !
 ! D32   D(4,5,6,24)            60.4633         estimate D2E/DX2                !
 ! D33   D(4,5,6,25)           -55.1116         estimate D2E/DX2                !
 ! D34   D(5,6,7,8)           -107.1025         estimate D2E/DX2                !
 ! D35   D(5,6,7,9)            -40.6126         estimate D2E/DX2                !
 ! D36   D(5,6,7,26)           111.7082         estimate D2E/DX2                !
 ! D37   D(24,6,7,8)            16.8254         estimate D2E/DX2                !
 ! D38   D(24,6,7,9)            83.3153         estimate D2E/DX2                !
 ! D39   D(24,6,7,26)         -124.3639         estimate D2E/DX2                !
 ! D40   D(25,6,7,8)           132.6075         estimate D2E/DX2                !
 ! D41   D(25,6,7,9)          -160.9026         estimate D2E/DX2                !
 ! D42   D(25,6,7,26)           -8.5818         estimate D2E/DX2                !
 ! D43   D(6,7,8,27)            28.3864         estimate D2E/DX2                !
 ! D44   D(6,7,8,28)          -113.0114         estimate D2E/DX2                !
 ! D45   D(26,7,8,27)          161.8498         estimate D2E/DX2                !
 ! D46   D(26,7,8,28)           20.452          estimate D2E/DX2                !
 ! D47   D(6,7,9,10)           164.4869         estimate D2E/DX2                !
 ! D48   D(6,7,9,29)            17.7294         estimate D2E/DX2                !
 ! D49   D(26,7,9,10)           12.5789         estimate D2E/DX2                !
 ! D50   D(26,7,9,29)         -134.1785         estimate D2E/DX2                !
 ! D51   D(27,8,9,10)         -142.4119         estimate D2E/DX2                !
 ! D52   D(27,8,9,29)            0.2775         estimate D2E/DX2                !
 ! D53   D(28,8,9,10)            1.4738         estimate D2E/DX2                !
 ! D54   D(28,8,9,29)          144.1633         estimate D2E/DX2                !
 ! D55   D(7,9,10,11)         -111.9721         estimate D2E/DX2                !
 ! D56   D(7,9,10,30)           66.3632         estimate D2E/DX2                !
 ! D57   D(8,9,10,11)          179.8115         estimate D2E/DX2                !
 ! D58   D(8,9,10,30)           -1.8533         estimate D2E/DX2                !
 ! D59   D(29,9,10,11)          36.291          estimate D2E/DX2                !
 ! D60   D(29,9,10,30)        -145.3737         estimate D2E/DX2                !
 ! D61   D(9,10,11,12)         178.938          estimate D2E/DX2                !
 ! D62   D(9,10,11,31)          -1.0275         estimate D2E/DX2                !
 ! D63   D(30,10,11,12)          0.6087         estimate D2E/DX2                !
 ! D64   D(30,10,11,31)       -179.3567         estimate D2E/DX2                !
 ! D65   D(10,11,12,13)        179.6567         estimate D2E/DX2                !
 ! D66   D(10,11,12,32)         60.5889         estimate D2E/DX2                !
 ! D67   D(10,11,12,33)        -61.1251         estimate D2E/DX2                !
 ! D68   D(31,11,12,13)         -0.3774         estimate D2E/DX2                !
 ! D69   D(31,11,12,32)       -119.4452         estimate D2E/DX2                !
 ! D70   D(31,11,12,33)        118.8408         estimate D2E/DX2                !
 ! D71   D(11,12,13,14)        179.9327         estimate D2E/DX2                !
 ! D72   D(32,12,13,14)        -60.1416         estimate D2E/DX2                !
 ! D73   D(33,12,13,14)         59.722          estimate D2E/DX2                !
 ! D74   D(12,13,14,34)       -179.9765         estimate D2E/DX2                !
 ! D75   D(12,13,14,35)         60.9621         estimate D2E/DX2                !
 ! D76   D(12,13,14,36)        -60.9326         estimate D2E/DX2                !
 --------------------------------------------------------------------------------
 Trust Radius=3.00D-01 FncErr=1.00D-07 GrdErr=1.00D-06 EigMax=2.50D+02 EigMin=1.00D-04
 Number of steps in this run=    187 maximum allowed number of steps=    216.
 GradGradGradGradGradGradGradGradGradGradGradGradGradGradGradGradGradGrad

                          Input orientation:                          
 ---------------------------------------------------------------------
 Center     Atomic      Atomic             Coordinates (Angstroms)
 Number     Number       Type             X           Y           Z
 ---------------------------------------------------------------------
      1          6           0        1.039830    0.050520    0.048590
      2          6           0        2.557350    0.068540    0.050540
      3          6           0        3.081470    1.489300    0.240470
      4          6           0        4.598080    1.515150    0.236210
      5          8           0        5.053600    2.866600    0.400920
      6          6           0        6.474010    2.874410    0.378370
      7          6           0        7.080290    4.209500    0.667830
      8          6           0        7.663780    4.840790   -0.584290
      9          6           0        6.788600    5.667020    0.296850
     10          6           0        7.466570    6.705600    1.109850
     11          6           0        6.856910    7.555830    1.963500
     12          6           0        7.575730    8.578480    2.786690
     13          8           0        6.613520    9.297510    3.560230
     14          6           0        7.241390   10.286990    4.367800
     15          1           0        0.670420   -0.969640   -0.089980
     16          1           0        0.646520    0.671280   -0.762630
     17          1           0        0.646820    0.432610    0.996000
     18          1           0        2.927010   -0.345380   -0.895400
     19          1           0        2.928460   -0.580580    0.852860
     20          1           0        2.714210    1.909160    1.184460
     21          1           0        2.705850    2.144690   -0.554090
     22          1           0        4.975460    1.110040   -0.711800
     23          1           0        4.981940    0.894250    1.056220
     24          1           0        6.822270    2.483310   -0.587000
     25          1           0        6.840750    2.178080    1.144040
     26          1           0        7.582540    4.154690    1.627640
     27          1           0        7.227940    4.589780   -1.551160
     28          1           0        8.737240    4.957330   -0.626900
     29          1           0        5.811630    5.941160   -0.083030
     30          1           0        8.552110    6.768290    1.028240
     31          1           0        5.779620    7.503220    2.067770
     32          1           0        8.104430    9.283820    2.136110
     33          1           0        8.284440    8.092350    3.466880
     34          1           0        6.473570   10.812640    4.942350
     35          1           0        7.766760   11.014550    3.741240
     36          1           0        7.941750    9.820620    5.067740
 ---------------------------------------------------------------------
                    Distance matrix (angstroms):
                    1          2          3          4          5
     1  C    0.000000
     2  C    1.517628   0.000000
     3  C    2.505035   1.526216   0.000000
     4  C    3.852465   2.508333   1.516836   0.000000
     5  O    4.915770   3.766055   2.410808   1.435634   0.000000
     6  C    6.132978   4.829141   3.666998   2.320972   1.420610
     7  C    7.359873   6.163245   4.855171   3.688792   2.445832
     8  C    8.199021   7.018049   5.736748   4.596914   3.417763
     9  C    8.040837   7.021903   5.585637   4.694686   3.295968
    10  C    9.312322   8.323049   6.869841   5.994352   4.589436
    11  C    9.686846   8.843367   7.350209   6.676500   5.261412
    12  C   11.087889  10.251328   8.771436   8.078489   6.684206
    13  O   11.353610  10.674471   9.190448   8.699209   7.332884
    14  C   12.724002  12.041415  10.570673  10.049990   8.693949
    15  H    1.093797   2.158256   3.459587   4.659087   5.845510
    16  H    1.094584   2.162363   2.757598   4.162286   5.059213
    17  H    1.094548   2.162537   2.759518   4.166729   5.069333
    18  H    2.146929   1.096714   2.163356   2.744920   4.064437
    19  H    2.147571   1.096721   2.163986   2.749540   4.074742
    20  H    2.747415   2.167547   1.096485   2.145551   2.646388
    21  H    2.743063   2.167494   1.096336   2.145094   2.635361
    22  H    4.146078   2.741011   2.153568   1.097840   2.080806
    23  H    4.155410   2.751695   2.152050   1.097853   2.079596
    24  H    6.305478   4.942379   3.958074   2.561646   2.061817
    25  H    6.275125   4.898308   3.927218   2.508625   2.054311
    26  H    7.883189   6.666063   5.411855   4.220219   3.091853
    27  H    7.839438   6.694883   5.478698   4.423144   3.392303
    28  H    9.153316   7.908871   6.690837   5.452175   4.358528
    29  H    7.582021   6.715344   5.232350   4.600455   3.203394
    30  H   10.125339   9.043213   7.643050   6.622473   5.277906
    31  H    9.060101   8.350252   6.840049   6.372412   4.980335
    32  H   11.811864  10.956326   9.464572   8.732488   7.314312
    33  H   11.350776  10.433239   9.004493   8.202807   6.866360
    34  H   13.011443  12.437937  10.979011  10.588132   9.261774
    35  H   13.382720  12.671794  11.177554  10.609636   9.214557
    36  H   12.972402  12.217493  10.785905  10.173723   8.858838
                    6          7          8          9         10
     6  C    0.000000
     7  C    1.494600   0.000000
     8  C    2.491770   1.518813   0.000000
     9  C    2.811456   1.532016   1.491645   0.000000
    10  C    4.024706   2.564198   2.527156   1.482990   0.000000
    11  C    4.957312   3.595356   3.809687   2.519919   1.350294
    12  C    6.288896   4.880883   5.034043   3.910943   2.516225
    13  O    7.169373   5.871260   6.175957   4.884748   3.667432
    14  C    8.452855   7.116995   7.373107   6.174283   4.846782
    15  H    6.976943   8.275518   9.105631   9.034767  10.321655
    16  H    6.333664   7.480549   8.164469   7.987807   9.296896
    17  H    6.348228   7.467404   8.436059   8.099958   9.266734
    18  H    4.956889   6.359273   7.030657   7.244466   8.622352
    19  H    4.973230   6.341671   7.340293   7.364939   8.587718
    20  H    3.964541   4.961968   6.018403   5.613378   6.752505
    21  H    3.949810   4.989214   5.643663   5.458915   6.799636
    22  H    2.558735   3.992536   4.600198   5.007087   6.390174
    23  H    2.570367   3.942690   5.045663   5.159457   6.320447
    24  H    1.098264   2.149629   2.503170   3.304290   4.595885
    25  H    1.098009   2.100196   3.279410   3.590704   4.570695
    26  H    2.104431   1.084663   2.317319   2.165291   2.605513
    27  H    2.689608   2.256176   1.089862   2.183714   3.408022
    28  H    3.235944   2.231829   1.080608   2.270280   2.772607
    29  H    3.171213   2.274189   2.211908   1.083481   2.178568
    30  H    4.461293   2.973812   2.665453   2.204018   1.090407
    31  H    4.976156   3.807908   4.203810   2.743324   2.097524
    32  H    6.843132   5.380839   5.228314   4.265622   2.847331
    33  H    6.327989   4.935705   5.231619   4.262494   2.854396
    34  H    9.156714   7.889302   8.223341   6.939547   5.704549
    35  H    8.901796   7.498386   7.538974   6.435581   5.057804
    36  H    8.508483   7.182339   7.537998   6.429894   5.059055
                   11         12         13         14         15
    11  C    0.000000
    12  C    1.496715   0.000000
    13  O    2.375339   1.428711   0.000000
    14  C    3.658923   2.351744   1.423187   0.000000
    15  H   10.731872  12.129515  12.412044  13.775383   0.000000
    16  H    9.664252  11.096641  11.344781  12.738740   1.773597
    17  H    9.499555  10.843042  10.989233  12.327457   1.773757
    18  H    9.276128  10.714647  11.244035  12.623884   2.476005
    19  H    9.103154  10.451086  10.885136  12.209023   2.477713
    20  H    7.046542   8.407220   8.685426  10.040769   3.753500
    21  H    7.269800   8.733281   9.130189  10.540075   3.749323
    22  H    7.228091   8.647452   9.379134  10.730945   4.821317
    23  H    6.979636   8.292748   8.918907  10.212504   4.834983
    24  H    5.677738   7.007181   7.979750   9.253277   7.072139
    25  H    5.439850   6.648580   7.521695   8.735420   7.035902
    26  H    3.493865   4.573113   5.578754   6.725323   8.774188
    27  H    4.613887   5.903188   6.976141   8.215380   8.720279
    28  H    4.122865   5.110228   6.393701   7.455862  10.024512
    29  H    2.808568   4.278177   5.018113   6.382816   8.613434
    30  H    2.090128   2.705966   4.070142   5.025127  11.101667
    31  H    1.083602   2.213378   2.478367   3.895675  10.126656
    32  H    2.138235   1.095574   2.061824   2.594538  12.858982
    33  H    2.141459   1.096016   2.062304   2.591535  12.358973
    34  H    4.430272   3.294404   2.055593   1.093601  14.064957
    35  H    3.993862   2.623375   2.076284   1.094502  14.444968
    36  H    3.992801   2.622989   2.076156   1.094496  13.996572
                   16         17         18         19         20
    16  H    0.000000
    17  H    1.774752   0.000000
    18  H    2.500372   3.062993   0.000000
    19  H    3.063366   2.500585   1.764011   0.000000
    20  H    3.098201   2.547512   3.074744   2.520846   0.000000
    21  H    2.540722   3.094124   2.523064   3.075087   1.754452
    22  H    4.351415   4.702405   2.519544   3.081650   3.057392
    23  H    4.706782   4.360046   3.093257   2.536387   2.487788
    24  H    6.438493   6.696823   4.823862   5.159687   4.510419
    25  H    6.653895   6.436874   5.083751   4.795936   4.135491
    26  H    8.121324   7.896649   6.949124   6.684574   5.379540
    27  H    7.700098   8.190313   6.579044   7.141251   5.919721
    28  H    9.156877   9.410727   7.870807   8.160886   6.989224
    29  H    7.410253   7.627823   6.964306   7.191777   5.239997
    30  H   10.142933  10.130918   9.270730   9.255382   7.597146
    31  H    9.001960   8.802718   8.861054   8.657537   6.439758
    32  H   11.755805  11.630121  11.345361  11.213554   9.183993
    33  H   11.458571  11.095499  10.905358  10.523276   8.629527
    34  H   13.013397  12.540722  13.082768  12.613374  10.369498
    35  H   13.340386  13.046354  13.189754  12.891816  10.722570
    36  H   13.073791  12.567012  12.808365  12.291593  10.246865
                   21         22         23         24         25
    21  H    0.000000
    22  H    2.499300   0.000000
    23  H    3.055697   1.781152   0.000000
    24  H    4.130455   2.304811   2.934638   0.000000
    25  H    4.470141   2.839746   2.260776   1.757841   0.000000
    26  H    5.708078   4.641092   4.209526   2.876830   2.165897
    27  H    5.236594   4.229277   5.049741   2.351890   3.637350
    28  H    6.655367   5.381434   5.783061   3.128814   3.802254
    29  H    4.927571   4.943101   5.239998   3.637596   4.089689
    30  H    7.619724   6.916354   6.873954   4.895140   4.900224
    31  H    6.710891   7.017509   6.733351   5.773597   5.507848
    32  H    9.346070   9.203897   9.016706   7.436814   7.285096
    33  H    9.091948   8.784268   8.278311   7.073416   6.516012
    34  H   10.933431  11.329351  10.756460  10.003651   9.440212
    35  H   11.078677  11.212504  10.834437   9.612896   9.256681
    36  H   10.859996  10.866286  10.224131   9.330886   8.661180
                   26         27         28         29         30
    26  H    0.000000
    27  H    3.227974   0.000000
    28  H    2.657163   1.807577   0.000000
    29  H    3.042037   2.446951   3.134152   0.000000
    30  H    2.851360   3.626656   2.460353   3.070716   0.000000
    31  H    3.828432   4.866458   4.742396   2.658382   3.050811
    32  H    5.180626   6.033093   5.172348   4.621135   2.784903
    33  H    4.402344   6.210066   5.176139   4.831591   2.787785
    34  H    7.519669   9.025449   8.391984   7.030215   5.999779
    35  H    7.180454   8.341313   7.530763   6.647320   5.099791
    36  H    6.638229   8.466466   7.530825   6.791027   5.099688
                   31         32         33         34         35
    31  H    0.000000
    32  H    2.929155   0.000000
    33  H    2.928943   1.795259   0.000000
    34  H    4.438134   3.587754   3.585560   0.000000
    35  H    4.367913   2.384510   2.980355   1.776450   0.000000
    36  H    4.364054   2.984807   2.380568   1.776339   1.793235
                   36
    36  H    0.000000
 Stoichiometry    C12H22O2
 Framework group  C1[X(C12H22O2)]
 Deg. of freedom   102
 Full point group                 C1      NOp   1
 Largest Abelian subgroup         C1      NOp   1
 Largest concise Abelian subgroup C1      NOp   1
                         Standard orientation:                         
 ---------------------------------------------------------------------
 Center     Atomic      Atomic             Coordinates (Angstroms)
 Number     Number       Type             X           Y           Z
 ---------------------------------------------------------------------
      1          6           0        6.290479   -2.027627   -0.415172
      2          6           0        5.587814   -0.830567    0.198430
      3          6           0        4.102263   -0.837091   -0.151471
      4          6           0        3.395346    0.361052    0.453107
      5          8           0        2.006616    0.329835    0.090480
      6          6           0        1.363944    1.466159    0.650725
      7          6           0       -0.117404    1.487006    0.453236
      8          6           0       -0.528276    2.522271   -0.579335
      9          6           0       -1.093242    1.145234   -0.677253
     10          6           0       -2.518419    0.990459   -0.297548
     11          6           0       -3.215300   -0.165896   -0.319768
     12          6           0       -4.648734   -0.290592    0.092393
     13          8           0       -5.051648   -1.651686   -0.069783
     14          6           0       -6.411351   -1.832220    0.309788
     15          1           0        7.354694   -2.016206   -0.162770
     16          1           0        6.196050   -2.014691   -1.505599
     17          1           0        5.859113   -2.962352   -0.043356
     18          1           0        6.055969    0.091851   -0.165927
     19          1           0        5.718769   -0.849765    1.287135
     20          1           0        3.628640   -1.757810    0.209414
     21          1           0        3.965729   -0.827266   -1.239227
     22          1           0        3.853257    1.288818    0.085930
     23          1           0        3.491487    0.335660    1.546448
     24          1           0        1.828599    2.377642    0.251377
     25          1           0        1.547616    1.474775    1.733229
     26          1           0       -0.591797    1.350885    1.419112
     27          1           0        0.174426    2.782532   -1.370709
     28          1           0       -1.098857    3.371158   -0.230707
     29          1           0       -0.764703    0.526915   -1.504100
     30          1           0       -3.037449    1.882993    0.053132
     31          1           0       -2.715366   -1.067013   -0.654802
     32          1           0       -5.280442    0.342670   -0.540226
     33          1           0       -4.769886   -0.008846    1.144625
     34          1           0       -6.679516   -2.883413    0.171784
     35          1           0       -7.067499   -1.220168   -0.316947
     36          1           0       -6.551306   -1.572688    1.363817
 ---------------------------------------------------------------------
 Rotational constants (GHZ):           1.1807929           0.1593892           0.1442399
 Standard basis: 6-31G(2df,p) (6D, 7F)
 There are   544 symmetry adapted cartesian basis functions of A   symmetry.
 There are   502 symmetry adapted basis functions of A   symmetry.
   502 basis functions,   770 primitive gaussians,   544 cartesian basis functions
    55 alpha electrons       55 beta electrons
       nuclear repulsion energy       841.5923122238 Hartrees.
 NAtoms=   36 NActive=   36 NUniq=   36 SFac= 1.00D+00 NAtFMM=   60 NAOKFM=F Big=F
 Integral buffers will be    131072 words long.
 Raffenetti 2 integral format.
 Two-electron integral symmetry is turned on.
 One-electron integrals computed using PRISM.
 PrsmSu:  requested number of processors reduced to:  12 ShMem   1 Linda.
 NBasis=   502 RedAO= T EigKep=  5.59D-04  NBF=   502
 NBsUse=   502 1.00D-06 EigRej= -1.00D+00 NBFU=   502
 ExpMin= 1.61D-01 ExpMax= 5.48D+03 ExpMxC= 8.25D+02 IAcc=3 IRadAn=         5 AccDes= 0.00D+00
 Harris functional with IExCor=  402 and IRadAn=       5 diagonalized for initial guess.
 HarFok:  IExCor=  402 AccDes= 0.00D+00 IRadAn=         5 IDoV= 1 UseB2=F ITyADJ=14
 ICtDFT=  3500011 ScaDFX=  1.000000  1.000000  1.000000  1.000000
 FoFCou: FMM=F IPFlag=           0 FMFlag=      100000 FMFlg1=           0
         NFxFlg=           0 DoJE=T BraDBF=F KetDBF=T FulRan=T
         wScrn=  0.000000 ICntrl=       500 IOpCl=  0 I1Cent=   200000004 NGrid=           0
         NMat0=    1 NMatS0=      1 NMatT0=    0 NMatD0=    1 NMtDS0=    0 NMtDT0=    0
 Petite list used in FoFCou.
 Requested convergence on RMS density matrix=1.00D-08 within 128 cycles.
 Requested convergence on MAX density matrix=1.00D-06.
 Requested convergence on             energy=1.00D-06.
 No special actions if energy rises.
 Integral accuracy reduced to 1.0D-05 until final iterations.
 Initial convergence to 1.0D-05 achieved.  Increase integral accuracy.
 SCF Done:  E(RB3LYP) =  -620.913038665     A.U. after   13 cycles
            NFock= 13  Conv=0.48D-08     -V/T= 2.0079

 **********************************************************************

            Population analysis using the SCF density.

 **********************************************************************

 Orbital symmetries:
       Occupied  (A) (A) (A) (A) (A) (A) (A) (A) (A) (A) (A) (A)
                 (A) (A) (A) (A) (A) (A) (A) (A) (A) (A) (A) (A)
                 (A) (A) (A) (A) (A) (A) (A) (A) (A) (A) (A) (A)
                 (A) (A) (A) (A) (A) (A) (A) (A) (A) (A) (A) (A)
                 (A) (A) (A) (A) (A) (A) (A)
       Virtual   (A) (A) (A) (A) (A) (A) (A) (A) (A) (A) (A) (A)
                 (A) (A) (A) (A) (A) (A) (A) (A) (A) (A) (A) (A)
                 (A) (A) (A) (A) (A) (A) (A) (A) (A) (A) (A) (A)
                 (A) (A) (A) (A) (A) (A) (A) (A) (A) (A) (A) (A)
                 (A) (A) (A) (A) (A) (A) (A) (A) (A) (A) (A) (A)
                 (A) (A) (A) (A) (A) (A) (A) (A) (A) (A) (A) (A)
                 (A) (A) (A) (A) (A) (A) (A) (A) (A) (A) (A) (A)
                 (A) (A) (A) (A) (A) (A) (A) (A) (A) (A) (A) (A)
                 (A) (A) (A) (A) (A) (A) (A) (A) (A) (A) (A) (A)
                 (A) (A) (A) (A) (A) (A) (A) (A) (A) (A) (A) (A)
                 (A) (A) (A) (A) (A) (A) (A) (A) (A) (A) (A) (A)
                 (A) (A) (A) (A) (A) (A) (A) (A) (A) (A) (A) (A)
                 (A) (A) (A) (A) (A) (A) (A) (A) (A) (A) (A) (A)
                 (A) (A) (A) (A) (A) (A) (A) (A) (A) (A) (A) (A)
                 (A) (A) (A) (A) (A) (A) (A) (A) (A) (A) (A) (A)
                 (A) (A) (A) (A) (A) (A) (A) (A) (A) (A) (A) (A)
                 (A) (A) (A) (A) (A) (A) (A) (A) (A) (A) (A) (A)
                 (A) (A) (A) (A) (A) (A) (A) (A) (A) (A) (A) (A)
                 (A) (A) (A) (A) (A) (A) (A) (A) (A) (A) (A) (A)
                 (A) (A) (A) (A) (A) (A) (A) (A) (A) (A) (A) (A)
                 (A) (A) (A) (A) (A) (A) (A) (A) (A) (A) (A) (A)
                 (A) (A) (A) (A) (A) (A) (A) (A) (A) (A) (A) (A)
                 (A) (A) (A) (A) (A) (A) (A) (A) (A) (A) (A) (A)
                 (A) (A) (A) (A) (A) (A) (A) (A) (A) (A) (A) (A)
                 (A) (A) (A) (A) (A) (A) (A) (A) (A) (A) (A) (A)
                 (A) (A) (A) (A) (A) (A) (A) (A) (A) (A) (A) (A)
                 (A) (A) (A) (A) (A) (A) (A) (A) (A) (A) (A) (A)
                 (A) (A) (A) (A) (A) (A) (A) (A) (A) (A) (A) (A)
                 (A) (A) (A) (A) (A) (A) (A) (A) (A) (A) (A) (A)
                 (A) (A) (A) (A) (A) (A) (A) (A) (A) (A) (A) (A)
                 (A) (A) (A) (A) (A) (A) (A) (A) (A) (A) (A) (A)
                 (A) (A) (A) (A) (A) (A) (A) (A) (A) (A) (A) (A)
                 (A) (A) (A) (A) (A) (A) (A) (A) (A) (A) (A) (A)
                 (A) (A) (A) (A) (A) (A) (A) (A) (A) (A) (A) (A)
                 (A) (A) (A) (A) (A) (A) (A) (A) (A) (A) (A) (A)
                 (A) (A) (A) (A) (A) (A) (A) (A) (A) (A) (A) (A)
                 (A) (A) (A) (A) (A) (A) (A) (A) (A) (A) (A) (A)
                 (A) (A) (A)
 The electronic state is 1-A.
 Alpha  occ. eigenvalues --  -19.13503 -19.12658 -10.22745 -10.22118 -10.21815
 Alpha  occ. eigenvalues --  -10.21616 -10.19518 -10.18399 -10.18019 -10.17948
 Alpha  occ. eigenvalues --  -10.17777 -10.17709 -10.17143 -10.16889  -1.02171
 Alpha  occ. eigenvalues --   -1.01490  -0.86203  -0.79458  -0.78001  -0.72985
 Alpha  occ. eigenvalues --   -0.70617  -0.68029  -0.64197  -0.61284  -0.59030
 Alpha  occ. eigenvalues --   -0.57937  -0.56426  -0.55046  -0.49272  -0.48268
 Alpha  occ. eigenvalues --   -0.47695  -0.47402  -0.46601  -0.45955  -0.45143
 Alpha  occ. eigenvalues --   -0.43839  -0.42295  -0.40607  -0.40544  -0.39205
 Alpha  occ. eigenvalues --   -0.38186  -0.37728  -0.36948  -0.35058  -0.34194
 Alpha  occ. eigenvalues --   -0.33550  -0.32592  -0.32338  -0.31614  -0.31218
 Alpha  occ. eigenvalues --   -0.30489  -0.26759  -0.25594  -0.24175  -0.22576
 Alpha virt. eigenvalues --    0.00946   0.07403   0.08785   0.09292   0.10584
 Alpha virt. eigenvalues --    0.11626   0.12600   0.12813   0.13182   0.14102
 Alpha virt. eigenvalues --    0.14333   0.14612   0.15306   0.15811   0.16525
 Alpha virt. eigenvalues --    0.16839   0.17386   0.18010   0.18460   0.18869
 Alpha virt. eigenvalues --    0.19598   0.20007   0.20385   0.21000   0.21511
 Alpha virt. eigenvalues --    0.22281   0.23450   0.24769   0.25514   0.25663
 Alpha virt. eigenvalues --    0.26918   0.27562   0.28432   0.30842   0.32542
 Alpha virt. eigenvalues --    0.34343   0.35381   0.40704   0.42413   0.45220
 Alpha virt. eigenvalues --    0.46003   0.46488   0.46976   0.48620   0.50595
 Alpha virt. eigenvalues --    0.51319   0.51584   0.51826   0.52124   0.52830
 Alpha virt. eigenvalues --    0.52901   0.53074   0.54179   0.54983   0.56403
 Alpha virt. eigenvalues --    0.58528   0.58843   0.59595   0.60550   0.60789
 Alpha virt. eigenvalues --    0.61419   0.62564   0.63794   0.65561   0.66625
 Alpha virt. eigenvalues --    0.67294   0.68947   0.69664   0.69862   0.70375
 Alpha virt. eigenvalues --    0.70538   0.71599   0.72995   0.73396   0.73835
 Alpha virt. eigenvalues --    0.73942   0.74023   0.74580   0.75833   0.75938
 Alpha virt. eigenvalues --    0.76171   0.76895   0.77631   0.78355   0.79131
 Alpha virt. eigenvalues --    0.79317   0.80059   0.80362   0.80727   0.81818
 Alpha virt. eigenvalues --    0.82288   0.82926   0.84474   0.85141   0.86006
 Alpha virt. eigenvalues --    0.86828   0.88169   0.88419   0.88920   0.90264
 Alpha virt. eigenvalues --    0.90684   0.92203   0.94209   0.95393   0.97407
 Alpha virt. eigenvalues --    0.98217   0.98774   1.01114   1.03569   1.04852
 Alpha virt. eigenvalues --    1.08061   1.08564   1.09373   1.11219   1.14868
 Alpha virt. eigenvalues --    1.16362   1.17563   1.18926   1.20619   1.20841
 Alpha virt. eigenvalues --    1.23211   1.24516   1.25849   1.26043   1.27408
 Alpha virt. eigenvalues --    1.30367   1.31596   1.32483   1.32758   1.33662
 Alpha virt. eigenvalues --    1.34364   1.36183   1.36835   1.37662   1.38450
 Alpha virt. eigenvalues --    1.40322   1.40840   1.42376   1.42970   1.43750
 Alpha virt. eigenvalues --    1.44284   1.46016   1.47749   1.48642   1.50692
 Alpha virt. eigenvalues --    1.51955   1.53874   1.54803   1.55735   1.57279
 Alpha virt. eigenvalues --    1.58434   1.59203   1.60113   1.61081   1.62006
 Alpha virt. eigenvalues --    1.64091   1.66196   1.67755   1.68894   1.70449
 Alpha virt. eigenvalues --    1.72776   1.74269   1.75236   1.76905   1.77812
 Alpha virt. eigenvalues --    1.78531   1.79696   1.81458   1.82604   1.83824
 Alpha virt. eigenvalues --    1.87192   1.87796   1.89870   1.91180   1.91678
 Alpha virt. eigenvalues --    1.93273   1.93884   1.95573   1.96800   1.98427
 Alpha virt. eigenvalues --    2.01234   2.03993   2.09060   2.10989   2.11943
 Alpha virt. eigenvalues --    2.14312   2.16430   2.16726   2.18780   2.19736
 Alpha virt. eigenvalues --    2.20909   2.22000   2.24272   2.24974   2.28049
 Alpha virt. eigenvalues --    2.29667   2.30360   2.32694   2.33224   2.34084
 Alpha virt. eigenvalues --    2.35015   2.36989   2.37884   2.39992   2.43226
 Alpha virt. eigenvalues --    2.43889   2.45011   2.46779   2.48870   2.53136
 Alpha virt. eigenvalues --    2.57088   2.58311   2.59089   2.61444   2.64437
 Alpha virt. eigenvalues --    2.65729   2.68150   2.68432   2.69948   2.71564
 Alpha virt. eigenvalues --    2.73669   2.75058   2.76018   2.76824   2.77097
 Alpha virt. eigenvalues --    2.77524   2.78568   2.78813   2.79518   2.81388
 Alpha virt. eigenvalues --    2.82245   2.82588   2.84350   2.85053   2.86254
 Alpha virt. eigenvalues --    2.86696   2.88998   2.89616   2.89901   2.90832
 Alpha virt. eigenvalues --    2.91673   2.93061   2.94024   2.94181   2.95413
 Alpha virt. eigenvalues --    2.95825   2.96869   2.97953   2.99385   3.00422
 Alpha virt. eigenvalues --    3.01384   3.02447   3.04518   3.06838   3.07889
 Alpha virt. eigenvalues --    3.09612   3.10110   3.10794   3.10999   3.14454
 Alpha virt. eigenvalues --    3.14880   3.17023   3.18708   3.19746   3.21050
 Alpha virt. eigenvalues --    3.21916   3.23442   3.24409   3.28028   3.29649
 Alpha virt. eigenvalues --    3.31730   3.32540   3.33006   3.33519   3.34425
 Alpha virt. eigenvalues --    3.34675   3.36197   3.38267   3.38865   3.40023
 Alpha virt. eigenvalues --    3.40449   3.42689   3.43406   3.46375   3.47026
 Alpha virt. eigenvalues --    3.48995   3.50358   3.52413   3.52937   3.54038
 Alpha virt. eigenvalues --    3.54554   3.55138   3.55713   3.56812   3.58661
 Alpha virt. eigenvalues --    3.60989   3.61712   3.63118   3.64142   3.64753
 Alpha virt. eigenvalues --    3.68277   3.69336   3.70344   3.71253   3.72416
 Alpha virt. eigenvalues --    3.73362   3.75259   3.75910   3.78715   3.81111
 Alpha virt. eigenvalues --    3.81608   3.86569   3.87023   3.87264   3.87685
 Alpha virt. eigenvalues --    3.91993   3.93357   3.96100   3.97031   3.98329
 Alpha virt. eigenvalues --    4.09300   4.10768   4.12215   4.14068   4.20339
 Alpha virt. eigenvalues --    4.24595   4.26300   4.29088   4.30369   4.33054
 Alpha virt. eigenvalues --    4.34209   4.34859   4.36182   4.37966   4.38863
 Alpha virt. eigenvalues --    4.39568   4.40114   4.41625   4.42781   4.43764
 Alpha virt. eigenvalues --    4.44045   4.44613   4.45638   4.47297   4.47600
 Alpha virt. eigenvalues --    4.49240   4.49490   4.50120   4.50631   4.51053
 Alpha virt. eigenvalues --    4.52316   4.53118   4.54106   4.56285   4.56804
 Alpha virt. eigenvalues --    4.57159   4.57776   4.58642   4.60777   4.61414
 Alpha virt. eigenvalues --    4.63010   4.63814   4.64470   4.66492   4.67669
 Alpha virt. eigenvalues --    4.67815   4.68862   4.71193   4.71714   4.72691
 Alpha virt. eigenvalues --    4.73368   4.74623   4.75822   4.76432   4.77249
 Alpha virt. eigenvalues --    4.78608   4.79328   4.80014   4.80411   4.81256
 Alpha virt. eigenvalues --    4.82969   4.84723   4.85871   4.87084   4.88299
 Alpha virt. eigenvalues --    4.89869   4.90273   4.93392   4.94062   4.95704
 Alpha virt. eigenvalues --    4.97170   4.97282   4.99866   5.01708   5.03768
 Alpha virt. eigenvalues --    5.09091   5.11123   5.13514   5.17307   5.21492
 Alpha virt. eigenvalues --    5.28639   5.29278   5.33797   5.35403   5.38010
 Alpha virt. eigenvalues --    5.39767   5.39929   5.43149   5.46512   5.49610
 Alpha virt. eigenvalues --    5.50603   5.52458   5.57312   5.59748   5.64335
 Alpha virt. eigenvalues --    5.67324   5.73315   5.76354   5.84047   5.84286
 Alpha virt. eigenvalues --    5.86951   5.88429   5.97227   6.00137   6.03863
 Alpha virt. eigenvalues --    6.13723   6.14594   6.21466   6.24904   6.36831
 Alpha virt. eigenvalues --    6.39927   7.04802   7.09137  10.39952  10.81220
 Alpha virt. eigenvalues --   11.14413  11.18455  11.46102  11.59180  11.68861
 Alpha virt. eigenvalues --   11.96548  12.00250  12.18905  12.28103  12.39632
 Alpha virt. eigenvalues --   13.37720  13.46961
          Condensed to atoms (all electrons):
               1          2          3          4          5          6
     1  C    4.942168   0.413432  -0.035815   0.001528  -0.000032  -0.000001
     2  C    0.413432   4.783531   0.396880  -0.035360   0.001780  -0.000230
     3  C   -0.035815   0.396880   4.822803   0.440781  -0.028325   0.003074
     4  C    0.001528  -0.035360   0.440781   4.732090   0.349473  -0.071437
     5  O   -0.000032   0.001780  -0.028325   0.349473   7.743237   0.354828
     6  C   -0.000001  -0.000230   0.003074  -0.071437   0.354828   4.766005
     7  C   -0.000000   0.000002  -0.000297   0.004712  -0.039161   0.420720
     8  C    0.000000  -0.000000   0.000005  -0.000112   0.001941  -0.011690
     9  C    0.000000   0.000000   0.000003  -0.000052   0.001673  -0.016122
    10  C    0.000000   0.000000   0.000000  -0.000001   0.000085   0.002371
    11  C   -0.000000  -0.000000  -0.000000   0.000000  -0.000001   0.000089
    12  C    0.000000  -0.000000   0.000000   0.000000  -0.000000   0.000001
    13  O    0.000000   0.000000   0.000000  -0.000000   0.000000  -0.000000
    14  C    0.000000   0.000000   0.000000  -0.000000   0.000000   0.000000
    15  H    0.372236  -0.023032   0.003275  -0.000156   0.000000  -0.000000
    16  H    0.379510  -0.029114  -0.004419   0.000227   0.000000   0.000000
    17  H    0.379583  -0.029067  -0.004318   0.000225   0.000000   0.000000
    18  H   -0.035601   0.371783  -0.034858  -0.002413   0.000021   0.000011
    19  H   -0.035635   0.371996  -0.034717  -0.002237   0.000021   0.000012
    20  H   -0.002881  -0.031472   0.361809  -0.027351   0.002513   0.000152
    21  H   -0.003063  -0.031370   0.361408  -0.028168   0.002681   0.000229
    22  H   -0.000004  -0.000059  -0.034332   0.348217  -0.031251  -0.006050
    23  H   -0.000035  -0.000035  -0.033774   0.347640  -0.030864  -0.006249
    24  H    0.000000   0.000034   0.000213  -0.006214  -0.036297   0.360423
    25  H    0.000000   0.000038   0.000303  -0.009952  -0.032918   0.333249
    26  H    0.000000  -0.000000   0.000005  -0.000198   0.002187  -0.040826
    27  H    0.000000   0.000000   0.000002  -0.000023   0.000368  -0.006649
    28  H   -0.000000   0.000000  -0.000000   0.000005  -0.000046   0.000705
    29  H    0.000000   0.000000   0.000004  -0.000065   0.002035  -0.003645
    30  H    0.000000   0.000000   0.000000   0.000000  -0.000000  -0.000085
    31  H    0.000000   0.000000   0.000000   0.000000   0.000001  -0.000003
    32  H    0.000000  -0.000000  -0.000000   0.000000   0.000000   0.000000
    33  H   -0.000000   0.000000   0.000000  -0.000000  -0.000000  -0.000001
    34  H    0.000000   0.000000   0.000000  -0.000000   0.000000  -0.000000
    35  H    0.000000   0.000000  -0.000000   0.000000  -0.000000   0.000000
    36  H    0.000000   0.000000   0.000000  -0.000000   0.000000  -0.000000
               7          8          9         10         11         12
     1  C   -0.000000   0.000000   0.000000   0.000000  -0.000000   0.000000
     2  C    0.000002  -0.000000   0.000000   0.000000  -0.000000  -0.000000
     3  C   -0.000297   0.000005   0.000003   0.000000  -0.000000   0.000000
     4  C    0.004712  -0.000112  -0.000052  -0.000001   0.000000   0.000000
     5  O   -0.039161   0.001941   0.001673   0.000085  -0.000001  -0.000000
     6  C    0.420720  -0.011690  -0.016122   0.002371   0.000089   0.000001
     7  C    4.780799   0.292359   0.347245  -0.033099  -0.003209   0.000016
     8  C    0.292359   5.036323   0.304807  -0.001116   0.001444  -0.000207
     9  C    0.347245   0.304807   4.776261   0.421682  -0.000277   0.003597
    10  C   -0.033099  -0.001116   0.421682   4.798148   0.605600  -0.027780
    11  C   -0.003209   0.001444  -0.000277   0.605600   4.840625   0.414785
    12  C    0.000016  -0.000207   0.003597  -0.027780   0.414785   4.827127
    13  O   -0.000000   0.000000  -0.000028   0.002003  -0.015124   0.342755
    14  C    0.000000  -0.000000   0.000000  -0.000204   0.004026  -0.080423
    15  H    0.000000  -0.000000   0.000000   0.000000  -0.000000  -0.000000
    16  H    0.000000   0.000000  -0.000000  -0.000000   0.000000  -0.000000
    17  H    0.000000  -0.000000   0.000000   0.000000  -0.000000   0.000000
    18  H    0.000000   0.000000   0.000000   0.000000   0.000000   0.000000
    19  H    0.000000  -0.000000   0.000000   0.000000   0.000000  -0.000000
    20  H    0.000015   0.000000  -0.000000  -0.000000   0.000000  -0.000000
    21  H    0.000006  -0.000001   0.000003   0.000000  -0.000000   0.000000
    22  H    0.000166   0.000001  -0.000015  -0.000000   0.000000  -0.000000
    23  H    0.000317  -0.000015   0.000044   0.000001  -0.000000   0.000000
    24  H   -0.032158  -0.018862  -0.001878  -0.000072  -0.000000  -0.000000
    25  H   -0.022101   0.004266   0.004390   0.000056  -0.000014   0.000000
    26  H    0.374675  -0.021092  -0.045580  -0.003759   0.000947  -0.000072
    27  H   -0.019111   0.374174  -0.014626   0.001538  -0.000130   0.000002
    28  H   -0.023550   0.372566  -0.014511  -0.008182   0.000496  -0.000012
    29  H   -0.031993  -0.033188   0.376595  -0.036915  -0.006772   0.000002
    30  H   -0.000802  -0.007582  -0.049978   0.356270  -0.044839  -0.014099
    31  H    0.000510   0.000186  -0.013326  -0.028228   0.360584  -0.058721
    32  H   -0.000008   0.000021  -0.000290  -0.002456  -0.025718   0.341367
    33  H    0.000031  -0.000005  -0.000071  -0.002237  -0.026743   0.342086
    34  H   -0.000000   0.000000  -0.000000  -0.000002  -0.000292   0.005274
    35  H   -0.000000   0.000000  -0.000000   0.000038   0.000256  -0.006608
    36  H    0.000000   0.000000  -0.000000   0.000035   0.000270  -0.006709
              13         14         15         16         17         18
     1  C    0.000000   0.000000   0.372236   0.379510   0.379583  -0.035601
     2  C    0.000000   0.000000  -0.023032  -0.029114  -0.029067   0.371783
     3  C    0.000000   0.000000   0.003275  -0.004419  -0.004318  -0.034858
     4  C   -0.000000  -0.000000  -0.000156   0.000227   0.000225  -0.002413
     5  O    0.000000   0.000000   0.000000   0.000000   0.000000   0.000021
     6  C   -0.000000   0.000000  -0.000000   0.000000   0.000000   0.000011
     7  C   -0.000000   0.000000   0.000000   0.000000   0.000000   0.000000
     8  C    0.000000  -0.000000  -0.000000   0.000000  -0.000000   0.000000
     9  C   -0.000028   0.000000   0.000000  -0.000000   0.000000   0.000000
    10  C    0.002003  -0.000204   0.000000  -0.000000   0.000000   0.000000
    11  C   -0.015124   0.004026  -0.000000   0.000000  -0.000000   0.000000
    12  C    0.342755  -0.080423  -0.000000  -0.000000   0.000000   0.000000
    13  O    7.698401   0.366160   0.000000  -0.000000  -0.000000  -0.000000
    14  C    0.366160   4.820466   0.000000   0.000000   0.000000   0.000000
    15  H    0.000000   0.000000   0.609436  -0.031882  -0.031840  -0.002395
    16  H   -0.000000   0.000000  -0.031882   0.599106  -0.033033  -0.004546
    17  H   -0.000000   0.000000  -0.031840  -0.033033   0.598517   0.005718
    18  H   -0.000000   0.000000  -0.002395  -0.004546   0.005718   0.644837
    19  H    0.000000   0.000000  -0.002335   0.005714  -0.004562  -0.042317
    20  H    0.000000  -0.000000  -0.000037  -0.000400   0.004789   0.006058
    21  H    0.000000   0.000000  -0.000029   0.004865  -0.000400  -0.005472
    22  H    0.000000  -0.000000   0.000007   0.000009   0.000007   0.005375
    23  H    0.000000   0.000000   0.000008   0.000007   0.000009  -0.000543
    24  H    0.000000  -0.000000   0.000000   0.000000  -0.000000  -0.000003
    25  H    0.000000   0.000000   0.000000  -0.000000   0.000000   0.000001
    26  H    0.000000  -0.000000  -0.000000   0.000000   0.000000  -0.000000
    27  H   -0.000000   0.000000  -0.000000  -0.000000   0.000000  -0.000000
    28  H    0.000000  -0.000000   0.000000  -0.000000   0.000000  -0.000000
    29  H    0.000001   0.000000  -0.000000   0.000000   0.000000   0.000000
    30  H    0.000045  -0.000005  -0.000000  -0.000000   0.000000  -0.000000
    31  H    0.004677  -0.000015  -0.000000  -0.000000  -0.000000  -0.000000
    32  H   -0.031205  -0.005761   0.000000   0.000000   0.000000   0.000000
    33  H   -0.031884  -0.005752  -0.000000  -0.000000  -0.000000  -0.000000
    34  H   -0.018623   0.385011   0.000000   0.000000  -0.000000   0.000000
    35  H   -0.032646   0.369214   0.000000   0.000000   0.000000   0.000000
    36  H   -0.032671   0.369194   0.000000   0.000000  -0.000000   0.000000
              19         20         21         22         23         24
     1  C   -0.035635  -0.002881  -0.003063  -0.000004  -0.000035   0.000000
     2  C    0.371996  -0.031472  -0.031370  -0.000059  -0.000035   0.000034
     3  C   -0.034717   0.361809   0.361408  -0.034332  -0.033774   0.000213
     4  C   -0.002237  -0.027351  -0.028168   0.348217   0.347640  -0.006214
     5  O    0.000021   0.002513   0.002681  -0.031251  -0.030864  -0.036297
     6  C    0.000012   0.000152   0.000229  -0.006050  -0.006249   0.360423
     7  C    0.000000   0.000015   0.000006   0.000166   0.000317  -0.032158
     8  C   -0.000000   0.000000  -0.000001   0.000001  -0.000015  -0.018862
     9  C    0.000000  -0.000000   0.000003  -0.000015   0.000044  -0.001878
    10  C    0.000000  -0.000000   0.000000  -0.000000   0.000001  -0.000072
    11  C    0.000000   0.000000  -0.000000   0.000000  -0.000000  -0.000000
    12  C   -0.000000  -0.000000   0.000000  -0.000000   0.000000  -0.000000
    13  O    0.000000   0.000000   0.000000   0.000000   0.000000   0.000000
    14  C    0.000000  -0.000000   0.000000  -0.000000   0.000000  -0.000000
    15  H   -0.002335  -0.000037  -0.000029   0.000007   0.000008   0.000000
    16  H    0.005714  -0.000400   0.004865   0.000009   0.000007   0.000000
    17  H   -0.004562   0.004789  -0.000400   0.000007   0.000009  -0.000000
    18  H   -0.042317   0.006058  -0.005472   0.005375  -0.000543  -0.000003
    19  H    0.644227  -0.005555   0.006065  -0.000560   0.005145   0.000000
    20  H   -0.005555   0.632077  -0.042233   0.006846  -0.007482   0.000041
    21  H    0.006065  -0.042233   0.634262  -0.007231   0.006873  -0.000056
    22  H   -0.000560   0.006846  -0.007231   0.685403  -0.061597   0.016072
    23  H    0.005145  -0.007482   0.006873  -0.061597   0.682111  -0.003246
    24  H    0.000000   0.000041  -0.000056   0.016072  -0.003246   0.692384
    25  H   -0.000002  -0.000051   0.000052  -0.003879   0.017263  -0.065106
    26  H    0.000000  -0.000000   0.000000   0.000004  -0.000012   0.005655
    27  H   -0.000000  -0.000000   0.000000  -0.000007   0.000003   0.004054
    28  H    0.000000  -0.000000  -0.000000  -0.000001   0.000000   0.000763
    29  H    0.000000   0.000000   0.000004  -0.000001   0.000003  -0.000106
    30  H   -0.000000  -0.000000   0.000000  -0.000000   0.000000   0.000002
    31  H   -0.000000   0.000000   0.000000   0.000000   0.000000   0.000000
    32  H    0.000000   0.000000   0.000000  -0.000000  -0.000000  -0.000000
    33  H   -0.000000  -0.000000  -0.000000   0.000000   0.000000   0.000000
    34  H    0.000000  -0.000000   0.000000   0.000000   0.000000   0.000000
    35  H    0.000000   0.000000   0.000000  -0.000000  -0.000000  -0.000000
    36  H   -0.000000  -0.000000  -0.000000   0.000000   0.000000   0.000000
              25         26         27         28         29         30
     1  C    0.000000   0.000000   0.000000  -0.000000   0.000000   0.000000
     2  C    0.000038  -0.000000   0.000000   0.000000   0.000000   0.000000
     3  C    0.000303   0.000005   0.000002  -0.000000   0.000004   0.000000
     4  C   -0.009952  -0.000198  -0.000023   0.000005  -0.000065   0.000000
     5  O   -0.032918   0.002187   0.000368  -0.000046   0.002035  -0.000000
     6  C    0.333249  -0.040826  -0.006649   0.000705  -0.003645  -0.000085
     7  C   -0.022101   0.374675  -0.019111  -0.023550  -0.031993  -0.000802
     8  C    0.004266  -0.021092   0.374174   0.372566  -0.033188  -0.007582
     9  C    0.004390  -0.045580  -0.014626  -0.014511   0.376595  -0.049978
    10  C    0.000056  -0.003759   0.001538  -0.008182  -0.036915   0.356270
    11  C   -0.000014   0.000947  -0.000130   0.000496  -0.006772  -0.044839
    12  C    0.000000  -0.000072   0.000002  -0.000012   0.000002  -0.014099
    13  O    0.000000   0.000000  -0.000000   0.000000   0.000001   0.000045
    14  C    0.000000  -0.000000   0.000000  -0.000000   0.000000  -0.000005
    15  H    0.000000  -0.000000  -0.000000   0.000000  -0.000000  -0.000000
    16  H   -0.000000   0.000000  -0.000000  -0.000000   0.000000  -0.000000
    17  H    0.000000   0.000000   0.000000   0.000000   0.000000   0.000000
    18  H    0.000001  -0.000000  -0.000000  -0.000000   0.000000  -0.000000
    19  H   -0.000002   0.000000  -0.000000   0.000000   0.000000  -0.000000
    20  H   -0.000051  -0.000000  -0.000000  -0.000000   0.000000  -0.000000
    21  H    0.000052   0.000000   0.000000  -0.000000   0.000004   0.000000
    22  H   -0.003879   0.000004  -0.000007  -0.000001  -0.000001  -0.000000
    23  H    0.017263  -0.000012   0.000003   0.000000   0.000003   0.000000
    24  H   -0.065106   0.005655   0.004054   0.000763  -0.000106   0.000002
    25  H    0.708634  -0.013458   0.000470  -0.000316   0.000073   0.000008
    26  H   -0.013458   0.645815   0.002517  -0.005000   0.003866   0.001104
    27  H    0.000470   0.002517   0.588407  -0.042496  -0.004854   0.000019
    28  H   -0.000316  -0.005000  -0.042496   0.608883   0.002344   0.005182
    29  H    0.000073   0.003866  -0.004854   0.002344   0.623888   0.005299
    30  H    0.000008   0.001104   0.000019   0.005182   0.005299   0.659228
    31  H    0.000000   0.000091  -0.000000   0.000012   0.003075   0.007772
    32  H   -0.000000   0.000004  -0.000000  -0.000001   0.000020   0.002382
    33  H    0.000000  -0.000011   0.000000   0.000002  -0.000006   0.002438
    34  H    0.000000   0.000000  -0.000000   0.000000   0.000000   0.000000
    35  H   -0.000000   0.000000  -0.000000  -0.000000   0.000000   0.000002
    36  H    0.000000  -0.000000   0.000000  -0.000000  -0.000000   0.000002
              31         32         33         34         35         36
     1  C    0.000000   0.000000  -0.000000   0.000000   0.000000   0.000000
     2  C    0.000000  -0.000000   0.000000   0.000000   0.000000   0.000000
     3  C    0.000000  -0.000000   0.000000   0.000000  -0.000000   0.000000
     4  C    0.000000   0.000000  -0.000000  -0.000000   0.000000  -0.000000
     5  O    0.000001   0.000000  -0.000000   0.000000  -0.000000   0.000000
     6  C   -0.000003   0.000000  -0.000001  -0.000000   0.000000  -0.000000
     7  C    0.000510  -0.000008   0.000031  -0.000000  -0.000000   0.000000
     8  C    0.000186   0.000021  -0.000005   0.000000   0.000000   0.000000
     9  C   -0.013326  -0.000290  -0.000071  -0.000000  -0.000000  -0.000000
    10  C   -0.028228  -0.002456  -0.002237  -0.000002   0.000038   0.000035
    11  C    0.360584  -0.025718  -0.026743  -0.000292   0.000256   0.000270
    12  C   -0.058721   0.341367   0.342086   0.005274  -0.006608  -0.006709
    13  O    0.004677  -0.031205  -0.031884  -0.018623  -0.032646  -0.032671
    14  C   -0.000015  -0.005761  -0.005752   0.385011   0.369214   0.369194
    15  H   -0.000000   0.000000  -0.000000   0.000000   0.000000   0.000000
    16  H   -0.000000   0.000000  -0.000000   0.000000   0.000000   0.000000
    17  H   -0.000000   0.000000  -0.000000  -0.000000   0.000000  -0.000000
    18  H   -0.000000   0.000000  -0.000000   0.000000   0.000000   0.000000
    19  H   -0.000000   0.000000  -0.000000   0.000000   0.000000  -0.000000
    20  H    0.000000   0.000000  -0.000000  -0.000000   0.000000  -0.000000
    21  H    0.000000   0.000000  -0.000000   0.000000   0.000000  -0.000000
    22  H    0.000000  -0.000000   0.000000   0.000000  -0.000000   0.000000
    23  H    0.000000  -0.000000   0.000000   0.000000  -0.000000   0.000000
    24  H    0.000000  -0.000000   0.000000   0.000000  -0.000000   0.000000
    25  H    0.000000  -0.000000   0.000000   0.000000  -0.000000   0.000000
    26  H    0.000091   0.000004  -0.000011   0.000000   0.000000  -0.000000
    27  H   -0.000000  -0.000000   0.000000  -0.000000  -0.000000   0.000000
    28  H    0.000012  -0.000001   0.000002   0.000000  -0.000000  -0.000000
    29  H    0.003075   0.000020  -0.000006   0.000000   0.000000  -0.000000
    30  H    0.007772   0.002382   0.002438   0.000000   0.000002   0.000002
    31  H    0.609627   0.004284   0.004192  -0.000001   0.000038   0.000037
    32  H    0.004284   0.660976  -0.056163  -0.000103   0.014102  -0.002804
    33  H    0.004192  -0.056163   0.662719  -0.000111  -0.002826   0.014215
    34  H   -0.000001  -0.000103  -0.000111   0.573525  -0.036109  -0.036114
    35  H    0.000038   0.014102  -0.002826  -0.036109   0.638494  -0.049127
    36  H    0.000037  -0.002804   0.014215  -0.036114  -0.049127   0.638636
 Mulliken charges:
               1
     1  C   -0.375389
     2  C   -0.159737
     3  C   -0.179711
     4  C   -0.041160
     5  O   -0.263952
     6  C   -0.078880
     7  C   -0.016085
     8  C   -0.294223
     9  C   -0.079546
    10  C   -0.043776
    11  C   -0.106004
    12  C   -0.082381
    13  O   -0.251860
    14  C   -0.221913
    15  H    0.106744
    16  H    0.113956
    17  H    0.114372
    18  H    0.094343
    19  H    0.094739
    20  H    0.103164
    21  H    0.101576
    22  H    0.082881
    23  H    0.084430
    24  H    0.084354
    25  H    0.078994
    26  H    0.093139
    27  H    0.116343
    28  H    0.103159
    29  H    0.100337
    30  H    0.077639
    31  H    0.105209
    32  H    0.101354
    33  H    0.100128
    34  H    0.127546
    35  H    0.105173
    36  H    0.105038
 Sum of Mulliken charges =  -0.00000
 Mulliken charges with hydrogens summed into heavy atoms:
               1
     1  C   -0.040318
     2  C    0.029345
     3  C    0.025028
     4  C    0.126151
     5  O   -0.263952
     6  C    0.084467
     7  C    0.077055
     8  C   -0.074721
     9  C    0.020791
    10  C    0.033863
    11  C   -0.000795
    12  C    0.119101
    13  O   -0.251860
    14  C    0.115844
 Electronic spatial extent (au):  <R**2>=           7509.8655
 Charge=             -0.0000 electrons
 Dipole moment (field-independent basis, Debye):
    X=             -0.2793    Y=              1.4215    Z=              0.8628  Tot=              1.6862
 Quadrupole moment (field-independent basis, Debye-Ang):
   XX=            -73.3847   YY=            -87.1390   ZZ=            -86.7586
   XY=             -0.5935   XZ=             -2.1844   YZ=             -0.4077
 Traceless Quadrupole moment (field-independent basis, Debye-Ang):
   XX=              9.0427   YY=             -4.7115   ZZ=             -4.3312
   XY=             -0.5935   XZ=             -2.1844   YZ=             -0.4077
 Octapole moment (field-independent basis, Debye-Ang**2):
  XXX=            -87.3278  YYY=             -3.5197  ZZZ=              1.9737  XYY=             -5.8734
  XXY=             -4.6381  XXZ=             18.2662  XZZ=             -0.5361  YZZ=             -2.4113
  YYZ=              1.4206  XYZ=             -0.1004
 Hexadecapole moment (field-independent basis, Debye-Ang**3):
 XXXX=          -7911.0748 YYYY=          -1149.0442 ZZZZ=           -242.7912 XXXY=            189.1708
 XXXZ=            -55.6349 YYYX=             60.9397 YYYZ=             -8.4990 ZZZX=             -8.9990
 ZZZY=              1.4594 XXYY=          -1617.6675 XXZZ=          -1480.7855 YYZZ=           -238.9476
 XXYZ=            -32.9701 YYXZ=             -6.4021 ZZXY=             16.2346
 N-N= 8.415923122238D+02 E-N=-3.126728362761D+03  KE= 6.160447267113D+02
 PrsmSu:  requested number of processors reduced to:  13 ShMem   1 Linda.
 Calling FoFJK, ICntrl=      2127 FMM=F ISym2X=0 I1Cent= 0 IOpClX= 0 NMat=1 NMatS=1 NMatT=0.
 ***** Axes restored to original set *****
 -------------------------------------------------------------------
 Center     Atomic                   Forces (Hartrees/Bohr)
 Number     Number              X              Y              Z
 -------------------------------------------------------------------
      1        6          -0.004353371   -0.005258523   -0.000647430
      2        6          -0.002136159    0.003486579    0.000398072
      3        6           0.004914295   -0.000101095   -0.000086289
      4        6          -0.005114314    0.019154981    0.002108195
      5        8           0.000172236   -0.016370098   -0.001715397
      6        6          -0.028659071   -0.004628289    0.005256677
      7        6           0.008397986   -0.001467977   -0.009406449
      8        6           0.015453046    0.005767158    0.006011509
      9        6          -0.005418875    0.002153229   -0.005241248
     10        6          -0.010478666    0.015035755    0.023086103
     11        6           0.006875004   -0.018568070   -0.019161297
     12        6          -0.016296497    0.005779562    0.006144936
     13        8           0.005949671    0.003143682    0.002068470
     14        6          -0.008582176   -0.008091714   -0.006143699
     15        1          -0.003019496    0.000201169    0.000057976
     16        1          -0.001543575    0.000048765    0.000300271
     17        1          -0.001564701    0.000130479   -0.000266134
     18        1           0.001617311   -0.000408498    0.000146211
     19        1           0.001594975   -0.000327519   -0.000254017
     20        1           0.000273049   -0.000468215    0.000489013
     21        1           0.000206184   -0.000356576   -0.000795470
     22        1           0.002484272   -0.002138695   -0.001660738
     23        1           0.002761922   -0.002307811    0.000917982
     24        1          -0.000214837   -0.000036578   -0.001488260
     25        1           0.001798908   -0.003116292    0.001584998
     26        1           0.016260473    0.005184090   -0.007409740
     27        1           0.000021599   -0.009978366    0.006266611
     28        1           0.003322200    0.011823758   -0.001263887
     29        1          -0.002099867   -0.001365058   -0.000674763
     30        1           0.000181702   -0.003007666   -0.001507725
     31        1          -0.002582714    0.003022669    0.002800694
     32        1           0.006639171    0.001308851   -0.000660485
     33        1           0.006323074    0.000122511    0.000166183
     34        1          -0.001687357   -0.002060492   -0.001633752
     35        1           0.004089498    0.002871600   -0.000039671
     36        1           0.004415101    0.000822695    0.002252554
 -------------------------------------------------------------------
 Cartesian Forces:  Max     0.028659071 RMS     0.006965816

 GradGradGradGradGradGradGradGradGradGradGradGradGradGradGradGradGradGrad
 Berny optimization.
 FormGI is forming the generalized inverse of G from B-inverse, IUseBI=4.
 Internal  Forces:  Max     0.022807691 RMS     0.005019649
 Search for a local minimum.
 Step number   1 out of a maximum of  187
 All quantities printed in internal units (Hartrees-Bohrs-Radians)
 Mixed Optimization -- RFO/linear search
 Second derivative matrix not updated -- first step.
 ITU=  0
     Eigenvalues ---    0.00419   0.00533   0.00543   0.00809   0.00837
     Eigenvalues ---    0.00991   0.01220   0.01312   0.01385   0.01419
     Eigenvalues ---    0.01596   0.01697   0.01790   0.01971   0.02552
     Eigenvalues ---    0.02746   0.03171   0.03426   0.03753   0.03805
     Eigenvalues ---    0.04062   0.04865   0.04933   0.04962   0.05250
     Eigenvalues ---    0.05688   0.05722   0.05969   0.06174   0.06626
     Eigenvalues ---    0.07424   0.08076   0.08153   0.09999   0.10174
     Eigenvalues ---    0.10267   0.10424   0.11111   0.11247   0.11358
     Eigenvalues ---    0.11816   0.11994   0.12050   0.13720   0.13839
     Eigenvalues ---    0.14113   0.14504   0.15996   0.16000   0.16000
     Eigenvalues ---    0.16000   0.16000   0.16000   0.16000   0.16000
     Eigenvalues ---    0.17016   0.18408   0.21856   0.21882   0.22000
     Eigenvalues ---    0.22001   0.22025   0.22032   0.22113   0.25000
     Eigenvalues ---    0.25000   0.25236   0.26903   0.29776   0.30596
     Eigenvalues ---    0.30673   0.31362   0.32724   0.32951   0.33875
     Eigenvalues ---    0.33903   0.33921   0.33922   0.34047   0.34048
     Eigenvalues ---    0.34074   0.34091   0.34127   0.34176   0.34229
     Eigenvalues ---    0.34288   0.34292   0.34298   0.34298   0.34378
     Eigenvalues ---    0.34400   0.34766   0.34829   0.35437   0.35563
     Eigenvalues ---    0.35577   0.35921   0.40190   0.41175   0.41984
     Eigenvalues ---    0.42369   0.54959
 RFO step:  Lambda=-3.13521177D-02 EMin= 4.19164966D-03
 Linear search not attempted -- first point.
 Iteration  1 RMS(Cart)=  0.34800471 RMS(Int)=  0.01383526
 Iteration  2 RMS(Cart)=  0.08530634 RMS(Int)=  0.00225804
 Iteration  3 RMS(Cart)=  0.00113240 RMS(Int)=  0.00222356
 Iteration  4 RMS(Cart)=  0.00000430 RMS(Int)=  0.00222356
 Iteration  5 RMS(Cart)=  0.00000008 RMS(Int)=  0.00222356
 Variable       Old X    -DE/DX   Delta X   Delta X   Delta X     New X
                                 (Linear)    (Quad)   (Total)
    R1        2.86790   0.01054   0.00000   0.03124   0.03124   2.89915
    R2        2.06698   0.00082   0.00000   0.00220   0.00220   2.06918
    R3        2.06846   0.00036   0.00000   0.00096   0.00096   2.06943
    R4        2.06840   0.00038   0.00000   0.00101   0.00101   2.06940
    R5        2.88413   0.00524   0.00000   0.01593   0.01593   2.90006
    R6        2.07249   0.00057   0.00000   0.00154   0.00154   2.07403
    R7        2.07250   0.00055   0.00000   0.00147   0.00147   2.07398
    R8        2.86641   0.00406   0.00000   0.01201   0.01201   2.87842
    R9        2.07206   0.00015   0.00000   0.00040   0.00040   2.07246
   R10        2.07177   0.00029   0.00000   0.00079   0.00079   2.07256
   R11        2.71296  -0.00982   0.00000  -0.02267  -0.02267   2.69028
   R12        2.07462   0.00308   0.00000   0.00830   0.00830   2.08292
   R13        2.07464   0.00296   0.00000   0.00798   0.00798   2.08262
   R14        2.68456   0.00372   0.00000   0.00817   0.00817   2.69273
   R15        2.82438   0.02281   0.00000   0.06320   0.06320   2.88759
   R16        2.07542   0.00125   0.00000   0.00339   0.00339   2.07880
   R17        2.07494   0.00368   0.00000   0.00994   0.00994   2.08488
   R18        2.87014   0.00296   0.00000   0.00387  -0.00062   2.86952
   R19        2.89509   0.00286   0.00000   0.00107  -0.00503   2.89006
   R20        2.04972   0.00071   0.00000   0.00184   0.00184   2.05156
   R21        2.81880  -0.00136   0.00000   0.00798   0.01874   2.83754
   R22        2.05954  -0.00327   0.00000  -0.00861  -0.00861   2.05093
   R23        2.04205   0.00463   0.00000   0.01184   0.01184   2.05390
   R24        2.80245   0.00195   0.00000   0.00522   0.00522   2.80767
   R25        2.04748   0.00178   0.00000   0.00461   0.00461   2.05209
   R26        2.55169  -0.01864   0.00000  -0.03208  -0.03208   2.51960
   R27        2.06057   0.00012   0.00000   0.00032   0.00032   2.06089
   R28        2.82838   0.00426   0.00000   0.01187   0.01187   2.84025
   R29        2.04771   0.00269   0.00000   0.00695   0.00695   2.05466
   R30        2.69987  -0.00638   0.00000  -0.01440  -0.01440   2.68548
   R31        2.07033   0.00444   0.00000   0.01190   0.01190   2.08223
   R32        2.07117   0.00414   0.00000   0.01110   0.01110   2.08227
   R33        2.68943  -0.00843   0.00000  -0.01868  -0.01868   2.67076
   R34        2.06661  -0.00066   0.00000  -0.00177  -0.00177   2.06484
   R35        2.06831   0.00389   0.00000   0.01040   0.01040   2.07871
   R36        2.06830   0.00391   0.00000   0.01046   0.01046   2.07876
    A1        1.92724   0.00368   0.00000   0.02049   0.02040   1.94764
    A2        1.93212   0.00110   0.00000   0.00516   0.00512   1.93724
    A3        1.93240   0.00112   0.00000   0.00523   0.00519   1.93759
    A4        1.88988  -0.00223   0.00000  -0.01044  -0.01052   1.87936
    A5        1.89017  -0.00226   0.00000  -0.01064  -0.01072   1.87945
    A6        1.89073  -0.00166   0.00000  -0.01106  -0.01105   1.87968
    A7        1.93328   0.00791   0.00000   0.03515   0.03511   1.96839
    A8        1.90863  -0.00157   0.00000  -0.00084  -0.00079   1.90784
    A9        1.90951  -0.00164   0.00000  -0.00163  -0.00157   1.90794
   A10        1.92083  -0.00280   0.00000  -0.01242  -0.01263   1.90820
   A11        1.92169  -0.00283   0.00000  -0.01294  -0.01312   1.90856
   A12        1.86873   0.00066   0.00000  -0.00881  -0.00899   1.85975
   A13        1.93786   0.00702   0.00000   0.02895   0.02898   1.96684
   A14        1.92684  -0.00219   0.00000  -0.00863  -0.00863   1.91821
   A15        1.92692  -0.00221   0.00000  -0.00865  -0.00866   1.91826
   A16        1.90793  -0.00226   0.00000  -0.00848  -0.00847   1.89946
   A17        1.90746  -0.00219   0.00000  -0.00789  -0.00788   1.89958
   A18        1.85489   0.00153   0.00000   0.00336   0.00327   1.85815
   A19        1.91025  -0.00038   0.00000   0.00038   0.00037   1.91061
   A20        1.91754   0.00108   0.00000   0.00682   0.00682   1.92436
[...]
 1874,0.00004115,0.00002721,-0.00000199,-0.00003769,0.00005265,-0.00000
 393,0.00005895,-0.00006826,-0.00000211,-0.00000496,-0.00008728,-0.0000
 8638,-0.00028979,0.00031894,0.00028510,-0.00203901,-0.00439577,0.00291
 428,0.14367740,-0.03630705,0.16108823,-0.00000266,0.00000344,-0.000004
 31,0.00000183,0.00000227,0.00000397,-0.00000985,0.00001281,-0.00000990
 ,0.00000531,0.00002747,0.00000306,-0.00001322,-0.00004085,0.00001359,0
 .00006161,-0.00000085,0.00000075,-0.00015270,0.00000852,-0.00004222,-0
 .00005122,0.00005117,-0.00012190,0.00065789,-0.00032569,0.00005848,0.0
 0055927,0.00058740,0.00146980,-0.00289612,0.00132677,-0.00093106,-0.20
 657643,0.04647447,-0.09968237,0.01026480,0.00321226,0.00131223,0.00123
 620,-0.00087460,0.00016194,-0.00000190,-0.00000205,0.,0.00000270,-0.00
 000147,-0.00000040,0.00000067,-0.00000115,0.00000327,0.00000081,0.0000
 0101,0.00000346,0.00000043,-0.00000460,-0.00000203,0.00000060,-0.00000
 461,0.00000523,0.00000573,-0.00000399,-0.00000105,-0.00000072,-0.00000
 175,0.00000487,0.00000400,-0.00000865,-0.00000273,0.00000251,0.0000025
 1,0.00000928,-0.00001358,-0.00002858,-0.00001326,0.00000289,-0.0000271
 5,0.00001302,0.00003929,-0.00004035,-0.00000586,0.00001685,0.00000515,
 -0.00001296,-0.00003326,0.00017387,0.00012735,0.00043495,-0.00082980,0
 .00003450,0.00122324,-0.00005632,-0.00034362,0.21828244,-0.00000003,-0
 .00000101,-0.00000250,0.00000244,0.00000280,0.00000379,-0.00000358,0.0
 0000202,-0.00000240,0.00001811,0.00002538,0.00001024,-0.00002418,-0.00
 003755,-0.00000521,0.00000573,0.00002925,0.00001179,0.00003227,0.00000
 434,0.00001823,0.00002465,0.00000312,0.00000854,-0.00019677,0.00002596
 ,-0.00003239,-0.00117299,0.00049222,-0.00032839,-0.01420701,0.00583373
 ,-0.00958500,0.04562874,-0.06267067,0.02775810,0.02459672,-0.03104075,
 0.02151727,0.00256638,0.00438654,0.00682585,-0.00000250,-0.00000198,0.
 00000004,0.00000062,0.00000069,0.00000032,0.00000031,0.00000020,0.0000
 0091,-0.00000040,0.00000009,-0.00000022,-0.00000060,-0.00000191,-0.000
 00060,0.00000024,-0.00000053,0.00000063,0.00000315,-0.00000064,-0.0000
 0048,-0.00000218,-0.00000075,-0.00000138,0.00000072,-0.00000627,-0.000
 00179,-0.00000006,0.00000295,0.00000687,0.00000010,-0.00001068,0.00000
 079,0.00001147,-0.00002257,-0.00000603,-0.00000152,-0.00000280,-0.0000
 0406,0.00000551,-0.00000690,0.00000500,0.00011858,-0.00008477,0.000078
 99,0.00047516,0.00011022,0.00019741,0.00042485,-0.00143291,-0.00338706
 ,-0.05662149,0.08073030,0.,0.00000014,-0.00000243,-0.00000007,0.000001
 97,0.00000178,-0.00000312,0.00000391,-0.00000596,0.00000406,0.00001852
 ,-0.00000277,-0.00000587,-0.00002743,0.00000916,0.00003164,0.00000996,
 0.00001039,-0.00012211,0.00005792,0.00006341,-0.00002397,0.00005105,-0
 .00015163,0.00064347,-0.00026099,-0.00013087,-0.00103815,0.00273078,0.
 00098666,-0.02324179,0.00522708,-0.01597352,-0.09586109,0.02744633,-0.
 11347704,-0.00748815,0.01273050,-0.00586875,0.00177320,-0.00185944,0.0
 0013825,-0.00000104,-0.00000025,0.00000048,0.00000032,-0.00000010,-0.0
 0000083,0.00000021,-0.00000117,0.00000197,0.00000103,0.00000047,0.0000
 0263,-0.00000012,-0.00000141,-0.00000044,0.00000077,-0.00000360,0.0000
 0367,0.00000224,-0.00000076,-0.00000278,-0.00000014,-0.00000117,0.0000
 0485,0.00000127,-0.00000540,-0.00000035,0.00000287,0.00000508,0.000009
 99,-0.00000739,-0.00001568,-0.00001000,0.00001172,-0.00004551,0.000009
 10,0.00005091,-0.00003204,-0.00000454,0.00003508,-0.00002711,-0.000020
 98,0.00010625,0.00010746,0.00025265,0.00087014,-0.00102164,0.00045818,
 -0.00054686,-0.00305451,-0.00325125,0.11056441,-0.03904180,0.12613343,
 -0.00000115,0.00000485,0.00000638,0.00000377,-0.00000278,-0.00000641,-
 0.00000173,0.00001054,0.00001488,-0.00003720,-0.00003869,-0.00001113,0
 .00010049,0.00005979,-0.00002868,-0.00008017,-0.00005293,0.00002231,0.
 00002280,-0.00012161,-0.00003228,-0.00000049,-0.00002441,0.00003035,-0
 .00003123,-0.00013690,0.00029935,0.00064834,-0.00042530,0.00019407,0.0
 0419357,0.00251848,-0.00155058,-0.20358019,-0.00990437,0.10082512,0.00
 169946,-0.01032180,0.00463467,0.00118899,0.00197452,0.00110429,0.00000
 193,-0.00000101,-0.00000308,0.00000380,-0.00000279,0.00000155,-0.00000
 060,0.00000353,-0.00000279,-0.00000200,0.00000021,-0.00000386,0.000000
 97,-0.00000386,-0.00000122,-0.00000233,0.00000698,-0.00000567,0.000005
 70,-0.00000596,0.00000430,0.00000333,0.00000484,-0.00000183,0.00000566
 ,0.00000369,0.00000083,0.00000422,0.00000308,-0.00001764,0.00000977,0.
 00000932,-0.00000808,-0.00002528,0.00002241,-0.00000139,-0.00000159,0.
 00002619,0.00000594,0.00001774,-0.00000509,-0.00001253,0.00002273,0.00
 006634,0.00003178,0.00006163,-0.00037533,0.00023395,0.00038481,0.00036
 120,0.00061894,-0.02251634,0.00023867,0.01432378,0.21823390,0.00000142
 ,-0.00001347,-0.00001809,-0.00000357,0.00001872,0.00003020,-0.00000012
 ,-0.00002850,-0.00003644,0.00014851,0.00015386,0.00009037,-0.00031637,
 -0.00018841,0.00002867,0.00061488,-0.00003273,-0.00001850,-0.00084101,
 -0.00009140,-0.00040909,-0.00015095,0.00061376,-0.00001368,-0.00045202
 ,-0.00227399,0.00074787,-0.00079168,0.00088291,-0.00170259,0.01599677,
 -0.00029974,-0.01191095,-0.00541130,-0.04425664,0.00366764,-0.03146965
 ,-0.02683795,0.02410461,-0.00268026,0.00465680,0.00707822,-0.00001237,
 -0.00000536,0.00000427,-0.00000424,0.00000565,0.00000109,0.00000125,-0
 .00000178,0.00000532,0.00000071,-0.00000136,0.00000064,-0.00000121,0.0
 0000220,-0.00000005,0.00000177,-0.00000495,0.00000703,-0.00000856,0.00
 000758,-0.00000075,-0.00001640,-0.00001344,-0.00001931,-0.00001221,-0.
 00002079,-0.00001213,-0.00002270,0.00000574,0.00000696,-0.00012557,-0.
 00016119,-0.00006018,0.00000338,-0.00001730,0.00001793,0.00007545,-0.0
 0008544,-0.00005394,0.00006665,-0.00000189,0.00000301,-0.00002717,-0.0
 0003287,-0.00012768,0.00058733,0.00057294,-0.00064312,-0.00062894,0.00
 032903,0.00049202,0.00569736,0.00345194,-0.00458562,0.01755310,0.06340
 605,0.00000381,-0.00001503,-0.00001431,-0.00000814,0.00001400,0.000023
 68,0.00000775,-0.00003636,-0.00003317,0.00012782,0.00012126,0.00007067
 ,-0.00028404,-0.00014150,0.00004002,0.00057489,-0.00003538,-0.00003863
 ,-0.00068070,-0.00007543,-0.00042210,-0.00013277,0.00044994,0.00003512
 ,-0.00014386,-0.00233286,0.00087602,-0.00157298,0.00085116,-0.00254360
 ,0.02317800,-0.00418985,-0.01567823,0.10221319,0.00789468,-0.12260196,
 0.01186459,0.01301611,-0.00708617,-0.00234002,-0.00220323,0.00014353,-
 0.00000880,-0.00000112,0.00000516,-0.00000694,0.00000586,0.,0.00000026
 ,-0.00000259,0.00000377,0.00000196,-0.00000195,0.00000122,-0.00000138,
 0.00000702,0.00000166,0.00000142,-0.00000426,0.00000688,-0.00001359,0.
 00001106,-0.00000147,-0.00001290,-0.00001310,-0.00001540,-0.00001519,-
 0.00001178,-0.00000841,-0.00002028,0.00000453,0.00000460,-0.00012127,-
 0.00013308,-0.00005221,-0.00000202,-0.00001145,0.00002156,0.00005912,-
 0.00004551,-0.00003476,0.00005995,0.00000286,-0.00001608,0.00001023,0.
 00003821,-0.00010309,0.00052253,0.00027274,-0.00038908,-0.00066131,0.0
 0031939,0.00079804,-0.01351651,-0.00120090,0.00949823,-0.11908172,-0.0
 1418765,0.13596495,0.00000027,-0.00000071,-0.00000056,0.00000059,0.000
 00053,0.00000147,-0.00000013,-0.00000074,-0.00000048,0.00000571,0.0000
 0480,0.00000452,-0.00001137,-0.00000715,-0.00000115,0.00001611,0.00000
 140,0.00000062,-0.00001158,-0.00000358,-0.00001240,-0.00000396,0.00000
 513,0.00000008,0.00000676,-0.00004650,0.00002729,-0.00005273,-0.000044
 11,-0.00012002,0.00062091,-0.00014930,0.00008585,0.00015095,-0.0000166
 5,-0.00024118,0.00036548,-0.00138736,0.00012944,-0.05176680,-0.0194026
 5,0.00804643,-0.00000067,-0.00000061,-0.00000002,0.00000004,0.00000038
 ,0.00000047,-0.00000012,0.00000042,-0.00000016,-0.00000021,-0.00000016
 ,-0.00000077,-0.00000028,0.00000002,-0.00000011,-0.00000036,0.00000068
 ,-0.00000030,0.00000033,0.00000004,0.00000077,-0.00000066,-0.00000015,
 -0.00000170,-0.00000028,-0.00000104,-0.00000076,-0.00000074,0.00000029
 ,-0.00000029,-0.00000291,-0.00000365,-0.00000115,-0.00000124,-0.000000
 64,0.00000042,0.00000154,-0.00000145,-0.00000095,-0.00000014,0.0000025
 4,-0.00000131,-0.00000137,-0.00000022,-0.00000278,0.00001201,0.0000132
 3,-0.00001944,-0.00000962,0.00004599,0.00005196,0.00028891,-0.00048132
 ,0.00014524,0.00038903,0.00040048,-0.00028028,0.04844587,0.00000017,-0
 .00000429,-0.00000617,0.00000382,0.00000925,0.00001177,-0.00000406,-0.
 00000481,-0.00000668,0.00005785,0.00006634,0.00004044,-0.00009666,-0.0
 0008508,-0.00001657,0.00012284,0.00003869,0.00001140,-0.00013973,0.000
 03125,-0.00000112,-0.00004729,0.00006827,-0.00013985,0.00029087,-0.000
 11731,-0.00006032,-0.00028828,-0.00001961,-0.00026538,0.00021726,-0.00
 102773,0.00087986,0.00021281,0.00115017,-0.00473143,-0.00259005,-0.028
 48194,0.00033444,-0.01919310,-0.26852267,0.09253759,-0.00000668,-0.000
 00489,-0.00000006,0.00000103,0.00000174,0.00000175,0.00000062,0.000001
 75,0.00000128,-0.00000176,-0.00000069,-0.00000266,-0.00000071,-0.00000
 321,-0.00000115,-0.00000028,0.00000283,-0.00000082,0.00000353,-0.00000
 094,0.00000208,-0.00000725,-0.00000356,-0.00001154,-0.00000112,-0.0000
 1336,-0.00000591,-0.00000998,0.00000107,-0.00000128,-0.00002115,-0.000
 04042,-0.00001082,-0.00000387,-0.00000433,0.00000588,0.00003826,-0.000
 05665,-0.00002512,0.00000529,0.00000277,0.00000916,-0.00001166,-0.0000
 1642,-0.00002173,-0.00004348,-0.00003593,0.00004930,-0.00005492,-0.000
 03884,-0.00013707,0.00012904,0.00002764,0.00013127,-0.00014738,0.00008
 218,0.00012396,0.02222439,0.30203705,0.00000025,-0.00000161,-0.0000021
 3,-0.00000016,0.00000189,0.00000326,-0.00000077,-0.00000307,-0.0000044
 7,0.00001717,0.00001902,0.00001033,-0.00003188,-0.00002550,-0.00000028
 ,0.00003934,0.00001498,0.00000297,-0.00005075,0.00003029,0.00002131,-0
 .00003125,0.00001608,-0.00009825,0.00025364,0.00002560,-0.00011078,-0.
 00020996,-0.00008598,-0.00025993,0.00011095,-0.00150195,0.00077849,-0.
 00001565,-0.00219296,-0.00396281,-0.00312047,-0.03573033,0.00819944,0.
 00916295,0.10483256,-0.09073692,-0.00000127,-0.00000033,0.00000062,-0.
 00000048,0.00000060,-0.00000003,0.00000010,-0.00000034,0.00000062,0.00
 000008,-0.00000030,0.00000016,-0.00000040,0.00000020,-0.00000013,0.000
 00040,-0.00000023,0.00000076,-0.00000005,0.00000077,0.00000006,-0.0000
 0200,-0.00000193,-0.00000223,-0.00000141,-0.00000287,-0.00000160,-0.00
 000244,-0.00000024,0.00000102,-0.00000630,-0.00001095,-0.00000342,0.00
 000022,-0.00000686,0.00000480,0.00002409,-0.00003520,-0.00001014,0.000
 00060,0.00000272,0.00000269,-0.00000932,-0.00000856,-0.00000887,-0.000
 06017,-0.00006912,0.00005124,-0.00004089,0.00005741,-0.00000015,0.0003
 1249,-0.00035795,0.00011040,-0.00044668,-0.00016554,0.00017142,-0.0084
 2870,-0.09471245,0.09643090,-0.00000157,0.00000167,-0.00000261,0.00000
 116,0.00000270,0.00000265,-0.00000470,0.00000465,-0.00000387,0.0000109
 3,0.00002217,0.00000667,-0.00001990,-0.00002925,0.00000036,0.00003292,
 0.00001210,0.00000146,-0.00005986,0.00001470,-0.00000279,-0.00002166,0
 .00003372,-0.00004622,0.00009241,-0.00005040,-0.00002716,-0.00011249,0
 .00004489,-0.00002077,0.00036717,-0.00036977,0.00029212,0.00107676,0.0
 0176289,0.00020399,0.00611892,-0.00649934,-0.00583845,-0.20254735,0.04
 295903,-0.10469090,-0.00000205,-0.00000175,-0.00000017,0.00000151,-0.0
 0000082,-0.00000004,0.00000066,-0.00000023,0.00000178,-0.00000017,0.00
 000038,0.00000124,0.00000053,-0.00000293,-0.00000106,0.00000032,-0.000
 00102,0.00000195,0.00000278,-0.00000221,-0.00000035,-0.00000147,-0.000
 00135,0.00000033,0.00000192,-0.00000622,-0.00000197,-0.00000066,0.0000
 0033,0.00000401,-0.00000586,-0.00001645,-0.00000482,-0.00000013,-0.000
 00644,0.00000522,0.00001460,-0.00001576,-0.00000569,0.00000474,0.00000
 229,0.00000051,0.00000270,-0.00000229,-0.00000049,0.00000489,-0.000033
 21,0.00000747,0.00000977,0.00016732,0.00014021,-0.00022491,-0.00144349
 ,-0.00012015,-0.00062872,0.00011081,0.00014455,0.00284068,-0.00069818,
 0.00283576,0.21540467,-0.00000017,-0.00000108,-0.00000072,0.00000020,0
 .00000041,0.00000110,-0.00000019,-0.00000158,-0.00000114,0.00000865,0.
 00000659,0.00000483,-0.00001398,-0.00000854,-0.00000090,0.00001511,0.0
 0000287,0.00000214,-0.00001832,0.00000358,0.00000036,-0.00000652,0.000
 01348,-0.00001735,0.00003284,-0.00001834,0.00000823,0.00001966,0.00002
 020,0.00007613,0.00011748,-0.00019127,-0.00003819,-0.00304323,0.005712
 10,-0.00295501,-0.01926559,-0.00133369,-0.02158544,0.04431555,-0.06522
 760,0.03298402,-0.00000042,-0.00000022,0.00000039,-0.00000035,0.000000
 55,0.00000017,0.00000007,-0.00000003,-0.00000004,-0.00000013,-0.000000
 11,-0.00000026,-0.00000016,0.00000022,0.00000010,0.,-0.00000011,0.0000
 0003,-0.00000025,0.00000069,0.00000015,-0.00000077,-0.00000062,-0.0000
 0126,-0.00000123,-0.00000053,-0.00000062,-0.00000079,0.00000008,0.0000
 0010,-0.00000255,-0.00000356,-0.00000137,0.00000035,-0.00000295,0.0000
 0019,0.00000418,-0.00000685,-0.00000226,-0.00000136,0.00000230,-0.0000
 0027,-0.00000377,0.00000361,0.00000053,0.00004475,-0.00001261,-0.00002
 866,0.00009316,-0.00003580,0.00016724,0.00137351,0.00065583,0.00120965
 ,0.00006819,-0.00050989,0.00015736,0.02391622,-0.00444922,0.01548481,-
 0.04371875,0.06331681,-0.00000051,-0.00000238,-0.00000592,0.00000278,0
 .00000752,0.00000860,-0.00000525,-0.00000115,-0.00000727,0.00004588,0.
 00005846,0.00002826,-0.00007693,-0.00007451,-0.00000768,0.00010319,0.0
 0003268,0.00000392,-0.00013474,0.00002992,0.00000294,-0.00004619,0.000
 07922,-0.00011159,0.00016265,-0.00013279,-0.00002786,-0.00012646,0.000
 10503,0.00006895,0.00038316,-0.00042411,0.00024514,0.00092167,0.006153
 17,-0.00060160,-0.02361440,-0.01007915,-0.03031541,-0.10247703,0.03010
 068,-0.12117073,-0.00000570,-0.00000390,0.00000031,0.00000121,0.000000
 91,0.00000081,0.00000089,0.00000067,0.00000199,-0.00000111,-0.00000029
 ,-0.00000045,-0.00000027,-0.00000336,-0.00000094,0.00000004,0.00000076
 ,0.00000136,0.00000386,-0.00000144,0.00000063,-0.00000545,-0.00000349,
 -0.00000621,-0.00000022,-0.00001275,-0.00000465,-0.00000644,0.00000069
 ,0.00000332,-0.00001816,-0.00003793,-0.00001015,-0.00000181,-0.0000085
 1,0.00000651,0.00003280,-0.00003990,-0.00001849,0.00000775,0.00000181,
 0.00000581,0.00000201,-0.00000803,-0.00001609,0.00002029,-0.00002578,-
 0.00000601,0.00010258,0.00020887,0.00016808,0.00061222,-0.00171546,0.0
 0090498,-0.00016127,-0.00080571,0.00030776,-0.01036848,0.00388504,-0.0
 0553268,0.12176583,-0.02494832,0.14520274,-0.00000077,0.00000363,0.000
 00443,-0.00000059,-0.00000341,-0.00000439,-0.00000020,0.00000546,0.000
 00539,-0.00002766,-0.00002710,-0.00001136,0.00006061,0.00003865,-0.000
 00693,-0.00005460,-0.00003036,0.00000678,0.00001952,-0.00000037,-0.000
 00955,0.00001060,-0.00000901,0.00002858,-0.00007542,-0.00005711,0.0000
 4861,-0.00002554,0.00001382,-0.00007511,0.00040841,0.00020383,-0.00038
 680,0.00131421,-0.00145677,-0.00070565,0.00830489,0.00522780,0.0046884
 3,-0.22232480,-0.02017812,0.10342143,0.00000243,0.00000098,-0.00000118
 ,0.00000172,-0.00000242,0.00000017,-0.00000075,0.00000111,-0.00000159,
 -0.00000011,0.00000060,-0.00000085,0.00000116,-0.00000113,-0.00000044,
 -0.00000092,0.00000152,-0.00000158,0.00000129,-0.00000259,0.00000094,0
 .00000300,0.00000242,0.00000210,0.00000275,0.00000428,0.00000158,0.000
 00399,0.00000125,-0.00000448,0.00000683,0.00000990,0.00000002,-0.00000
 348,0.00000532,-0.00000134,-0.00000461,0.00001062,0.00000384,0.0000099
 2,-0.00000755,-0.00000222,0.00000139,0.00000371,0.00000965,0.00001995,
 -0.00000168,0.00000552,-0.00003563,-0.00004574,0.00000958,-0.00060006,
 0.00000374,-0.00010861,-0.00009362,0.00171644,0.00013464,-0.00128004,0
 .00005981,-0.00029706,-0.02235857,-0.00393137,0.01288159,0.23671473,-0
 .00000029,0.00000010,-0.00000066,-0.00000029,0.00000019,0.00000073,-0.
 00000053,-0.00000010,-0.00000145,0.00000452,0.00000506,0.00000226,-0.0
 0001006,-0.00000750,0.00000099,0.00001355,0.00000618,-0.00000025,-0.00
 002245,0.00001262,0.00001163,-0.00000638,0.00001291,-0.00002339,0.0000
 4972,0.00002607,-0.00004434,-0.00009639,0.00005688,0.00013929,-0.00020
 520,-0.00017760,0.00000484,0.00417041,0.00535690,-0.00315938,0.0181507
 4,-0.00552903,-0.02098388,-0.02160107,-0.05480071,0.01504791,-0.000000
 40,-0.00000009,0.00000033,-0.00000011,-0.00000007,-0.00000014,0.000000
 12,-0.00000030,0.00000028,0.,0.00000017,0.00000028,0.00000021,-0.00000
 015,0.00000003,0.00000012,-0.00000065,0.00000066,-0.00000012,0.0000001
 5,-0.00000041,-0.00000054,-0.00000029,-0.00000011,-0.00000027,-0.00000
 135,-0.00000037,-0.00000115,0.00000002,0.00000068,-0.00000188,-0.00000
 384,-0.00000114,0.00000167,-0.00000191,0.00000135,0.00000597,-0.000007
 83,-0.00000291,-0.00000063,0.00000057,0.00000076,0.00000116,-0.0000006
 4,-0.00000484,-0.00003414,-0.00003018,0.00002644,0.00003292,0.00004016
 ,0.00001837,-0.00021517,-0.00046251,0.00025351,-0.00136561,0.00068975,
 0.00135282,-0.02506855,-0.00058911,0.01442735,0.00776022,0.00206529,-0
 .00233647,0.01843988,0.05334086,0.00000106,-0.00000564,-0.00000642,0.0
 0000198,0.00000748,0.00000970,-0.00000189,-0.00000810,-0.00000823,0.00
 005581,0.00006034,0.00003221,-0.00010264,-0.00007918,-0.00000418,0.000
 11779,0.00004235,0.00000100,-0.00012043,0.00002469,0.00001178,-0.00004
 021,0.00007058,-0.00009725,0.00017413,-0.00006824,-0.00007273,-0.00017
 282,0.00017240,0.00016545,-0.00030773,-0.00024148,0.00031725,0.0002688
 0,0.00630306,-0.00049462,0.02364901,-0.01336872,-0.02938795,0.10075880
 ,0.01254286,-0.11097826,-0.00000577,-0.00000320,0.00000108,-0.00000081
 ,0.00000266,0.00000087,0.00000060,0.00000036,0.00000160,-0.00000084,-0
 .00000095,-0.00000113,-0.00000123,-0.00000074,-0.00000021,0.00000014,0
 .00000112,0.00000092,0.00000113,0.00000163,0.00000082,-0.00000629,-0.0
 0000439,-0.00000832,-0.00000330,-0.00001087,-0.00000462,-0.00000822,-0
 .00000007,0.00000272,-0.00001889,-0.00003324,-0.00000784,0.00000044,-0
 .00000851,0.00000507,0.00002766,-0.00003576,-0.00001651,-0.00000279,0.
 00000741,0.00000420,0.00000082,-0.00000845,-0.00002336,-0.00003205,-0.
 00001776,0.00001262,0.00006135,0.00005790,-0.00005412,-0.00002377,-0.0
 0077113,0.00030393,-0.00097556,-0.00151482,0.00106432,0.01098841,0.002
 13291,-0.00505567,-0.01464859,-0.00051574,0.01088162,-0.11963409,-0.00
 473080,0.13340425\\-0.00000071,-0.00000040,0.00000089,0.00000168,0.000
 00030,-0.00000145,0.00000152,0.00000136,-0.00000005,0.00000340,0.00000
 067,-0.00000107,0.00000382,0.00000099,-0.00000421,-0.00001592,-0.00000
 542,-0.00000004,-0.00000879,-0.00000688,-0.00000625,0.00000430,0.00000
 730,-0.00000679,0.00000101,0.00000170,0.00001104,0.00000623,0.00000690
 ,-0.00000903,0.00000389,0.00000283,0.00000115,-0.00000220,-0.00000288,
 0.00000966,-0.00000517,-0.00000117,-0.00000661,0.00000134,-0.00000158,
 0.00000075,-0.00000025,0.00000011,0.00000071,-0.00000021,0.00000001,0.
 00000068,0.00000016,-0.00000052,0.00000048,-0.00000036,0.00000034,0.00
 000024,0.00000020,-0.00000008,0.00000005,0.,-0.00000021,0.00000101,-0.
 00000009,0.00000033,0.00000051,-0.00000011,0.00000057,-0.00000044,0.00
 000038,0.,0.00000020,-0.00000074,0.00000027,0.00000346,0.00000248,-0.0
 0000191,0.00000026,0.00000425,0.00000164,-0.00000329,0.00000358,-0.000
 00181,0.00000265,0.00000251,-0.00000001,0.00000388,-0.00000508,-0.0000
 0070,0.00000049,-0.00000489,-0.00000161,0.00000152,-0.00000067,-0.0000
 0106,0.00000082,0.00000144,-0.00000315,-0.00000153,0.00000187,0.000003
 68,-0.00000196,-0.00000002,0.00000002,-0.00000009,0.00000092,-0.000000
 92,0.00000123,0.00000019,0.00000125,0.00000111\\\@


 LET US PLACE AT THE END OF EVERY CHAPTER.....THE
 TWO LETTERS USED BY THE ROMAN JUDGES WHEN THEY DID
 NOT UNDERSTAND A PLEADING.
 N. L. -NON LIQUET- IT IS NOT CLEAR.
                                              -- VOLTAIRE
 Job cpu time:       0 days  6 hours 19 minutes 21.4 seconds.
 Elapsed time:       0 days  1 hours 34 minutes 51.9 seconds.
 File lengths (MBytes):  RWF=    655 Int=      0 D2E=      0 Chk=     22 Scr=      1
 Normal termination of Gaussian 16 at Mon May 22 05:45:58 2023.
### All Done ###
