### Starting Gaussian ###
 Entering Gaussian System, Link 0=g16
 Initial command:
 /cluster/software/gaussian/gaussian-16-A.03/avx2/g16/l1.exe "/local/scratch/linjian/Gau-28715.inp" -scrdir="/local/scratch/linjian/"
 Entering Link 1 = /cluster/software/gaussian/gaussian-16-A.03/avx2/g16/l1.exe PID=     28716.
  
 Copyright (c) 1988,1990,1992,1993,1995,1998,2003,2009,2016,
            Gaussian, Inc.  All Rights Reserved.
  
 This is part of the Gaussian(R) 16 program.  It is based on
 the Gaussian(R) 09 system (copyright 2009, Gaussian, Inc.),
 the Gaussian(R) 03 system (copyright 2003, Gaussian, Inc.),
 the Gaussian(R) 98 system (copyright 1998, Gaussian, Inc.),
 the Gaussian(R) 94 system (copyright 1995, Gaussian, Inc.),
 the Gaussian 92(TM) system (copyright 1992, Gaussian, Inc.),
 the Gaussian 90(TM) system (copyright 1990, Gaussian, Inc.),
 the Gaussian 88(TM) system (copyright 1988, Gaussian, Inc.),
 the Gaussian 86(TM) system (copyright 1986, Carnegie Mellon
 University), and the Gaussian 82(TM) system (copyright 1983,
 Carnegie Mellon University). Gaussian is a federally registered
 trademark of Gaussian, Inc.
  
 This software contains proprietary and confidential information,
 including trade secrets, belonging to Gaussian, Inc.
  
 This software is provided under written license and may be
 used, copied, transmitted, or stored only in accord with that
 written license.
  
 The following legend is applicable only to US Government
 contracts under FAR:
  
                    RESTRICTED RIGHTS LEGEND
  
 Use, reproduction and disclosure by the US Government is
 subject to restrictions as set forth in subparagraphs (a)
 and (c) of the Commercial Computer Software - Restricted
 Rights clause in FAR 52.227-19.
  
 Gaussian, Inc.
 340 Quinnipiac St., Bldg. 40, Wallingford CT 06492
  
  
 ---------------------------------------------------------------
 Warning -- This program may not be used in any manner that
 competes with the business of Gaussian, Inc. or will provide
 assistance to any competitor of Gaussian, Inc.  The licensee
 of this program is prohibited from giving any competitor of
 Gaussian, Inc. access to this program.  By using this program,
 the user acknowledges that Gaussian, Inc. is engaged in the
 business of creating and licensing software in the field of
 computational chemistry and represents and warrants to the
 licensee that it is not a competitor of Gaussian, Inc. and that
 it will not use this program in any manner prohibited above.
 ---------------------------------------------------------------
  

 Cite this work as:
 Gaussian 16, Revision A.03,
 M. J. Frisch, G. W. Trucks, H. B. Schlegel, G. E. Scuseria, 
 M. A. Robb, J. R. Cheeseman, G. Scalmani, V. Barone, 
 G. A. Petersson, H. Nakatsuji, X. Li, M. Caricato, A. V. Marenich, 
 J. Bloino, B. G. Janesko, R. Gomperts, B. Mennucci, H. P. Hratchian, 
 J. V. Ortiz, A. F. Izmaylov, J. L. Sonnenberg, D. Williams-Young, 
 F. Ding, F. Lipparini, F. Egidi, J. Goings, B. Peng, A. Petrone, 
 T. Henderson, D. Ranasinghe, V. G. Zakrzewski, J. Gao, N. Rega, 
 G. Zheng, W. Liang, M. Hada, M. Ehara, K. Toyota, R. Fukuda, 
 J. Hasegawa, M. Ishida, T. Nakajima, Y. Honda, O. Kitao, H. Nakai, 
 T. Vreven, K. Throssell, J. A. Montgomery, Jr., J. E. Peralta, 
 F. Ogliaro, M. J. Bearpark, J. J. Heyd, E. N. Brothers, K. N. Kudin, 
 V. N. Staroverov, T. A. Keith, R. Kobayashi, J. Normand, 
 K. Raghavachari, A. P. Rendell, J. C. Burant, S. S. Iyengar, 
 J. Tomasi, M. Cossi, J. M. Millam, M. Klene, C. Adamo, R. Cammi, 
 J. W. Ochterski, R. L. Martin, K. Morokuma, O. Farkas, 
 J. B. Foresman, and D. J. Fox, Gaussian, Inc., Wallingford CT, 2016.
 
 ******************************************
 Gaussian 16:  ES64L-G16RevA.03 25-Dec-2016
                28-May-2023 
 ******************************************
 %chk=CCCC12CCqCrqC1rC2.chk
 %NProcShared=20
 Will use up to   20 processors via shared memory.
 -----------------------------
 # opt freq b3lyp/6-31g(2df,p)
 -----------------------------
 1/18=20,19=15,26=3,38=1/1,3;
 2/9=110,12=2,17=6,18=5,40=1/2;
 3/5=1,6=6,7=104,11=2,25=1,30=1,71=1,74=-5/1,2,3;
 4//1;
 5/5=2,38=5/2;
 6/7=2,8=2,9=2,10=2,28=1/1;
 7//1,2,3,16;
 1/18=20,19=15,26=3/3(2);
 2/9=110/2;
 99//99;
 2/9=110/2;
 3/5=1,6=6,7=104,11=2,25=1,30=1,71=1,74=-5/1,2,3;
 4/5=5,16=3,69=1/1;
 5/5=2,38=5/2;
 7//1,2,3,16;
 1/18=20,19=15,26=3/3(-5);
 2/9=110/2;
 6/7=2,8=2,9=2,10=2,19=2,28=1/1;
 99/9=1/99;
 -------------------
 Title Card Required
 -------------------
 Symbolic Z-matrix:
 Charge =  0 Multiplicity = 1
 C                     0.86262  -0.02267  -0.03438 
 C                     2.36505   0.01986  -0.02335 
 C                     2.8509    1.42522   0.28623 
 C                     4.31681   1.38544   0.35139 
 C                     5.2338    0.89471   1.57161 
 C                     6.23138   1.2992    0.37133 
 C                     7.70296   1.31912   0.32899 
 C                     5.2642    0.43498  -0.51135 
 C                     5.29788   2.52334  -0.13696 
 H                     0.52226  -1.03326  -0.26601 
 H                     0.47541   0.66578  -0.7916 
 H                     0.47202   0.27282   0.94338 
 H                     2.7457   -0.29471  -1.00426 
 H                     2.7637   -0.69053   0.71232 
 H                     2.43693   1.79124   1.2352 
 H                     2.51529   2.11795  -0.49693 
 H                     5.08545  -0.14233   1.88382 
 H                     5.28561   1.56045   2.43624 
 H                     8.14035   0.35115   0.59317 
 H                     8.08515   2.06878   1.02815 
 H                     8.0517    1.58588  -0.67398 
 H                     5.17561  -0.64111  -0.31837 
 H                     5.31821   0.58608  -1.59492 
 H                     5.24465   2.77355  -1.19947 
 H                     5.27299   3.41886   0.48585 
 

 GradGradGradGradGradGradGradGradGradGradGradGradGradGradGradGradGradGrad
 Berny optimization.
 Initialization pass.
                           ----------------------------
                           !    Initial Parameters    !
                           ! (Angstroms and Degrees)  !
 --------------------------                            --------------------------
 ! Name  Definition              Value          Derivative Info.                !
 --------------------------------------------------------------------------------
 ! R1    R(1,2)                  1.5031         estimate D2E/DX2                !
 ! R2    R(1,10)                 1.0912         estimate D2E/DX2                !
 ! R3    R(1,11)                 1.0942         estimate D2E/DX2                !
 ! R4    R(1,12)                 1.0936         estimate D2E/DX2                !
 ! R5    R(2,3)                  1.5189         estimate D2E/DX2                !
 ! R6    R(2,13)                 1.0982         estimate D2E/DX2                !
 ! R7    R(2,14)                 1.0976         estimate D2E/DX2                !
 ! R8    R(3,4)                  1.4679         estimate D2E/DX2                !
 ! R9    R(3,15)                 1.0981         estimate D2E/DX2                !
 ! R10   R(3,16)                 1.0981         estimate D2E/DX2                !
 ! R11   R(4,5)                  1.6033         estimate D2E/DX2                !
 ! R12   R(4,8)                  1.5954         estimate D2E/DX2                !
 ! R13   R(4,9)                  1.5798         estimate D2E/DX2                !
 ! R14   R(5,6)                  1.6123         estimate D2E/DX2                !
 ! R15   R(5,17)                 1.0931         estimate D2E/DX2                !
 ! R16   R(5,18)                 1.0925         estimate D2E/DX2                !
 ! R17   R(6,7)                  1.4723         estimate D2E/DX2                !
 ! R18   R(6,8)                  1.5689         estimate D2E/DX2                !
 ! R19   R(6,9)                  1.6212         estimate D2E/DX2                !
 ! R20   R(7,19)                 1.0946         estimate D2E/DX2                !
 ! R21   R(7,20)                 1.094          estimate D2E/DX2                !
 ! R22   R(7,21)                 1.0949         estimate D2E/DX2                !
 ! R23   R(8,22)                 1.0968         estimate D2E/DX2                !
 ! R24   R(8,23)                 1.0954         estimate D2E/DX2                !
 ! R25   R(9,24)                 1.0929         estimate D2E/DX2                !
 ! R26   R(9,25)                 1.0911         estimate D2E/DX2                !
 ! A1    A(2,1,10)             109.8484         estimate D2E/DX2                !
 ! A2    A(2,1,11)             109.9377         estimate D2E/DX2                !
 ! A3    A(2,1,12)             110.0487         estimate D2E/DX2                !
 ! A4    A(10,1,11)            108.9907         estimate D2E/DX2                !
 ! A5    A(10,1,12)            109.1849         estimate D2E/DX2                !
 ! A6    A(11,1,12)            108.8044         estimate D2E/DX2                !
 ! A7    A(1,2,3)              110.3295         estimate D2E/DX2                !
 ! A8    A(1,2,13)             109.3785         estimate D2E/DX2                !
 ! A9    A(1,2,14)             110.4655         estimate D2E/DX2                !
 ! A10   A(3,2,13)             109.6467         estimate D2E/DX2                !
 ! A11   A(3,2,14)             110.2462         estimate D2E/DX2                !
 ! A12   A(13,2,14)            106.7013         estimate D2E/DX2                !
 ! A13   A(2,3,4)              107.663          estimate D2E/DX2                !
 ! A14   A(2,3,15)             111.3434         estimate D2E/DX2                !
 ! A15   A(2,3,16)             109.9116         estimate D2E/DX2                !
 ! A16   A(4,3,15)             110.3125         estimate D2E/DX2                !
 ! A17   A(4,3,16)             110.73           estimate D2E/DX2                !
 ! A18   A(15,3,16)            106.908          estimate D2E/DX2                !
 ! A19   A(3,4,5)              127.8239         estimate D2E/DX2                !
 ! A20   A(3,4,8)              125.8149         estimate D2E/DX2                !
 ! A21   A(3,4,9)              125.939          estimate D2E/DX2                !
 ! A22   A(5,4,8)               83.6607         estimate D2E/DX2                !
 ! A23   A(5,4,9)               95.7703         estimate D2E/DX2                !
 ! A24   A(8,4,9)               83.8676         estimate D2E/DX2                !
 ! A25   A(4,5,6)               73.1726         estimate D2E/DX2                !
 ! A26   A(4,5,17)             115.4749         estimate D2E/DX2                !
 ! A27   A(4,5,18)             116.292          estimate D2E/DX2                !
 ! A28   A(6,5,17)             122.317          estimate D2E/DX2                !
 ! A29   A(6,5,18)             114.0149         estimate D2E/DX2                !
 ! A30   A(17,5,18)            111.0089         estimate D2E/DX2                !
 ! A31   A(5,6,7)              130.033          estimate D2E/DX2                !
 ! A32   A(5,6,8)               84.2154         estimate D2E/DX2                !
 ! A33   A(5,6,9)               93.817          estimate D2E/DX2                !
 ! A34   A(7,6,8)              127.4042         estimate D2E/DX2                !
 ! A35   A(7,6,9)              123.7992         estimate D2E/DX2                !
 ! A36   A(8,6,9)               83.3716         estimate D2E/DX2                !
 ! A37   A(6,7,19)             112.3644         estimate D2E/DX2                !
 ! A38   A(6,7,20)             109.8806         estimate D2E/DX2                !
 ! A39   A(6,7,21)             110.3652         estimate D2E/DX2                !
 ! A40   A(19,7,20)            108.1882         estimate D2E/DX2                !
 ! A41   A(19,7,21)            108.0161         estimate D2E/DX2                !
 ! A42   A(20,7,21)            107.8909         estimate D2E/DX2                !
 ! A43   A(4,8,6)               74.5537         estimate D2E/DX2                !
 ! A44   A(4,8,22)             116.1919         estimate D2E/DX2                !
 ! A45   A(4,8,23)             118.8187         estimate D2E/DX2                !
 ! A46   A(6,8,22)             119.4214         estimate D2E/DX2                !
 ! A47   A(6,8,23)             116.754          estimate D2E/DX2                !
 ! A48   A(22,8,23)            108.2618         estimate D2E/DX2                !
 ! A49   A(4,9,6)               73.5484         estimate D2E/DX2                !
 ! A50   A(4,9,24)             115.7974         estimate D2E/DX2                !
 ! A51   A(4,9,25)             113.613          estimate D2E/DX2                !
 ! A52   A(6,9,24)             120.3802         estimate D2E/DX2                !
 ! A53   A(6,9,25)             116.9948         estimate D2E/DX2                !
 ! A54   A(24,9,25)            111.4653         estimate D2E/DX2                !
 ! D1    D(10,1,2,3)           179.5081         estimate D2E/DX2                !
 ! D2    D(10,1,2,13)           58.8174         estimate D2E/DX2                !
 ! D3    D(10,1,2,14)          -58.3395         estimate D2E/DX2                !
 ! D4    D(11,1,2,3)            59.5765         estimate D2E/DX2                !
 ! D5    D(11,1,2,13)          -61.1142         estimate D2E/DX2                !
 ! D6    D(11,1,2,14)         -178.2711         estimate D2E/DX2                !
 ! D7    D(12,1,2,3)           -60.2506         estimate D2E/DX2                !
 ! D8    D(12,1,2,13)          179.0587         estimate D2E/DX2                !
 ! D9    D(12,1,2,14)           61.9018         estimate D2E/DX2                !
 ! D10   D(1,2,3,4)            177.1074         estimate D2E/DX2                !
 ! D11   D(1,2,3,15)            56.0718         estimate D2E/DX2                !
 ! D12   D(1,2,3,16)           -62.1995         estimate D2E/DX2                !
 ! D13   D(13,2,3,4)           -62.3626         estimate D2E/DX2                !
 ! D14   D(13,2,3,15)          176.6018         estimate D2E/DX2                !
 ! D15   D(13,2,3,16)           58.3305         estimate D2E/DX2                !
 ! D16   D(14,2,3,4)            54.8259         estimate D2E/DX2                !
 ! D17   D(14,2,3,15)          -66.2096         estimate D2E/DX2                !
 ! D18   D(14,2,3,16)          175.5191         estimate D2E/DX2                !
 ! D19   D(2,3,4,5)            -79.9615         estimate D2E/DX2                !
 ! D20   D(2,3,4,8)             32.8592         estimate D2E/DX2                !
 ! D21   D(2,3,4,9)            143.9842         estimate D2E/DX2                !
 ! D22   D(15,3,4,5)            41.7177         estimate D2E/DX2                !
 ! D23   D(15,3,4,8)           154.5383         estimate D2E/DX2                !
 ! D24   D(15,3,4,9)           -94.3367         estimate D2E/DX2                !
 ! D25   D(16,3,4,5)           159.8612         estimate D2E/DX2                !
 ! D26   D(16,3,4,8)           -87.3181         estimate D2E/DX2                !
 ! D27   D(16,3,4,9)            23.8069         estimate D2E/DX2                !
 ! D28   D(3,4,5,6)            177.927          estimate D2E/DX2                !
 ! D29   D(3,4,5,17)            59.5953         estimate D2E/DX2                !
 ! D30   D(3,4,5,18)           -73.1184         estimate D2E/DX2                !
 ! D31   D(8,4,5,6)             46.6939         estimate D2E/DX2                !
 ! D32   D(8,4,5,17)           -71.6378         estimate D2E/DX2                !
 ! D33   D(8,4,5,18)           155.6485         estimate D2E/DX2                !
 ! D34   D(9,4,5,6)            -36.4568         estimate D2E/DX2                !
 ! D35   D(9,4,5,17)          -154.7885         estimate D2E/DX2                !
 ! D36   D(9,4,5,18)            72.4978         estimate D2E/DX2                !
 ! D37   D(3,4,8,6)            179.1449         estimate D2E/DX2                !
 ! D38   D(3,4,8,22)           -65.2581         estimate D2E/DX2                !
 ! D39   D(3,4,8,23)            66.7476         estimate D2E/DX2                !
 ! D40   D(5,4,8,6)            -47.9555         estimate D2E/DX2                !
 ! D41   D(5,4,8,22)            67.6415         estimate D2E/DX2                !
 ! D42   D(5,4,8,23)          -160.3527         estimate D2E/DX2                !
 ! D43   D(9,4,8,6)             48.5719         estimate D2E/DX2                !
 ! D44   D(9,4,8,22)           164.1689         estimate D2E/DX2                !
 ! D45   D(9,4,8,23)           -63.8253         estimate D2E/DX2                !
 ! D46   D(3,4,9,6)           -177.291          estimate D2E/DX2                !
 ! D47   D(3,4,9,24)           -60.998          estimate D2E/DX2                !
 ! D48   D(3,4,9,25)            69.9134         estimate D2E/DX2                !
 ! D49   D(5,4,9,6)             36.1421         estimate D2E/DX2                !
 ! D50   D(5,4,9,24)           152.4351         estimate D2E/DX2                !
 ! D51   D(5,4,9,25)           -76.6535         estimate D2E/DX2                !
 ! D52   D(8,4,9,6)            -46.823          estimate D2E/DX2                !
 ! D53   D(8,4,9,24)            69.47           estimate D2E/DX2                !
 ! D54   D(8,4,9,25)          -159.6186         estimate D2E/DX2                !
 ! D55   D(4,5,6,7)            176.9133         estimate D2E/DX2                !
 ! D56   D(4,5,6,8)            -47.6653         estimate D2E/DX2                !
 ! D57   D(4,5,6,9)             35.2673         estimate D2E/DX2                !
 ! D58   D(17,5,6,7)           -73.1856         estimate D2E/DX2                !
 ! D59   D(17,5,6,8)            62.2358         estimate D2E/DX2                !
 ! D60   D(17,5,6,9)           145.1684         estimate D2E/DX2                !
 ! D61   D(18,5,6,7)            65.0826         estimate D2E/DX2                !
 ! D62   D(18,5,6,8)          -159.496          estimate D2E/DX2                !
 ! D63   D(18,5,6,9)           -76.5633         estimate D2E/DX2                !
 ! D64   D(5,6,7,19)            55.6982         estimate D2E/DX2                !
 ! D65   D(5,6,7,20)           -64.8125         estimate D2E/DX2                !
 ! D66   D(5,6,7,21)           176.3265         estimate D2E/DX2                !
 ! D67   D(8,6,7,19)           -62.7706         estimate D2E/DX2                !
 ! D68   D(8,6,7,20)           176.7188         estimate D2E/DX2                !
 ! D69   D(8,6,7,21)            57.8578         estimate D2E/DX2                !
 ! D70   D(9,6,7,19)          -172.4664         estimate D2E/DX2                !
 ! D71   D(9,6,7,20)            67.0229         estimate D2E/DX2                !
 ! D72   D(9,6,7,21)           -51.838          estimate D2E/DX2                !
 ! D73   D(5,6,8,4)             47.539          estimate D2E/DX2                !
 ! D74   D(5,6,8,22)           -64.1698         estimate D2E/DX2                !
 ! D75   D(5,6,8,23)           162.4216         estimate D2E/DX2                !
 ! D76   D(7,6,8,4)           -175.0342         estimate D2E/DX2                !
 ! D77   D(7,6,8,22)            73.257          estimate D2E/DX2                !
 ! D78   D(7,6,8,23)           -60.1516         estimate D2E/DX2                !
 ! D79   D(9,6,8,4)            -46.9997         estimate D2E/DX2                !
 ! D80   D(9,6,8,22)          -158.7085         estimate D2E/DX2                !
 ! D81   D(9,6,8,23)            67.8828         estimate D2E/DX2                !
 ! D82   D(5,6,9,4)            -35.7914         estimate D2E/DX2                !
 ! D83   D(5,6,9,24)          -146.455          estimate D2E/DX2                !
 ! D84   D(5,6,9,25)            72.7687         estimate D2E/DX2                !
 ! D85   D(7,6,9,4)            179.0806         estimate D2E/DX2                !
 ! D86   D(7,6,9,24)            68.4169         estimate D2E/DX2                !
 ! D87   D(7,6,9,25)           -72.3593         estimate D2E/DX2                !
 ! D88   D(8,6,9,4)             47.9253         estimate D2E/DX2                !
 ! D89   D(8,6,9,24)           -62.7383         estimate D2E/DX2                !
 ! D90   D(8,6,9,25)           156.4854         estimate D2E/DX2                !
 --------------------------------------------------------------------------------
 Trust Radius=3.00D-01 FncErr=1.00D-07 GrdErr=1.00D-06 EigMax=2.50D+02 EigMin=1.00D-04
 Number of steps in this run=    150 maximum allowed number of steps=    150.
 GradGradGradGradGradGradGradGradGradGradGradGradGradGradGradGradGradGrad

                          Input orientation:                          
 ---------------------------------------------------------------------
 Center     Atomic      Atomic             Coordinates (Angstroms)
 Number     Number       Type             X           Y           Z
 ---------------------------------------------------------------------
      1          6           0        0.862620   -0.022670   -0.034380
      2          6           0        2.365050    0.019860   -0.023350
      3          6           0        2.850900    1.425220    0.286230
      4          6           0        4.316810    1.385440    0.351390
      5          6           0        5.233800    0.894710    1.571610
      6          6           0        6.231380    1.299200    0.371330
      7          6           0        7.702960    1.319120    0.328990
      8          6           0        5.264200    0.434980   -0.511350
      9          6           0        5.297880    2.523340   -0.136960
     10          1           0        0.522260   -1.033260   -0.266010
     11          1           0        0.475410    0.665780   -0.791600
     12          1           0        0.472020    0.272820    0.943380
     13          1           0        2.745700   -0.294710   -1.004260
     14          1           0        2.763700   -0.690530    0.712320
     15          1           0        2.436930    1.791240    1.235200
     16          1           0        2.515290    2.117950   -0.496930
     17          1           0        5.085450   -0.142330    1.883820
     18          1           0        5.285610    1.560450    2.436240
     19          1           0        8.140350    0.351150    0.593170
     20          1           0        8.085150    2.068780    1.028150
     21          1           0        8.051700    1.585880   -0.673980
     22          1           0        5.175610   -0.641110   -0.318370
     23          1           0        5.318210    0.586080   -1.594920
     24          1           0        5.244650    2.773550   -1.199470
     25          1           0        5.272990    3.418860    0.485850
 ---------------------------------------------------------------------
                    Distance matrix (angstroms):
                    1          2          3          4          5
     1  C    0.000000
     2  C    1.503072   0.000000
     3  C    2.480410   1.518857   0.000000
     4  C    3.750069   2.411349   1.467897   0.000000
     5  C    4.746368   3.396908   2.758959   1.603316   0.000000
     6  C    5.543963   4.091576   3.383898   1.916615   1.612281
     7  C    6.980164   5.505043   4.853408   3.386873   2.796601
     8  C    4.450938   2.969097   2.727769   1.595382   2.133307
     9  C    5.115097   3.857695   2.715266   1.579810   2.361303
    10  H    1.091233   2.136310   3.430985   4.542015   5.412257
    11  H    1.094202   2.139664   2.716877   4.071939   5.317842
    12  H    1.093571   2.140588   2.723773   4.046083   4.843136
    13  H    2.135571   1.098195   2.152810   2.670033   3.773654
    14  H    2.148884   1.097627   2.159989   2.617646   3.058228
    15  H    2.716718   2.174144   1.098128   2.116540   2.956251
    16  H    2.743633   2.156115   1.098111   2.121719   3.628425
    17  H    4.639623   3.326286   3.162708   2.296352   1.093131
    18  H    5.307831   4.117362   3.250945   2.305602   1.092465
    19  H    7.314295   5.817554   5.406119   3.968334   3.114616
    20  H    7.593950   6.166301   5.325597   3.889132   3.131132
    21  H    7.394552   5.934115   5.291137   3.878268   3.668917
    22  H    4.366349   2.902269   3.168523   2.300657   2.436012
    23  H    4.760057   3.392874   3.214110   2.330215   3.182655
    24  H    5.327144   4.154295   3.123354   2.278794   3.347991
    25  H    5.618374   4.502066   3.143401   2.251035   2.748044
                    6          7          8          9         10
     6  C    0.000000
     7  C    1.472324   0.000000
     8  C    1.568897   2.726798   0.000000
     9  C    1.621203   2.729774   2.121921   0.000000
    10  H    6.200050   7.579589   4.970102   5.955888   0.000000
    11  H    5.906337   7.343028   4.802532   5.209155   1.779094
    12  H    5.878003   7.332033   5.010741   5.433314   1.780728
    13  H    4.072194   5.381118   2.668005   3.899646   2.456452
    14  H    4.012494   5.346207   3.002772   4.179989   2.469544
    15  H    3.922528   5.364251   3.589336   3.256352   3.727921
    16  H    3.903018   5.313398   3.223213   2.834912   3.735722
    17  H    2.383021   3.377083   2.470238   3.351787   5.122326
    18  H    2.286173   3.215948   3.155222   2.747484   6.059620
    19  H    2.142937   1.094562   3.082082   3.651183   7.790384
    20  H    2.111902   1.094022   3.605152   3.054993   8.276159
    21  H    2.118590   1.094865   3.020128   2.958166   7.982406
    22  H    2.314117   3.263292   1.096841   3.172003   4.670138
    23  H    2.282227   3.150525   1.095387   2.424673   5.233488
    24  H    2.369548   3.239575   2.437786   1.092871   6.137110
    25  H    2.329074   3.215318   3.146113   1.091086   6.554090
                   11         12         13         14         15
    11  H    0.000000
    12  H    1.778928   0.000000
    13  H    2.474264   3.047132   0.000000
    14  H    3.055752   2.496644   1.761716   0.000000
    15  H    3.036798   2.500326   3.075989   2.557218   0.000000
    16  H    2.521257   3.107081   2.476167   3.067825   1.764413
    17  H    5.391047   4.726575   3.720034   2.657717   3.342762
    18  H    5.861519   5.201660   4.661524   3.794581   3.100119
    19  H    7.795376   7.676722   5.663141   5.477925   5.917353
    20  H    7.949091   7.822558   6.182758   6.002614   5.658824
    21  H    7.632862   7.860759   5.639090   5.921724   5.934036
    22  H    4.901407   4.954901   2.548509   2.623371   3.978728
    23  H    4.909622   5.479658   2.782531   3.671323   4.214708
    24  H    5.230172   5.798573   3.961954   4.670108   3.843936
    25  H    5.676980   5.758143   4.732676   4.820260   3.354685
                   16         17         18         19         20
    16  H    0.000000
    17  H    4.169240   0.000000
    18  H    4.072955   1.801303   0.000000
    19  H    5.995932   3.352867   3.606779   0.000000
    20  H    5.775087   3.823530   3.174672   1.772712   0.000000
    21  H    5.564735   4.281085   4.162375   1.771464   1.769621
    22  H    3.836874   2.259768   3.528008   3.256558   4.197862
    23  H    3.377657   3.561796   4.147374   3.578743   4.090825
    24  H    2.893576   4.246690   3.832972   4.179313   3.677966
    25  H    3.203612   3.830348   2.694043   4.200490   3.166236
                   21         22         23         24         25
    21  H    0.000000
    22  H    3.654837   0.000000
    23  H    3.052818   1.776488   0.000000
    24  H    3.092932   3.527181   2.224144   0.000000
    25  H    3.525089   4.140001   3.515152   1.804863   0.000000
 Stoichiometry    C9H16
 Framework group  C1[X(C9H16)]
 Deg. of freedom    69
 Full point group                 C1      NOp   1
 Largest Abelian subgroup         C1      NOp   1
 Largest concise Abelian subgroup C1      NOp   1
                         Standard orientation:                         
 ---------------------------------------------------------------------
 Center     Atomic      Atomic             Coordinates (Angstroms)
 Number     Number       Type             X           Y           Z
 ---------------------------------------------------------------------
      1          6           0       -3.690505   -0.204295   -0.068769
      2          6           0       -2.218165   -0.487707   -0.174215
      3          6           0       -1.415027    0.741235    0.215138
      4          6           0        0.006697    0.380259    0.159296
      5          6           0        0.862343   -0.417541    1.255657
      6          6           0        1.852094   -0.117894    0.018704
      7          6           0        3.286235   -0.411212   -0.139220
      8          6           0        0.666757   -0.659496   -0.854841
      9          6           0        1.185273    1.323636   -0.306319
     10          1           0       -4.259800   -1.089052   -0.358422
     11          1           0       -3.959282    0.624509   -0.730675
     12          1           0       -3.947270    0.067734    0.958834
     13          1           0       -1.975507   -0.775806   -1.205791
     14          1           0       -1.944399   -1.338101    0.463491
     15          1           0       -1.680581    1.089719    1.222077
     16          1           0       -1.634166    1.565712   -0.476284
     17          1           0        0.506194   -1.424462    1.488474
     18          1           0        1.111663    0.130273    2.167369
     19          1           0        3.512656   -1.472341    0.005028
     20          1           0        3.865949    0.163721    0.588975
     21          1           0        3.625587   -0.125583   -1.140212
     22          1           0        0.353054   -1.705132   -0.748561
     23          1           0        0.688821   -0.414552   -1.922262
     24          1           0        1.126212    1.685805   -1.335742
     25          1           0        1.396662    2.135654    0.391112
 ---------------------------------------------------------------------
 Rotational constants (GHZ):           4.3968419           0.8316608           0.8122429
 Standard basis: 6-31G(2df,p) (6D, 7F)
 There are   359 symmetry adapted cartesian basis functions of A   symmetry.
 There are   332 symmetry adapted basis functions of A   symmetry.
   332 basis functions,   508 primitive gaussians,   359 cartesian basis functions
    35 alpha electrons       35 beta electrons
       nuclear repulsion energy       467.1046803998 Hartrees.
 NAtoms=   25 NActive=   25 NUniq=   25 SFac= 1.00D+00 NAtFMM=   60 NAOKFM=F Big=F
 Integral buffers will be    131072 words long.
 Raffenetti 2 integral format.
 Two-electron integral symmetry is turned on.
 One-electron integrals computed using PRISM.
 PrsmSu:  requested number of processors reduced to:  13 ShMem   1 Linda.
 NBasis=   332 RedAO= T EigKep=  4.27D-04  NBF=   332
 NBsUse=   332 1.00D-06 EigRej= -1.00D+00 NBFU=   332
 ExpMin= 1.61D-01 ExpMax= 3.05D+03 ExpMxC= 4.57D+02 IAcc=3 IRadAn=         5 AccDes= 0.00D+00
 Harris functional with IExCor=  402 and IRadAn=       5 diagonalized for initial guess.
 HarFok:  IExCor=  402 AccDes= 0.00D+00 IRadAn=         5 IDoV= 1 UseB2=F ITyADJ=14
 ICtDFT=  3500011 ScaDFX=  1.000000  1.000000  1.000000  1.000000
 FoFCou: FMM=F IPFlag=           0 FMFlag=      100000 FMFlg1=           0
         NFxFlg=           0 DoJE=T BraDBF=F KetDBF=T FulRan=T
         wScrn=  0.000000 ICntrl=       500 IOpCl=  0 I1Cent=   200000004 NGrid=           0
         NMat0=    1 NMatS0=      1 NMatT0=    0 NMatD0=    1 NMtDS0=    0 NMtDT0=    0
 Petite list used in FoFCou.
 Requested convergence on RMS density matrix=1.00D-08 within 128 cycles.
 Requested convergence on MAX density matrix=1.00D-06.
 Requested convergence on             energy=1.00D-06.
 No special actions if energy rises.
 Integral accuracy reduced to 1.0D-05 until final iterations.
 Initial convergence to 1.0D-05 achieved.  Increase integral accuracy.
 SCF Done:  E(RB3LYP) =  -352.529998861     A.U. after   12 cycles
            NFock= 12  Conv=0.37D-08     -V/T= 2.0090

 **********************************************************************

            Population analysis using the SCF density.

 **********************************************************************

 Orbital symmetries:
       Occupied  (A) (A) (A) (A) (A) (A) (A) (A) (A) (A) (A) (A)
                 (A) (A) (A) (A) (A) (A) (A) (A) (A) (A) (A) (A)
                 (A) (A) (A) (A) (A) (A) (A) (A) (A) (A) (A)
       Virtual   (A) (A) (A) (A) (A) (A) (A) (A) (A) (A) (A) (A)
                 (A) (A) (A) (A) (A) (A) (A) (A) (A) (A) (A) (A)
                 (A) (A) (A) (A) (A) (A) (A) (A) (A) (A) (A) (A)
                 (A) (A) (A) (A) (A) (A) (A) (A) (A) (A) (A) (A)
                 (A) (A) (A) (A) (A) (A) (A) (A) (A) (A) (A) (A)
                 (A) (A) (A) (A) (A) (A) (A) (A) (A) (A) (A) (A)
                 (A) (A) (A) (A) (A) (A) (A) (A) (A) (A) (A) (A)
                 (A) (A) (A) (A) (A) (A) (A) (A) (A) (A) (A) (A)
                 (A) (A) (A) (A) (A) (A) (A) (A) (A) (A) (A) (A)
                 (A) (A) (A) (A) (A) (A) (A) (A) (A) (A) (A) (A)
                 (A) (A) (A) (A) (A) (A) (A) (A) (A) (A) (A) (A)
                 (A) (A) (A) (A) (A) (A) (A) (A) (A) (A) (A) (A)
                 (A) (A) (A) (A) (A) (A) (A) (A) (A) (A) (A) (A)
                 (A) (A) (A) (A) (A) (A) (A) (A) (A) (A) (A) (A)
                 (A) (A) (A) (A) (A) (A) (A) (A) (A) (A) (A) (A)
                 (A) (A) (A) (A) (A) (A) (A) (A) (A) (A) (A) (A)
                 (A) (A) (A) (A) (A) (A) (A) (A) (A) (A) (A) (A)
                 (A) (A) (A) (A) (A) (A) (A) (A) (A) (A) (A) (A)
                 (A) (A) (A) (A) (A) (A) (A) (A) (A) (A) (A) (A)
                 (A) (A) (A) (A) (A) (A) (A) (A) (A) (A) (A) (A)
                 (A) (A) (A) (A) (A) (A) (A) (A) (A) (A) (A) (A)
                 (A) (A) (A) (A) (A) (A) (A) (A) (A) (A) (A) (A)
                 (A) (A) (A) (A) (A) (A) (A) (A) (A) (A) (A) (A)
                 (A) (A) (A) (A) (A) (A) (A) (A) (A) (A) (A) (A)
                 (A) (A) (A) (A) (A) (A) (A) (A) (A)
 The electronic state is 1-A.
 Alpha  occ. eigenvalues --  -10.20493 -10.19483 -10.18241 -10.17585 -10.17334
 Alpha  occ. eigenvalues --  -10.17056 -10.16783 -10.16745 -10.16431  -0.88487
 Alpha  occ. eigenvalues --   -0.79003  -0.72713  -0.68974  -0.66377  -0.64355
 Alpha  occ. eigenvalues --   -0.58452  -0.53682  -0.52679  -0.46347  -0.44873
 Alpha  occ. eigenvalues --   -0.44129  -0.43788  -0.41513  -0.40740  -0.39894
 Alpha  occ. eigenvalues --   -0.38335  -0.35983  -0.34881  -0.34240  -0.32795
 Alpha  occ. eigenvalues --   -0.30755  -0.29420  -0.28443  -0.28052  -0.26240
 Alpha virt. eigenvalues --    0.08710   0.10146   0.11153   0.12328   0.12511
 Alpha virt. eigenvalues --    0.14169   0.14584   0.14861   0.15356   0.15672
 Alpha virt. eigenvalues --    0.17270   0.17392   0.17781   0.17848   0.18786
 Alpha virt. eigenvalues --    0.20162   0.21010   0.21857   0.22925   0.24543
 Alpha virt. eigenvalues --    0.24717   0.26199   0.27334   0.27362   0.29135
 Alpha virt. eigenvalues --    0.32783   0.43997   0.44262   0.45192   0.46014
 Alpha virt. eigenvalues --    0.47368   0.49195   0.51320   0.52284   0.53663
 Alpha virt. eigenvalues --    0.54706   0.56920   0.57788   0.58462   0.58899
 Alpha virt. eigenvalues --    0.60166   0.61449   0.62324   0.64398   0.64892
 Alpha virt. eigenvalues --    0.66361   0.67268   0.68468   0.71633   0.72510
 Alpha virt. eigenvalues --    0.73063   0.74100   0.74263   0.75619   0.76131
 Alpha virt. eigenvalues --    0.76577   0.78009   0.79066   0.79797   0.81039
 Alpha virt. eigenvalues --    0.81615   0.83530   0.84077   0.84727   0.85085
 Alpha virt. eigenvalues --    0.86527   0.86861   0.88740   0.90800   0.92815
 Alpha virt. eigenvalues --    0.95376   1.01000   1.01776   1.11460   1.12563
 Alpha virt. eigenvalues --    1.14536   1.16577   1.18239   1.19599   1.21899
 Alpha virt. eigenvalues --    1.24611   1.25570   1.26837   1.27243   1.29597
 Alpha virt. eigenvalues --    1.32612   1.34510   1.36751   1.37804   1.40430
 Alpha virt. eigenvalues --    1.43231   1.45197   1.46420   1.48383   1.51188
 Alpha virt. eigenvalues --    1.53131   1.54258   1.55817   1.56979   1.58143
 Alpha virt. eigenvalues --    1.60898   1.61700   1.62628   1.63993   1.66518
 Alpha virt. eigenvalues --    1.68043   1.69490   1.71749   1.73566   1.75390
 Alpha virt. eigenvalues --    1.79076   1.81232   1.83565   1.85346   1.87205
 Alpha virt. eigenvalues --    1.90975   1.92756   1.94022   1.95219   1.96009
 Alpha virt. eigenvalues --    1.97199   2.00562   2.02565   2.06246   2.16300
 Alpha virt. eigenvalues --    2.17013   2.20863   2.24435   2.26072   2.27999
 Alpha virt. eigenvalues --    2.28678   2.30398   2.32189   2.34008   2.35707
 Alpha virt. eigenvalues --    2.36599   2.40329   2.42656   2.43283   2.45873
 Alpha virt. eigenvalues --    2.46950   2.51377   2.55587   2.56675   2.63407
 Alpha virt. eigenvalues --    2.64147   2.67227   2.68198   2.69908   2.74788
 Alpha virt. eigenvalues --    2.76355   2.77098   2.77765   2.80596   2.81836
 Alpha virt. eigenvalues --    2.82984   2.84157   2.84991   2.85997   2.87841
 Alpha virt. eigenvalues --    2.88563   2.90587   2.91670   2.92174   2.92725
 Alpha virt. eigenvalues --    2.94441   2.95615   2.96238   2.97892   3.00443
 Alpha virt. eigenvalues --    3.02356   3.03693   3.05664   3.06073   3.08260
 Alpha virt. eigenvalues --    3.11956   3.12815   3.16974   3.17090   3.18438
 Alpha virt. eigenvalues --    3.19799   3.21720   3.25042   3.27771   3.29717
 Alpha virt. eigenvalues --    3.31513   3.32524   3.36381   3.38144   3.38399
 Alpha virt. eigenvalues --    3.40536   3.41934   3.45388   3.46256   3.51657
 Alpha virt. eigenvalues --    3.54684   3.56076   3.58148   3.60226   3.62478
 Alpha virt. eigenvalues --    3.63420   3.65063   3.67648   3.69791   3.71894
 Alpha virt. eigenvalues --    3.73250   3.74201   3.75903   3.78182   3.80768
 Alpha virt. eigenvalues --    3.82726   3.83725   3.87680   3.90016   3.90175
 Alpha virt. eigenvalues --    3.93965   3.98560   4.00011   4.00782   4.07978
 Alpha virt. eigenvalues --    4.10941   4.12055   4.15595   4.17108   4.23312
 Alpha virt. eigenvalues --    4.33423   4.34262   4.36293   4.39751   4.41702
 Alpha virt. eigenvalues --    4.41992   4.43794   4.44548   4.45552   4.45922
 Alpha virt. eigenvalues --    4.47192   4.50535   4.52666   4.56128   4.56648
 Alpha virt. eigenvalues --    4.58142   4.60123   4.62369   4.63128   4.64846
 Alpha virt. eigenvalues --    4.66409   4.68292   4.69610   4.71186   4.73947
 Alpha virt. eigenvalues --    4.74405   4.75592   4.78345   4.79695   4.82995
 Alpha virt. eigenvalues --    4.83326   4.84347   4.86561   4.87846   4.88549
 Alpha virt. eigenvalues --    4.89351   4.90729   4.92067   4.93200   4.96630
 Alpha virt. eigenvalues --    4.97686   5.00673   5.04997   5.10143   5.11361
 Alpha virt. eigenvalues --    5.16098   5.22730   5.25306   5.33157   5.38423
 Alpha virt. eigenvalues --    5.43824   5.46367   5.49385   5.51858   5.53520
 Alpha virt. eigenvalues --    5.56963   5.60997   5.63879   5.66435   5.74851
 Alpha virt. eigenvalues --    5.87745   6.33034   6.93535  11.02961  11.30380
 Alpha virt. eigenvalues --   11.65857  11.89223  11.98006  12.05566  12.23841
 Alpha virt. eigenvalues --   12.49146  13.11531
          Condensed to atoms (all electrons):
               1          2          3          4          5          6
     1  C    4.992918   0.389365  -0.038591  -0.000676  -0.000038  -0.000039
     2  C    0.389365   4.754284   0.409351  -0.019505  -0.000483   0.000979
     3  C   -0.038591   0.409351   5.178751   0.368585  -0.058366  -0.003858
     4  C   -0.000676  -0.019505   0.368585   4.315637   0.366708  -0.025497
     5  C   -0.000038  -0.000483  -0.058366   0.366708   5.174185   0.361343
     6  C   -0.000039   0.000979  -0.003858  -0.025497   0.361343   4.382062
     7  C   -0.000000   0.000013  -0.001056  -0.001664  -0.057537   0.360968
     8  C    0.000628  -0.013782  -0.053296   0.378310  -0.096927   0.378346
     9  C   -0.000279   0.004217  -0.061712   0.346571  -0.062475   0.362077
    10  H    0.369454  -0.021321   0.003873  -0.000131   0.000003   0.000000
    11  H    0.377621  -0.028194  -0.005121   0.000616   0.000001   0.000001
    12  H    0.375728  -0.027163  -0.004962   0.000478   0.000004   0.000002
    13  H   -0.039938   0.377230  -0.033521  -0.003390  -0.000228   0.000411
    14  H   -0.037382   0.375993  -0.042804   0.001950   0.003212   0.000087
    15  H   -0.004509  -0.032619   0.336811  -0.004017  -0.009892   0.000403
    16  H   -0.003359  -0.029592   0.332133  -0.001528   0.005425   0.000267
    17  H   -0.000070   0.000070  -0.000425  -0.020690   0.370053  -0.014119
    18  H    0.000008   0.000045   0.000717  -0.013834   0.333421  -0.018151
    19  H    0.000000  -0.000001   0.000014   0.000072  -0.001740  -0.009579
    20  H   -0.000000   0.000000   0.000024   0.000240  -0.003331  -0.012245
    21  H    0.000000  -0.000000   0.000019   0.000288   0.004787  -0.007711
    22  H   -0.000047   0.000801  -0.000079  -0.023412  -0.013785  -0.019974
    23  H   -0.000036  -0.000803   0.000555  -0.020907   0.011943  -0.023599
    24  H   -0.000000  -0.000000  -0.000857  -0.017451   0.008111  -0.017056
    25  H    0.000003  -0.000031   0.001017  -0.016367  -0.010740  -0.016831
               7          8          9         10         11         12
     1  C   -0.000000   0.000628  -0.000279   0.369454   0.377621   0.375728
     2  C    0.000013  -0.013782   0.004217  -0.021321  -0.028194  -0.027163
     3  C   -0.001056  -0.053296  -0.061712   0.003873  -0.005121  -0.004962
     4  C   -0.001664   0.378310   0.346571  -0.000131   0.000616   0.000478
     5  C   -0.057537  -0.096927  -0.062475   0.000003   0.000001   0.000004
     6  C    0.360968   0.378346   0.362077   0.000000   0.000001   0.000002
     7  C    5.249076  -0.052983  -0.059869   0.000000   0.000000   0.000000
     8  C   -0.052983   5.135761  -0.098589  -0.000002   0.000006   0.000012
     9  C   -0.059869  -0.098589   5.212412   0.000003   0.000001   0.000000
    10  H    0.000000  -0.000002   0.000003   0.614161  -0.031936  -0.031456
    11  H    0.000000   0.000006   0.000001  -0.031936   0.604770  -0.033157
    12  H    0.000000   0.000012   0.000000  -0.031456  -0.033157   0.604832
    13  H    0.000006   0.005460   0.000307  -0.002438  -0.005095   0.005907
    14  H    0.000008  -0.000920   0.000010  -0.002411   0.005942  -0.004666
    15  H    0.000019   0.005307   0.002381  -0.000031  -0.000519   0.005423
    16  H    0.000017  -0.000118  -0.010235  -0.000097   0.005193  -0.000490
    17  H    0.000221  -0.016503   0.008112   0.000001   0.000000   0.000000
    18  H    0.000829   0.011438  -0.011420  -0.000000   0.000000  -0.000000
    19  H    0.351745  -0.002968   0.004983  -0.000000  -0.000000  -0.000000
    20  H    0.356245   0.005036  -0.003457  -0.000000  -0.000000   0.000000
    21  H    0.352851  -0.004353  -0.003278  -0.000000   0.000000  -0.000000
    22  H   -0.000046   0.347587   0.012076   0.000005   0.000001  -0.000001
    23  H   -0.000438   0.346342  -0.013604  -0.000000   0.000003  -0.000000
    24  H   -0.000006  -0.016980   0.368540   0.000000   0.000000   0.000000
    25  H    0.000777   0.011812   0.333267  -0.000000   0.000000   0.000000
              13         14         15         16         17         18
     1  C   -0.039938  -0.037382  -0.004509  -0.003359  -0.000070   0.000008
     2  C    0.377230   0.375993  -0.032619  -0.029592   0.000070   0.000045
     3  C   -0.033521  -0.042804   0.336811   0.332133  -0.000425   0.000717
     4  C   -0.003390   0.001950  -0.004017  -0.001528  -0.020690  -0.013834
     5  C   -0.000228   0.003212  -0.009892   0.005425   0.370053   0.333421
     6  C    0.000411   0.000087   0.000403   0.000267  -0.014119  -0.018151
     7  C    0.000006   0.000008   0.000019   0.000017   0.000221   0.000829
     8  C    0.005460  -0.000920   0.005307  -0.000118  -0.016503   0.011438
     9  C    0.000307   0.000010   0.002381  -0.010235   0.008112  -0.011420
    10  H   -0.002438  -0.002411  -0.000031  -0.000097   0.000001  -0.000000
    11  H   -0.005095   0.005942  -0.000519   0.005193   0.000000   0.000000
    12  H    0.005907  -0.004666   0.005423  -0.000490   0.000000  -0.000000
    13  H    0.637318  -0.042663   0.006033  -0.006763   0.000049  -0.000015
    14  H   -0.042663   0.646885  -0.005174   0.006439   0.001888  -0.000088
    15  H    0.006033  -0.005174   0.650639  -0.044457  -0.000034   0.001709
    16  H   -0.006763   0.006439  -0.044457   0.652879  -0.000100  -0.000072
    17  H    0.000049   0.001888  -0.000034  -0.000100   0.606471  -0.048888
    18  H   -0.000015  -0.000088   0.001709  -0.000072  -0.048888   0.659140
    19  H   -0.000000   0.000000  -0.000000  -0.000000   0.000748  -0.000138
    20  H   -0.000000  -0.000000  -0.000001  -0.000000  -0.000113   0.001441
    21  H    0.000000  -0.000000  -0.000000  -0.000001  -0.000052  -0.000135
    22  H   -0.000180   0.000962  -0.000111  -0.000141   0.007604   0.000023
    23  H    0.001207   0.000154  -0.000116   0.000705   0.000234  -0.000618
    24  H    0.000007   0.000004  -0.000181   0.002402  -0.000271  -0.000313
    25  H   -0.000004  -0.000002   0.000706   0.000278  -0.000320   0.005959
              19         20         21         22         23         24
     1  C    0.000000  -0.000000   0.000000  -0.000047  -0.000036  -0.000000
     2  C   -0.000001   0.000000  -0.000000   0.000801  -0.000803  -0.000000
     3  C    0.000014   0.000024   0.000019  -0.000079   0.000555  -0.000857
     4  C    0.000072   0.000240   0.000288  -0.023412  -0.020907  -0.017451
     5  C   -0.001740  -0.003331   0.004787  -0.013785   0.011943   0.008111
     6  C   -0.009579  -0.012245  -0.007711  -0.019974  -0.023599  -0.017056
     7  C    0.351745   0.356245   0.352851  -0.000046  -0.000438  -0.000006
     8  C   -0.002968   0.005036  -0.004353   0.347587   0.346342  -0.016980
     9  C    0.004983  -0.003457  -0.003278   0.012076  -0.013604   0.368540
    10  H   -0.000000  -0.000000  -0.000000   0.000005  -0.000000   0.000000
    11  H   -0.000000  -0.000000   0.000000   0.000001   0.000003   0.000000
    12  H   -0.000000   0.000000  -0.000000  -0.000001  -0.000000   0.000000
    13  H   -0.000000  -0.000000   0.000000  -0.000180   0.001207   0.000007
    14  H    0.000000  -0.000000  -0.000000   0.000962   0.000154   0.000004
    15  H   -0.000000  -0.000001  -0.000000  -0.000111  -0.000116  -0.000181
    16  H   -0.000000  -0.000000  -0.000001  -0.000141   0.000705   0.002402
    17  H    0.000748  -0.000113  -0.000052   0.007604   0.000234  -0.000271
    18  H   -0.000138   0.001441  -0.000135   0.000023  -0.000618  -0.000313
    19  H    0.607050  -0.032689  -0.031298   0.001212  -0.000103  -0.000069
    20  H   -0.032689   0.605243  -0.032592  -0.000103  -0.000135  -0.000140
    21  H   -0.031298  -0.032592   0.602320  -0.000105   0.001982   0.001311
    22  H    0.001212  -0.000103  -0.000105   0.660973  -0.050553   0.000283
    23  H   -0.000103  -0.000135   0.001982  -0.050553   0.663698   0.008569
    24  H   -0.000069  -0.000140   0.001311   0.000283   0.008569   0.611290
    25  H   -0.000115   0.001369  -0.000159  -0.000639   0.000057  -0.048561
              25
     1  C    0.000003
     2  C   -0.000031
     3  C    0.001017
     4  C   -0.016367
     5  C   -0.010740
     6  C   -0.016831
     7  C    0.000777
     8  C    0.011812
     9  C    0.333267
    10  H   -0.000000
    11  H    0.000000
    12  H    0.000000
    13  H   -0.000004
    14  H   -0.000002
    15  H    0.000706
    16  H    0.000278
    17  H   -0.000320
    18  H    0.005959
    19  H   -0.000115
    20  H    0.001369
    21  H   -0.000159
    22  H   -0.000639
    23  H    0.000057
    24  H   -0.048561
    25  H    0.663317
 Mulliken charges:
               1
     1  C   -0.380760
     2  C   -0.138853
     3  C   -0.327203
     4  C    0.389612
     5  C   -0.323655
     6  C    0.321713
     7  C   -0.499177
     8  C   -0.268625
     9  C   -0.330037
    10  H    0.102321
    11  H    0.109868
    12  H    0.109508
    13  H    0.100300
    14  H    0.092575
    15  H    0.092229
    16  H    0.091216
    17  H    0.106132
    18  H    0.078941
    19  H    0.112877
    20  H    0.115208
    21  H    0.116125
    22  H    0.077649
    23  H    0.075463
    24  H    0.101370
    25  H    0.075206
 Sum of Mulliken charges =  -0.00000
 Mulliken charges with hydrogens summed into heavy atoms:
               1
     1  C   -0.059064
     2  C    0.054022
     3  C   -0.143759
     4  C    0.389612
     5  C   -0.138582
     6  C    0.321713
     7  C   -0.154968
     8  C   -0.115513
     9  C   -0.153461
 Electronic spatial extent (au):  <R**2>=           1597.3990
 Charge=              0.0000 electrons
 Dipole moment (field-independent basis, Debye):
    X=             -0.0527    Y=             -0.0596    Z=             -0.0667  Tot=              0.1039
 Quadrupole moment (field-independent basis, Debye-Ang):
   XX=            -59.7941   YY=            -57.9056   ZZ=            -57.4177
   XY=              0.0337   XZ=             -0.1058   YZ=             -0.5844
 Traceless Quadrupole moment (field-independent basis, Debye-Ang):
   XX=             -1.4216   YY=              0.4669   ZZ=              0.9547
   XY=              0.0337   XZ=             -0.1058   YZ=             -0.5844
 Octapole moment (field-independent basis, Debye-Ang**2):
  XXX=              5.8401  YYY=             -2.1702  ZZZ=             -1.1593  XYY=             -1.4497
  XXY=              0.0344  XXZ=             -0.3048  XZZ=             -0.7883  YZZ=              1.6621
  YYZ=              0.3380  XYZ=              0.2739
 Hexadecapole moment (field-independent basis, Debye-Ang**3):
 XXXX=          -1774.0530 YYYY=           -271.1765 ZZZZ=           -226.5375 XXXY=              3.0247
 XXXZ=              2.3735 YYYX=             -1.3100 YYYZ=             -2.8040 ZZZX=             -3.6778
 ZZZY=             -0.7757 XXYY=           -328.7878 XXZZ=           -317.9987 YYZZ=            -81.7645
 XXYZ=              1.0708 YYXZ=              2.5434 ZZXY=              1.6706
 N-N= 4.671046803998D+02 E-N=-1.749029372569D+03  KE= 3.493907326531D+02
 PrsmSu:  requested number of processors reduced to:  13 ShMem   1 Linda.
 Calling FoFJK, ICntrl=      2127 FMM=F ISym2X=0 I1Cent= 0 IOpClX= 0 NMat=1 NMatS=1 NMatT=0.
 ***** Axes restored to original set *****
 -------------------------------------------------------------------
 Center     Atomic                   Forces (Hartrees/Bohr)
 Number     Number              X              Y              Z
 -------------------------------------------------------------------
      1        6          -0.007936049   -0.007272213   -0.000592713
      2        6          -0.006830661    0.000009552   -0.000446973
      3        6          -0.006513887   -0.004960965   -0.000425897
      4        6           0.039613045   -0.007062796   -0.016862979
      5        6           0.000375732    0.052591569   -0.024736999
      6        6          -0.034229514   -0.011140971   -0.018057402
      7        6           0.014838695   -0.001414992    0.003262571
      8        6          -0.003471713   -0.004070197   -0.002014002
      9        6          -0.003079191   -0.021098461    0.055603155
     10        1          -0.006219834   -0.000790424   -0.000089781
     11        1          -0.003341273   -0.000331698    0.000363688
     12        1          -0.003909567   -0.000372648   -0.000224197
     13        1           0.001289153    0.000978826    0.002048865
     14        1           0.000089681    0.000698995   -0.000178435
     15        1          -0.001959772   -0.000447558   -0.000731086
     16        1          -0.000224524   -0.000345538    0.000116079
     17        1           0.007826600    0.000010260   -0.006465882
     18        1          -0.002782323    0.001267588    0.002845380
     19        1           0.000878196   -0.000766012    0.000631721
     20        1           0.003315106    0.000328918    0.000540384
     21        1           0.000981524    0.000106252   -0.000305120
     22        1           0.004139091    0.001250169    0.003689560
     23        1          -0.002133930    0.003996260   -0.000164779
     24        1           0.004853095   -0.005459174    0.001184986
     25        1           0.004432319    0.004295261    0.001009858
 -------------------------------------------------------------------
 Cartesian Forces:  Max     0.055603155 RMS     0.012277418

 GradGradGradGradGradGradGradGradGradGradGradGradGradGradGradGradGradGrad
 Berny optimization.
 FormGI is forming the generalized inverse of G from B-inverse, IUseBI=4.
 Internal  Forces:  Max     0.035169479 RMS     0.006745658
 Search for a local minimum.
 Step number   1 out of a maximum of  150
 All quantities printed in internal units (Hartrees-Bohrs-Radians)
 Mixed Optimization -- RFO/linear search
 Second derivative matrix not updated -- first step.
 ITU=  0
     Eigenvalues ---    0.00517   0.00725   0.01132   0.01191   0.01983
     Eigenvalues ---    0.02092   0.02467   0.02517   0.02621   0.02987
     Eigenvalues ---    0.03008   0.03072   0.03175   0.03556   0.03938
     Eigenvalues ---    0.04057   0.04364   0.04519   0.05070   0.05277
     Eigenvalues ---    0.05824   0.05929   0.05944   0.05962   0.06184
     Eigenvalues ---    0.06826   0.07367   0.07613   0.07818   0.08094
     Eigenvalues ---    0.08974   0.10174   0.11726   0.11992   0.16000
     Eigenvalues ---    0.16000   0.16000   0.16000   0.16000   0.16000
     Eigenvalues ---    0.16561   0.17889   0.18604   0.18996   0.21272
     Eigenvalues ---    0.21797   0.21850   0.21857   0.24289   0.30477
     Eigenvalues ---    0.32057   0.33882   0.33890   0.33892   0.33946
     Eigenvalues ---    0.34034   0.34197   0.34256   0.34291   0.34332
     Eigenvalues ---    0.34352   0.34403   0.34453   0.34483   0.34529
     Eigenvalues ---    0.34671   0.34687   0.35464   0.35993
 RFO step:  Lambda=-3.89248007D-02 EMin= 5.16504948D-03
 Linear search not attempted -- first point.
 Maximum step size (   0.300) exceeded in Quadratic search.
    -- Step size scaled by   0.902
 Iteration  1 RMS(Cart)=  0.08329881 RMS(Int)=  0.00187190
 Iteration  2 RMS(Cart)=  0.00230201 RMS(Int)=  0.00077530
 Iteration  3 RMS(Cart)=  0.00000529 RMS(Int)=  0.00077530
 Iteration  4 RMS(Cart)=  0.00000000 RMS(Int)=  0.00077530
 Variable       Old X    -DE/DX   Delta X   Delta X   Delta X     New X
                                 (Linear)    (Quad)   (Total)
    R1        2.84040   0.02165   0.00000   0.05432   0.05432   2.89471
    R2        2.06213   0.00269   0.00000   0.00629   0.00629   2.06842
    R3        2.06774   0.00072   0.00000   0.00171   0.00171   2.06945
    R4        2.06655   0.00110   0.00000   0.00258   0.00258   2.06913
    R5        2.87022   0.01496   0.00000   0.03925   0.03925   2.90948
    R6        2.07529  -0.00166   0.00000  -0.00397  -0.00397   2.07132
    R7        2.07422  -0.00054   0.00000  -0.00129  -0.00129   2.07293
    R8        2.77392   0.03517   0.00000   0.07953   0.07953   2.85345
    R9        2.07516  -0.00004   0.00000  -0.00010  -0.00010   2.07506
   R10        2.07513  -0.00023   0.00000  -0.00055  -0.00055   2.07458
   R11        3.02983  -0.01833   0.00000  -0.06113  -0.06022   2.96961
   R12        3.01483  -0.00358   0.00000  -0.01603  -0.01713   2.99771
   R13        2.98541  -0.01472   0.00000  -0.03937  -0.03892   2.94649
   R14        3.04677  -0.02188   0.00000  -0.07352  -0.07324   2.97353
   R15        2.06572  -0.00292   0.00000  -0.00686  -0.00686   2.05885
   R16        2.06446   0.00289   0.00000   0.00679   0.00679   2.07125
   R17        2.78229   0.01986   0.00000   0.04552   0.04552   2.82781
   R18        2.96479  -0.00335   0.00000  -0.00896  -0.00944   2.95534
   R19        3.06363  -0.02149   0.00000  -0.07592  -0.07597   2.98766
   R20        2.06842   0.00118   0.00000   0.00279   0.00279   2.07121
   R21        2.06740   0.00173   0.00000   0.00408   0.00408   2.07148
   R22        2.06899   0.00062   0.00000   0.00146   0.00146   2.07046
   R23        2.07273  -0.00091   0.00000  -0.00217  -0.00217   2.07056
   R24        2.06998   0.00061   0.00000   0.00144   0.00144   2.07142
   R25        2.06523  -0.00264   0.00000  -0.00620  -0.00620   2.05902
   R26        2.06185   0.00400   0.00000   0.00935   0.00935   2.07121
    A1        1.91722   0.00680   0.00000   0.03173   0.03146   1.94867
    A2        1.91878   0.00268   0.00000   0.01168   0.01153   1.93031
    A3        1.92071   0.00344   0.00000   0.01516   0.01498   1.93569
    A4        1.90225  -0.00458   0.00000  -0.01992  -0.02015   1.88210
    A5        1.90564  -0.00499   0.00000  -0.02172  -0.02201   1.88363
    A6        1.89899  -0.00358   0.00000  -0.01797  -0.01802   1.88098
    A7        1.92561   0.01360   0.00000   0.05075   0.05076   1.97637
    A8        1.90901  -0.00242   0.00000  -0.00090  -0.00083   1.90818
    A9        1.92799  -0.00431   0.00000  -0.01374  -0.01361   1.91437
   A10        1.91370  -0.00505   0.00000  -0.01866  -0.01903   1.89467
   A11        1.92416  -0.00433   0.00000  -0.01641  -0.01648   1.90768
   A12        1.86229   0.00200   0.00000  -0.00319  -0.00349   1.85879
   A13        1.87907   0.02956   0.00000   0.11069   0.11075   1.98983
   A14        1.94331  -0.01115   0.00000  -0.04462  -0.04507   1.89824
   A15        1.91832  -0.00763   0.00000  -0.02039  -0.02111   1.89721
   A16        1.92532  -0.00744   0.00000  -0.01910  -0.01840   1.90692
   A17        1.93260  -0.00886   0.00000  -0.02429  -0.02482   1.90779
   A18        1.86590   0.00466   0.00000  -0.00519  -0.00651   1.85938
   A19        2.23095   0.00480   0.00000   0.01555   0.01590   2.24685
   A20        2.19589  -0.00303   0.00000  -0.00836  -0.01010   2.18578
   A21        2.19805   0.00789   0.00000   0.03767   0.03703   2.23508
   A22        1.46015   0.00099   0.00000   0.02666   0.02756   1.48772
   A23        1.67151  -0.01460   0.00000  -0.09977  -0.10129   1.57022
   A24        1.46377   0.00028   0.00000   0.02525   0.02597   1.48973
   A25        1.27710   0.00810   0.00000   0.03228   0.03029   1.30740
   A26        2.01542  -0.00625   0.00000  -0.01733  -0.01619   1.99923
   A27        2.02968   0.00182   0.00000   0.01296   0.01252   2.04220
   A28        2.13483  -0.00923   0.00000  -0.06669  -0.06642   2.06841
   A29        1.98994   0.00258   0.00000   0.03026   0.03033   2.02026
   A30        1.93747   0.00355   0.00000   0.01256   0.01226   1.94974
   A31        2.26950   0.00305   0.00000   0.00418   0.00496   2.27447
   A32        1.46984   0.00211   0.00000   0.02894   0.02986   1.49970
   A33        1.63742  -0.01069   0.00000  -0.07988  -0.08225   1.55516
   A34        2.22362  -0.00344   0.00000  -0.01393  -0.01562   2.20801
   A35        2.16070   0.00500   0.00000   0.02884   0.02868   2.18939
   A36        1.45511   0.00232   0.00000   0.03412   0.03504   1.49015
   A37        1.96113  -0.00039   0.00000  -0.00250  -0.00250   1.95863
   A38        1.91778   0.00396   0.00000   0.01868   0.01865   1.93643
   A39        1.92624   0.00053   0.00000   0.00240   0.00237   1.92860
   A40        1.88824  -0.00197   0.00000  -0.00899  -0.00899   1.87925
   A41        1.88524  -0.00047   0.00000  -0.00350  -0.00350   1.88174
   A42        1.88305  -0.00185   0.00000  -0.00689  -0.00695   1.87610
   A43        1.30121  -0.00001   0.00000   0.00575   0.00358   1.30478
   A44        2.02793  -0.00053   0.00000   0.00365   0.00450   2.03243
   A45        2.07378  -0.00069   0.00000  -0.01322  -0.01276   2.06102
   A46        2.08430  -0.00261   0.00000  -0.02412  -0.02352   2.06077
   A47        2.03774   0.00033   0.00000   0.00165   0.00234   2.04008
   A48        1.88952   0.00238   0.00000   0.01858   0.01804   1.90756
   A49        1.28366   0.00724   0.00000   0.02807   0.02600   1.30966
   A50        2.02105  -0.00587   0.00000  -0.02144  -0.02007   2.00098
   A51        1.98292   0.00341   0.00000   0.03989   0.03972   2.02264
   A52        2.10103  -0.00755   0.00000  -0.05213  -0.05155   2.04948
   A53        2.04194   0.00095   0.00000   0.00677   0.00552   2.04747
   A54        1.94544   0.00288   0.00000   0.00941   0.00849   1.95393
    D1        3.13301  -0.00006   0.00000   0.00049   0.00057   3.13358
    D2        1.02656  -0.00081   0.00000  -0.00776  -0.00787   1.01868
    D3       -1.01822   0.00074   0.00000   0.00473   0.00472  -1.01350
    D4        1.03981  -0.00035   0.00000  -0.00211  -0.00206   1.03775
    D5       -1.06664  -0.00109   0.00000  -0.01036  -0.01051  -1.07715
    D6       -3.11142   0.00045   0.00000   0.00213   0.00208  -3.10933
    D7       -1.05157   0.00024   0.00000   0.00325   0.00341  -1.04816
    D8        3.12516  -0.00051   0.00000  -0.00500  -0.00504   3.12013
    D9        1.08039   0.00104   0.00000   0.00749   0.00755   1.08794
   D10        3.09111  -0.00043   0.00000  -0.00674  -0.00711   3.08399
   D11        0.97864  -0.00364   0.00000  -0.02779  -0.02714   0.95150
   D12       -1.08559   0.00239   0.00000   0.01939   0.01924  -1.06634
   D13       -1.08843   0.00194   0.00000   0.01232   0.01174  -1.07669
   D14        3.08228  -0.00127   0.00000  -0.00873  -0.00828   3.07400
   D15        1.01806   0.00476   0.00000   0.03845   0.03810   1.05616
   D16        0.95689  -0.00121   0.00000  -0.01242  -0.01272   0.94417
   D17       -1.15558  -0.00442   0.00000  -0.03348  -0.03275  -1.18832
   D18        3.06339   0.00161   0.00000   0.01371   0.01363   3.07702
   D19       -1.39559  -0.00214   0.00000  -0.03356  -0.03447  -1.43006
   D20        0.57350   0.00138   0.00000   0.01900   0.01879   0.59229
   D21        2.51300   0.00696   0.00000   0.09085   0.09145   2.60445
   D22        0.72811  -0.00161   0.00000  -0.02983  -0.03046   0.69765
   D23        2.69720   0.00190   0.00000   0.02273   0.02280   2.72000
   D24       -1.64649   0.00748   0.00000   0.09459   0.09546  -1.55103
   D25        2.79010  -0.00603   0.00000  -0.06334  -0.06401   2.72610
   D26       -1.52399  -0.00251   0.00000  -0.01078  -0.01075  -1.53474
   D27        0.41551   0.00307   0.00000   0.06107   0.06191   0.47742
   D28        3.10541  -0.00414   0.00000  -0.01448  -0.01542   3.08999
   D29        1.04013   0.00251   0.00000   0.04591   0.04523   1.08537
   D30       -1.27616   0.00189   0.00000   0.03115   0.03023  -1.24593
   D31        0.81496  -0.00346   0.00000  -0.03621  -0.03726   0.77770
   D32       -1.25032   0.00319   0.00000   0.02418   0.02339  -1.22692
   D33        2.71658   0.00256   0.00000   0.00942   0.00839   2.72496
   D34       -0.63629  -0.00567   0.00000  -0.07722  -0.07551  -0.71180
   D35       -2.70157   0.00098   0.00000  -0.01684  -0.01486  -2.71643
   D36        1.26532   0.00035   0.00000  -0.03159  -0.02986   1.23546
   D37        3.12667   0.00189   0.00000   0.01220   0.01186   3.13853
   D38       -1.13897  -0.00099   0.00000  -0.01262  -0.01327  -1.15224
   D39        1.16497   0.00146   0.00000   0.00659   0.00658   1.17155
   D40       -0.83698   0.00761   0.00000   0.05218   0.05250  -0.78448
   D41        1.18057   0.00473   0.00000   0.02736   0.02736   1.20793
   D42       -2.79868   0.00718   0.00000   0.04658   0.04722  -2.75147
   D43        0.84774  -0.00734   0.00000  -0.05528  -0.05525   0.79249
   D44        2.86529  -0.01022   0.00000  -0.08010  -0.08038   2.78491
   D45       -1.11396  -0.00777   0.00000  -0.06089  -0.06053  -1.17449
   D46       -3.09431   0.00291   0.00000   0.00730   0.00692  -3.08740
   D47       -1.06462  -0.00212   0.00000  -0.03782  -0.03834  -1.10295
   D48        1.22022  -0.00020   0.00000  -0.00453  -0.00478   1.21544
   D49        0.63080   0.00571   0.00000   0.07789   0.07641   0.70721
   D50        2.66049   0.00068   0.00000   0.03277   0.03116   2.69166
   D51       -1.33786   0.00260   0.00000   0.06607   0.06471  -1.27314
   D52       -0.81722   0.00292   0.00000   0.03595   0.03694  -0.78028
   D53        1.21248  -0.00211   0.00000  -0.00917  -0.00831   1.20417
   D54       -2.78587  -0.00020   0.00000   0.02412   0.02524  -2.76063
   D55        3.08772   0.00441   0.00000   0.02602   0.02724   3.11496
   D56       -0.83192   0.00376   0.00000   0.03995   0.04094  -0.79098
   D57        0.61553   0.00744   0.00000   0.08548   0.08455   0.70008
   D58       -1.27733   0.00241   0.00000   0.02982   0.03020  -1.24713
   D59        1.08622   0.00176   0.00000   0.04374   0.04390   1.13012
   D60        2.53367   0.00544   0.00000   0.08927   0.08751   2.62118
   D61        1.13591  -0.00013   0.00000   0.00458   0.00530   1.14121
   D62       -2.78373  -0.00077   0.00000   0.01850   0.01900  -2.76473
   D63       -1.33628   0.00291   0.00000   0.06403   0.06261  -1.27367
   D64        0.97212   0.00415   0.00000   0.05152   0.05219   1.02431
   D65       -1.13119   0.00418   0.00000   0.05167   0.05236  -1.07883
   D66        3.07748   0.00366   0.00000   0.04704   0.04770   3.12517
   D67       -1.09555   0.00091   0.00000   0.01123   0.01130  -1.08425
   D68        3.08432   0.00093   0.00000   0.01138   0.01147   3.09580
   D69        1.00981   0.00041   0.00000   0.00675   0.00681   1.01662
   D70       -3.01011  -0.00467   0.00000  -0.05992  -0.06067  -3.07077
   D71        1.16977  -0.00465   0.00000  -0.05977  -0.06050   1.10927
   D72       -0.90474  -0.00517   0.00000  -0.06440  -0.06516  -0.96991
   D73        0.82971  -0.00638   0.00000  -0.04707  -0.04746   0.78225
   D74       -1.11997  -0.00596   0.00000  -0.05588  -0.05608  -1.17606
   D75        2.83479  -0.00718   0.00000  -0.05957  -0.06042   2.77437
   D76       -3.05492  -0.00221   0.00000  -0.02108  -0.02061  -3.07553
   D77        1.27858  -0.00179   0.00000  -0.02989  -0.02923   1.24935
   D78       -1.04984  -0.00301   0.00000  -0.03358  -0.03356  -1.08341
   D79       -0.82030   0.00497   0.00000   0.04123   0.04172  -0.77858
   D80       -2.76999   0.00539   0.00000   0.03242   0.03310  -2.73688
   D81        1.18478   0.00417   0.00000   0.02873   0.02876   1.21354
   D82       -0.62468  -0.00700   0.00000  -0.08317  -0.08151  -0.70619
   D83       -2.55612  -0.00462   0.00000  -0.07762  -0.07593  -2.63205
   D84        1.27005  -0.00011   0.00000  -0.02670  -0.02574   1.24431
   D85        3.12555  -0.00378   0.00000  -0.01980  -0.01907   3.10648
   D86        1.19410  -0.00140   0.00000  -0.01425  -0.01349   1.18061
   D87       -1.26291   0.00312   0.00000   0.03667   0.03670  -1.22621
   D88        0.83645  -0.00336   0.00000  -0.04129  -0.04192   0.79453
   D89       -1.09499  -0.00098   0.00000  -0.03574  -0.03634  -1.13133
   D90        2.73119   0.00353   0.00000   0.01518   0.01385   2.74504
         Item               Value     Threshold  Converged?
 Maximum Force            0.035169     0.000450     NO 
 RMS     Force            0.006746     0.000300     NO 
 Maximum Displacement     0.377630     0.001800     NO 
 RMS     Displacement     0.082662     0.001200     NO 
 Predicted change in Energy=-2.397023D-02
 GradGradGradGradGradGradGradGradGradGradGradGradGradGradGradGradGradGrad

                          Input orientation:                          
 ---------------------------------------------------------------------
 Center     Atomic      Atomic             Coordinates (Angstroms)
 Number     Number       Type             X           Y           Z
 ---------------------------------------------------------------------
      1          6           0        0.722285   -0.039539   -0.033329
      2          6           0        2.254083   -0.032734   -0.036502
      3          6           0        2.855968    1.355407    0.248556
      4          6           0        4.363842    1.366819    0.327491
      5          6           0        5.287890    0.986625    1.540357
      6          6           0        6.275519    1.320561    0.361774
      7          6           0        7.771451    1.334613    0.326663
      8          6           0        5.332096    0.446573   -0.528101
      9          6           0        5.337442    2.524680   -0.050146
     10          1           0        0.322427   -1.035932   -0.246358
     11          1           0        0.332381    0.647548   -0.791709
     12          1           0        0.332146    0.279363    0.938772
     13          1           0        2.616422   -0.376358   -1.012234
     14          1           0        2.628320   -0.749403    0.704864
     15          1           0        2.441015    1.733210    1.192403
     16          1           0        2.528324    2.049146   -0.536670
     17          1           0        5.200962   -0.048637    1.868510
     18          1           0        5.306659    1.680608    2.388518
     19          1           0        8.201409    0.361406    0.589925
     20          1           0        8.172973    2.076221    1.026952
     21          1           0        8.129305    1.599420   -0.674457
     22          1           0        5.285605   -0.629684   -0.327972
     23          1           0        5.378217    0.612018   -1.610712
     24          1           0        5.318742    2.809341   -1.101727
     25          1           0        5.321148    3.398527    0.611230
 ---------------------------------------------------------------------
                    Distance matrix (angstroms):
                    1          2          3          4          5
     1  C    0.000000
     2  C    1.531816   0.000000
     3  C    2.564749   1.539629   0.000000
     4  C    3.920328   2.557796   1.509981   0.000000
     5  C    4.937028   3.567851   2.778307   1.571450   0.000000
     6  C    5.731003   4.261688   3.421602   1.912545   1.573526
     7  C    7.190872   5.695865   4.916147   3.407762   2.786077
     8  C    4.661702   3.153660   2.749615   1.586319   2.138254
     9  C    5.279695   4.005953   2.759372   1.559215   2.213091
    10  H    1.094563   2.186719   3.518845   4.736618   5.651452
    11  H    1.095104   2.173949   2.819877   4.245307   5.487310
    12  H    1.094936   2.177706   2.829125   4.220284   5.041976
    13  H    2.158578   1.096093   2.155454   2.808381   3.938297
    14  H    2.163748   1.096947   2.165702   2.762760   3.284076
    15  H    2.756644   2.159562   1.098075   2.139995   2.963640
    16  H    2.806729   2.158610   1.097818   2.140437   3.613613
    17  H    4.865760   3.509048   3.177197   2.253668   1.089499
    18  H    5.462667   4.258460   3.269721   2.288056   1.096057
    19  H    7.515750   5.993200   5.447780   3.975758   3.127749
    20  H    7.817505   6.372746   5.421809   3.937255   3.126421
    21  H    7.613224   6.130999   5.359064   3.903424   3.654389
    22  H    4.610746   3.103455   3.190001   2.294626   2.470449
    23  H    4.958867   3.557254   3.220441   2.314155   3.174543
    24  H    5.512260   4.313262   3.162664   2.243963   3.209962
    25  H    5.778001   4.647580   3.222264   2.263798   2.584890
                    6          7          8          9         10
     6  C    0.000000
     7  C    1.496410   0.000000
     8  C    1.563900   2.733074   0.000000
     9  C    1.581003   2.735443   2.132369   0.000000
    10  H    6.431345   7.838099   5.232015   6.153603   0.000000
    11  H    6.091335   7.553977   5.010691   5.396682   1.769636
    12  H    6.061412   7.538667   5.213365   5.574262   1.770488
    13  H    4.261036   5.594139   2.878625   4.092137   2.506794
    14  H    4.207675   5.562190   3.203274   4.316133   2.510790
    15  H    3.945079   5.414974   3.601933   3.249561   3.771816
    16  H    3.921672   5.361557   3.229466   2.890326   3.803678
    17  H    2.302092   3.301225   2.450749   3.212760   5.408097
    18  H    2.275086   3.232053   3.167042   2.580792   6.258173
    19  H    2.163581   1.096039   3.080616   3.645786   8.045513
    20  H    2.147979   1.096179   3.625538   3.066185   8.540368
    21  H    2.141975   1.095638   3.029002   3.006721   8.250799
    22  H    2.293281   3.235188   1.095693   3.167001   4.980445
    23  H    2.279888   3.162774   1.096150   2.468867   5.489828
    24  H    2.296459   3.198579   2.431439   1.089589   6.362464
    25  H    2.300216   3.216319   3.164211   1.096035   6.736995
                   11         12         13         14         15
    11  H    0.000000
    12  H    1.769215   0.000000
    13  H    2.512739   3.074786   0.000000
    14  H    3.076124   2.526953   1.757194   0.000000
    15  H    3.092199   2.573971   3.056381   2.536956   0.000000
    16  H    2.617572   3.183120   2.473255   3.063214   1.759867
    17  H    5.591467   4.967632   3.884061   2.909232   3.354013
    18  H    5.993704   5.367591   4.799333   3.989128   3.105700
    19  H    7.994522   7.877419   5.856900   5.683874   5.952056
    20  H    8.174565   8.044566   6.406924   6.231458   5.744595
    21  H    7.855687   8.070982   5.865975   6.138430   5.988298
    22  H    5.136224   5.193050   2.767115   2.853462   3.998313
    23  H    5.111994   5.663334   2.993755   3.844124   4.212087
    24  H    5.443643   5.952358   4.178423   4.813190   3.834372
    25  H    5.867190   5.892929   4.919445   4.946253   3.377309
                   16         17         18         19         20
    16  H    0.000000
    17  H    4.162760   0.000000
    18  H    4.051134   1.808830   0.000000
    19  H    6.025079   3.287187   3.654423   0.000000
    20  H    5.857279   3.749145   3.197832   1.769857   0.000000
    21  H    5.620696   4.214020   4.166022   1.771028   1.767495
    22  H    3.849972   2.273612   3.566120   3.213519   4.182659
    23  H    3.367609   3.545824   4.140150   3.588318   4.112399
    24  H    2.946798   4.123617   3.668241   4.142927   3.635296
    25  H    3.307321   3.671258   2.471884   4.185745   3.170839
                   21         22         23         24         25
    21  H    0.000000
    22  H    3.629819   0.000000
    23  H    3.069205   1.787687   0.000000
    24  H    3.089617   3.525151   2.256287   0.000000
    25  H    3.574286   4.136406   3.564396   1.811455   0.000000
 Stoichiometry    C9H16
 Framework group  C1[X(C9H16)]
 Deg. of freedom    69
 Full point group                 C1      NOp   1
 Largest Abelian subgroup         C1      NOp   1
 Largest concise Abelian subgroup C1      NOp   1
                         Standard orientation:                         
 ---------------------------------------------------------------------
 Center     Atomic      Atomic             Coordinates (Angstroms)
 Number     Number       Type             X           Y           Z
 ---------------------------------------------------------------------
      1          6           0       -3.836536   -0.175270   -0.007309
      2          6           0       -2.346313   -0.525516   -0.062302
      3          6           0       -1.428769    0.707537    0.027979
      4          6           0        0.044259    0.376598    0.054637
      5          6           0        0.930160   -0.068462    1.273881
      6          6           0        1.893958   -0.109066    0.030729
      7          6           0        3.349015   -0.447580   -0.055644
      8          6           0        0.724235   -0.834425   -0.711824
      9          6           0        1.230364    1.225740   -0.496059
     10          1           0       -4.464386   -1.068781   -0.081531
     11          1           0       -4.105843    0.493351   -0.831731
     12          1           0       -4.083994    0.333539    0.930116
     13          1           0       -2.131709   -1.052146   -0.999333
     14          1           0       -2.099987   -1.220991    0.749443
     15          1           0       -1.688700    1.275819    0.930897
     16          1           0       -1.637691    1.365058   -0.825966
     17          1           0        0.630691   -1.011112    1.730757
     18          1           0        1.157730    0.693476    2.028205
     19          1           0        3.562071   -1.457913    0.311965
     20          1           0        3.950395    0.254563    0.533377
     21          1           0        3.695828   -0.388328   -1.093253
     22          1           0        0.446946   -1.840569   -0.378165
     23          1           0        0.740519   -0.807829   -1.807531
     24          1           0        1.212601    1.386086   -1.573639
     25          1           0        1.453280    2.148444    0.051862
 ---------------------------------------------------------------------
 Rotational constants (GHZ):           4.5695370           0.7841062           0.7668453
 Standard basis: 6-31G(2df,p) (6D, 7F)
 There are   359 symmetry adapted cartesian basis functions of A   symmetry.
 There are   332 symmetry adapted basis functions of A   symmetry.
   332 basis functions,   508 primitive gaussians,   359 cartesian basis functions
    35 alpha electrons       35 beta electrons
       nuclear repulsion energy       462.8840217652 Hartrees.
 NAtoms=   25 NActive=   25 NUniq=   25 SFac= 1.00D+00 NAtFMM=   60 NAOKFM=F Big=F
 Integral buffers will be    131072 words long.
 Raffenetti 2 integral format.
 Two-electron integral symmetry is turned on.
 One-electron integrals computed using PRISM.
 PrsmSu:  requested number of processors reduced to:  13 ShMem   1 Linda.
 NBasis=   332 RedAO= T EigKep=  4.57D-04  NBF=   332
 NBsUse=   332 1.00D-06 EigRej= -1.00D+00 NBFU=   332
 Initial guess from the checkpoint file:  "CCCC12CCqCrqC1rC2.chk"
 B after Tr=    -0.000000    0.000000    0.000000
         Rot=    0.994209    0.107443   -0.000947    0.001744 Ang=  12.34 deg.
 ExpMin= 1.61D-01 ExpMax= 3.05D+03 ExpMxC= 4.57D+02 IAcc=2 IRadAn=         4 AccDes= 0.00D+00
 Harris functional with IExCor=  402 and IRadAn=       4 diagonalized for initial guess.
 HarFok:  IExCor=  402 AccDes= 0.00D+00 IRadAn=         4 IDoV= 1 UseB2=F ITyADJ=14
 ICtDFT=  3500011 ScaDFX=  1.000000  1.000000  1.000000  1.000000
 FoFCou: FMM=F IPFlag=           0 FMFlag=      100000 FMFlg1=           0
         NFxFlg=           0 DoJE=T BraDBF=F KetDBF=T FulRan=T
         wScrn=  0.000000 ICntrl=       500 IOpCl=  0 I1Cent=   200000004 NGrid=           0
         NMat0=    1 NMatS0=      1 NMatT0=    0 NMatD0=    1 NMtDS0=    0 NMtDT0=    0
 Petite list used in FoFCou.
 Requested convergence on RMS density matrix=1.00D-08 within 128 cycles.
 Requested convergence on MAX density matrix=1.00D-06.
 Requested convergence on             energy=1.00D-06.
 No special actions if energy rises.
 Integral accuracy reduced to 1.0D-05 until final iterations.
 Initial convergence to 1.0D-05 achieved.  Increase integral accuracy.
 SCF Done:  E(RB3LYP) =  -352.551610466     A.U. after   10 cycles
            NFock= 10  Conv=0.61D-08     -V/T= 2.0093
 PrsmSu:  requested number of processors reduced to:  13 ShMem   1 Linda.
 Calling FoFJK, ICntrl=      2127 FMM=F ISym2X=0 I1Cent= 0 IOpClX= 0 NMat=1 NMatS=1 NMatT=0.
 ***** Axes restored to original set *****
 -------------------------------------------------------------------
 Center     Atomic                   Forces (Hartrees/Bohr)
 Number     Number              X              Y              Z
 -------------------------------------------------------------------
      1        6           0.001981018    0.000967346    0.000202840
      2        6           0.000765221    0.001225952    0.000526832
      3        6          -0.003219649   -0.000886532    0.002370398
      4        6           0.010357062   -0.012368296   -0.011576165
      5        6          -0.001284510    0.018782313   -0.007982682
      6        6          -0.014291335   -0.003645549   -0.010627993
[...]
 ,0.00008008,0.00003280,0.00125368,0.32250536,-0.00002817,-0.00016303,0
 .00006664,-0.00011283,0.00015566,0.00000876,0.00036271,-0.00025665,0.0
 0016628,0.00587107,0.01485171,-0.00338437,0.00046307,0.04168516,-0.059
 35920,-0.00497267,0.01248342,-0.00420853,-0.00045887,-0.00033983,0.000
 23085,-0.00030280,0.00456270,0.00157350,0.00041429,0.00324393,-0.00727
 255,-0.00004251,-0.00000265,-0.00000188,0.00005974,0.00000946,0.000009
 22,0.00003015,-0.00000471,-0.00000690,-0.00002693,-0.00004108,-0.00009
 232,-0.00016417,-0.00011788,0.00016920,-0.00011035,0.00000479,0.000014
 21,-0.00007714,-0.00000279,-0.00002581,-0.00131480,-0.05301151,0.06561
 005,-0.00001126,-0.00004334,0.00000030,-0.00008889,0.00010754,0.000012
 57,0.00109188,-0.00060653,-0.00024829,0.00335785,-0.01186407,-0.014599
 43,-0.04644140,0.00851752,0.01255916,0.00193001,0.01303312,0.01657760,
 0.00108181,0.00054299,0.00026051,-0.00102084,-0.00023328,0.00044849,-0
 .00268736,0.00017566,-0.00021310,-0.00001645,-0.00000204,0.00000131,0.
 00000390,0.00000016,0.00000817,-0.00002133,0.00000799,0.00000137,0.000
 04615,0.00004913,0.00005308,0.00002042,-0.00008829,-0.00002256,-0.0002
 5719,0.00020080,0.00031625,-0.00019933,0.00022124,0.00015000,-0.000172
 39,-0.00021406,-0.00015690,0.04141996,0.00003457,0.00004321,-0.0000357
 4,-0.00007465,-0.00003042,0.00000341,-0.00026908,0.00006793,-0.0003027
 7,-0.00172383,0.00201958,0.00566769,0.00871811,-0.13456197,-0.11933133
 ,0.00091879,0.00216017,0.00612244,0.00037884,0.00008253,-0.00025768,-0
 .00012285,-0.00057897,0.00187918,-0.00027055,0.00294795,0.00334932,0.0
 0000073,-0.00000574,0.00000236,-0.00002999,0.00000641,0.00000011,-0.00
 004508,0.00002166,0.00000915,0.00003464,0.00002975,0.00012008,0.000093
 96,-0.00004287,-0.00010615,-0.00012316,0.00005125,-0.00014369,-0.00004
 886,-0.00001312,-0.00003193,0.00180472,-0.01454478,-0.02457462,-0.0093
 0659,0.13984426,-0.00000181,-0.00006584,0.00002535,-0.00009863,0.00015
 779,-0.00011614,0.00046460,-0.00003465,0.00024251,0.00730728,-0.008466
 71,-0.01237701,0.01274165,-0.11715747,-0.22074538,-0.00530778,-0.00685
 982,-0.01113402,-0.00031698,0.00013781,0.00028453,0.00050033,0.0035246
 5,-0.00865392,-0.00017388,-0.00321796,0.00019545,-0.00003488,-0.000014
 59,-0.00000172,0.00001751,-0.00000193,0.00001512,-0.00003203,0.0000150
 2,0.00000618,0.00005254,0.00008444,0.00005725,-0.00000972,-0.00009899,
 0.00003299,-0.00063744,0.00019042,0.00014700,-0.00010120,0.00008273,0.
 00004532,-0.00042426,0.00419924,0.00569249,-0.01487705,0.12721912,0.24
 660486,-0.00000648,-0.00011891,0.00001576,-0.00025525,0.00013492,-0.00
 003676,-0.00013005,-0.00101952,0.00012657,-0.00001019,0.00130725,-0.00
 019892,0.00131669,0.00008642,0.00041268,-0.01281495,0.03520048,-0.0053
 2200,-0.07645057,0.08183901,-0.01263539,0.00130887,-0.00007920,-0.0002
 4220,-0.00371282,-0.00257823,0.00001102,-0.00005605,-0.00001357,-0.000
 00230,0.00000506,0.00000581,-0.00000194,0.00000433,0.00000641,0.000001
 11,-0.00000429,-0.00001948,-0.00002319,-0.00000852,-0.00001440,0.00002
 810,0.00011307,0.00001245,-0.00001026,0.00011510,0.00001640,0.00002334
 ,-0.00029758,-0.00053247,0.00032366,-0.00003589,-0.00011171,0.00004459
 ,0.08451150,-0.00000663,0.00003635,-0.00000685,0.00007268,-0.00007193,
 0.00001686,0.00003430,0.00018456,-0.00002986,0.00036597,0.00039142,0.0
 0003038,0.00036488,0.00035410,-0.00011751,0.00032686,0.00016711,-0.000
 18866,0.08208628,-0.27033463,0.03456110,0.00044963,0.00052899,0.000087
 01,-0.00166888,0.00200788,-0.00027004,0.00002412,0.00001136,0.00000043
 ,0.00000095,-0.00000366,0.00000128,0.00000195,-0.00000424,-0.00000021,
 -0.00000680,-0.00000225,0.00000321,-0.00000501,-0.00000069,-0.00000629
 ,0.00000510,-0.00001024,-0.00001340,-0.00000500,-0.00000598,0.00001419
 ,0.00037791,0.00010786,-0.00016166,-0.00002256,-0.00000128,-0.00000881
 ,-0.09177318,0.29337663,0.00000134,-0.00001479,-0.00001140,-0.00002875
 ,0.00002125,0.00001459,-0.00000888,-0.00010433,-0.00005390,-0.00007793
 ,0.00009706,0.00040886,-0.00035884,-0.00061013,0.00018983,-0.00084277,
 0.00227456,-0.00183560,-0.01266706,0.03454330,-0.05169105,0.00042580,0
 .00052266,0.00002379,-0.00010657,-0.00033397,0.00086070,-0.00000717,-0
 .00000223,0.00000129,-0.00000323,0.00000228,-0.00000129,0.00000360,-0.
 00000055,0.,-0.00000326,-0.00001336,-0.00001121,0.00000531,0.00000871,
 -0.00000855,0.00004002,-0.00000092,-0.00000145,-0.00002320,0.00000375,
 -0.00000781,-0.00010935,0.00006179,0.00011716,0.00001816,-0.00001441,0
 .00002030,0.01454279,-0.03831721,0.05143457,0.00001793,0.00001545,0.00
 002661,0.00009486,0.00003601,-0.00006709,-0.00019439,0.00055176,0.0007
 6160,0.00012735,-0.00080326,-0.00109208,0.00134237,-0.00027706,0.00025
 860,-0.01095640,-0.02161171,-0.02902429,-0.06840857,-0.04292699,-0.057
 90285,-0.00397778,0.00148116,0.00164341,0.00131785,0.00028651,-0.00010
 714,-0.00001019,-0.00001540,-0.00000440,-0.00000084,0.00000297,-0.0000
 0408,-0.00001667,0.00000447,-0.00000186,0.00004304,0.00005132,0.000026
 24,-0.00001183,-0.00001268,0.00001950,-0.00031781,0.00002395,0.0000368
 2,0.00010922,-0.00002894,0.00000158,-0.00004754,0.00004429,0.00010857,
 -0.00030244,0.00012758,0.00058303,0.00283173,0.00573916,0.00931491,0.0
 7552371,0.00000405,-0.00001724,0.00000417,-0.00001394,0.00002531,-0.00
 001935,-0.00004542,0.00000805,0.00012036,-0.00021948,0.00040586,-0.000
 04018,0.00007420,-0.00010979,-0.00015149,-0.00026205,-0.00098324,0.000
 63921,-0.04309191,-0.13056210,-0.11358181,0.00094342,0.00128430,0.0006
 6154,-0.00059093,0.00055240,0.00044963,-0.00001092,-0.00000644,-0.0000
 0160,-0.00000005,0.00000175,-0.00000043,-0.00000274,0.00000527,0.00000
 119,0.00000117,-0.00000283,0.00000595,0.00000120,-0.00000735,0.0000041
 2,-0.00004273,-0.00000661,-0.00000229,0.00002475,-0.00000174,-0.000006
 02,-0.00000005,-0.00000119,-0.00000784,-0.00020959,0.00006006,0.000132
 81,-0.00902764,-0.01647754,-0.02363318,0.04826665,0.13868013,0.0000111
 2,-0.00000776,0.00000046,0.00003607,0.00002327,-0.00001301,-0.00007460
 ,0.00014248,0.00013019,-0.00030709,-0.00006678,0.00030205,-0.00050305,
 0.00029004,0.00063671,-0.00101708,-0.00076276,-0.00253515,-0.05812225,
 -0.11358034,-0.19960407,0.00093229,0.00069941,0.00180523,-0.00000449,0
 .00003878,-0.00003031,-0.00001041,-0.00000888,-0.00000087,-0.00000289,
 0.00000222,-0.00000276,-0.00000430,0.00000446,0.00000246,0.00000389,0.
 00000367,0.00000705,0.00000230,0.00000133,-0.00000103,-0.00007266,0.00
 000204,-0.00000495,-0.00000944,-0.00000179,-0.00001985,0.00002828,-0.0
 0000556,0.00002560,-0.00034762,-0.00013307,0.00016436,0.00226734,0.003
 47428,0.00400229,0.06546063,0.12574932,0.21522202,0.00002307,0.0000072
 2,-0.00002625,0.00008902,0.00005705,0.00006944,-0.00008454,0.00034947,
 -0.00091228,-0.00007906,-0.00050853,0.00120826,-0.00346706,0.00099183,
 -0.00273307,-0.01529252,-0.01371050,0.03174912,-0.08889659,-0.03807137
 ,0.08793517,0.00129115,-0.00029203,-0.00009317,0.00127290,0.00033817,0
 .00020185,-0.00001251,-0.00001513,0.00000686,-0.00001711,0.00000503,-0
 .00000223,-0.00000178,0.00000425,0.00000326,-0.00000883,-0.00001713,-0
 .00001688,0.00004744,0.00004363,-0.00003289,0.00010547,-0.00002575,0.0
 0002335,-0.00031698,0.00000832,-0.00008524,-0.00021810,-0.00011644,0.0
 0001194,-0.00022175,0.00005706,0.00007875,0.00432696,0.00338090,-0.010
 03115,0.00358337,0.00437582,-0.00800516,0.09846081,0.00000178,-0.00001
 506,-0.00000037,-0.00002262,0.00002246,0.00000820,-0.00001524,-0.00004
 266,-0.00009251,-0.00014311,0.00041398,0.00001059,0.00065148,0.0010145
 7,-0.00039731,-0.00010790,-0.00129613,-0.00044807,-0.03817499,-0.08058
 970,0.07905805,0.00017486,-0.00009835,0.00036655,-0.00047154,0.0003923
 2,-0.00063136,-0.00000832,-0.00000392,0.00000131,-0.00000170,0.0000037
 7,-0.00000175,0.00000071,0.00000111,-0.00000040,0.00000087,-0.00000857
 ,-0.00000241,0.00000147,-0.00000376,-0.00000344,0.00002784,-0.00000098
 ,0.00000512,-0.00002859,-0.00000670,-0.00000203,0.00028903,0.00005589,
 -0.00004052,-0.00026200,0.00001075,0.00007073,-0.01274174,-0.01037990,
 0.02563744,0.00848678,0.00694540,-0.01602365,0.04262141,0.08337423,-0.
 00000856,0.00001274,-0.00000686,-0.00001709,-0.00002526,-0.00000424,0.
 00004752,-0.00004672,0.00007099,0.00030124,-0.00002954,0.00050036,-0.0
 0190855,-0.00037270,0.00156410,-0.00074737,-0.00151525,0.00211266,0.08
 818915,0.07907507,-0.22908267,0.00056330,-0.00013277,0.00067548,0.0003
 1568,-0.00010138,0.00017570,0.00001143,0.00000778,-0.00000105,0.000001
 99,-0.00000405,0.00000438,0.00000290,-0.00000259,-0.00000119,-0.000003
 76,-0.00000187,-0.00000281,0.00000135,0.00000536,0.00000362,0.00002059
 ,-0.00000670,-0.00001692,0.00003755,0.00000095,-0.00000570,0.00005925,
 0.00004017,-0.00001234,-0.00016393,-0.00001414,0.00001915,0.00098343,0
 .00071193,-0.00359116,0.00977405,0.00984890,-0.02017188,-0.09804277,-0
 .08747910,0.24758694,-0.00002324,-0.00020698,-0.00014190,-0.00005837,0
 .00010378,0.00013044,0.00068870,0.00061968,-0.00005692,0.00347270,0.02
 015386,-0.00306226,-0.00263203,0.00023975,-0.00036791,0.00222881,-0.01
 884782,0.00306364,0.00100358,-0.00044458,0.00046517,-0.04529887,0.0010
 8360,0.00055239,-0.00102753,0.00028583,0.00031292,-0.00003215,0.000003
 03,0.00000479,0.00002933,0.00000213,0.00002213,0.00012367,0.00001407,-
 0.00000072,-0.00053026,-0.00028677,-0.00012731,-0.00002722,-0.00004534
 ,0.00002994,-0.00033873,-0.00010071,0.00013222,-0.00003708,-0.00002133
 ,0.00003651,0.00050673,-0.00007357,0.00007859,-0.00012678,-0.00003346,
 -0.00002737,-0.00026318,0.00036076,-0.00003764,-0.00020123,0.00025417,
 -0.00015601,-0.00002659,-0.00000956,-0.00003416,0.04060320,0.00006518,
 0.00034542,0.00014599,0.00011767,-0.00064874,-0.00042512,-0.00023989,0
 .00002562,-0.00017132,-0.00448835,-0.00861485,0.00092016,-0.00020939,0
 .00097722,0.00198592,0.00471498,-0.00939389,0.00156483,0.00016205,0.00
 015940,-0.00004145,0.00140637,-0.30352195,0.01996762,0.00032382,-0.004
 32396,-0.00564020,0.00008273,0.00001207,-0.00000457,-0.00003748,-0.000
 00812,-0.00002556,-0.00013941,0.00002239,0.00001800,0.00000931,0.00039
 342,0.00046809,0.00002445,0.00002436,-0.00006459,0.00011756,0.00006624
 ,-0.00003765,-0.00001259,0.00003505,-0.00000919,0.00005819,0.00096581,
 -0.00113308,0.00001286,0.00057080,-0.00020900,-0.00058958,0.00012905,-
 0.00014860,-0.00011122,0.00005425,-0.00007522,0.00001303,0.00000393,0.
 00001267,-0.00136263,0.33202043,0.00000210,0.00006204,-0.00003099,0.00
 007318,0.00003258,0.00019657,-0.00023168,0.00037900,0.00008334,-0.0041
 7610,-0.01082864,-0.00101424,-0.00032399,-0.00441256,0.00224068,0.0045
 9909,-0.01387846,-0.00018042,0.00054974,0.00030642,0.00028590,0.000411
 50,0.02218391,-0.05364083,0.00032869,-0.00401820,-0.00495321,0.0000179
 0,0.00000024,0.00000541,-0.00001605,0.00000482,-0.00000258,-0.00000871
 ,-0.00001208,-0.00000172,0.00006853,0.00002168,0.00002037,0.00003153,0
 .00000478,-0.00007798,0.00000372,-0.00003448,0.00001356,0.00010996,-0.
 00001132,0.00003910,0.00003965,0.00080293,-0.00029006,-0.00003498,0.00
 037011,0.00037758,-0.00023164,0.00020631,0.00006159,-0.00000965,0.0000
 5993,-0.00002747,-0.00012300,0.00001021,-0.00000040,-0.00091207,-0.016
 60868,0.05610464,-0.00001114,-0.00005055,0.00000832,-0.00010012,0.0001
 2259,-0.00004302,0.00108896,-0.00050954,0.00051854,0.00181098,-0.00834
 608,0.01922978,-0.00102987,0.00040239,0.00049655,0.00346765,0.00785759
 ,-0.01720719,0.00107424,0.00048495,-0.00027769,-0.04661593,-0.00552955
 ,0.01582840,-0.00268474,-0.00022798,-0.00019787,-0.00002082,-0.0000046
 7,-0.00000290,-0.00002555,0.00000899,-0.00000850,0.00000708,-0.0000024
 5,-0.00000896,0.00001573,-0.00009319,0.00004729,0.00006277,0.00004411,
 -0.00006789,-0.00018469,0.00018022,-0.00023511,-0.00029190,0.00012928,
 -0.00042181,-0.00012544,-0.00001422,-0.00003961,0.00229722,-0.00004152
 ,0.00031788,-0.00002868,-0.00002854,-0.00001811,-0.00023222,-0.0002048
 5,0.00018717,-0.00026254,-0.00010442,0.00032749,-0.00016695,0.00005423
 ,-0.00024253,0.04159957,0.00002877,0.00006662,0.00002934,-0.00004516,-
 0.00007422,-0.00002121,-0.00040283,0.00014541,0.00027781,-0.00219064,0
 .00158805,-0.00944036,0.00026766,-0.00241651,-0.00350646,0.00355655,0.
 00168724,-0.00934685,0.00041818,0.00014096,0.00035356,-0.00568427,-0.0
 8222674,0.08311084,0.00024305,0.00273938,-0.00401391,0.00000944,-0.000
 00239,-0.00000086,-0.00003427,0.00001430,-0.00001632,-0.00003338,0.000
 00678,-0.00000287,0.00007702,0.00001217,0.00012420,0.00003523,-0.00001
 734,-0.00009759,-0.00003114,-0.00001907,0.00004191,0.00001278,0.000048
 63,0.00016703,0.00001965,0.00051901,-0.00040753,0.00012106,0.00136655,
 -0.00161630,-0.00012139,0.00000315,0.00000124,0.00002796,-0.00000572,0
 .00002788,-0.00005236,0.00006415,0.00015961,-0.00192456,-0.00826616,0.
 02821640,0.00575898,0.08443440,-0.00000972,0.00004836,0.00000190,0.000
 11300,-0.00015080,-0.00006110,-0.00025166,-0.00002175,0.00016819,-0.00
 477230,0.00354294,-0.01040156,0.00044815,-0.00515039,-0.00680745,0.006
 78823,0.00479446,-0.01219904,0.00032923,-0.00002558,0.00023351,0.01563
 979,0.08093228,-0.27290713,-0.00024022,0.00255283,0.00040062,0.0000310
 9,0.00001491,-0.00000075,0.00003722,-0.00001543,0.00001777,-0.00001044
 ,0.00000346,0.00001155,-0.00001084,0.00009214,-0.00001735,-0.00006432,
 -0.00006036,0.00008771,0.00007804,-0.00003875,0.00003674,0.00058878,-0
 .00013593,0.00018434,-0.00004555,0.00017247,0.00042796,0.00029215,0.00
 073243,-0.00201580,-0.00002115,0.00000846,0.00000858,-0.00012635,-0.00
 009596,0.00004603,-0.00065300,-0.00013376,0.00012041,0.00002026,-0.000
 55997,-0.00058995,-0.01809733,-0.08480924,0.30183842,-0.00000382,-0.00
 007141,-0.00000273,-0.00020961,0.00003433,-0.00029390,0.00112734,0.000
 04267,0.00077352,0.00143235,-0.00726137,0.01879081,-0.00089913,-0.0001
 4115,-0.00001772,0.00384230,0.00734919,-0.01827140,0.00112135,-0.00009
 868,-0.00051029,-0.00267324,0.00014902,-0.00040139,-0.04658834,-0.0066
 5037,0.01435754,-0.00002984,-0.00000407,-0.00000379,-0.00001888,-0.000
 00249,-0.00001240,-0.00000070,0.00000147,0.00000404,0.00000622,-0.0000
 1039,0.00000101,0.00003965,0.00010363,-0.00002892,-0.00002605,-0.00003
 207,-0.00001304,-0.00029419,0.00017557,-0.00040632,0.00225958,0.000000
 28,0.00011977,-0.00011905,0.00001568,-0.00005082,-0.00024351,-0.000002
 26,0.00027364,-0.00004085,0.00002945,0.00000581,-0.00026674,-0.0001907
 9,0.00030658,-0.00012188,-0.00002039,-0.00004091,0.00047454,-0.0000332
 7,-0.00001000,0.04145690,0.00001223,-0.00003546,-0.00002285,-0.0001091
 5,0.00003994,-0.00003544,0.00060686,0.00021913,-0.00013426,0.00512593,
 -0.00767218,0.01374222,0.00000906,-0.00901374,0.00135267,-0.00696785,-
 0.00761465,0.01276986,-0.00047960,0.00031599,-0.00027900,-0.00033918,0
 .00083960,0.00440740,-0.00650964,-0.09744045,0.09583005,-0.00002324,-0
 .00000818,0.00000238,-0.00002831,0.00000669,-0.00001264,-0.00000797,0.
 00000332,0.00000505,0.00000933,-0.00000080,0.00000655,0.00007211,0.000
 08188,-0.00006460,-0.00009729,0.00002889,-0.00000623,-0.00046709,0.000
 14846,-0.00025470,-0.00017326,-0.00076484,0.00287240,-0.00002787,0.000
 36405,0.00033585,0.00006023,-0.00000989,-0.00006849,0.00009740,0.00001
 818,0.00000444,0.00047988,0.00012487,-0.00014546,0.00002661,0.00050789
 ,-0.00042302,0.00010074,-0.00016494,-0.00142762,0.00741679,0.11054362,
 -0.00001450,0.00003414,-0.00000910,0.00010365,-0.00003644,0.00003591,0
 .00017092,0.00021486,0.00005621,-0.00175484,-0.00084786,-0.00102221,-0
 .00007516,0.00302767,-0.00030039,0.00241894,0.00015629,-0.00330205,-0.
 00004864,0.00013591,0.00001384,-0.00032856,-0.00212213,0.00230058,0.01
 439078,0.09807512,-0.25778562,0.00002622,0.00000685,0.00000255,0.00002
 274,-0.00000352,0.00002084,0.00000412,-0.00000309,-0.00000589,0.000002
 04,0.00001046,-0.00000725,-0.00003478,-0.00006849,0.00004721,-0.000077
 19,0.00000740,-0.00000185,0.00041701,0.00009905,0.00011946,0.00011266,
 0.00051506,0.00013837,-0.00004580,-0.00023887,0.00061180,-0.00011634,0
 .00003022,0.00005593,0.00006953,-0.00000145,0.00000289,-0.00043470,0.0
 0008862,0.00007411,-0.00004914,0.00014658,0.00046746,-0.00003579,0.000
 46376,0.00079748,-0.01593102,-0.11045330,0.27592015,-0.00000730,-0.000
 06345,0.00002018,-0.00023231,0.00009749,0.00024027,0.00124800,-0.00010
 039,-0.00059895,0.00370939,-0.01188988,-0.01587360,-0.00267454,-0.0001
 7470,-0.00033924,0.00156955,0.01161371,0.01630364,0.00101269,0.0000763
 8,0.00065682,-0.00089441,0.00010766,-0.00012093,-0.04646322,0.00926266
 ,0.01146686,-0.00002659,-0.00000274,0.00000041,0.00000021,0.00000022,-
 0.00000346,-0.00001728,-0.00000062,0.00000772,0.00003387,0.00009806,0.
 00000338,0.00000641,-0.00000848,0.00000301,-0.00029028,0.00027830,0.00
 029267,-0.00004013,-0.00002654,0.00001510,-0.00012323,0.00000236,-0.00
 003582,0.00047315,0.00001665,-0.00001432,-0.00021532,-0.00007259,-0.00
 030165,-0.00027268,-0.00025259,-0.00029786,-0.00002749,0.00002629,-0.0
 0001733,0.00225536,0.00004850,0.00011571,-0.00011818,-0.00002303,-0.00
 005306,-0.00022438,0.00121327,0.00120785,0.04131870,0.00001174,-0.0000
 3750,0.00003224,-0.00014001,0.00005673,0.00001568,0.00054374,0.0001964
 4,0.00016290,0.00716446,-0.01050162,-0.01070709,0.00024264,0.00037504,
 -0.00390368,-0.00556199,-0.01040801,-0.01149730,-0.00046196,0.00032454
 ,0.00014302,0.00003480,-0.00952832,0.00106306,0.00907807,-0.15515563,-
 0.12272923,-0.00002927,-0.00001032,-0.00000316,-0.00000772,0.00000213,
 -0.00000838,-0.00003544,0.00001093,0.00001051,0.00006985,0.00011538,0.
 00005791,0.00000962,-0.00000538,-0.00000577,-0.00059388,0.00017945,0.0
 0016343,-0.00007471,0.00002484,-0.00001124,-0.00002936,0.00057288,0.00
 039614,-0.00010986,0.00013222,0.00160145,0.00007167,0.00000378,0.00008
 814,0.00054383,0.00014085,0.00020221,0.00007617,0.00001830,0.00000233,
 0.00021005,-0.00153570,-0.00243391,0.00001348,0.00035628,-0.00026921,-
 0.00079938,0.00948262,0.01076316,-0.01022654,0.17519008,0.00001153,-0.
 00003593,-0.00000361,-0.00010846,0.00004353,0.00004198,-0.00015149,-0.
 00027154,-0.00004129,0.00063105,0.00166264,-0.00047080,-0.00040315,0.0
 0262978,0.00276733,-0.00033866,0.00334191,0.00176529,0.00031340,-0.000
 20699,0.00011388,-0.00007315,-0.00061764,0.00020915,0.01143902,-0.1249
 7092,-0.20019787,-0.00002375,-0.00000441,0.00000146,-0.00000130,0.0000
 0097,-0.00000561,-0.00001963,0.00000563,0.00001501,0.00001696,0.000066
 06,0.00001947,-0.00000284,-0.00001232,-0.00000286,-0.00033621,-0.00008
 339,0.00008459,0.00009376,-0.00001682,0.00001640,-0.00002955,-0.000174
 59,0.00040370,0.00001055,-0.00029101,0.00050174,0.00006170,-0.00002517
 ,0.00001394,0.00025469,-0.00013550,0.00006401,-0.00009623,-0.00000012,
 -0.00001067,0.00012440,-0.00007565,0.00091365,-0.00005715,0.00030594,0
 .00061891,0.00136193,-0.01800127,-0.01823044,-0.01267742,0.13686679,0.
 21141265\\0.00000243,-0.00000243,0.00000201,-0.00000141,-0.00000026,-0
 .00000174,-0.00000119,0.00000107,0.00000271,0.00000031,-0.00000524,-0.
 00000196,0.00000162,-0.00000692,0.00000187,-0.00000045,0.00000869,-0.0
 0000171,0.00000353,0.00000175,0.00000521,-0.00000741,0.00000153,-0.000
 00016,0.00000231,0.00000037,-0.00000479,-0.00000052,-0.00000050,-0.000
 00197,0.00000022,0.00000132,0.00000106,-0.00000040,-0.00000207,0.00000
 114,-0.00000127,-0.00000176,0.00000258,-0.00000030,0.00000036,0.000000
 53,0.00000251,-0.00000109,-0.00000286,-0.00000058,0.00000273,-0.000003
 82,-0.00000034,-0.00000040,0.00000250,-0.00000036,-0.00000113,0.000001
 16,-0.00000167,-0.00000046,-0.00000151,0.00000045,-0.00000050,-0.00000
 067,-0.00000053,-0.00000037,-0.00000056,0.00000284,-0.00000045,0.00000
 218,0.00000019,0.00000235,0.00000043,0.00000092,0.00000257,-0.00000065
 ,-0.00000093,0.00000083,-0.00000096\\\@


 Mondays are the potholes in the road of life.
                                -- Tom Wilson
 Job cpu time:       0 days  2 hours 35 minutes 58.8 seconds.
 Elapsed time:       0 days  0 hours 39 minutes  0.7 seconds.
 File lengths (MBytes):  RWF=    199 Int=      0 D2E=      0 Chk=     10 Scr=      1
 Normal termination of Gaussian 16 at Sun May 28 12:48:12 2023.
### All Done ###
