### Starting Gaussian ###
 Entering Gaussian System, Link 0=g16
 Initial command:
 /cluster/software/gaussian/gaussian-16-A.03/avx2/g16/l1.exe "/local/scratch/linjian/Gau-2887.inp" -scrdir="/local/scratch/linjian/"
 Entering Link 1 = /cluster/software/gaussian/gaussian-16-A.03/avx2/g16/l1.exe PID=      2888.
  
 Copyright (c) 1988,1990,1992,1993,1995,1998,2003,2009,2016,
            Gaussian, Inc.  All Rights Reserved.
  
 This is part of the Gaussian(R) 16 program.  It is based on
 the Gaussian(R) 09 system (copyright 2009, Gaussian, Inc.),
 the Gaussian(R) 03 system (copyright 2003, Gaussian, Inc.),
 the Gaussian(R) 98 system (copyright 1998, Gaussian, Inc.),
 the Gaussian(R) 94 system (copyright 1995, Gaussian, Inc.),
 the Gaussian 92(TM) system (copyright 1992, Gaussian, Inc.),
 the Gaussian 90(TM) system (copyright 1990, Gaussian, Inc.),
 the Gaussian 88(TM) system (copyright 1988, Gaussian, Inc.),
 the Gaussian 86(TM) system (copyright 1986, Carnegie Mellon
 University), and the Gaussian 82(TM) system (copyright 1983,
 Carnegie Mellon University). Gaussian is a federally registered
 trademark of Gaussian, Inc.
  
 This software contains proprietary and confidential information,
 including trade secrets, belonging to Gaussian, Inc.
  
 This software is provided under written license and may be
 used, copied, transmitted, or stored only in accord with that
 written license.
  
 The following legend is applicable only to US Government
 contracts under FAR:
  
                    RESTRICTED RIGHTS LEGEND
  
 Use, reproduction and disclosure by the US Government is
 subject to restrictions as set forth in subparagraphs (a)
 and (c) of the Commercial Computer Software - Restricted
 Rights clause in FAR 52.227-19.
  
 Gaussian, Inc.
 340 Quinnipiac St., Bldg. 40, Wallingford CT 06492
  
  
 ---------------------------------------------------------------
 Warning -- This program may not be used in any manner that
 competes with the business of Gaussian, Inc. or will provide
 assistance to any competitor of Gaussian, Inc.  The licensee
 of this program is prohibited from giving any competitor of
 Gaussian, Inc. access to this program.  By using this program,
 the user acknowledges that Gaussian, Inc. is engaged in the
 business of creating and licensing software in the field of
 computational chemistry and represents and warrants to the
 licensee that it is not a competitor of Gaussian, Inc. and that
 it will not use this program in any manner prohibited above.
 ---------------------------------------------------------------
  

 Cite this work as:
 Gaussian 16, Revision A.03,
 M. J. Frisch, G. W. Trucks, H. B. Schlegel, G. E. Scuseria, 
 M. A. Robb, J. R. Cheeseman, G. Scalmani, V. Barone, 
 G. A. Petersson, H. Nakatsuji, X. Li, M. Caricato, A. V. Marenich, 
 J. Bloino, B. G. Janesko, R. Gomperts, B. Mennucci, H. P. Hratchian, 
 J. V. Ortiz, A. F. Izmaylov, J. L. Sonnenberg, D. Williams-Young, 
 F. Ding, F. Lipparini, F. Egidi, J. Goings, B. Peng, A. Petrone, 
 T. Henderson, D. Ranasinghe, V. G. Zakrzewski, J. Gao, N. Rega, 
 G. Zheng, W. Liang, M. Hada, M. Ehara, K. Toyota, R. Fukuda, 
 J. Hasegawa, M. Ishida, T. Nakajima, Y. Honda, O. Kitao, H. Nakai, 
 T. Vreven, K. Throssell, J. A. Montgomery, Jr., J. E. Peralta, 
 F. Ogliaro, M. J. Bearpark, J. J. Heyd, E. N. Brothers, K. N. Kudin, 
 V. N. Staroverov, T. A. Keith, R. Kobayashi, J. Normand, 
 K. Raghavachari, A. P. Rendell, J. C. Burant, S. S. Iyengar, 
 J. Tomasi, M. Cossi, J. M. Millam, M. Klene, C. Adamo, R. Cammi, 
 J. W. Ochterski, R. L. Martin, K. Morokuma, O. Farkas, 
 J. B. Foresman, and D. J. Fox, Gaussian, Inc., Wallingford CT, 2016.
 
 ******************************************
 Gaussian 16:  ES64L-G16RevA.03 25-Dec-2016
                28-May-2023 
 ******************************************
 %chk=CCCCCCCqCrC.chk
 %NProcShared=20
 Will use up to   20 processors via shared memory.
 -----------------------------
 # opt freq b3lyp/6-31g(2df,p)
 -----------------------------
 1/18=20,19=15,26=3,38=1/1,3;
 2/9=110,12=2,17=6,18=5,40=1/2;
 3/5=1,6=6,7=104,11=2,25=1,30=1,71=1,74=-5/1,2,3;
 4//1;
 5/5=2,38=5/2;
 6/7=2,8=2,9=2,10=2,28=1/1;
 7//1,2,3,16;
 1/18=20,19=15,26=3/3(2);
 2/9=110/2;
 99//99;
 2/9=110/2;
 3/5=1,6=6,7=104,11=2,25=1,30=1,71=1,74=-5/1,2,3;
 4/5=5,16=3,69=1/1;
 5/5=2,38=5/2;
 7//1,2,3,16;
 1/18=20,19=15,26=3/3(-5);
 2/9=110/2;
 6/7=2,8=2,9=2,10=2,19=2,28=1/1;
 99/9=1/99;
 -------------------
 Title Card Required
 -------------------
 Symbolic Z-matrix:
 Charge =  0 Multiplicity = 1
 C                     0.94186   0.08482  -0.08451 
 C                     2.4598    0.0846   -0.08105 
 C                     2.99839  -1.33891  -0.02598 
 C                     4.52381  -1.34515  -0.01523 
 C                     5.03151  -2.78055   0.02394 
 C                     6.55684  -2.83473   0.00003 
 C                     7.08964  -4.27705   0.02585 
 C                     6.61186  -5.08795  -1.18135 
 C                     8.61779  -4.26098   0.06358 
 H                     0.56406   1.11054  -0.12 
 H                     0.55047  -0.39489   0.81796 
 H                     0.55448  -0.45444  -0.95501 
 H                     2.82389   0.65287   0.78267 
 H                     2.8277    0.58739  -0.98224 
 H                     2.63405  -1.90469  -0.89351 
 H                     2.62138  -1.84698   0.86923 
 H                     4.89764  -0.79067   0.85409 
 H                     4.90281  -0.84336  -0.91258 
 H                     4.61903  -3.30672  -0.8438 
 H                     4.6576   -3.28666   0.92058 
 H                     6.9454   -2.28966   0.87137 
 H                     6.93035  -2.31399  -0.88904 
 H                     6.72956  -4.76836   0.93723 
 H                     6.91178  -4.61097  -2.11967 
 H                     5.52311  -5.19801  -1.18922 
 H                     7.02975  -6.09938  -1.16034 
 H                     9.03003  -3.77735  -0.82778 
 H                     9.01429  -5.28062   0.11162 
 H                     8.98043  -3.71822   0.94302 
 

 GradGradGradGradGradGradGradGradGradGradGradGradGradGradGradGradGradGrad
 Berny optimization.
 Initialization pass.
                           ----------------------------
                           !    Initial Parameters    !
                           ! (Angstroms and Degrees)  !
 --------------------------                            --------------------------
 ! Name  Definition              Value          Derivative Info.                !
 --------------------------------------------------------------------------------
 ! R1    R(1,2)                  1.5179         estimate D2E/DX2                !
 ! R2    R(1,10)                 1.0937         estimate D2E/DX2                !
 ! R3    R(1,11)                 1.0944         estimate D2E/DX2                !
 ! R4    R(1,12)                 1.0948         estimate D2E/DX2                !
 ! R5    R(2,3)                  1.523          estimate D2E/DX2                !
 ! R6    R(2,13)                 1.0961         estimate D2E/DX2                !
 ! R7    R(2,14)                 1.0956         estimate D2E/DX2                !
 ! R8    R(3,4)                  1.5255         estimate D2E/DX2                !
 ! R9    R(3,15)                 1.0979         estimate D2E/DX2                !
 ! R10   R(3,16)                 1.0962         estimate D2E/DX2                !
 ! R11   R(4,5)                  1.523          estimate D2E/DX2                !
 ! R12   R(4,17)                 1.0968         estimate D2E/DX2                !
 ! R13   R(4,18)                 1.0958         estimate D2E/DX2                !
 ! R14   R(5,6)                  1.5265         estimate D2E/DX2                !
 ! R15   R(5,19)                 1.0954         estimate D2E/DX2                !
 ! R16   R(5,20)                 1.0954         estimate D2E/DX2                !
 ! R17   R(6,7)                  1.5378         estimate D2E/DX2                !
 ! R18   R(6,21)                 1.0988         estimate D2E/DX2                !
 ! R19   R(6,22)                 1.096          estimate D2E/DX2                !
 ! R20   R(7,8)                  1.5307         estimate D2E/DX2                !
 ! R21   R(7,9)                  1.5287         estimate D2E/DX2                !
 ! R22   R(7,23)                 1.0962         estimate D2E/DX2                !
 ! R23   R(8,24)                 1.0945         estimate D2E/DX2                !
 ! R24   R(8,25)                 1.0943         estimate D2E/DX2                !
 ! R25   R(8,26)                 1.0946         estimate D2E/DX2                !
 ! R26   R(9,27)                 1.0947         estimate D2E/DX2                !
 ! R27   R(9,28)                 1.0951         estimate D2E/DX2                !
 ! R28   R(9,29)                 1.0952         estimate D2E/DX2                !
 ! A1    A(2,1,10)             110.2217         estimate D2E/DX2                !
 ! A2    A(2,1,11)             110.835          estimate D2E/DX2                !
 ! A3    A(2,1,12)             110.8283         estimate D2E/DX2                !
 ! A4    A(10,1,11)            108.3193         estimate D2E/DX2                !
 ! A5    A(10,1,12)            108.296          estimate D2E/DX2                !
 ! A6    A(11,1,12)            108.2532         estimate D2E/DX2                !
 ! A7    A(1,2,3)              110.7234         estimate D2E/DX2                !
 ! A8    A(1,2,13)             109.5044         estimate D2E/DX2                !
 ! A9    A(1,2,14)             109.5034         estimate D2E/DX2                !
 ! A10   A(3,2,13)             109.7923         estimate D2E/DX2                !
 ! A11   A(3,2,14)             109.8732         estimate D2E/DX2                !
 ! A12   A(13,2,14)            107.3795         estimate D2E/DX2                !
 ! A13   A(2,3,4)              110.9594         estimate D2E/DX2                !
 ! A14   A(2,3,15)             109.617          estimate D2E/DX2                !
 ! A15   A(2,3,16)             109.9445         estimate D2E/DX2                !
 ! A16   A(4,3,15)             109.5902         estimate D2E/DX2                !
 ! A17   A(4,3,16)             109.6492         estimate D2E/DX2                !
 ! A18   A(15,3,16)            106.9959         estimate D2E/DX2                !
 ! A19   A(3,4,5)              109.7168         estimate D2E/DX2                !
 ! A20   A(3,4,17)             110.1422         estimate D2E/DX2                !
 ! A21   A(3,4,18)             109.7688         estimate D2E/DX2                !
 ! A22   A(5,4,17)             110.0267         estimate D2E/DX2                !
 ! A23   A(5,4,18)             109.7156         estimate D2E/DX2                !
 ! A24   A(17,4,18)            107.4392         estimate D2E/DX2                !
 ! A25   A(4,5,6)              111.4779         estimate D2E/DX2                !
 ! A26   A(4,5,19)             107.8664         estimate D2E/DX2                !
 ! A27   A(4,5,20)             110.0419         estimate D2E/DX2                !
 ! A28   A(6,5,19)             110.2921         estimate D2E/DX2                !
 ! A29   A(6,5,20)             109.7251         estimate D2E/DX2                !
 ! A30   A(19,5,20)            107.3344         estimate D2E/DX2                !
 ! A31   A(5,6,7)              112.2863         estimate D2E/DX2                !
 ! A32   A(5,6,21)             108.8647         estimate D2E/DX2                !
 ! A33   A(5,6,22)             109.6572         estimate D2E/DX2                !
 ! A34   A(7,6,21)             109.2343         estimate D2E/DX2                !
 ! A35   A(7,6,22)             109.9492         estimate D2E/DX2                !
 ! A36   A(21,6,22)            106.6835         estimate D2E/DX2                !
 ! A37   A(6,7,8)              112.0534         estimate D2E/DX2                !
 ! A38   A(6,7,9)              109.6881         estimate D2E/DX2                !
 ! A39   A(6,7,23)             108.6942         estimate D2E/DX2                !
 ! A40   A(8,7,9)              109.6969         estimate D2E/DX2                !
 ! A41   A(8,7,23)             108.4042         estimate D2E/DX2                !
 ! A42   A(9,7,23)             108.2132         estimate D2E/DX2                !
 ! A43   A(7,8,24)             111.0828         estimate D2E/DX2                !
 ! A44   A(7,8,25)             111.6837         estimate D2E/DX2                !
 ! A45   A(7,8,26)             110.8062         estimate D2E/DX2                !
 ! A46   A(24,8,25)            108.077          estimate D2E/DX2                !
 ! A47   A(24,8,26)            108.333          estimate D2E/DX2                !
 ! A48   A(25,8,26)            106.6811         estimate D2E/DX2                !
 ! A49   A(7,9,27)             111.1611         estimate D2E/DX2                !
 ! A50   A(7,9,28)             110.6856         estimate D2E/DX2                !
 ! A51   A(7,9,29)             110.856          estimate D2E/DX2                !
 ! A52   A(27,9,28)            108.1033         estimate D2E/DX2                !
 ! A53   A(27,9,29)            108.0712         estimate D2E/DX2                !
 ! A54   A(28,9,29)            107.8376         estimate D2E/DX2                !
 ! D1    D(10,1,2,3)           179.7675         estimate D2E/DX2                !
 ! D2    D(10,1,2,13)           58.5636         estimate D2E/DX2                !
 ! D3    D(10,1,2,14)          -58.9284         estimate D2E/DX2                !
 ! D4    D(11,1,2,3)            59.8614         estimate D2E/DX2                !
 ! D5    D(11,1,2,13)          -61.3424         estimate D2E/DX2                !
 ! D6    D(11,1,2,14)         -178.8345         estimate D2E/DX2                !
 ! D7    D(12,1,2,3)           -60.3599         estimate D2E/DX2                !
 ! D8    D(12,1,2,13)          178.4362         estimate D2E/DX2                !
 ! D9    D(12,1,2,14)           60.9442         estimate D2E/DX2                !
 ! D10   D(1,2,3,4)           -179.7168         estimate D2E/DX2                !
 ! D11   D(1,2,3,15)            59.1052         estimate D2E/DX2                !
 ! D12   D(1,2,3,16)           -58.2463         estimate D2E/DX2                !
 ! D13   D(13,2,3,4)           -58.6833         estimate D2E/DX2                !
 ! D14   D(13,2,3,15)         -179.8613         estimate D2E/DX2                !
 ! D15   D(13,2,3,16)           62.7872         estimate D2E/DX2                !
 ! D16   D(14,2,3,4)            59.1976         estimate D2E/DX2                !
 ! D17   D(14,2,3,15)          -61.9803         estimate D2E/DX2                !
 ! D18   D(14,2,3,16)         -179.3319         estimate D2E/DX2                !
 ! D19   D(2,3,4,5)           -179.3564         estimate D2E/DX2                !
 ! D20   D(2,3,4,17)            59.3829         estimate D2E/DX2                !
 ! D21   D(2,3,4,18)           -58.7185         estimate D2E/DX2                !
 ! D22   D(15,3,4,5)           -58.1627         estimate D2E/DX2                !
 ! D23   D(15,3,4,17)         -179.4234         estimate D2E/DX2                !
 ! D24   D(15,3,4,18)           62.4752         estimate D2E/DX2                !
 ! D25   D(16,3,4,5)            59.0            estimate D2E/DX2                !
 ! D26   D(16,3,4,17)          -62.2608         estimate D2E/DX2                !
 ! D27   D(16,3,4,18)          179.6378         estimate D2E/DX2                !
 ! D28   D(3,4,5,6)            178.5543         estimate D2E/DX2                !
 ! D29   D(3,4,5,19)            57.3293         estimate D2E/DX2                !
 ! D30   D(3,4,5,20)           -59.4666         estimate D2E/DX2                !
 ! D31   D(17,4,5,6)           -60.1155         estimate D2E/DX2                !
 ! D32   D(17,4,5,19)          178.6595         estimate D2E/DX2                !
 ! D33   D(17,4,5,20)           61.8636         estimate D2E/DX2                !
 ! D34   D(18,4,5,6)            57.8842         estimate D2E/DX2                !
 ! D35   D(18,4,5,19)          -63.3408         estimate D2E/DX2                !
 ! D36   D(18,4,5,20)          179.8633         estimate D2E/DX2                !
 ! D37   D(4,5,6,7)           -179.4706         estimate D2E/DX2                !
 ! D38   D(4,5,6,21)            59.4465         estimate D2E/DX2                !
 ! D39   D(4,5,6,22)           -56.9263         estimate D2E/DX2                !
 ! D40   D(19,5,6,7)           -59.6693         estimate D2E/DX2                !
 ! D41   D(19,5,6,21)          179.2478         estimate D2E/DX2                !
 ! D42   D(19,5,6,22)           62.875          estimate D2E/DX2                !
 ! D43   D(20,5,6,7)            58.3675         estimate D2E/DX2                !
 ! D44   D(20,5,6,21)          -62.7154         estimate D2E/DX2                !
 ! D45   D(20,5,6,22)         -179.0882         estimate D2E/DX2                !
 ! D46   D(5,6,7,8)             60.4369         estimate D2E/DX2                !
 ! D47   D(5,6,7,9)           -177.4776         estimate D2E/DX2                !
 ! D48   D(5,6,7,23)           -59.3444         estimate D2E/DX2                !
 ! D49   D(21,6,7,8)          -178.6928         estimate D2E/DX2                !
 ! D50   D(21,6,7,9)           -56.6072         estimate D2E/DX2                !
 ! D51   D(21,6,7,23)           61.5259         estimate D2E/DX2                !
 ! D52   D(22,6,7,8)           -61.9422         estimate D2E/DX2                !
 ! D53   D(22,6,7,9)            60.1434         estimate D2E/DX2                !
 ! D54   D(22,6,7,23)          178.2766         estimate D2E/DX2                !
 ! D55   D(6,7,8,24)            57.6095         estimate D2E/DX2                !
 ! D56   D(6,7,8,25)           -63.1324         estimate D2E/DX2                !
 ! D57   D(6,7,8,26)           178.0813         estimate D2E/DX2                !
 ! D58   D(9,7,8,24)           -64.471          estimate D2E/DX2                !
 ! D59   D(9,7,8,25)           174.7871         estimate D2E/DX2                !
 ! D60   D(9,7,8,26)            56.0008         estimate D2E/DX2                !
 ! D61   D(23,7,8,24)          177.5603         estimate D2E/DX2                !
 ! D62   D(23,7,8,25)           56.8183         estimate D2E/DX2                !
 ! D63   D(23,7,8,26)          -61.9679         estimate D2E/DX2                !
 ! D64   D(6,7,9,27)           -61.4845         estimate D2E/DX2                !
 ! D65   D(6,7,9,28)           178.362          estimate D2E/DX2                !
 ! D66   D(6,7,9,29)            58.7424         estimate D2E/DX2                !
 ! D67   D(8,7,9,27)            61.9966         estimate D2E/DX2                !
 ! D68   D(8,7,9,28)           -58.157          estimate D2E/DX2                !
 ! D69   D(8,7,9,29)          -177.7766         estimate D2E/DX2                !
 ! D70   D(23,7,9,27)         -179.916          estimate D2E/DX2                !
 ! D71   D(23,7,9,28)           59.9305         estimate D2E/DX2                !
 ! D72   D(23,7,9,29)          -59.6891         estimate D2E/DX2                !
 --------------------------------------------------------------------------------
 Trust Radius=3.00D-01 FncErr=1.00D-07 GrdErr=1.00D-06 EigMax=2.50D+02 EigMin=1.00D-04
 Number of steps in this run=    164 maximum allowed number of steps=    174.
 GradGradGradGradGradGradGradGradGradGradGradGradGradGradGradGradGradGrad

                          Input orientation:                          
 ---------------------------------------------------------------------
 Center     Atomic      Atomic             Coordinates (Angstroms)
 Number     Number       Type             X           Y           Z
 ---------------------------------------------------------------------
      1          6           0        0.941860    0.084820   -0.084510
      2          6           0        2.459800    0.084600   -0.081050
      3          6           0        2.998390   -1.338910   -0.025980
      4          6           0        4.523810   -1.345150   -0.015230
      5          6           0        5.031510   -2.780550    0.023940
      6          6           0        6.556840   -2.834730    0.000030
      7          6           0        7.089640   -4.277050    0.025850
      8          6           0        6.611860   -5.087950   -1.181350
      9          6           0        8.617790   -4.260980    0.063580
     10          1           0        0.564060    1.110540   -0.120000
     11          1           0        0.550470   -0.394890    0.817960
     12          1           0        0.554480   -0.454440   -0.955010
     13          1           0        2.823890    0.652870    0.782670
     14          1           0        2.827700    0.587390   -0.982240
     15          1           0        2.634050   -1.904690   -0.893510
     16          1           0        2.621380   -1.846980    0.869230
     17          1           0        4.897640   -0.790670    0.854090
     18          1           0        4.902810   -0.843360   -0.912580
     19          1           0        4.619030   -3.306720   -0.843800
     20          1           0        4.657600   -3.286660    0.920580
     21          1           0        6.945400   -2.289660    0.871370
     22          1           0        6.930350   -2.313990   -0.889040
     23          1           0        6.729560   -4.768360    0.937230
     24          1           0        6.911780   -4.610970   -2.119670
     25          1           0        5.523110   -5.198010   -1.189220
     26          1           0        7.029750   -6.099380   -1.160340
     27          1           0        9.030030   -3.777350   -0.827780
     28          1           0        9.014290   -5.280620    0.111620
     29          1           0        8.980430   -3.718220    0.943020
 ---------------------------------------------------------------------
                    Distance matrix (angstroms):
                    1          2          3          4          5
     1  C    0.000000
     2  C    1.517944   0.000000
     3  C    2.501949   1.522988   0.000000
     4  C    3.857458   2.511704   1.525471   0.000000
     5  C    4.994732   3.851467   2.492869   1.523045   0.000000
     6  C    6.329212   5.031381   3.860145   2.520375   1.526479
     7  C    7.538786   6.361669   5.037229   3.896307   2.544684
     8  C    7.753032   6.723506   5.333605   4.441660   3.045378
     9  C    8.822007   7.538291   6.334364   5.026823   3.880032
    10  H    1.093661   2.155899   3.454650   4.660580   5.926163
    11  H    1.094422   2.164179   2.756034   4.169488   5.138245
    12  H    1.094822   2.164397   2.760087   4.175180   5.139351
    13  H    2.148655   1.096132   2.156746   2.741980   4.151823
    14  H    2.148229   1.095578   2.157359   2.747109   4.148758
    15  H    2.734253   2.155859   1.097934   2.157696   2.712316
    16  H    2.731714   2.158736   1.096208   2.157161   2.719337
    17  H    4.158804   2.753842   2.163849   1.096774   2.160253
    18  H    4.151667   2.742417   2.158343   1.095751   2.155537
    19  H    5.059708   4.092079   2.677234   2.131514   1.095430
    20  H    5.117012   4.147165   2.728128   2.159421   1.095408
    21  H    6.526435   5.163799   4.157890   2.746317   2.149904
    22  H    6.501044   5.137305   4.141976   2.737449   2.157963
    23  H    7.621993   6.543620   5.158540   4.182210   2.769271
    24  H    7.863349   6.784134   5.514031   4.560334   3.388350
    25  H    7.079303   6.206277   4.756048   4.149865   2.749098
    26  H    8.744378   7.764723   6.340403   5.494881   4.050940
    27  H    8.993737   7.657688   6.555117   5.184771   4.207992
    28  H    9.694872   8.472547   7.193543   5.972305   4.703251
    29  H    8.951957   7.617662   6.510367   5.139180   4.161478
                    6          7          8          9         10
     6  C    0.000000
     7  C    1.537800   0.000000
     8  C    2.544737   1.530740   0.000000
     9  C    2.507138   1.528700   2.501497   0.000000
    10  H    7.175861   8.463486   8.724885   9.682432   0.000000
    11  H    6.534394   7.645871   7.922279   8.977605   1.773774
    12  H    6.527343   7.634314   7.629711   8.974644   1.773836
    13  H    5.168249   6.563041   7.152839   7.631008   2.476107
    14  H    5.155797   6.545468   6.824148   7.624013   2.478146
    15  H    4.129367   5.130848   5.102839   6.501790   3.738287
    16  H    4.149579   5.155762   5.534681   6.514092   3.736050
    17  H    2.767769   4.200677   5.054521   5.148541   4.831497
    18  H    2.744855   4.177691   4.583627   5.141409   4.823967
    19  H    2.165625   2.793160   2.694085   4.209992   6.039773
    20  H    2.158417   2.774208   3.388493   4.167356   6.097151
    21  H    1.098778   2.164585   3.486450   2.708416   7.298334
    22  H    1.095959   2.171636   2.807443   2.746945   7.269696
    23  H    2.155714   1.096201   2.145780   2.141521   8.584439
    24  H    2.788214   2.178622   1.094489   2.792766   8.776554
    25  H    2.840423   2.185996   1.094327   3.467647   8.095259
    26  H    3.496862   2.175206   1.094561   2.720214   9.740144
    27  H    2.773170   2.177957   2.773126   1.094697   9.801279
    28  H    3.468990   2.172277   2.735062   1.095073  10.597498
    29  H    2.746557   2.174530   3.463991   1.095222   9.761261
                   11         12         13         14         15
    11  H    0.000000
    12  H    1.773974   0.000000
    13  H    2.503495   3.065271   0.000000
    14  H    3.064534   2.500736   1.766128   0.000000
    15  H    3.090296   2.536064   3.063777   2.501167   0.000000
    16  H    2.529795   3.088543   2.509532   3.065398   1.763730
    17  H    4.365299   4.716877   2.527716   3.091247   3.069037
    18  H    4.705184   4.365894   3.071561   2.521503   2.504807
    19  H    5.271943   4.966733   4.641798   4.288604   2.430700
    20  H    5.024080   5.326810   4.347575   4.688019   3.048855
    21  H    6.669943   6.895474   5.064898   5.354320   4.674478
    22  H    6.877475   6.641837   5.334781   5.025776   4.315755
    23  H    7.571170   7.766730   6.683403   6.898763   5.322163
    24  H    8.177485   7.684298   7.269280   6.707936   5.208300
    25  H    7.199020   6.873398   6.738467   6.385838   4.390908
    26  H    8.856407   8.592824   8.188860   7.899483   6.081842
    27  H    9.276445   9.104552   7.793367   7.585757   6.664813
    28  H    9.798241   9.797862   8.601027   8.596742   7.287980
    29  H    9.062251   9.233169   7.552160   7.752483   6.851151
                   16         17         18         19         20
    16  H    0.000000
    17  H    2.509458   0.000000
    18  H    3.063825   1.767463   0.000000
    19  H    3.009305   3.048108   2.480606   0.000000
    20  H    2.494295   2.508387   3.064363   1.764916   0.000000
    21  H    4.346622   2.537832   3.073505   3.064020   2.496089
    22  H    4.677268   3.080733   2.504840   2.515901   3.063691
    23  H    5.041451   4.380053   4.707912   3.124547   2.547299
    24  H    5.914448   5.243539   4.437106   2.930122   4.009769
    25  H    4.887398   4.898058   4.407298   2.124536   2.975504
    26  H    6.452580   6.065165   5.675474   3.702799   4.227141
    27  H    6.904851   5.368947   5.064527   4.436065   4.734520
    28  H    7.296105   6.136589   6.135351   4.911967   4.859119
    29  H    6.629065   5.024702   5.323068   4.731159   4.344376
                   21         22         23         24         25
    21  H    0.000000
    22  H    1.760642   0.000000
    23  H    2.488951   3.065862   0.000000
    24  H    3.786282   2.605938   3.066368   0.000000
    25  H    3.837635   3.223043   2.482320   1.771654   0.000000
    26  H    4.318440   3.796401   2.502305   1.774710   1.755923
    27  H    3.073437   2.560045   3.064233   2.617420   3.800974
    28  H    3.715288   3.760987   2.482747   3.138094   3.726573
    29  H    2.487421   3.087253   2.483796   3.802155   4.323111
                   26         27         28         29
    26  H    0.000000
    27  H    3.082781   0.000000
    28  H    2.495325   1.772721   0.000000
    29  H    3.728163   1.772481   1.770160   0.000000
 Stoichiometry    C9H20
 Framework group  C1[X(C9H20)]
 Deg. of freedom    81
 Full point group                 C1      NOp   1
 Largest Abelian subgroup         C1      NOp   1
 Largest concise Abelian subgroup C1      NOp   1
                         Standard orientation:                         
 ---------------------------------------------------------------------
 Center     Atomic      Atomic             Coordinates (Angstroms)
 Number     Number       Type             X           Y           Z
 ---------------------------------------------------------------------
      1          6           0       -4.726665    0.386574   -0.093434
      2          6           0       -3.508151   -0.442189    0.270612
      3          6           0       -2.230117    0.249858   -0.184570
      4          6           0       -1.002260   -0.581965    0.172499
      5          6           0        0.258592    0.142455   -0.280418
      6          6           0        1.516086   -0.639824    0.089563
      7          6           0        2.801656    0.081786   -0.347951
      8          6           0        2.941545    1.456591    0.310459
      9          6           0        4.017514   -0.779402   -0.005943
     10          1           0       -5.639446   -0.119562    0.233292
     11          1           0       -4.785595    0.537447   -1.175804
     12          1           0       -4.687269    1.369023    0.388101
     13          1           0       -3.583287   -1.429505   -0.199566
     14          1           0       -3.481861   -0.597209    1.354849
     15          1           0       -2.156536    1.237243    0.289892
     16          1           0       -2.260374    0.416260   -1.267653
     17          1           0       -1.061555   -1.567303   -0.305525
     18          1           0       -0.966593   -0.744039    1.255611
     19          1           0        0.269953    1.128065    0.197507
     20          1           0        0.229608    0.305138   -1.363291
     21          1           0        1.474150   -1.627415   -0.390249
     22          1           0        1.535784   -0.816051    1.171081
     23          1           0        2.774466    0.219847   -1.435084
     24          1           0        2.929881    1.373517    1.401729
     25          1           0        2.133364    2.131648    0.012644
     26          1           0        3.878487    1.937199    0.011763
     27          1           0        4.090474   -0.949382    1.073014
     28          1           0        4.941264   -0.293376   -0.337076
     29          1           0        3.955874   -1.754842   -0.500138
 ---------------------------------------------------------------------
 Rotational constants (GHZ):           5.2247522           0.4427883           0.4227423
 Standard basis: 6-31G(2df,p) (6D, 7F)
 There are   379 symmetry adapted cartesian basis functions of A   symmetry.
 There are   352 symmetry adapted basis functions of A   symmetry.
   352 basis functions,   536 primitive gaussians,   379 cartesian basis functions
    37 alpha electrons       37 beta electrons
       nuclear repulsion energy       461.9646806424 Hartrees.
 NAtoms=   29 NActive=   29 NUniq=   29 SFac= 1.00D+00 NAtFMM=   60 NAOKFM=F Big=F
 Integral buffers will be    131072 words long.
 Raffenetti 2 integral format.
 Two-electron integral symmetry is turned on.
 One-electron integrals computed using PRISM.
 PrsmSu:  requested number of processors reduced to:  13 ShMem   1 Linda.
 NBasis=   352 RedAO= T EigKep=  4.98D-04  NBF=   352
 NBsUse=   352 1.00D-06 EigRej= -1.00D+00 NBFU=   352
 ExpMin= 1.61D-01 ExpMax= 3.05D+03 ExpMxC= 4.57D+02 IAcc=3 IRadAn=         5 AccDes= 0.00D+00
 Harris functional with IExCor=  402 and IRadAn=       5 diagonalized for initial guess.
 HarFok:  IExCor=  402 AccDes= 0.00D+00 IRadAn=         5 IDoV= 1 UseB2=F ITyADJ=14
 ICtDFT=  3500011 ScaDFX=  1.000000  1.000000  1.000000  1.000000
 FoFCou: FMM=F IPFlag=           0 FMFlag=      100000 FMFlg1=           0
         NFxFlg=           0 DoJE=T BraDBF=F KetDBF=T FulRan=T
         wScrn=  0.000000 ICntrl=       500 IOpCl=  0 I1Cent=   200000004 NGrid=           0
         NMat0=    1 NMatS0=      1 NMatT0=    0 NMatD0=    1 NMtDS0=    0 NMtDT0=    0
 Petite list used in FoFCou.
 Requested convergence on RMS density matrix=1.00D-08 within 128 cycles.
 Requested convergence on MAX density matrix=1.00D-06.
 Requested convergence on             energy=1.00D-06.
 No special actions if energy rises.
 Integral accuracy reduced to 1.0D-05 until final iterations.
 Initial convergence to 1.0D-05 achieved.  Increase integral accuracy.
 SCF Done:  E(RB3LYP) =  -355.052942824     A.U. after   11 cycles
            NFock= 11  Conv=0.93D-08     -V/T= 2.0089

 **********************************************************************

            Population analysis using the SCF density.

 **********************************************************************

 Orbital symmetries:
       Occupied  (A) (A) (A) (A) (A) (A) (A) (A) (A) (A) (A) (A)
                 (A) (A) (A) (A) (A) (A) (A) (A) (A) (A) (A) (A)
                 (A) (A) (A) (A) (A) (A) (A) (A) (A) (A) (A) (A)
                 (A)
       Virtual   (A) (A) (A) (A) (A) (A) (A) (A) (A) (A) (A) (A)
                 (A) (A) (A) (A) (A) (A) (A) (A) (A) (A) (A) (A)
                 (A) (A) (A) (A) (A) (A) (A) (A) (A) (A) (A) (A)
                 (A) (A) (A) (A) (A) (A) (A) (A) (A) (A) (A) (A)
                 (A) (A) (A) (A) (A) (A) (A) (A) (A) (A) (A) (A)
                 (A) (A) (A) (A) (A) (A) (A) (A) (A) (A) (A) (A)
                 (A) (A) (A) (A) (A) (A) (A) (A) (A) (A) (A) (A)
                 (A) (A) (A) (A) (A) (A) (A) (A) (A) (A) (A) (A)
                 (A) (A) (A) (A) (A) (A) (A) (A) (A) (A) (A) (A)
                 (A) (A) (A) (A) (A) (A) (A) (A) (A) (A) (A) (A)
                 (A) (A) (A) (A) (A) (A) (A) (A) (A) (A) (A) (A)
                 (A) (A) (A) (A) (A) (A) (A) (A) (A) (A) (A) (A)
                 (A) (A) (A) (A) (A) (A) (A) (A) (A) (A) (A) (A)
                 (A) (A) (A) (A) (A) (A) (A) (A) (A) (A) (A) (A)
                 (A) (A) (A) (A) (A) (A) (A) (A) (A) (A) (A) (A)
                 (A) (A) (A) (A) (A) (A) (A) (A) (A) (A) (A) (A)
                 (A) (A) (A) (A) (A) (A) (A) (A) (A) (A) (A) (A)
                 (A) (A) (A) (A) (A) (A) (A) (A) (A) (A) (A) (A)
                 (A) (A) (A) (A) (A) (A) (A) (A) (A) (A) (A) (A)
                 (A) (A) (A) (A) (A) (A) (A) (A) (A) (A) (A) (A)
                 (A) (A) (A) (A) (A) (A) (A) (A) (A) (A) (A) (A)
                 (A) (A) (A) (A) (A) (A) (A) (A) (A) (A) (A) (A)
                 (A) (A) (A) (A) (A) (A) (A) (A) (A) (A) (A) (A)
                 (A) (A) (A) (A) (A) (A) (A) (A) (A) (A) (A) (A)
                 (A) (A) (A) (A) (A) (A) (A) (A) (A) (A) (A) (A)
                 (A) (A) (A) (A) (A) (A) (A) (A) (A) (A) (A) (A)
                 (A) (A) (A)
 The electronic state is 1-A.
 Alpha  occ. eigenvalues --  -10.17787 -10.17019 -10.16839 -10.16794 -10.16786
 Alpha  occ. eigenvalues --  -10.16705 -10.16530 -10.16521 -10.16421  -0.81386
 Alpha  occ. eigenvalues --   -0.79293  -0.75218  -0.69515  -0.67565  -0.63202
 Alpha  occ. eigenvalues --   -0.57875  -0.57226  -0.54968  -0.47971  -0.45834
 Alpha  occ. eigenvalues --   -0.43587  -0.43377  -0.42309  -0.40518  -0.39384
 Alpha  occ. eigenvalues --   -0.38372  -0.37796  -0.35990  -0.34943  -0.34541
 Alpha  occ. eigenvalues --   -0.33318  -0.32666  -0.32556  -0.31975  -0.31644
 Alpha  occ. eigenvalues --   -0.31008  -0.28179
 Alpha virt. eigenvalues --    0.08591   0.09473   0.11248   0.11396   0.12050
 Alpha virt. eigenvalues --    0.13946   0.14838   0.14967   0.15537   0.16837
 Alpha virt. eigenvalues --    0.17034   0.17780   0.18665   0.19508   0.19878
 Alpha virt. eigenvalues --    0.20010   0.20455   0.21029   0.21772   0.22536
 Alpha virt. eigenvalues --    0.22804   0.23926   0.24182   0.25486   0.26658
 Alpha virt. eigenvalues --    0.28011   0.30453   0.31666   0.42531   0.45784
 Alpha virt. eigenvalues --    0.47074   0.48099   0.48861   0.49816   0.52093
 Alpha virt. eigenvalues --    0.53049   0.53882   0.54557   0.55664   0.56820
 Alpha virt. eigenvalues --    0.58793   0.60163   0.61527   0.62734   0.62805
 Alpha virt. eigenvalues --    0.63205   0.65081   0.65998   0.67986   0.68841
 Alpha virt. eigenvalues --    0.69672   0.70857   0.71922   0.73198   0.73739
 Alpha virt. eigenvalues --    0.73939   0.74584   0.75009   0.75347   0.76130
 Alpha virt. eigenvalues --    0.76462   0.78014   0.78764   0.79577   0.80582
 Alpha virt. eigenvalues --    0.80775   0.81511   0.82648   0.83484   0.84082
 Alpha virt. eigenvalues --    0.86292   0.87119   0.87759   0.89102   0.89574
 Alpha virt. eigenvalues --    0.90168   0.91782   0.93883   1.04047   1.07282
 Alpha virt. eigenvalues --    1.09726   1.10701   1.11145   1.16104   1.18228
 Alpha virt. eigenvalues --    1.20313   1.20775   1.23557   1.24761   1.24986
 Alpha virt. eigenvalues --    1.25988   1.32342   1.33768   1.34654   1.37242
 Alpha virt. eigenvalues --    1.38797   1.39509   1.40705   1.41583   1.45486
 Alpha virt. eigenvalues --    1.46630   1.49392   1.50671   1.52235   1.54050
 Alpha virt. eigenvalues --    1.55946   1.56706   1.57321   1.60939   1.62961
 Alpha virt. eigenvalues --    1.65502   1.69190   1.70051   1.71251   1.72488
 Alpha virt. eigenvalues --    1.79954   1.80151   1.83741   1.84615   1.85382
 Alpha virt. eigenvalues --    1.87059   1.87680   1.88192   1.89358   1.93166
 Alpha virt. eigenvalues --    1.93879   1.94362   1.96247   1.96569   1.97552
 Alpha virt. eigenvalues --    1.99228   2.02160   2.14045   2.16418   2.19378
 Alpha virt. eigenvalues --    2.20470   2.21442   2.22946   2.23253   2.24473
 Alpha virt. eigenvalues --    2.27707   2.29927   2.30604   2.32675   2.35191
 Alpha virt. eigenvalues --    2.38369   2.39352   2.40777   2.42949   2.43631
 Alpha virt. eigenvalues --    2.46957   2.53547   2.56173   2.58228   2.63242
 Alpha virt. eigenvalues --    2.64354   2.69366   2.74157   2.74449   2.74867
 Alpha virt. eigenvalues --    2.76079   2.76312   2.77105   2.78579   2.79406
 Alpha virt. eigenvalues --    2.80081   2.81161   2.82388   2.83238   2.83998
 Alpha virt. eigenvalues --    2.85865   2.86320   2.86742   2.87370   2.89567
 Alpha virt. eigenvalues --    2.90460   2.92421   2.92691   2.93541   2.93925
 Alpha virt. eigenvalues --    2.95047   2.96391   2.96872   2.97982   2.98845
 Alpha virt. eigenvalues --    3.00899   3.03435   3.05569   3.07217   3.07767
 Alpha virt. eigenvalues --    3.11492   3.13791   3.15509   3.17113   3.20484
 Alpha virt. eigenvalues --    3.22719   3.24523   3.25735   3.27806   3.29946
 Alpha virt. eigenvalues --    3.35627   3.37585   3.39923   3.40448   3.43039
 Alpha virt. eigenvalues --    3.44983   3.47622   3.51673   3.52803   3.53935
 Alpha virt. eigenvalues --    3.54439   3.55997   3.58338   3.59340   3.60668
 Alpha virt. eigenvalues --    3.62238   3.63437   3.64774   3.67132   3.68217
 Alpha virt. eigenvalues --    3.70973   3.71158   3.74264   3.74931   3.76283
 Alpha virt. eigenvalues --    3.76718   3.79970   3.81469   3.82442   3.83382
 Alpha virt. eigenvalues --    3.87106   3.89211   3.90726   3.92541   3.98346
 Alpha virt. eigenvalues --    4.02200   4.03822   4.12716   4.16297   4.21124
 Alpha virt. eigenvalues --    4.28493   4.37980   4.39288   4.41383   4.42051
 Alpha virt. eigenvalues --    4.42895   4.44134   4.44980   4.46789   4.50297
 Alpha virt. eigenvalues --    4.51161   4.53270   4.54498   4.55259   4.56593
 Alpha virt. eigenvalues --    4.58268   4.59036   4.59592   4.60360   4.61396
 Alpha virt. eigenvalues --    4.63724   4.64123   4.65233   4.66018   4.67159
 Alpha virt. eigenvalues --    4.68053   4.70215   4.70545   4.72327   4.72577
 Alpha virt. eigenvalues --    4.74224   4.77254   4.77580   4.78993   4.79553
 Alpha virt. eigenvalues --    4.80160   4.81458   4.83794   4.84822   4.85695
 Alpha virt. eigenvalues --    4.86245   4.88400   4.89833   4.91707   4.93271
 Alpha virt. eigenvalues --    4.94448   4.96715   4.97004   5.00483   5.02001
 Alpha virt. eigenvalues --    5.11537   5.19058   5.23013   5.26424   5.32685
 Alpha virt. eigenvalues --    5.36199   5.37264   5.44857   5.48397   5.50192
 Alpha virt. eigenvalues --    5.51565   5.53819   5.62219   5.65614   5.77539
 Alpha virt. eigenvalues --    6.30109  11.12391  11.30980  11.57941  11.83292
 Alpha virt. eigenvalues --   11.88169  12.13747  12.30217  12.44619  12.63434
          Condensed to atoms (all electrons):
               1          2          3          4          5          6
     1  C    4.955368   0.403972  -0.036554   0.002425  -0.000173   0.000001
     2  C    0.403972   4.776032   0.430161  -0.034213   0.002163  -0.000161
     3  C   -0.036554   0.430161   4.772527   0.427709  -0.035707   0.002133
     4  C    0.002425  -0.034213   0.427709   4.805754   0.425533  -0.034965
     5  C   -0.000173   0.002163  -0.035707   0.425533   4.805636   0.425331
     6  C    0.000001  -0.000161   0.002133  -0.034965   0.425331   4.827050
     7  C   -0.000000   0.000001  -0.000138   0.002026  -0.029531   0.427908
     8  C    0.000000   0.000000   0.000007   0.000533  -0.004189  -0.033742
     9  C    0.000000  -0.000000   0.000001  -0.000154   0.002241  -0.033794
    10  H    0.370026  -0.022004   0.003457  -0.000181   0.000001  -0.000000
    11  H    0.379104  -0.029186  -0.004644   0.000191   0.000006   0.000000
    12  H    0.378899  -0.029094  -0.004522   0.000192   0.000006   0.000000
    13  H   -0.036068   0.370469  -0.033172  -0.002419   0.000177   0.000009
    14  H   -0.036160   0.370342  -0.032639  -0.002539   0.000200   0.000008
    15  H   -0.002603  -0.035895   0.364746  -0.032013  -0.003376   0.000203
    16  H   -0.002800  -0.036085   0.365661  -0.032740  -0.002181   0.000192
    17  H    0.000108  -0.003017  -0.031557   0.362469  -0.032107  -0.002487
    18  H    0.000108  -0.003265  -0.032033   0.362659  -0.031197  -0.002957
    19  H    0.000008   0.000178  -0.003278  -0.032424   0.364180  -0.031340
    20  H    0.000007   0.000124  -0.002976  -0.033151   0.362660  -0.032762
    21  H    0.000000   0.000010   0.000161  -0.002479  -0.032383   0.356174
    22  H    0.000000   0.000007   0.000172  -0.003300  -0.033775   0.357153
    23  H    0.000000   0.000000   0.000006   0.000111  -0.003985  -0.043245
    24  H    0.000000  -0.000000   0.000001  -0.000053  -0.000320  -0.006848
    25  H    0.000000  -0.000000   0.000004  -0.000073  -0.000612  -0.003245
    26  H   -0.000000  -0.000000  -0.000000  -0.000008   0.000142   0.004086
    27  H    0.000000   0.000000   0.000000   0.000002   0.000178  -0.006753
    28  H   -0.000000   0.000000  -0.000000   0.000001  -0.000167   0.003732
    29  H    0.000000   0.000000   0.000000   0.000004   0.000167  -0.003446
               7          8          9         10         11         12
     1  C   -0.000000   0.000000   0.000000   0.370026   0.379104   0.378899
     2  C    0.000001   0.000000  -0.000000  -0.022004  -0.029186  -0.029094
     3  C   -0.000138   0.000007   0.000001   0.003457  -0.004644  -0.004522
     4  C    0.002026   0.000533  -0.000154  -0.000181   0.000191   0.000192
     5  C   -0.029531  -0.004189   0.002241   0.000001   0.000006   0.000006
     6  C    0.427908  -0.033742  -0.033794  -0.000000   0.000000   0.000000
     7  C    4.579265   0.415455   0.401705   0.000000   0.000000   0.000000
     8  C    0.415455   4.986538  -0.045785  -0.000000  -0.000000   0.000000
     9  C    0.401705  -0.045785   5.009175  -0.000000   0.000000   0.000000
    10  H    0.000000  -0.000000  -0.000000   0.613441  -0.032054  -0.032085
    11  H    0.000000  -0.000000   0.000000  -0.032054   0.603823  -0.033666
    12  H    0.000000   0.000000   0.000000  -0.032085  -0.033666   0.604101
    13  H    0.000000  -0.000000   0.000000  -0.002464  -0.004490   0.005756
    14  H    0.000000   0.000000   0.000000  -0.002348   0.005755  -0.004583
    15  H    0.000012  -0.000011   0.000000  -0.000053  -0.000419   0.005127
    16  H    0.000007   0.000000   0.000000  -0.000045   0.005186  -0.000418
    17  H    0.000048  -0.000001   0.000001   0.000004   0.000005   0.000009
    18  H    0.000190  -0.000014   0.000007   0.000004   0.000010   0.000004
    19  H   -0.005694   0.001055   0.000128   0.000000   0.000001  -0.000003
    20  H   -0.002064  -0.001056   0.000141   0.000000  -0.000002   0.000001
    21  H   -0.028700   0.005308  -0.003894   0.000000   0.000000  -0.000000
    22  H   -0.028537  -0.008982  -0.004251   0.000000  -0.000000   0.000000
    23  H    0.365124  -0.048280  -0.042978   0.000000  -0.000000  -0.000000
    24  H   -0.026528   0.372803  -0.005006  -0.000000   0.000000  -0.000000
    25  H   -0.023052   0.370812   0.005107  -0.000000  -0.000000   0.000000
    26  H   -0.024813   0.370853  -0.004701   0.000000   0.000000  -0.000000
    27  H   -0.024933  -0.006016   0.373258  -0.000000   0.000000  -0.000000
    28  H   -0.021164  -0.003428   0.366946   0.000000  -0.000000  -0.000000
    29  H   -0.022474   0.005161   0.367594  -0.000000  -0.000000  -0.000000
              13         14         15         16         17         18
     1  C   -0.036068  -0.036160  -0.002603  -0.002800   0.000108   0.000108
     2  C    0.370469   0.370342  -0.035895  -0.036085  -0.003017  -0.003265
     3  C   -0.033172  -0.032639   0.364746   0.365661  -0.031557  -0.032033
     4  C   -0.002419  -0.002539  -0.032013  -0.032740   0.362469   0.362659
     5  C    0.000177   0.000200  -0.003376  -0.002181  -0.032107  -0.031197
     6  C    0.000009   0.000008   0.000203   0.000192  -0.002487  -0.002957
     7  C    0.000000   0.000000   0.000012   0.000007   0.000048   0.000190
     8  C   -0.000000   0.000000  -0.000011   0.000000  -0.000001  -0.000014
     9  C    0.000000   0.000000   0.000000   0.000000   0.000001   0.000007
    10  H   -0.002464  -0.002348  -0.000053  -0.000045   0.000004   0.000004
    11  H   -0.004490   0.005755  -0.000419   0.005186   0.000005   0.000010
    12  H    0.005756  -0.004583   0.005127  -0.000418   0.000009   0.000004
    13  H    0.647731  -0.041818   0.006327  -0.005578   0.004955  -0.000471
    14  H   -0.041818   0.647549  -0.005765   0.006303  -0.000454   0.005040
    15  H    0.006327  -0.005765   0.651778  -0.043118   0.006235  -0.005494
    16  H   -0.005578   0.006303  -0.043118   0.651296  -0.005486   0.006261
    17  H    0.004955  -0.000454   0.006235  -0.005486   0.650865  -0.043214
    18  H   -0.000471   0.005040  -0.005494   0.006261  -0.043214   0.649466
    19  H    0.000010   0.000003   0.005944  -0.000560   0.006346  -0.005779
    20  H    0.000005   0.000007  -0.000458   0.005110  -0.005708   0.006288
    21  H   -0.000002   0.000001   0.000008   0.000006   0.005003  -0.000418
    22  H    0.000001  -0.000003   0.000005   0.000009  -0.000473   0.005285
    23  H    0.000000  -0.000000   0.000000  -0.000002   0.000002   0.000010
    24  H    0.000000  -0.000000   0.000000  -0.000000   0.000001   0.000005
    25  H   -0.000000   0.000000  -0.000005   0.000002   0.000001   0.000020
    26  H    0.000000   0.000000   0.000000   0.000000   0.000000  -0.000000
    27  H   -0.000000  -0.000000   0.000000  -0.000000   0.000001  -0.000001
    28  H    0.000000   0.000000   0.000000   0.000000   0.000000   0.000000
    29  H   -0.000000  -0.000000  -0.000000   0.000000   0.000000   0.000000
              19         20         21         22         23         24
     1  C    0.000008   0.000007   0.000000   0.000000   0.000000   0.000000
     2  C    0.000178   0.000124   0.000010   0.000007   0.000000  -0.000000
     3  C   -0.003278  -0.002976   0.000161   0.000172   0.000006   0.000001
     4  C   -0.032424  -0.033151  -0.002479  -0.003300   0.000111  -0.000053
     5  C    0.364180   0.362660  -0.032383  -0.033775  -0.003985  -0.000320
     6  C   -0.031340  -0.032762   0.356174   0.357153  -0.043245  -0.006848
     7  C   -0.005694  -0.002064  -0.028700  -0.028537   0.365124  -0.026528
     8  C    0.001055  -0.001056   0.005308  -0.008982  -0.048280   0.372803
     9  C    0.000128   0.000141  -0.003894  -0.004251  -0.042978  -0.005006
    10  H    0.000000   0.000000   0.000000   0.000000   0.000000  -0.000000
    11  H    0.000001  -0.000002   0.000000  -0.000000  -0.000000   0.000000
    12  H   -0.000003   0.000001  -0.000000   0.000000  -0.000000  -0.000000
    13  H    0.000010   0.000005  -0.000002   0.000001   0.000000   0.000000
    14  H    0.000003   0.000007   0.000001  -0.000003  -0.000000  -0.000000
    15  H    0.005944  -0.000458   0.000008   0.000005   0.000000   0.000000
    16  H   -0.000560   0.005110   0.000006   0.000009  -0.000002  -0.000000
    17  H    0.006346  -0.005708   0.005003  -0.000473   0.000002   0.000001
    18  H   -0.005779   0.006288  -0.000418   0.005285   0.000010   0.000005
    19  H    0.644556  -0.043739   0.006346  -0.005017  -0.000143   0.000959
    20  H   -0.043739   0.652261  -0.005601   0.006388   0.005657   0.000108
    21  H    0.006346  -0.005601   0.657612  -0.042141  -0.004333  -0.000018
    22  H   -0.005017   0.006388  -0.042141   0.653892   0.006823   0.005346
    23  H   -0.000143   0.005657  -0.004333   0.006823   0.697662   0.006316
    24  H    0.000959   0.000108  -0.000018   0.005346   0.006316   0.606961
    25  H    0.003593   0.000884  -0.000065   0.000067  -0.003498  -0.033992
    26  H   -0.000171  -0.000038  -0.000184  -0.000068  -0.002631  -0.032428
    27  H    0.000006   0.000011  -0.000234   0.005043   0.006269   0.004767
    28  H    0.000002   0.000003  -0.000061  -0.000074  -0.003045  -0.000167
    29  H    0.000002  -0.000007   0.004799  -0.000256  -0.003143  -0.000054
              25         26         27         28         29
     1  C    0.000000  -0.000000   0.000000  -0.000000   0.000000
     2  C   -0.000000  -0.000000   0.000000   0.000000   0.000000
     3  C    0.000004  -0.000000   0.000000  -0.000000   0.000000
     4  C   -0.000073  -0.000008   0.000002   0.000001   0.000004
     5  C   -0.000612   0.000142   0.000178  -0.000167   0.000167
     6  C   -0.003245   0.004086  -0.006753   0.003732  -0.003446
     7  C   -0.023052  -0.024813  -0.024933  -0.021164  -0.022474
     8  C    0.370812   0.370853  -0.006016  -0.003428   0.005161
     9  C    0.005107  -0.004701   0.373258   0.366946   0.367594
    10  H   -0.000000   0.000000  -0.000000   0.000000  -0.000000
    11  H   -0.000000   0.000000   0.000000  -0.000000  -0.000000
    12  H    0.000000  -0.000000  -0.000000  -0.000000  -0.000000
    13  H   -0.000000   0.000000  -0.000000   0.000000  -0.000000
    14  H    0.000000   0.000000  -0.000000   0.000000  -0.000000
    15  H   -0.000005   0.000000   0.000000   0.000000  -0.000000
    16  H    0.000002   0.000000  -0.000000   0.000000   0.000000
    17  H    0.000001   0.000000   0.000001   0.000000   0.000000
    18  H    0.000020  -0.000000  -0.000001   0.000000   0.000000
    19  H    0.003593  -0.000171   0.000006   0.000002   0.000002
    20  H    0.000884  -0.000038   0.000011   0.000003  -0.000007
    21  H   -0.000065  -0.000184  -0.000234  -0.000061   0.004799
    22  H    0.000067  -0.000068   0.005043  -0.000074  -0.000256
    23  H   -0.003498  -0.002631   0.006269  -0.003045  -0.003143
    24  H   -0.033992  -0.032428   0.004767  -0.000167  -0.000054
    25  H    0.602653  -0.031086  -0.000050  -0.000063  -0.000226
    26  H   -0.031086   0.610926  -0.000132   0.004473  -0.000028
    27  H   -0.000050  -0.000132   0.605741  -0.033166  -0.032847
    28  H   -0.000063   0.004473  -0.033166   0.614189  -0.031673
    29  H   -0.000226  -0.000028  -0.032847  -0.031673   0.611711
 Mulliken charges:
               1
     1  C   -0.375670
     2  C   -0.160538
     3  C   -0.149527
     4  C   -0.178898
     5  C   -0.178918
     6  C   -0.168236
     7  C    0.045887
     8  C   -0.377022
     9  C   -0.385740
    10  H    0.104300
    11  H    0.110381
    12  H    0.110276
    13  H    0.091042
    14  H    0.091101
    15  H    0.088822
    16  H    0.088980
    17  H    0.088453
    18  H    0.089485
    19  H    0.094831
    20  H    0.087907
    21  H    0.085085
    22  H    0.086687
    23  H    0.067304
    24  H    0.108146
    25  H    0.112825
    26  H    0.105807
    27  H    0.108856
    28  H    0.103660
    29  H    0.104715
 Sum of Mulliken charges =  -0.00000
 Mulliken charges with hydrogens summed into heavy atoms:
               1
     1  C   -0.050712
     2  C    0.021605
     3  C    0.028275
     4  C   -0.000960
     5  C    0.003820
     6  C    0.003535
     7  C    0.113191
     8  C   -0.050244
     9  C   -0.068509
 Electronic spatial extent (au):  <R**2>=           2762.2152
 Charge=             -0.0000 electrons
 Dipole moment (field-independent basis, Debye):
    X=             -0.0254    Y=             -0.0160    Z=             -0.0602  Tot=              0.0673
 Quadrupole moment (field-independent basis, Debye-Ang):
   XX=            -63.8423   YY=            -61.7002   ZZ=            -60.2435
   XY=              0.5910   XZ=             -0.3976   YZ=              0.4045
 Traceless Quadrupole moment (field-independent basis, Debye-Ang):
   XX=             -1.9136   YY=              0.2285   ZZ=              1.6851
   XY=              0.5910   XZ=             -0.3976   YZ=              0.4045
 Octapole moment (field-independent basis, Debye-Ang**2):
  XXX=              3.9295  YYY=             -0.8161  ZZZ=              0.3328  XYY=             -1.5573
  XXY=             -0.2036  XXZ=             -0.8090  XZZ=             -0.4536  YZZ=             -0.3693
  YYZ=             -1.0776  XYZ=             -1.2760
 Hexadecapole moment (field-independent basis, Debye-Ang**3):
 XXXX=          -3459.4365 YYYY=           -318.7737 ZZZZ=           -144.1175 XXXY=             37.6482
 XXXZ=            -17.0272 YYYX=             -3.1095 YYYZ=              3.4049 ZZZX=              3.6268
 ZZZY=             -1.2265 XXYY=           -621.5499 XXZZ=           -580.2827 YYZZ=            -78.7394
 XXYZ=              0.2452 YYXZ=             -4.1766 ZZXY=             -1.3488
 N-N= 4.619646806424D+02 E-N=-1.743848003582D+03  KE= 3.519272217364D+02
 PrsmSu:  requested number of processors reduced to:  13 ShMem   1 Linda.
 Calling FoFJK, ICntrl=      2127 FMM=F ISym2X=0 I1Cent= 0 IOpClX= 0 NMat=1 NMatS=1 NMatT=0.
 ***** Axes restored to original set *****
 -------------------------------------------------------------------
 Center     Atomic                   Forces (Hartrees/Bohr)
 Number     Number              X              Y              Z
 -------------------------------------------------------------------
      1        6          -0.004308926    0.007004226   -0.000506026
      2        6          -0.006685275   -0.004605905    0.000883234
      3        6           0.007278655    0.011262376   -0.001128796
      4        6          -0.007153280   -0.010764482    0.002328288
      5        6           0.008428732    0.008402133   -0.003385467
      6        6          -0.004692507   -0.010334725    0.004771287
      7        6           0.007605670    0.004866401   -0.006061078
      8        6          -0.004497025   -0.003973637    0.002033470
      9        6           0.001934610   -0.003191928    0.004811704
     10        1          -0.003901725   -0.000163084   -0.000015599
     11        1          -0.001495691   -0.000119557    0.000004920
     12        1          -0.001419762   -0.000058398    0.000199513
     13        1           0.001654841    0.000870440   -0.000258383
     14        1           0.001894111    0.000893619   -0.000051388
     15        1          -0.000425426   -0.000517951    0.000409918
     16        1          -0.000988920   -0.000651967    0.000526985
     17        1           0.000211266    0.001412694   -0.000175266
     18        1           0.000921446    0.001292915   -0.000296334
     19        1          -0.000053084   -0.001397874    0.000942599
     20        1          -0.001112412   -0.001079458    0.000839028
     21        1           0.000748157    0.000054909   -0.000821786
     22        1           0.001246415   -0.000077986   -0.001619600
     23        1          -0.001323470    0.000047661    0.001566664
     24        1           0.000611360    0.000090804   -0.001148601
     25        1           0.000589595   -0.000075817   -0.001360099
     26        1           0.001400468   -0.000034245   -0.000979642
     27        1           0.000418807    0.000236564   -0.000717302
     28        1           0.001820043    0.000257204   -0.000386816
     29        1           0.001293327    0.000355066   -0.000405427
 -------------------------------------------------------------------
 Cartesian Forces:  Max     0.011262376 RMS     0.003476442

 GradGradGradGradGradGradGradGradGradGradGradGradGradGradGradGradGradGrad
 Berny optimization.
 FormGI is forming the generalized inverse of G from B-inverse, IUseBI=4.
 Internal  Forces:  Max     0.014947651 RMS     0.003350066
 Search for a local minimum.
 Step number   1 out of a maximum of  164
 All quantities printed in internal units (Hartrees-Bohrs-Radians)
 Mixed Optimization -- RFO/linear search
 Second derivative matrix not updated -- first step.
 ITU=  0
     Eigenvalues ---    0.00266   0.00359   0.00386   0.00416   0.00429
     Eigenvalues ---    0.00461   0.00462   0.00529   0.03545   0.03668
     Eigenvalues ---    0.03720   0.03761   0.03837   0.03891   0.04605
     Eigenvalues ---    0.04828   0.04922   0.04930   0.04938   0.04976
     Eigenvalues ---    0.04989   0.05435   0.05525   0.05532   0.05584
     Eigenvalues ---    0.05667   0.05732   0.07878   0.08065   0.08090
     Eigenvalues ---    0.08158   0.08263   0.11847   0.11984   0.12011
     Eigenvalues ---    0.12062   0.12155   0.16000   0.16000   0.16000
     Eigenvalues ---    0.16000   0.16000   0.16000   0.16000   0.16000
     Eigenvalues ---    0.16000   0.16325   0.16776   0.21870   0.21884
     Eigenvalues ---    0.21894   0.21903   0.21908   0.28715   0.29355
     Eigenvalues ---    0.29544   0.29751   0.29846   0.30075   0.30081
     Eigenvalues ---    0.30565   0.33818   0.33912   0.34041   0.34105
     Eigenvalues ---    0.34106   0.34114   0.34133   0.34156   0.34176
     Eigenvalues ---    0.34193   0.34195   0.34216   0.34233   0.34261
     Eigenvalues ---    0.34275   0.34291   0.34299   0.34307   0.34317
     Eigenvalues ---    0.34393
 RFO step:  Lambda=-8.59052049D-03 EMin= 2.65923177D-03
 Linear search not attempted -- first point.
 Iteration  1 RMS(Cart)=  0.11067870 RMS(Int)=  0.00144268
 Iteration  2 RMS(Cart)=  0.00288243 RMS(Int)=  0.00017470
 Iteration  3 RMS(Cart)=  0.00000387 RMS(Int)=  0.00017469
 Iteration  4 RMS(Cart)=  0.00000000 RMS(Int)=  0.00017469
 Variable       Old X    -DE/DX   Delta X   Delta X   Delta X     New X
                                 (Linear)    (Quad)   (Total)
    R1        2.86850   0.01113   0.00000   0.03541   0.03541   2.90391
    R2        2.06672   0.00120   0.00000   0.00339   0.00339   2.07011
    R3        2.06816   0.00059   0.00000   0.00168   0.00168   2.06984
    R4        2.06891   0.00037   0.00000   0.00106   0.00106   2.06997
    R5        2.87803   0.00861   0.00000   0.02782   0.02782   2.90585
    R6        2.07139   0.00080   0.00000   0.00228   0.00228   2.07367
    R7        2.07034   0.00109   0.00000   0.00311   0.00311   2.07345
    R8        2.88272   0.00845   0.00000   0.02753   0.02753   2.91025
    R9        2.07479   0.00008   0.00000   0.00024   0.00024   2.07504
   R10        2.07153   0.00107   0.00000   0.00307   0.00307   2.07460
   R11        2.87814   0.01028   0.00000   0.03322   0.03322   2.91136
   R12        2.07260   0.00065   0.00000   0.00186   0.00186   2.07446
   R13        2.07067   0.00115   0.00000   0.00329   0.00329   2.07396
   R14        2.88463   0.00757   0.00000   0.02474   0.02474   2.90937
   R15        2.07006  -0.00006   0.00000  -0.00016  -0.00016   2.06991
   R16        2.07002   0.00157   0.00000   0.00447   0.00447   2.07449
   R17        2.90602   0.00470   0.00000   0.01590   0.01590   2.92192
   R18        2.07639  -0.00036   0.00000  -0.00104  -0.00104   2.07535
   R19        2.07106   0.00170   0.00000   0.00486   0.00486   2.07592
   R20        2.89268   0.00386   0.00000   0.01276   0.01276   2.90544
   R21        2.88882   0.00552   0.00000   0.01816   0.01816   2.90698
   R22        2.07152   0.00172   0.00000   0.00491   0.00491   2.07643
   R23        2.06828   0.00119   0.00000   0.00339   0.00339   2.07168
   R24        2.06798  -0.00057   0.00000  -0.00162  -0.00162   2.06636
   R25        2.06842   0.00055   0.00000   0.00156   0.00156   2.06998
   R26        2.06868   0.00085   0.00000   0.00241   0.00241   2.07109
   R27        2.06939   0.00040   0.00000   0.00115   0.00115   2.07054
   R28        2.06967   0.00028   0.00000   0.00079   0.00079   2.07046
    A1        1.92373   0.00494   0.00000   0.03182   0.03167   1.95540
    A2        1.93444   0.00074   0.00000   0.00308   0.00301   1.93745
    A3        1.93432   0.00074   0.00000   0.00317   0.00310   1.93742
    A4        1.89053  -0.00263   0.00000  -0.01326  -0.01340   1.87713
    A5        1.89012  -0.00263   0.00000  -0.01313  -0.01327   1.87685
    A6        1.88937  -0.00143   0.00000  -0.01322  -0.01320   1.87617
    A7        1.93249   0.01019   0.00000   0.05169   0.05152   1.98401
    A8        1.91121  -0.00234   0.00000  -0.00243  -0.00245   1.90876
    A9        1.91119  -0.00225   0.00000  -0.00244  -0.00240   1.90880
   A10        1.91624  -0.00326   0.00000  -0.01381  -0.01423   1.90201
   A11        1.91765  -0.00348   0.00000  -0.01624  -0.01663   1.90102
   A12        1.87413   0.00081   0.00000  -0.01901  -0.01932   1.85481
   A13        1.93661   0.01201   0.00000   0.05894   0.05883   1.99543
   A14        1.91318  -0.00336   0.00000  -0.01102  -0.01127   1.90191
   A15        1.91889  -0.00388   0.00000  -0.01617  -0.01637   1.90252
   A16        1.91271  -0.00350   0.00000  -0.01106  -0.01125   1.90146
   A17        1.91374  -0.00323   0.00000  -0.01004  -0.01008   1.90366
   A18        1.86743   0.00152   0.00000  -0.01349  -0.01384   1.85359
   A19        1.91492   0.01495   0.00000   0.07413   0.07390   1.98882
   A20        1.92234  -0.00487   0.00000  -0.02031  -0.02067   1.90167
   A21        1.91583  -0.00406   0.00000  -0.01270  -0.01311   1.90271
   A22        1.92033  -0.00390   0.00000  -0.01112  -0.01118   1.90915
   A23        1.91490  -0.00431   0.00000  -0.01323  -0.01355   1.90135
   A24        1.87517   0.00178   0.00000  -0.01917  -0.01970   1.85546
   A25        1.94566   0.00819   0.00000   0.04134   0.04116   1.98682
   A26        1.88262  -0.00113   0.00000   0.00859   0.00825   1.89087
   A27        1.92059  -0.00324   0.00000  -0.01905  -0.01887   1.90172
   A28        1.92496  -0.00252   0.00000  -0.00470  -0.00534   1.91962
   A29        1.91506  -0.00224   0.00000  -0.01309  -0.01293   1.90214
   A30        1.87334   0.00065   0.00000  -0.01497  -0.01507   1.85826
   A31        1.95977   0.01482   0.00000   0.07148   0.07137   2.03113
   A32        1.90005  -0.00434   0.00000  -0.01665  -0.01641   1.88364
   A33        1.91388  -0.00356   0.00000  -0.00449  -0.00466   1.90922
   A34        1.90650  -0.00467   0.00000  -0.02306  -0.02319   1.88331
   A35        1.91897  -0.00507   0.00000  -0.01986  -0.02060   1.89837
   A36        1.86198   0.00216   0.00000  -0.01179  -0.01235   1.84962
   A37        1.95570   0.00193   0.00000   0.02133   0.02111   1.97681
   A38        1.91442   0.00075   0.00000   0.01308   0.01274   1.92716
   A39        1.89707  -0.00155   0.00000  -0.02168  -0.02154   1.87553
   A40        1.91457  -0.00081   0.00000   0.00624   0.00581   1.92038
   A41        1.89201  -0.00020   0.00000  -0.00756  -0.00741   1.88460
   A42        1.88868  -0.00021   0.00000  -0.01317  -0.01310   1.87558
   A43        1.93876  -0.00031   0.00000  -0.00529  -0.00531   1.93345
   A44        1.94925   0.00202   0.00000   0.01582   0.01578   1.96503
   A45        1.93393  -0.00010   0.00000  -0.00097  -0.00105   1.93289
   A46        1.88630  -0.00083   0.00000  -0.00422  -0.00420   1.88210
   A47        1.89077  -0.00073   0.00000  -0.01159  -0.01165   1.87912
   A48        1.86194  -0.00013   0.00000   0.00586   0.00577   1.86771
   A49        1.94013  -0.00078   0.00000  -0.00725  -0.00722   1.93291
   A50        1.93183   0.00239   0.00000   0.01573   0.01566   1.94749
   A51        1.93480   0.00151   0.00000   0.00998   0.00990   1.94470
   A52        1.88676  -0.00112   0.00000  -0.00865  -0.00861   1.87815
   A53        1.88620  -0.00078   0.00000  -0.00758  -0.00756   1.87864
   A54        1.88212  -0.00136   0.00000  -0.00307  -0.00324   1.87888
    D1        3.13753   0.00008   0.00000   0.00194   0.00194   3.13948
    D2        1.02213  -0.00087   0.00000  -0.01248  -0.01259   1.00954
    D3       -1.02849   0.00082   0.00000   0.01337   0.01348  -1.01502
    D4        1.04478  -0.00032   0.00000  -0.00420  -0.00424   1.04054
    D5       -1.07063  -0.00127   0.00000  -0.01862  -0.01877  -1.08939
    D6       -3.12125   0.00042   0.00000   0.00723   0.00730  -3.11395
    D7       -1.05348   0.00049   0.00000   0.00829   0.00833  -1.04515
    D8        3.11430  -0.00046   0.00000  -0.00614  -0.00620   3.10810
    D9        1.06368   0.00124   0.00000   0.01972   0.01987   1.08354
   D10       -3.13665  -0.00005   0.00000  -0.00158  -0.00155  -3.13820
   D11        1.03158  -0.00123   0.00000  -0.01864  -0.01861   1.01297
   D12       -1.01659   0.00120   0.00000   0.01383   0.01372  -1.00287
   D13       -1.02422   0.00148   0.00000   0.01977   0.01968  -1.00453
   D14       -3.13917   0.00030   0.00000   0.00272   0.00262  -3.13655
   D15        1.09584   0.00273   0.00000   0.03518   0.03495   1.13080
   D16        1.03319  -0.00157   0.00000  -0.02142  -0.02121   1.01198
   D17       -1.08176  -0.00274   0.00000  -0.03847  -0.03827  -1.12003
   D18       -3.12993  -0.00031   0.00000  -0.00600  -0.00594  -3.13587
   D19       -3.13036  -0.00011   0.00000  -0.00410  -0.00417  -3.13453
   D20        1.03643  -0.00180   0.00000  -0.02517  -0.02500   1.01143
   D21       -1.02483   0.00142   0.00000   0.01827   0.01822  -1.00661
   D22       -1.01513   0.00115   0.00000   0.01296   0.01286  -1.00227
   D23       -3.13153  -0.00055   0.00000  -0.00811  -0.00797  -3.13949
   D24        1.09040   0.00268   0.00000   0.03532   0.03525   1.12565
   D25        1.02974  -0.00095   0.00000  -0.01570  -0.01580   1.01394
   D26       -1.08666  -0.00264   0.00000  -0.03677  -0.03662  -1.12328
   D27        3.13527   0.00059   0.00000   0.00666   0.00659  -3.14132
   D28        3.11636   0.00051   0.00000   0.01636   0.01651   3.13287
   D29        1.00058  -0.00067   0.00000  -0.00889  -0.00908   0.99150
   D30       -1.03789   0.00096   0.00000   0.01450   0.01442  -1.02347
   D31       -1.04921   0.00159   0.00000   0.03179   0.03201  -1.01720
   D32        3.11820   0.00041   0.00000   0.00654   0.00642   3.12462
   D33        1.07972   0.00204   0.00000   0.02993   0.02993   1.10965
   D34        1.01027  -0.00118   0.00000  -0.00628  -0.00608   1.00419
   D35       -1.10551  -0.00236   0.00000  -0.03152  -0.03167  -1.13717
   D36        3.13921  -0.00073   0.00000  -0.00813  -0.00817   3.13104
   D37       -3.13235  -0.00126   0.00000  -0.04404  -0.04422   3.10662
   D38        1.03754  -0.00199   0.00000  -0.04979  -0.04983   0.98771
   D39       -0.99355  -0.00013   0.00000  -0.02368  -0.02355  -1.01710
   D40       -1.04143   0.00098   0.00000  -0.00945  -0.00962  -1.05105
   D41        3.12846   0.00025   0.00000  -0.01520  -0.01524   3.11323
   D42        1.09738   0.00211   0.00000   0.01091   0.01104   1.10842
   D43        1.01871  -0.00111   0.00000  -0.03861  -0.03871   0.98000
   D44       -1.09459  -0.00184   0.00000  -0.04436  -0.04432  -1.13891
   D45       -3.12568   0.00002   0.00000  -0.01825  -0.01804   3.13947
   D46        1.05482   0.00050   0.00000   0.03195   0.03184   1.08667
   D47       -3.09757   0.00130   0.00000   0.06352   0.06363  -3.03394
   D48       -1.03576   0.00058   0.00000   0.04242   0.04246  -0.99329
   D49       -3.11878   0.00149   0.00000   0.04169   0.04134  -3.07744
   D50       -0.98798   0.00229   0.00000   0.07326   0.07313  -0.91485
   D51        1.07383   0.00156   0.00000   0.05216   0.05196   1.12579
   D52       -1.08109  -0.00153   0.00000   0.00261   0.00270  -1.07839
   D53        1.04970  -0.00073   0.00000   0.03418   0.03449   1.08419
   D54        3.11151  -0.00146   0.00000   0.01308   0.01333   3.12484
   D55        1.00548   0.00118   0.00000   0.01549   0.01552   1.02099
   D56       -1.10187   0.00106   0.00000   0.01370   0.01377  -1.08810
   D57        3.10811  -0.00003   0.00000  -0.00334  -0.00330   3.10480
   D58       -1.12523  -0.00052   0.00000  -0.01999  -0.02006  -1.14529
   D59        3.05061  -0.00063   0.00000  -0.02179  -0.02181   3.02880
   D60        0.97740  -0.00172   0.00000  -0.03882  -0.03888   0.93852
   D61        3.09901   0.00031   0.00000  -0.00327  -0.00329   3.09572
   D62        0.99167   0.00020   0.00000  -0.00507  -0.00504   0.98663
   D63       -1.08154  -0.00089   0.00000  -0.02210  -0.02211  -1.10365
   D64       -1.07311  -0.00131   0.00000  -0.02517  -0.02518  -1.09829
   D65        3.11300  -0.00097   0.00000  -0.01997  -0.01993   3.09308
   D66        1.02525  -0.00180   0.00000  -0.03288  -0.03295   0.99230
   D67        1.08204   0.00107   0.00000   0.01445   0.01445   1.09649
   D68       -1.01503   0.00140   0.00000   0.01964   0.01970  -0.99533
   D69       -3.10279   0.00057   0.00000   0.00673   0.00668  -3.09611
   D70       -3.14013   0.00025   0.00000   0.00122   0.00122  -3.13890
   D71        1.04598   0.00059   0.00000   0.00641   0.00648   1.05246
   D72       -1.04177  -0.00024   0.00000  -0.00650  -0.00654  -1.04831
         Item               Value     Threshold  Converged?
 Maximum Force            0.014948     0.000450     NO 
 RMS     Force            0.003350     0.000300     NO 
 Maximum Displacement     0.392032     0.001800     NO 
 RMS     Displacement     0.110337     0.001200     NO 
 Predicted change in Energy=-4.639188D-03
 GradGradGradGradGradGradGradGradGradGradGradGradGradGradGradGradGradGrad

                          Input orientation:                          
 ---------------------------------------------------------------------
 Center     Atomic      Atomic             Coordinates (Angstroms)
 Number     Number       Type             X           Y           Z
 ---------------------------------------------------------------------
      1          6           0        0.850240    0.229231   -0.028175
      2          6           0        2.384895    0.153696   -0.050947
      3          6           0        2.932817   -1.282893   -0.027635
      4          6           0        4.469935   -1.376058   -0.045297
      5          6           0        5.009236   -2.819141   -0.031680
      6          6           0        6.545866   -2.909392   -0.061664
      7          6           0        7.151790   -4.330659   -0.001330
      8          6           0        6.756911   -5.210463   -1.198787
      9          6           0        8.683867   -4.256385    0.115376
     10          1           0        0.489369    1.263429   -0.043342
     11          1           0        0.446910   -0.248185    0.871328
     12          1           0        0.418966   -0.283548   -0.894733
     13          1           0        2.789039    0.703740    0.808281
     14          1           0        2.761013    0.663437   -0.946823
     15          1           0        2.532454   -1.831696   -0.890343
     16          1           0        2.552567   -1.796137    0.865239
     17          1           0        4.870303   -0.829278    0.818304
     18          1           0        4.849109   -0.862495   -0.938030
     19          1           0        4.586027   -3.353324   -0.889192
     20          1           0        4.638971   -3.329833    0.866762
     21          1           0        6.934630   -2.340026    0.793199
     22          1           0        6.923555   -2.401977   -0.959802
     23          1           0        6.774464   -4.811422    0.911823
     24          1           0        7.071689   -4.748109   -2.141647
     25          1           0        5.678832   -5.384542   -1.254644
     26          1           0        7.237204   -6.192777   -1.133640
     27          1           0        9.118176   -3.780647   -0.771305
     28          1           0        9.129740   -5.252867    0.208851
     29          1           0        8.990735   -3.671751    0.989713
 ---------------------------------------------------------------------
                    Distance matrix (angstroms):
                    1          2          3          4          5
     1  C    0.000000
     2  C    1.536682   0.000000
     3  C    2.573645   1.537709   0.000000
     4  C    3.959727   2.586033   1.540039   0.000000
     5  C    5.156533   3.965513   2.582942   1.540623   0.000000
     6  C    6.503248   5.166846   3.962421   2.580867   1.539570
     7  C    7.778357   6.544859   5.204738   3.990482   2.622240
     8  C    8.114762   7.014717   5.605452   4.611232   3.183540
     9  C    9.028126   7.691132   6.475853   5.106792   3.948444
    10  H    1.095455   2.196494   3.529085   4.776169   6.090707
    11  H    1.095312   2.183549   2.838748   4.277502   5.314137
    12  H    1.095382   2.183584   2.840774   4.280826   5.314572
    13  H    2.164199   1.097339   2.160124   2.807056   4.247999
    14  H    2.164140   1.097221   2.159310   2.809395   4.245037
    15  H    2.796533   2.160587   1.098062   2.162300   2.801214
    16  H    2.792530   2.160870   1.097832   2.163756   2.808242
    17  H    4.242390   2.810531   2.162228   1.097756   2.168255
    18  H    4.243897   2.809255   2.162806   1.097494   2.162307
    19  H    5.247109   4.224550   2.786049   2.152956   1.095347
    20  H    5.274688   4.249473   2.810849   2.162790   1.097771
    21  H    6.655490   5.256550   4.219693   2.776155   2.148749
    22  H    6.684036   5.287430   4.248208   2.812310   2.167961
    23  H    7.835063   6.696838   5.300127   4.246017   2.824078
    24  H    8.243004   7.096813   5.797157   4.747056   3.525137
    25  H    7.505596   6.555225   5.086223   4.357969   2.919808
    26  H    9.124558   8.061938   6.622534   5.660659   4.190415
    27  H    9.219009   7.831669   6.711966   5.283492   4.284265
    28  H    9.932759   8.648199   7.363319   6.066962   4.791600
    29  H    9.084130   7.704163   6.590903   5.174851   4.197919
                    6          7          8          9         10
     6  C    0.000000
     7  C    1.546215   0.000000
     8  C    2.575367   1.537494   0.000000
     9  C    2.533137   1.538310   2.520009   0.000000
    10  H    7.354857   8.699622   9.084515   9.881464   0.000000
    11  H    6.719357   7.898325   8.290096   9.191550   1.767315
    12  H    6.717735   7.906212   8.033460   9.225635   1.767190
    13  H    5.284437   6.710755   7.399333   7.735112   2.515352
    14  H    5.279557   6.716685   7.108683   7.772587   2.517268
    15  H    4.237407   5.326671   5.418232   6.688084   3.804129
    16  H    4.247931   5.322367   5.796062   6.648906   3.800428
    17  H    2.812246   4.258714   5.179066   5.175175   4.930967
    18  H    2.799426   4.267072   4.755262   5.228147   4.932277
    19  H    2.173211   2.885589   2.873595   4.314739   6.229966
    20  H    2.162173   2.840685   3.505557   4.217139   6.256640
    21  H    1.098229   2.154311   3.498428   2.681735   7.431425
    22  H    1.098532   2.165773   2.823557   2.773722   7.461491
    23  H    2.148872   1.098798   2.148073   2.142011   8.793098
    24  H    2.825544   2.182117   1.096285   2.816923   9.157970
    25  H    2.881200   2.202514   1.093471   3.489975   8.520169
    26  H    3.522456   2.181033   1.095385   2.720751  10.115189
    27  H    2.807037   2.182212   2.793329   1.095972  10.021424
    28  H    3.498780   2.192472   2.759268   1.095681  10.825051
    29  H    2.768388   2.190444   3.485274   1.095642   9.884150
                   11         12         13         14         15
    11  H    0.000000
    12  H    1.766636   0.000000
    13  H    2.528973   3.080948   0.000000
    14  H    3.080877   2.526793   1.755791   0.000000
    15  H    3.156023   2.619850   3.062612   2.506215   0.000000
    16  H    2.613424   3.152409   2.511683   3.062111   1.756057
    17  H    4.461714   4.800700   2.584938   3.129373   3.064287
    18  H    4.799012   4.468023   3.121952   2.586250   2.511676
    19  H    5.465676   5.175708   4.750827   4.412297   2.555879
    20  H    5.202879   5.494649   4.437948   4.770956   3.125580
    21  H    6.817068   7.037905   5.143021   5.428401   4.740451
    22  H    7.066738   6.841174   5.464963   5.169495   4.428523
    23  H    7.801456   8.009847   6.805244   7.038212   5.488281
    24  H    8.556579   8.108381   7.534310   7.020994   5.538582
    25  H    7.633801   7.335930   7.047960   6.722087   4.759740
    26  H    9.244791   9.025766   8.433219   8.190168   6.419728
    27  H    9.506176   9.376630   7.915984   7.758492   6.869084
    28  H   10.043767  10.089084   8.720377   8.769202   7.512445
    29  H    9.204986   9.407778   7.592027   7.832844   6.973508
                   16         17         18         19         20
    16  H    0.000000
    17  H    2.511757   0.000000
    18  H    3.065546   1.756776   0.000000
    19  H    3.104484   3.060583   2.505160   0.000000
    20  H    2.589461   2.511700   3.064178   1.756910   0.000000
    21  H    4.416275   2.558209   3.087013   3.061561   2.501036
    22  H    4.775286   3.138612   2.583370   2.524696   3.068644
    23  H    5.188307   4.414980   4.766862   3.187313   2.599513
    24  H    6.178832   5.381882   4.635359   3.113292   4.120697
    25  H    5.209998   5.069641   4.608426   2.335299   3.131054
    26  H    6.728431   6.178950   5.844071   3.892427   4.353030
    27  H    7.051509   5.411271   5.173813   4.553777   4.790592
    28  H    7.459158   6.171092   6.238149   5.045720   4.929291
    29  H    6.706969   5.008691   5.362944   4.799285   4.366907
                   21         22         23         24         25
    21  H    0.000000
    22  H    1.754130   0.000000
    23  H    2.479420   3.054609   0.000000
    24  H    3.798812   2.631167   3.068555   0.000000
    25  H    3.878114   3.245298   2.494485   1.769710   0.000000
    26  H    4.318327   3.807724   2.511213   1.769333   1.759663
    27  H    3.048103   2.598581   3.064050   2.646116   3.825596
    28  H    3.693861   3.789535   2.497272   3.164679   3.750723
    29  H    2.457575   3.112261   2.493346   3.827100   4.351953
                   26         27         28         29
    26  H    0.000000
    27  H    3.080213   0.000000
    28  H    2.503478   1.768692   0.000000
    29  H    3.733506   1.768978   1.768897   0.000000
 Stoichiometry    C9H20
 Framework group  C1[X(C9H20)]
 Deg. of freedom    81
 Full point group                 C1      NOp   1
 Largest Abelian subgroup         C1      NOp   1
 Largest concise Abelian subgroup C1      NOp   1
                         Standard orientation:                         
 ---------------------------------------------------------------------
[...]
 .00000423,0.,-0.00000186,0.00000216,-0.00000137,-0.00002452,0.00000003
 ,0.00000968,-0.00000292,-0.00002255,0.00000231,-0.00011285,-0.00004892
 ,0.00010813,-0.00003821,0.00004505,-0.00004171,0.00004453,-0.00008169,
 0.00031708,0.00015632,-0.00058893,0.00024778,-0.00049078,0.00258388,-0
 .00062554,0.09252374,-0.00000663,-0.00000861,0.00000274,-0.00000621,0.
 00001589,0.00000407,0.00001449,0.00002815,-0.00007124,0.00004397,-0.00
 003964,-0.00025913,-0.00190251,0.00109181,0.00047778,-0.00962104,-0.01
 708312,0.02696965,-0.03831048,-0.09141699,0.08525305,0.00671999,0.0070
 3578,-0.01769580,-0.00078252,-0.00086871,0.00128521,0.00000584,-0.0000
 0309,0.00000035,0.00000482,0.00000233,-0.00000324,0.00000115,0.0000008
 5,0.00000041,-0.00000173,-0.00000402,0.00000157,-0.00000434,0.00000591
 ,-0.00000746,0.00000842,0.00000173,0.00000202,0.00006828,-0.00000233,-
 0.00001761,-0.00002182,-0.00002711,0.00001394,-0.00004914,0.00027959,-
 0.00017411,0.00017032,0.00001670,-0.00003997,0.00101411,0.00031089,-0.
 00065507,-0.00047945,0.00091390,-0.00051769,0.00244159,-0.00568493,0.0
 0038450,0.04151233,0.10423110,0.00000248,0.00000907,-0.00000608,-0.000
 01766,-0.00000505,0.00000260,-0.00001964,0.00006432,-0.00002582,-0.000
 30206,-0.00011332,0.00037673,0.00045935,-0.00029891,-0.00008032,0.0012
 0746,0.00232272,-0.00338395,0.07426592,0.08484488,-0.21211845,0.009199
 96,0.00991923,-0.02498101,-0.00158914,-0.00141170,0.00256659,-0.000002
 63,-0.00000160,0.00000034,-0.00000376,-0.00000063,0.00000490,0.0000013
 2,0.00000151,0.00000035,0.00000176,0.00000159,-0.00000046,-0.00000022,
 -0.00000900,0.00000523,0.00000143,0.00000226,0.00000007,-0.00002764,0.
 00000584,0.00002422,0.00000949,-0.00000287,-0.00002746,0.00010969,-0.0
 0020816,0.00001055,0.00002850,0.00000037,0.00006339,-0.00082100,0.0000
 7538,0.00037921,-0.00020023,0.00045929,0.00065699,-0.00023771,0.000545
 37,0.00132940,-0.08031132,-0.09193042,0.23447433,-0.00000122,0.0000014
 9,0.00000178,-0.00000578,-0.00000213,0.00000322,0.00000354,0.00001398,
 0.00001006,0.00003053,-0.00002061,0.00003868,-0.00011166,0.00016086,-0
 .00001374,0.00007192,-0.00002244,0.00055483,0.00181954,0.00372951,-0.0
 0670849,-0.07656638,-0.03579057,0.07289685,0.00106284,0.00082104,-0.00
 078002,0.00000028,0.00000025,0.00000001,0.00000234,0.00000024,-0.00000
 386,-0.00000244,-0.00000155,0.00000040,0.00000007,-0.00000163,-0.00000
 348,0.00000157,0.00000900,-0.00000340,-0.00001108,-0.00000946,0.000002
 57,0.00001060,-0.00000308,-0.00001838,0.00000708,0.00001435,-0.0000038
 0,0.00000633,0.00006113,-0.00001956,-0.00009179,-0.00011077,0.00011246
 ,0.00002782,-0.00006363,-0.00016983,-0.00004851,0.00017659,-0.00007680
 ,0.00011979,0.00023102,0.00013780,0.00043569,-0.00082346,-0.00158946,0
 .07860050,0.00000275,0.00000631,0.00000034,-0.00000441,-0.00001154,0.0
 0000051,0.00000955,0.00000374,0.00000570,0.00002506,-0.00001313,0.0000
 3682,0.00007999,-0.00002198,0.00006244,0.00049000,0.00194774,-0.000867
 60,0.00680626,0.00736444,-0.01698873,-0.03567469,-0.09054712,0.0897344
 1,0.00087775,0.00052540,0.00028617,-0.00000506,0.00000439,0.00000021,-
 0.00000029,-0.00000146,-0.00000024,-0.00000109,-0.00000200,-0.00000039
 ,-0.00000040,0.00000156,0.,0.00000075,0.00000270,-0.00000077,-0.000003
 20,-0.00000224,0.00000048,-0.00000518,-0.00000005,-0.00000192,-0.00000
 700,0.00001270,-0.00000418,0.00000729,-0.00001659,0.00000247,0.0000130
 9,0.00000539,0.00005524,-0.00011889,-0.00000206,0.00005387,-0.00012782
 ,0.00020665,0.00026390,-0.00026251,-0.00008097,0.00051807,-0.00092631,
 -0.00156495,-0.00375352,0.04027419,0.09600597,-0.00000047,-0.00000888,
 -0.00000103,0.00001682,0.00001314,-0.00000384,-0.00001232,-0.00003990,
 -0.00001301,0.00006466,0.00003899,-0.00000510,0.00006116,-0.00025893,0
 .00000611,-0.00000726,0.00179765,0.00079132,0.00938558,0.01101543,-0.0
 2489119,0.07274054,0.08945336,-0.22892018,0.00132233,0.00081840,0.0008
 2821,0.00000500,-0.00000320,-0.00000024,-0.00000236,0.00000035,0.00000
 224,0.00000197,0.00000215,0.00000078,0.00000008,0.00000197,0.00000101,
 -0.00000096,-0.00000746,0.00000512,0.00000943,0.00000616,0.00000493,-0
 .00001031,0.00000121,0.00001055,0.00000029,-0.00000112,0.00000444,0.00
 000670,-0.00005828,0.00001941,0.00012172,0.00002389,-0.00008592,-0.000
 19607,0.00004412,0.00012243,-0.00025324,-0.00005204,0.00049124,0.00006
 685,-0.00119312,0.00060902,-0.00195501,-0.00389841,-0.00351682,-0.0800
 7832,-0.09665104,0.25377240,0.00000196,0.00000236,-0.00000444,0.000010
 20,-0.00001268,0.00000673,0.00003900,-0.00005452,-0.00002132,0.0003822
 0,0.00009639,0.00034155,-0.00080720,0.00065001,-0.00037597,-0.00049197
 ,0.00025996,-0.00024743,-0.00654690,-0.00037978,0.00034882,-0.30536657
 ,-0.03009286,-0.01865273,0.00091789,-0.00124534,-0.00226672,-0.0000053
 9,0.00000721,0.00000043,-0.00000024,-0.00000307,-0.00000009,0.00000214
 ,-0.00000208,0.00000301,-0.00000123,0.00000854,0.00000396,-0.00000136,
 0.00000304,-0.00000400,0.00002101,-0.00000367,0.00001461,0.00000098,-0
 .00000084,-0.00000127,-0.00006887,0.00021557,0.00003403,-0.00001427,0.
 00001896,-0.00002975,0.00027438,0.00112692,0.00094943,0.00001883,-0.00
 006206,0.00003151,0.00009954,-0.00012481,0.00000800,0.00002949,-0.0000
 0442,-0.00001885,0.00060223,0.00009219,-0.00050384,-0.00986093,-0.0003
 5809,-0.00086731,0.33350682,0.00001263,0.00002727,-0.00000465,-0.00001
 953,-0.00004307,0.00000900,0.00007045,0.00001574,-0.00003727,0.0003005
 6,-0.00006321,0.00033815,-0.00018161,-0.00061632,-0.00092949,-0.000657
 29,0.00072683,0.00068141,-0.01904382,-0.00228185,0.00071107,-0.0287494
 4,-0.04993353,-0.00202505,0.00018448,-0.00225882,-0.00325514,-0.000020
 94,0.00001394,0.00000095,-0.00000319,-0.00000554,0.00000427,-0.0000009
 8,-0.00000517,-0.00000163,-0.00000188,0.00001026,0.00000341,-0.0000015
 6,0.00000368,-0.00000307,0.00002130,-0.00000692,0.00001056,-0.00000392
 ,-0.00000279,0.00001248,-0.00007793,0.00020569,0.00002603,-0.00001846,
 0.00003499,-0.00003942,0.00120541,-0.00114796,0.00007883,0.00005374,0.
 00004112,0.00009931,0.00015207,0.00019477,-0.00000646,0.00003128,-0.00
 010870,-0.00005357,0.00063401,0.00065742,0.00035258,-0.01392010,-0.002
 18141,-0.00134275,0.03149720,0.05204168,0.00000410,0.00000892,0.000003
 26,-0.00000630,-0.00001594,-0.00000529,0.00003753,-0.00000431,0.000021
 70,0.00020868,-0.00001153,0.00002145,0.00005988,-0.00022702,0.00017179
 ,0.00007007,0.00079963,0.00071971,-0.02702249,-0.00141111,-0.00121325,
 -0.01749023,-0.00183029,-0.04829242,-0.00010200,-0.00355419,-0.0043997
 6,-0.00000655,0.00000510,-0.00000057,0.00000049,-0.00000221,-0.0000022
 5,-0.00000258,-0.00000264,-0.00000056,-0.00000012,0.00000049,-0.000000
 40,0.00000058,0.00000818,-0.00000231,-0.00000885,-0.00000749,0.0000003
 8,0.00000711,-0.00000593,-0.00001645,-0.00004303,0.00007372,0.00000590
 ,-0.00001098,0.00008429,-0.00002589,0.00023338,-0.00031328,0.00027398,
 0.00006408,-0.00001480,-0.00023961,-0.00000827,0.00018551,-0.00005131,
 0.00009980,-0.00009142,0.00001652,0.00023461,0.00092175,0.00096427,0.0
 2779795,0.00205335,0.00238782,0.02124503,0.00441081,0.05069800,0.00000
 768,0.00001495,-0.00000350,-0.00000840,-0.00002561,0.00000910,0.000046
 30,0.00000201,-0.00001754,0.00023258,0.00001008,0.00025042,-0.00034784
 ,0.00004872,-0.00051465,-0.00062247,-0.00131814,-0.00150925,0.00208026
 ,-0.00787247,0.00128313,-0.09094310,0.09815401,-0.01013801,0.00084969,
 -0.00111827,0.00015878,-0.00001269,0.00000921,0.00000060,-0.00000207,-
 0.00000353,0.00000288,-0.00000114,-0.00000351,-0.00000106,-0.00000157,
 0.00000681,0.00000077,-0.00000104,0.00000319,-0.00000176,0.00001529,-0
 .00000809,0.00000783,-0.00000274,-0.00000234,0.00000498,-0.00006968,0.
 00016586,0.00001083,-0.00001227,0.00002680,-0.00002323,0.00044289,0.00
 003705,0.00045591,0.00003958,0.00000273,0.00007757,0.00046169,-0.00050
 048,-0.00017351,-0.00004133,0.00023693,-0.00013964,0.00003082,0.000395
 50,0.00033071,0.00435857,-0.01111660,0.00083222,-0.01271970,0.02967745
 ,-0.00362594,0.09612331,-0.00001118,-0.00003187,0.00000081,0.00003564,
 0.00004810,-0.00000164,-0.00004939,-0.00007893,0.00002649,0.00014736,0
 .00006260,-0.00000398,-0.00061451,0.00011783,0.00000179,-0.00183463,-0
 .00034059,-0.00405921,0.00757671,-0.01747327,0.00293922,0.09706956,-0.
 26012209,0.02313309,0.00107245,0.00029125,0.00110163,0.00002217,-0.000
 01436,-0.00000049,0.00000309,0.00000524,-0.00000433,0.00000274,0.00000
 523,0.00000363,-0.00000091,-0.00000410,-0.00000135,-0.00000025,-0.0000
 0292,0.00000099,0.00001829,0.00000136,0.00000895,0.00001192,0.00000289
 ,-0.00001235,0.00000687,0.00003787,0.00002686,-0.00000372,0.00001137,0
 .00000368,0.00004664,0.00002077,0.00012052,0.00007675,-0.00002151,-0.0
 0007120,0.00065677,-0.00126051,-0.00020996,-0.00007175,0.00049138,0.00
 000865,0.00011244,0.00084038,-0.00028742,0.00550530,-0.01170767,0.0010
 0081,-0.00170922,0.00402600,-0.00032981,-0.10696114,0.28413012,-0.0000
 0369,-0.00001584,-0.00000022,0.00002262,0.00002073,-0.00000282,-0.0000
 1744,-0.00005282,0.00001790,0.00013820,0.00005085,-0.00000939,-0.00059
 646,-0.00003330,-0.00007154,-0.00221601,-0.00184762,-0.00448332,0.0111
 2482,-0.02513244,0.00244790,-0.01043945,0.02419528,-0.04879809,0.00117
 518,0.00002230,0.00095921,0.00000813,-0.00000324,-0.00000019,0.0000002
 9,0.00000128,-0.00000040,0.00000257,0.00000202,0.00000173,-0.00000226,
 0.00000189,0.00000235,-0.00000115,-0.00000388,0.00000152,0.00002574,0.
 00000347,0.00000816,0.00000306,0.00000246,-0.00000157,-0.00000125,0.00
 005562,0.00004907,-0.00001412,-0.00001996,0.00000565,0.00020541,0.0001
 2085,0.00009744,0.00004184,0.00003264,0.00001482,0.00052134,-0.0017051
 2,0.00020520,-0.00017616,-0.00027374,0.00021178,0.00053109,0.00070182,
 0.00096766,-0.01249336,0.02463034,-0.00247499,-0.00025911,0.00153071,-
 0.00115917,0.01277529,-0.02295603,0.05200022,-0.00000014,0.00000216,0.
 00000108,-0.00000423,-0.00000618,0.00000343,0.00001308,-0.00000733,0.0
 0000255,0.00001715,0.00002509,-0.00009102,-0.00009920,0.00009291,-0.00
 019441,0.00168655,-0.00162043,0.00098335,-0.01540295,-0.01489702,0.028
 37781,0.00160200,0.00051307,0.00153417,-0.08866662,-0.04416414,0.08362
 390,-0.00000188,0.00000149,0.00000003,0.00000129,0.00000001,-0.0000018
 9,-0.00000049,-0.00000079,0.00000039,0.00000024,-0.00000006,0.00000078
 ,0.00000052,0.00000338,-0.00000340,-0.00000223,-0.00000084,0.00000002,
 0.00000798,-0.00000166,-0.00000589,-0.00000039,0.00000068,0.00000486,-
 0.00002384,0.00006091,-0.00001743,0.00000437,-0.00000503,-0.00000044,0
 .00028461,0.00007164,-0.00019007,-0.00003133,0.00018149,-0.00003864,-0
 .00006127,0.00083644,-0.00072249,-0.00679044,-0.00016929,-0.00111055,0
 .00011283,-0.00005969,-0.00108964,0.00028678,0.00040384,-0.00022621,-0
 .00003498,-0.00005794,-0.00016713,0.09941923,0.00000231,0.00000900,0.0
 0000054,-0.00000949,-0.00001136,0.00000089,0.00000849,0.00002133,0.000
 00951,-0.00004078,-0.00001970,-0.00001489,0.00007917,0.00003565,-0.000
 11445,0.00032322,0.00054600,-0.00086009,-0.00087788,-0.00159250,0.0012
 2178,0.00008986,-0.00009509,0.00068646,-0.04434399,-0.09371409,0.08803
 029,-0.00000554,0.00000397,0.00000011,-0.00000029,-0.00000162,0.000000
 55,-0.00000118,-0.00000217,-0.00000128,-0.00000020,0.00000042,-0.00000
 057,0.00000079,0.00000175,-0.00000030,-0.00000459,-0.00000202,-0.00000
 289,-0.00000588,-0.00000072,0.00000036,0.00000354,-0.00000178,-0.00000
 082,0.00000002,-0.00000409,0.00001112,-0.00004376,-0.00000037,-0.00001
 399,0.00005913,-0.00009279,0.00004606,-0.00002651,0.00004392,-0.000097
 62,-0.00000135,0.00042517,0.00013285,-0.00034706,0.00084584,-0.0003761
 7,-0.00028444,0.00011098,-0.00041021,0.00014756,0.00005062,-0.00028409
 ,-0.00004618,-0.00004698,0.00012818,0.04991564,0.09785975,-0.00000009,
 -0.00000723,0.00000035,0.00001310,0.00001202,-0.00000573,-0.00000154,-
 0.00003184,-0.00000039,0.00008443,0.00003403,-0.00002881,-0.00004563,-
 0.00030282,0.00028001,-0.00019588,-0.00003023,0.00020523,-0.00077969,-
 0.00150969,0.00174844,-0.00028927,-0.00038272,0.00116068,0.08406392,0.
 08805234,-0.21442942,0.00000484,-0.00000352,-0.00000044,-0.00000228,0.
 00000030,0.00000143,-0.00000018,0.00000151,-0.00000008,0.00000076,0.00
 000004,-0.00000215,-0.00000018,-0.00000359,0.00000604,-0.00000026,0.00
 000035,0.00000025,-0.00000555,-0.00000292,0.00000313,0.00000165,0.0000
 0203,-0.00000904,0.00000953,-0.00000800,0.00001938,-0.00000798,-0.0000
 0448,0.00000056,-0.00016680,0.00004701,-0.00002567,0.00007513,0.000079
 12,-0.00010764,0.00037507,-0.00042593,0.00027481,-0.00080768,-0.000379
 12,0.00137926,0.00021463,0.00038699,0.00036674,0.00010360,0.00001045,0
 .00018920,0.00001642,-0.00002746,-0.00002421,-0.09352519,-0.09797036,0
 .23195858,0.00001091,0.00006832,-0.00000159,-0.00012262,-0.00008669,0.
 00000603,0.00006259,0.00034664,0.00000394,-0.00078459,-0.00036155,0.00
 001445,0.00024510,0.00233519,-0.00029827,-0.00688015,-0.00257047,-0.00
 041207,-0.01240022,0.03146422,-0.00396680,0.00128402,0.00144170,0.0008
 0057,-0.08404042,0.09041924,-0.01030307,-0.00003649,0.00001664,0.00000
 054,-0.00000247,-0.00000676,0.00000454,-0.00000281,-0.00000684,-0.0000
 0415,0.00000255,0.00000622,0.00000642,0.00000216,0.00000601,-0.0000066
 4,-0.00000456,-0.00000677,-0.00001475,-0.00000624,-0.00000747,0.000015
 48,0.00001867,0.00000524,0.00003128,0.00001656,-0.00000122,-0.00003100
 ,-0.00006741,-0.00004325,-0.00011365,0.00002353,-0.00004234,0.00009536
 ,0.00009375,-0.00026664,0.00022003,0.00008847,-0.00000150,-0.00028194,
 0.00135766,-0.00021448,0.00055076,-0.00000624,-0.00015827,-0.00006649,
 0.00030631,-0.00025379,0.00039227,0.00004866,-0.00100674,-0.00050688,0
 .00486298,-0.01265281,0.00055953,0.09339119,-0.00000866,-0.00002298,0.
 00000035,0.00002125,0.00003426,-0.00000238,-0.00003907,-0.00006666,0.0
 0000794,0.00006111,0.00009370,0.00003133,-0.00046018,0.00014634,0.0001
 3976,0.00039707,0.00087621,-0.00060369,-0.00176460,0.00155211,-0.00082
 952,-0.00056985,0.00055303,0.00001397,0.09189834,-0.26682779,0.0245465
 2,0.00001548,-0.00001031,-0.00000021,0.00000243,0.00000451,-0.00000335
 ,0.00000249,0.00000460,0.00000309,-0.00000016,-0.00000392,0.00000006,0
 .00000003,-0.00000339,0.00000015,0.00000705,0.00000320,0.00000423,0.00
 000601,0.00000367,-0.00000575,-0.00001232,0.00000729,0.00000767,-0.000
 00608,-0.00000905,-0.00000274,0.00019417,0.00000147,0.00003667,0.00008
 286,0.00000237,-0.00003656,-0.00018352,0.00032040,0.00023487,-0.000196
 71,0.00017497,-0.00010046,0.00060071,0.00052100,-0.00028162,0.00001789
 ,-0.00005236,-0.00003883,-0.00000455,0.00032544,0.00004182,0.00009495,
 0.00048269,0.00029592,0.00475846,-0.01222636,0.00047017,-0.10084958,0.
 28937186,0.00000077,0.00000630,0.00000135,-0.00001257,-0.00000766,-0.0
 0000596,0.00000494,0.00004073,0.00000343,-0.00008773,-0.00005007,-0.00
 000104,0.00007180,0.00027552,0.00062111,-0.00071067,-0.00051888,0.0000
 5514,-0.00058231,0.00226127,-0.00186274,-0.00015459,0.00100292,0.00009
 737,-0.01031665,0.02419835,-0.04974004,-0.00000304,0.00000119,-0.00000
 005,-0.00000015,-0.00000052,0.00000016,-0.00000022,-0.00000057,-0.0000
 0083,0.00000006,-0.00000006,0.00000096,0.00000019,0.00000098,-0.000000
 07,-0.00000141,-0.00000150,-0.00000379,0.00000211,-0.00000065,-0.00000
 076,-0.00000310,0.00000270,0.00000874,0.00000738,0.00000236,-0.0000003
 5,0.00010033,-0.00000913,-0.00003295,-0.00009662,0.00000577,-0.0000006
 8,0.00007657,0.00045206,0.00026266,0.00017406,-0.00043449,0.00031090,0
 .00000231,-0.00048950,0.00015749,-0.00005392,0.00007527,-0.00001500,0.
 00019813,-0.00013957,-0.00002310,-0.00024939,-0.00038132,0.00005349,-0
 .01070072,0.02464101,-0.00251060,0.01170547,-0.02657884,0.04935044,-0.
 00000253,-0.00000625,-0.00000136,0.00000852,0.00000514,-0.00000463,-0.
 00000581,-0.00002763,-0.00000153,0.00003982,0.00003633,0.00002066,0.00
 010042,-0.00005692,0.00034322,0.00124187,-0.00173984,-0.00084487,-0.00
 762595,-0.01762627,-0.02766215,-0.00704027,0.00075781,0.00070042,-0.06
 219106,-0.03390994,-0.05078800,0.00000367,-0.00000149,-0.00000003,-0.0
 0000029,0.00000010,-0.00000097,0.00000271,0.00000148,0.00000329,0.0000
 0061,0.00000458,0.00000348,-0.00000018,-0.00000118,0.00000071,0.000012
 82,-0.00000012,0.00000955,-0.00000120,-0.00000143,-0.00000242,-0.00001
 731,0.00005078,0.00001905,-0.00000136,-0.00000216,0.00000553,0.0002597
 8,-0.00003782,0.00007347,-0.00003143,-0.00002513,-0.00001804,-0.000049
 64,0.00104254,0.00051507,0.00000539,0.00013076,0.00009466,0.00142469,-
 0.00009987,0.00056803,0.00003421,0.00024282,-0.00009558,-0.00061514,-0
 .00128996,-0.00190200,0.00008370,-0.00004333,0.00031889,0.00282036,0.0
 0806224,0.01030561,0.00253910,0.00593498,0.01062900,0.06900449,0.00000
 232,0.00001004,-0.00000165,-0.00001232,-0.00001329,-0.00000146,0.00001
 230,0.00002539,-0.00001144,-0.00002933,-0.00002733,0.00001995,-0.00010
 172,0.00013669,0.00005795,0.00061001,0.00050795,0.00082684,-0.00007673
 ,-0.00246104,-0.00091895,-0.00093425,0.00025226,0.00053410,-0.03481807
 ,-0.12284951,-0.11314940,-0.00000626,0.00000456,0.00000002,-0.00000151
 ,-0.00000260,0.00000153,0.00000044,-0.00000148,0.00000043,0.00000096,0
 .00000341,0.00000150,-0.00000032,-0.00000010,0.00000095,-0.00000197,-0
 .00000101,0.00000240,-0.00000610,-0.00000346,0.00000378,0.00000328,0.0
 0001222,0.00000054,0.00000166,0.00000093,0.00000118,0.00007508,0.00000
 442,0.00006555,-0.00003338,-0.00002668,0.00000914,0.00021528,0.0003149
 5,-0.00004166,0.00004661,0.00000421,0.00005161,-0.00015599,-0.00009575
 ,0.00007599,0.00003705,0.00000759,-0.00025349,-0.00006789,0.00027989,-
 0.00048748,0.00009011,0.00052973,0.00024763,0.00412319,0.00785725,0.01
 199351,-0.00757226,-0.01525628,-0.02435365,0.03859979,0.13078703,-0.00
 000112,0.00000321,0.00000029,-0.00000955,-0.00000729,-0.00000537,-0.00
 000008,0.00002186,0.00000394,-0.00004991,-0.00002702,-0.00002107,-0.00
 006666,0.00034591,0.00031483,0.00051613,-0.00046895,-0.00026816,0.0004
 3848,-0.00089640,-0.00255945,-0.00139619,0.00027082,0.00112654,-0.0521
 4485,-0.11286363,-0.21555853,-0.00000222,0.00000199,-0.00000038,0.0000
 0056,-0.00000089,-0.00000087,0.00000297,0.00000045,0.00000216,0.000000
 08,0.00000424,0.00000603,-0.00000107,-0.00000013,-0.00000178,0.0000106
 8,0.00000173,0.00000493,0.00000195,-0.00000102,-0.00000200,-0.00001236
 ,0.00003295,0.00002970,-0.00000324,0.00000586,-0.00000883,0.00021605,0
 .00000745,0.00005704,0.00001321,0.00000109,-0.00003500,-0.00027150,0.0
 0067549,0.00044745,-0.00004540,-0.00006900,0.00000699,-0.00044948,0.00
 011990,0.00077678,0.00024520,0.00010182,0.00050354,-0.00003602,-0.0004
 4195,-0.00004164,0.00018003,-0.00003056,-0.00001817,-0.00644727,-0.014
 76197,-0.02044993,0.00160066,0.00264942,0.00327470,0.05771093,0.125324
 60,0.23241624\\0.00000193,0.00000061,0.00000033,-0.00000181,-0.0000028
 7,-0.00000050,0.00000564,0.00000388,0.00000165,-0.00000703,-0.00000397
 ,-0.00000096,0.00000249,0.00000667,-0.00000016,-0.00000596,-0.00000143
 ,-0.00000137,0.00000363,0.00000315,0.00000093,0.00000039,0.00000098,0.
 00000247,0.00000177,-0.00000270,-0.00000134,0.00000032,-0.00000020,-0.
 00000029,-0.00000020,0.00000035,0.00000027,-0.00000049,-0.00000021,0.0
 0000010,0.00000091,0.00000154,-0.00000073,0.00000024,0.00000001,-0.000
 00120,-0.00000135,-0.00000199,-0.00000002,-0.00000122,0.00000010,0.000
 00036,0.00000223,0.00000203,-0.00000038,-0.00000003,0.00000067,-0.0000
 0155,-0.00000024,-0.00000040,0.00000028,0.00000007,-0.00000045,0.00000
 018,-0.00000034,0.00000181,0.00000033,-0.00000069,0.00000009,0.0000014
 3,0.00000103,-0.00000028,-0.00000460,-0.00000113,0.00000018,0.00000283
 ,-0.00000021,-0.00000285,0.00000153,-0.00000012,-0.00000278,0.00000030
 ,-0.00000075,-0.00000156,0.00000091,0.00000144,-0.00000107,0.00000055,
 -0.00000052,0.00000068,-0.00000133\\\@


 SOME PEOPLE TRY TO PULL THE WOOL OVER YOUR EYES
 USING THE WRONG YARN.
 Job cpu time:       0 days  2 hours 36 minutes 39.9 seconds.
 Elapsed time:       0 days  0 hours 39 minutes 11.2 seconds.
 File lengths (MBytes):  RWF=    254 Int=      0 D2E=      0 Chk=     11 Scr=      1
 Normal termination of Gaussian 16 at Sun May 28 04:58:56 2023.
### All Done ###
