### Starting Gaussian ###
 Entering Gaussian System, Link 0=g16
 Initial command:
 /cluster/software/gaussian/gaussian-16-A.03/avx2/g16/l1.exe "/local/scratch/yxie/Gau-30352.inp" -scrdir="/local/scratch/yxie/"
 Entering Link 1 = /cluster/software/gaussian/gaussian-16-A.03/avx2/g16/l1.exe PID=     30353.
  
 Copyright (c) 1988,1990,1992,1993,1995,1998,2003,2009,2016,
            Gaussian, Inc.  All Rights Reserved.
  
 This is part of the Gaussian(R) 16 program.  It is based on
 the Gaussian(R) 09 system (copyright 2009, Gaussian, Inc.),
 the Gaussian(R) 03 system (copyright 2003, Gaussian, Inc.),
 the Gaussian(R) 98 system (copyright 1998, Gaussian, Inc.),
 the Gaussian(R) 94 system (copyright 1995, Gaussian, Inc.),
 the Gaussian 92(TM) system (copyright 1992, Gaussian, Inc.),
 the Gaussian 90(TM) system (copyright 1990, Gaussian, Inc.),
 the Gaussian 88(TM) system (copyright 1988, Gaussian, Inc.),
 the Gaussian 86(TM) system (copyright 1986, Carnegie Mellon
 University), and the Gaussian 82(TM) system (copyright 1983,
 Carnegie Mellon University). Gaussian is a federally registered
 trademark of Gaussian, Inc.
  
 This software contains proprietary and confidential information,
 including trade secrets, belonging to Gaussian, Inc.
  
 This software is provided under written license and may be
 used, copied, transmitted, or stored only in accord with that
 written license.
  
 The following legend is applicable only to US Government
 contracts under FAR:
  
                    RESTRICTED RIGHTS LEGEND
  
 Use, reproduction and disclosure by the US Government is
 subject to restrictions as set forth in subparagraphs (a)
 and (c) of the Commercial Computer Software - Restricted
 Rights clause in FAR 52.227-19.
  
 Gaussian, Inc.
 340 Quinnipiac St., Bldg. 40, Wallingford CT 06492
  
  
 ---------------------------------------------------------------
 Warning -- This program may not be used in any manner that
 competes with the business of Gaussian, Inc. or will provide
 assistance to any competitor of Gaussian, Inc.  The licensee
 of this program is prohibited from giving any competitor of
 Gaussian, Inc. access to this program.  By using this program,
 the user acknowledges that Gaussian, Inc. is engaged in the
 business of creating and licensing software in the field of
 computational chemistry and represents and warrants to the
 licensee that it is not a competitor of Gaussian, Inc. and that
 it will not use this program in any manner prohibited above.
 ---------------------------------------------------------------
  

 Cite this work as:
 Gaussian 16, Revision A.03,
 M. J. Frisch, G. W. Trucks, H. B. Schlegel, G. E. Scuseria, 
 M. A. Robb, J. R. Cheeseman, G. Scalmani, V. Barone, 
 G. A. Petersson, H. Nakatsuji, X. Li, M. Caricato, A. V. Marenich, 
 J. Bloino, B. G. Janesko, R. Gomperts, B. Mennucci, H. P. Hratchian, 
 J. V. Ortiz, A. F. Izmaylov, J. L. Sonnenberg, D. Williams-Young, 
 F. Ding, F. Lipparini, F. Egidi, J. Goings, B. Peng, A. Petrone, 
 T. Henderson, D. Ranasinghe, V. G. Zakrzewski, J. Gao, N. Rega, 
 G. Zheng, W. Liang, M. Hada, M. Ehara, K. Toyota, R. Fukuda, 
 J. Hasegawa, M. Ishida, T. Nakajima, Y. Honda, O. Kitao, H. Nakai, 
 T. Vreven, K. Throssell, J. A. Montgomery, Jr., J. E. Peralta, 
 F. Ogliaro, M. J. Bearpark, J. J. Heyd, E. N. Brothers, K. N. Kudin, 
 V. N. Staroverov, T. A. Keith, R. Kobayashi, J. Normand, 
 K. Raghavachari, A. P. Rendell, J. C. Burant, S. S. Iyengar, 
 J. Tomasi, M. Cossi, J. M. Millam, M. Klene, C. Adamo, R. Cammi, 
 J. W. Ochterski, R. L. Martin, K. Morokuma, O. Farkas, 
 J. B. Foresman, and D. J. Fox, Gaussian, Inc., Wallingford CT, 2016.
 
 ******************************************
 Gaussian 16:  ES64L-G16RevA.03 25-Dec-2016
                22-May-2023 
 ******************************************
 %chk=CCCCqOrCCCqCrCCCO.chk
 %NProcShared=20
 Will use up to   20 processors via shared memory.
 -----------------------------
 # opt freq b3lyp/6-31g(2df,p)
 -----------------------------
 1/18=20,19=15,26=3,38=1/1,3;
 2/9=110,12=2,17=6,18=5,40=1/2;
 3/5=1,6=6,7=104,11=2,25=1,30=1,71=1,74=-5/1,2,3;
 4//1;
 5/5=2,38=5/2;
 6/7=2,8=2,9=2,10=2,28=1/1;
 7//1,2,3,16;
 1/18=20,19=15,26=3/3(2);
 2/9=110/2;
 99//99;
 2/9=110/2;
 3/5=1,6=6,7=104,11=2,25=1,30=1,71=1,74=-5/1,2,3;
 4/5=5,16=3,69=1/1;
 5/5=2,38=5/2;
 7//1,2,3,16;
 1/18=20,19=15,26=3/3(-5);
 2/9=110/2;
 6/7=2,8=2,9=2,10=2,19=2,28=1/1;
 99/9=1/99;
 -------------------
 Title Card Required
 -------------------
 Symbolic Z-matrix:
 Charge =  0 Multiplicity = 1
 C                     0.87839   0.07766  -0.0447 
 C                     2.39458   0.08808  -0.05112 
 C                     2.94352  -0.50718   1.23928 
 C                     4.47086  -0.4915    1.24975 
 O                     4.95027   0.84539   1.14424 
 C                     4.97486  -1.11878   2.5415 
 C                     6.49963  -1.17475   2.59288 
 C                     7.00419  -1.82942   3.88897 
 C                     6.47451  -3.26203   4.02917 
 C                     8.54215  -1.79383   3.90414 
 C                     9.11928  -2.36893   5.19372 
 C                     10.63645  -2.35157   5.19028 
 O                     11.11212  -2.92853   6.40015 
 H                     0.49629   0.51302  -0.97178 
 H                     0.49068   0.66199   0.79596 
 H                     0.49596  -0.94425   0.04134 
 H                     2.74694   1.11846  -0.17064 
 H                     2.76409  -0.48604  -0.90853 
 H                     2.58228  -1.5375    1.35561 
 H                     2.56217   0.06897   2.09214 
 H                     4.85429  -1.05496   0.39182 
 H                     4.62336   1.33917   1.91155 
 H                     4.55049  -2.12495   2.60677 
 H                     4.61451  -0.54862   3.40705 
 H                     6.90468  -0.15691   2.52071 
 H                     6.87695  -1.72604   1.72222 
 H                     6.63591  -1.23836   4.73822 
 H                     6.8135   -3.88307   3.19354 
 H                     5.38299  -3.29404   4.06129 
 H                     6.79847  -3.7278    4.96196 
 H                     8.88326  -0.75601   3.79029 
 H                     8.93323  -2.34855   3.04175 
 H                     8.80294  -3.40652   5.33857 
 H                     8.7354   -1.81192   6.05726 
 H                     11.02561  -1.33288   5.10931 
 H                     11.02452  -2.94291   4.35586 
 H                     10.72592  -2.42666   7.1336 
 

 GradGradGradGradGradGradGradGradGradGradGradGradGradGradGradGradGradGrad
 Berny optimization.
 Initialization pass.
                           ----------------------------
                           !    Initial Parameters    !
                           ! (Angstroms and Degrees)  !
 --------------------------                            --------------------------
 ! Name  Definition              Value          Derivative Info.                !
 --------------------------------------------------------------------------------
 ! R1    R(1,2)                  1.5162         estimate D2E/DX2                !
 ! R2    R(1,14)                 1.0932         estimate D2E/DX2                !
 ! R3    R(1,15)                 1.0947         estimate D2E/DX2                !
 ! R4    R(1,16)                 1.0945         estimate D2E/DX2                !
 ! R5    R(2,3)                  1.5234         estimate D2E/DX2                !
 ! R6    R(2,17)                 1.0955         estimate D2E/DX2                !
 ! R7    R(2,18)                 1.096          estimate D2E/DX2                !
 ! R8    R(3,4)                  1.5275         estimate D2E/DX2                !
 ! R9    R(3,19)                 1.098          estimate D2E/DX2                !
 ! R10   R(3,20)                 1.0976         estimate D2E/DX2                !
 ! R11   R(4,5)                  1.4242         estimate D2E/DX2                !
 ! R12   R(4,6)                  1.5219         estimate D2E/DX2                !
 ! R13   R(4,21)                 1.0957         estimate D2E/DX2                !
 ! R14   R(5,22)                 0.9693         estimate D2E/DX2                !
 ! R15   R(6,7)                  1.5267         estimate D2E/DX2                !
 ! R16   R(6,23)                 1.094          estimate D2E/DX2                !
 ! R17   R(6,24)                 1.0973         estimate D2E/DX2                !
 ! R18   R(7,8)                  1.5372         estimate D2E/DX2                !
 ! R19   R(7,25)                 1.0978         estimate D2E/DX2                !
 ! R20   R(7,26)                 1.0974         estimate D2E/DX2                !
 ! R21   R(8,9)                  1.5338         estimate D2E/DX2                !
 ! R22   R(8,10)                 1.5384         estimate D2E/DX2                !
 ! R23   R(8,27)                 1.0983         estimate D2E/DX2                !
 ! R24   R(9,28)                 1.0949         estimate D2E/DX2                !
 ! R25   R(9,29)                 1.0925         estimate D2E/DX2                !
 ! R26   R(9,30)                 1.0918         estimate D2E/DX2                !
 ! R27   R(10,11)                1.5254         estimate D2E/DX2                !
 ! R28   R(10,31)                1.0984         estimate D2E/DX2                !
 ! R29   R(10,32)                1.0974         estimate D2E/DX2                !
 ! R30   R(11,12)                1.5173         estimate D2E/DX2                !
 ! R31   R(11,33)                1.0944         estimate D2E/DX2                !
 ! R32   R(11,34)                1.097          estimate D2E/DX2                !
 ! R33   R(12,13)                1.4223         estimate D2E/DX2                !
 ! R34   R(12,35)                1.0935         estimate D2E/DX2                !
 ! R35   R(12,36)                1.0939         estimate D2E/DX2                !
 ! R36   R(13,37)                0.969          estimate D2E/DX2                !
 ! A1    A(2,1,14)             110.0717         estimate D2E/DX2                !
 ! A2    A(2,1,15)             110.7154         estimate D2E/DX2                !
 ! A3    A(2,1,16)             110.8636         estimate D2E/DX2                !
 ! A4    A(14,1,15)            108.3531         estimate D2E/DX2                !
 ! A5    A(14,1,16)            108.4439         estimate D2E/DX2                !
 ! A6    A(15,1,16)            108.3151         estimate D2E/DX2                !
 ! A7    A(1,2,3)              110.7353         estimate D2E/DX2                !
 ! A8    A(1,2,17)             109.1813         estimate D2E/DX2                !
 ! A9    A(1,2,18)             109.6841         estimate D2E/DX2                !
 ! A10   A(3,2,17)             110.1224         estimate D2E/DX2                !
 ! A11   A(3,2,18)             109.6619         estimate D2E/DX2                !
 ! A12   A(17,2,18)            107.3911         estimate D2E/DX2                !
 ! A13   A(2,3,4)              111.2293         estimate D2E/DX2                !
 ! A14   A(2,3,19)             109.7459         estimate D2E/DX2                !
 ! A15   A(2,3,20)             109.1394         estimate D2E/DX2                !
 ! A16   A(4,3,19)             109.7479         estimate D2E/DX2                !
 ! A17   A(4,3,20)             109.6757         estimate D2E/DX2                !
 ! A18   A(19,3,20)            107.2134         estimate D2E/DX2                !
 ! A19   A(3,4,5)              110.2263         estimate D2E/DX2                !
 ! A20   A(3,4,6)              109.4346         estimate D2E/DX2                !
 ! A21   A(3,4,21)             109.8324         estimate D2E/DX2                !
 ! A22   A(5,4,6)              109.7745         estimate D2E/DX2                !
 ! A23   A(5,4,21)             107.8741         estimate D2E/DX2                !
 ! A24   A(6,4,21)             109.679          estimate D2E/DX2                !
 ! A25   A(4,5,22)             107.8206         estimate D2E/DX2                !
 ! A26   A(4,6,7)              111.9895         estimate D2E/DX2                !
 ! A27   A(4,6,23)             107.5342         estimate D2E/DX2                !
 ! A28   A(4,6,24)             110.2791         estimate D2E/DX2                !
 ! A29   A(7,6,23)             110.5923         estimate D2E/DX2                !
 ! A30   A(7,6,24)             108.6924         estimate D2E/DX2                !
 ! A31   A(23,6,24)            107.6647         estimate D2E/DX2                !
 ! A32   A(6,7,8)              111.8275         estimate D2E/DX2                !
 ! A33   A(6,7,25)             109.4078         estimate D2E/DX2                !
 ! A34   A(6,7,26)             109.5794         estimate D2E/DX2                !
 ! A35   A(8,7,25)             109.2184         estimate D2E/DX2                !
 ! A36   A(8,7,26)             110.0065         estimate D2E/DX2                !
 ! A37   A(25,7,26)            106.6624         estimate D2E/DX2                !
 ! A38   A(7,8,9)              111.1923         estimate D2E/DX2                !
 ! A39   A(7,8,10)             109.0618         estimate D2E/DX2                !
 ! A40   A(7,8,27)             108.2224         estimate D2E/DX2                !
 ! A41   A(9,8,10)             111.4649         estimate D2E/DX2                !
 ! A42   A(9,8,27)             108.4321         estimate D2E/DX2                !
 ! A43   A(10,8,27)            108.3696         estimate D2E/DX2                !
 ! A44   A(8,9,28)             110.6767         estimate D2E/DX2                !
 ! A45   A(8,9,29)             112.03           estimate D2E/DX2                !
 ! A46   A(8,9,30)             111.9681         estimate D2E/DX2                !
 ! A47   A(28,9,29)            108.3699         estimate D2E/DX2                !
 ! A48   A(28,9,30)            108.5541         estimate D2E/DX2                !
 ! A49   A(29,9,30)            105.0018         estimate D2E/DX2                !
 ! A50   A(8,10,11)            112.2001         estimate D2E/DX2                !
 ! A51   A(8,10,31)            109.3478         estimate D2E/DX2                !
 ! A52   A(8,10,32)            109.6822         estimate D2E/DX2                !
 ! A53   A(11,10,31)           109.0484         estimate D2E/DX2                !
 ! A54   A(11,10,32)           109.8124         estimate D2E/DX2                !
 ! A55   A(31,10,32)           106.5877         estimate D2E/DX2                !
 ! A56   A(10,11,12)           111.8447         estimate D2E/DX2                !
 ! A57   A(10,11,33)           111.0994         estimate D2E/DX2                !
 ! A58   A(10,11,34)           109.9787         estimate D2E/DX2                !
 ! A59   A(12,11,33)           107.469          estimate D2E/DX2                !
 ! A60   A(12,11,34)           110.2367         estimate D2E/DX2                !
 ! A61   A(33,11,34)           106.0263         estimate D2E/DX2                !
 ! A62   A(11,12,13)           109.138          estimate D2E/DX2                !
 ! A63   A(11,12,35)           111.5116         estimate D2E/DX2                !
 ! A64   A(11,12,36)           110.5051         estimate D2E/DX2                !
 ! A65   A(13,12,35)           108.776          estimate D2E/DX2                !
 ! A66   A(13,12,36)           108.1161         estimate D2E/DX2                !
 ! A67   A(35,12,36)           108.7158         estimate D2E/DX2                !
 ! A68   A(12,13,37)           107.486          estimate D2E/DX2                !
 ! D1    D(14,1,2,3)           179.6132         estimate D2E/DX2                !
 ! D2    D(14,1,2,17)           58.2025         estimate D2E/DX2                !
 ! D3    D(14,1,2,18)          -59.2199         estimate D2E/DX2                !
 ! D4    D(15,1,2,3)            59.8389         estimate D2E/DX2                !
 ! D5    D(15,1,2,17)          -61.5719         estimate D2E/DX2                !
 ! D6    D(15,1,2,18)         -178.9943         estimate D2E/DX2                !
 ! D7    D(16,1,2,3)           -60.4045         estimate D2E/DX2                !
 ! D8    D(16,1,2,17)          178.1847         estimate D2E/DX2                !
 ! D9    D(16,1,2,18)           60.7623         estimate D2E/DX2                !
 ! D10   D(1,2,3,4)           -179.5242         estimate D2E/DX2                !
 ! D11   D(1,2,3,19)            58.8367         estimate D2E/DX2                !
 ! D12   D(1,2,3,20)           -58.3823         estimate D2E/DX2                !
 ! D13   D(17,2,3,4)           -58.6698         estimate D2E/DX2                !
 ! D14   D(17,2,3,19)          179.691          estimate D2E/DX2                !
 ! D15   D(17,2,3,20)           62.472          estimate D2E/DX2                !
 ! D16   D(18,2,3,4)            59.2959         estimate D2E/DX2                !
 ! D17   D(18,2,3,19)          -62.3432         estimate D2E/DX2                !
 ! D18   D(18,2,3,20)         -179.5622         estimate D2E/DX2                !
 ! D19   D(2,3,4,5)             60.2937         estimate D2E/DX2                !
 ! D20   D(2,3,4,6)           -178.8865         estimate D2E/DX2                !
 ! D21   D(2,3,4,21)           -58.4312         estimate D2E/DX2                !
 ! D22   D(19,3,4,5)          -178.0683         estimate D2E/DX2                !
 ! D23   D(19,3,4,6)           -57.2485         estimate D2E/DX2                !
 ! D24   D(19,3,4,21)           63.2067         estimate D2E/DX2                !
 ! D25   D(20,3,4,5)           -60.5335         estimate D2E/DX2                !
 ! D26   D(20,3,4,6)            60.2863         estimate D2E/DX2                !
 ! D27   D(20,3,4,21)         -179.2585         estimate D2E/DX2                !
 ! D28   D(3,4,5,22)            61.05           estimate D2E/DX2                !
 ! D29   D(6,4,5,22)           -59.566          estimate D2E/DX2                !
 ! D30   D(21,4,5,22)         -179.0343         estimate D2E/DX2                !
 ! D31   D(3,4,6,7)            178.1275         estimate D2E/DX2                !
 ! D32   D(3,4,6,23)            56.4338         estimate D2E/DX2                !
 ! D33   D(3,4,6,24)           -60.6959         estimate D2E/DX2                !
 ! D34   D(5,4,6,7)            -60.7785         estimate D2E/DX2                !
 ! D35   D(5,4,6,23)           177.5278         estimate D2E/DX2                !
 ! D36   D(5,4,6,24)            60.3981         estimate D2E/DX2                !
 ! D37   D(21,4,6,7)            57.5788         estimate D2E/DX2                !
 ! D38   D(21,4,6,23)          -64.1149         estimate D2E/DX2                !
 ! D39   D(21,4,6,24)          178.7554         estimate D2E/DX2                !
 ! D40   D(4,6,7,8)           -179.0833         estimate D2E/DX2                !
 ! D41   D(4,6,7,25)            59.7813         estimate D2E/DX2                !
 ! D42   D(4,6,7,26)           -56.8324         estimate D2E/DX2                !
 ! D43   D(23,6,7,8)           -59.162          estimate D2E/DX2                !
 ! D44   D(23,6,7,25)          179.7025         estimate D2E/DX2                !
 ! D45   D(23,6,7,26)           63.0889         estimate D2E/DX2                !
 ! D46   D(24,6,7,8)            58.8286         estimate D2E/DX2                !
 ! D47   D(24,6,7,25)          -62.3069         estimate D2E/DX2                !
 ! D48   D(24,6,7,26)         -178.9205         estimate D2E/DX2                !
 ! D49   D(6,7,8,9)             59.2916         estimate D2E/DX2                !
 ! D50   D(6,7,8,10)          -177.3953         estimate D2E/DX2                !
 ! D51   D(6,7,8,27)           -59.6988         estimate D2E/DX2                !
 ! D52   D(25,7,8,9)          -179.4633         estimate D2E/DX2                !
 ! D53   D(25,7,8,10)          -56.1502         estimate D2E/DX2                !
 ! D54   D(25,7,8,27)           61.5463         estimate D2E/DX2                !
 ! D55   D(26,7,8,9)           -62.7145         estimate D2E/DX2                !
 ! D56   D(26,7,8,10)           60.5986         estimate D2E/DX2                !
 ! D57   D(26,7,8,27)          178.2951         estimate D2E/DX2                !
 ! D58   D(7,8,9,28)            60.6217         estimate D2E/DX2                !
 ! D59   D(7,8,9,29)           -60.4486         estimate D2E/DX2                !
 ! D60   D(7,8,9,30)          -178.1149         estimate D2E/DX2                !
 ! D61   D(10,8,9,28)          -61.305          estimate D2E/DX2                !
 ! D62   D(10,8,9,29)          177.6246         estimate D2E/DX2                !
 ! D63   D(10,8,9,30)           59.9583         estimate D2E/DX2                !
 ! D64   D(27,8,9,28)          179.4864         estimate D2E/DX2                !
 ! D65   D(27,8,9,29)           58.416          estimate D2E/DX2                !
 ! D66   D(27,8,9,30)          -59.2503         estimate D2E/DX2                !
 ! D67   D(7,8,10,11)          177.3263         estimate D2E/DX2                !
 ! D68   D(7,8,10,31)           56.2024         estimate D2E/DX2                !
 ! D69   D(7,8,10,32)          -60.3455         estimate D2E/DX2                !
 ! D70   D(9,8,10,11)          -59.5231         estimate D2E/DX2                !
 ! D71   D(9,8,10,31)          179.353          estimate D2E/DX2                !
 ! D72   D(9,8,10,32)           62.8052         estimate D2E/DX2                !
 ! D73   D(27,8,10,11)          59.7227         estimate D2E/DX2                !
 ! D74   D(27,8,10,31)         -61.4012         estimate D2E/DX2                !
 ! D75   D(27,8,10,32)        -177.9491         estimate D2E/DX2                !
 ! D76   D(8,10,11,12)         179.0319         estimate D2E/DX2                !
 ! D77   D(8,10,11,33)          58.9436         estimate D2E/DX2                !
 ! D78   D(8,10,11,34)         -58.1306         estimate D2E/DX2                !
 ! D79   D(31,10,11,12)        -59.6721         estimate D2E/DX2                !
 ! D80   D(31,10,11,33)       -179.7603         estimate D2E/DX2                !
 ! D81   D(31,10,11,34)         63.1654         estimate D2E/DX2                !
 ! D82   D(32,10,11,12)         56.7776         estimate D2E/DX2                !
 ! D83   D(32,10,11,33)        -63.3106         estimate D2E/DX2                !
 ! D84   D(32,10,11,34)        179.6151         estimate D2E/DX2                !
 ! D85   D(10,11,12,13)       -178.5723         estimate D2E/DX2                !
 ! D86   D(10,11,12,35)         61.23           estimate D2E/DX2                !
 ! D87   D(10,11,12,36)        -59.8097         estimate D2E/DX2                !
 ! D88   D(33,11,12,13)        -56.3812         estimate D2E/DX2                !
 ! D89   D(33,11,12,35)       -176.5789         estimate D2E/DX2                !
 ! D90   D(33,11,12,36)         62.3813         estimate D2E/DX2                !
 ! D91   D(34,11,12,13)         58.7369         estimate D2E/DX2                !
 ! D92   D(34,11,12,35)        -61.4608         estimate D2E/DX2                !
 ! D93   D(34,11,12,36)        177.4995         estimate D2E/DX2                !
 ! D94   D(11,12,13,37)        -56.8434         estimate D2E/DX2                !
 ! D95   D(35,12,13,37)         65.0224         estimate D2E/DX2                !
 ! D96   D(36,12,13,37)       -177.0855         estimate D2E/DX2                !
 --------------------------------------------------------------------------------
 Trust Radius=3.00D-01 FncErr=1.00D-07 GrdErr=1.00D-06 EigMax=2.50D+02 EigMin=1.00D-04
 Number of steps in this run=    210 maximum allowed number of steps=    222.
 GradGradGradGradGradGradGradGradGradGradGradGradGradGradGradGradGradGrad

                          Input orientation:                          
 ---------------------------------------------------------------------
 Center     Atomic      Atomic             Coordinates (Angstroms)
 Number     Number       Type             X           Y           Z
 ---------------------------------------------------------------------
      1          6           0        0.878390    0.077660   -0.044700
      2          6           0        2.394580    0.088080   -0.051120
      3          6           0        2.943520   -0.507180    1.239280
      4          6           0        4.470860   -0.491500    1.249750
      5          8           0        4.950270    0.845390    1.144240
      6          6           0        4.974860   -1.118780    2.541500
      7          6           0        6.499630   -1.174750    2.592880
      8          6           0        7.004190   -1.829420    3.888970
      9          6           0        6.474510   -3.262030    4.029170
     10          6           0        8.542150   -1.793830    3.904140
     11          6           0        9.119280   -2.368930    5.193720
     12          6           0       10.636450   -2.351570    5.190280
     13          8           0       11.112120   -2.928530    6.400150
     14          1           0        0.496290    0.513020   -0.971780
     15          1           0        0.490680    0.661990    0.795960
     16          1           0        0.495960   -0.944250    0.041340
     17          1           0        2.746940    1.118460   -0.170640
     18          1           0        2.764090   -0.486040   -0.908530
     19          1           0        2.582280   -1.537500    1.355610
     20          1           0        2.562170    0.068970    2.092140
     21          1           0        4.854290   -1.054960    0.391820
     22          1           0        4.623360    1.339170    1.911550
     23          1           0        4.550490   -2.124950    2.606770
     24          1           0        4.614510   -0.548620    3.407050
     25          1           0        6.904680   -0.156910    2.520710
     26          1           0        6.876950   -1.726040    1.722220
     27          1           0        6.635910   -1.238360    4.738220
     28          1           0        6.813500   -3.883070    3.193540
     29          1           0        5.382990   -3.294040    4.061290
     30          1           0        6.798470   -3.727800    4.961960
     31          1           0        8.883260   -0.756010    3.790290
     32          1           0        8.933230   -2.348550    3.041750
     33          1           0        8.802940   -3.406520    5.338570
     34          1           0        8.735400   -1.811920    6.057260
     35          1           0       11.025610   -1.332880    5.109310
     36          1           0       11.024520   -2.942910    4.355860
     37          1           0       10.725920   -2.426660    7.133600
 ---------------------------------------------------------------------
                    Distance matrix (angstroms):
                    1          2          3          4          5
     1  C    0.000000
     2  C    1.516239   0.000000
     3  C    2.501081   1.523418   0.000000
     4  C    3.860749   2.517760   1.527456   0.000000
     5  O    4.310823   2.921293   2.421884   1.424163   0.000000
     6  C    4.990087   3.851757   2.489211   1.521879   2.410582
     7  C    6.334327   5.043502   3.863134   2.527199   2.929171
     8  C    7.525699   6.360002   5.025755   3.895289   4.348188
     9  C    7.685474   6.672168   5.276417   4.406317   5.245668
    10  C    8.822076   7.548396   6.332583   5.031625   5.242531
    11  C   10.066733   8.875068   7.565958   6.378672   6.641595
    12  C   11.336927  10.067402   8.842700   7.549976   7.676173
    13  O   12.462042  11.256746   9.961101   8.750547   8.935069
    14  H    1.093168   2.152137   3.452322   4.662774   4.942261
    15  H    1.094746   2.161424   2.753165   4.168729   4.476927
    16  H    1.094512   2.163102   2.759826   4.179123   4.925452
    17  H    2.142570   1.095502   2.160839   2.753430   2.580337
    18  H    2.149378   1.096040   2.155396   2.751593   3.281151
    19  H    2.733652   2.157923   1.097992   2.161494   3.366039
    20  H    2.720529   2.149887   1.097610   2.160288   2.684095
    21  H    4.157061   2.748256   2.160855   1.095696   2.046137
    22  H    4.409436   3.222539   2.585115   1.952585   0.969254
    23  H    5.036477   4.075516   2.658865   2.125089   3.334927
    24  H    5.124978   4.158415   2.737362   2.162832   2.678863
    25  H    6.553817   5.197628   4.177983   2.766002   2.592102
    26  H    6.508307   5.150476   4.146170   2.745284   3.264722
    27  H    7.599820   6.533460   5.139158   4.173088   4.483312
    28  H    7.835758   6.769395   5.494771   4.557305   5.479926
    29  H    6.965554   6.105837   4.656323   4.073201   5.082451
    30  H    8.636870   7.686752   6.252310   5.447193   6.237379
    31  H    8.915161   7.587614   6.469164   5.098390   5.003446
    32  H    8.960643   7.632624   6.520442   5.154866   5.446629
    33  H   10.193998   9.073481   7.716421   6.631946   7.107335
    34  H   10.126057   9.007125   7.645989   6.560637   6.747316
    35  H   11.468196  10.155976   8.998838   7.653030   7.574721
    36  H   11.464411  10.153041   8.997134   7.655572   7.846160
    37  H   12.440798  11.285183   9.949531   8.802858   8.940743
                    6          7          8          9         10
     6  C    0.000000
     7  C    1.526662   0.000000
     8  C    2.537492   1.537213   0.000000
     9  C    3.009258   2.533831   1.533815   0.000000
    10  C    3.877891   2.504905   1.538447   2.538972   0.000000
    11  C    5.076747   3.879820   2.543039   3.024667   1.525397
    12  C    6.370982   5.024408   3.893502   4.415751   2.520183
    13  O    7.471970   6.232665   4.938538   5.219214   3.757972
    14  H    5.921444   7.182998   8.453797   8.660232   9.686693
    15  H    5.130879   6.535290   7.628869   7.852248   8.973182
    16  H    5.132427   6.527445   7.612151   7.551023   8.965723
    17  H    4.162280   5.194087   6.579864   7.121929   7.659616
    18  H    4.146151   5.166087   6.542104   6.771574   7.632698
    19  H    2.702980   4.124082   5.104549   5.027065   6.486969
    20  H    2.726490   4.159468   5.154030   5.491270   6.520240
    21  H    2.154004   2.750665   4.177549   4.552646   5.146128
    22  H    2.561622   3.210046   4.429278   5.392783   5.398427
    23  H    1.093951   2.168460   2.784245   2.649156   4.210245
    24  H    1.097320   2.146762   2.753773   3.348018   4.150181
    25  H    2.156347   1.097849   2.163175   3.478831   2.697164
    26  H    2.158224   1.097424   2.172943   2.800579   2.745589
    27  H    2.756622   2.150605   1.098275   2.150359   2.153599
    28  H    3.383349   2.791828   2.176572   1.094935   2.803232
    29  H    2.684788   2.809716   2.191597   1.092462   3.500802
    30  H    3.998896   3.495699   2.190314   1.091782   2.810630
    31  H    4.119062   2.700153   2.166299   3.484146   1.098357
    32  H    4.175078   2.738923   2.169902   2.802632   1.097440
    33  H    5.264176   4.221948   2.797157   2.675255   2.174022
    34  H    5.194485   4.172120   2.774685   3.365649   2.161851
    35  H    6.576554   5.180919   4.231737   5.059727   2.798657
    36  H    6.574020   5.168086   4.197726   4.572872   2.772471
    37  H    7.474799   6.328265   4.973489   5.330086   3.949524
                   11         12         13         14         15
    11  C    0.000000
    12  C    1.517273   0.000000
    13  O    2.395837   1.422298   0.000000
    14  H   10.985217  12.206543  13.374807   0.000000
    15  H   10.147882  11.459853  12.534503   1.774015   0.000000
    16  H   10.145855  11.459567  12.532944   1.774837   1.774679
    17  H    9.030225  10.150120  11.381109   2.464510   2.496676
    18  H    9.009504  10.131621  11.360993   2.478919   3.064580
    19  H    7.625925   8.957514  10.007023   3.738012   3.086382
    20  H    7.652375   8.980617  10.032228   3.721914   2.514523
    21  H    6.555524   7.624945   8.875288   4.828057   4.706627
    22  H    6.688493   7.780031   8.970217   5.101845   4.333839
    23  H    5.256014   6.615496   7.621710   6.016764   5.246725
    24  H    5.176743   6.534087   7.539334   6.104176   5.028851
    25  H    4.116123   5.086182   6.358811   7.328967   6.692141
    26  H    4.182423   5.152918   6.423837   7.279000   6.880777
    27  H    2.766369   4.177070   5.065091   8.565417   7.544309
    28  H    3.407339   4.576834   5.447167   8.751151   8.147638
    29  H    4.012242   5.455429   6.198935   7.981562   7.088530
    30  H    2.699333   4.083654   4.616795   9.639051   8.741512
    31  H    2.151007   2.753082   4.061900   9.727745   9.022867
    32  H    2.160094   2.741742   4.045094   9.771334   9.240323
    33  H    1.094370   2.120535   2.586066  11.143776  10.309304
    34  H    1.096962   2.157978   2.648243  11.076808  10.088455
    35  H    2.171317   1.093495   2.054228  12.298520  11.557216
    36  H    2.159028   1.093864   2.046217  12.295155  11.688883
    37  H    2.519476   1.946827   0.969006  13.378499  12.428418
                   16         17         18         19         20
    16  H    0.000000
    17  H    3.060493   0.000000
    18  H    2.501324   1.766125   0.000000
    19  H    2.536135   3.067682   2.502989   0.000000
    20  H    3.082470   2.501148   3.058239   1.767378   0.000000
    21  H    4.373801   3.079130   2.526562   2.514710   3.067266
    22  H    5.074162   2.811615   3.839418   3.570757   2.427864
    23  H    4.941123   4.635354   4.270197   2.405067   3.005253
    24  H    5.333571   4.366559   4.695977   3.052253   2.514459
    25  H    6.916565   5.114366   5.386325   4.684723   4.369449
    26  H    6.644817   5.360138   5.037267   4.314411   4.687881
    27  H    7.736031   6.691457   6.887871   5.288048   5.030528
    28  H    7.647505   7.271170   6.690629   5.175221   5.908088
    29  H    6.750154   6.657939   6.280335   4.272015   4.810864
    30  H    8.466539   8.139086   7.826103   5.964850   6.371622
    31  H    9.188953   7.540360   7.719847   6.800055   6.597006
    32  H    9.064328   7.785229   7.558568   6.620833   6.880158
    33  H   10.155261   9.354249   9.166415   7.619306   7.846372
    34  H   10.238775   9.123350   9.270207   7.748658   7.574212
    35  H   11.692257  10.120441  10.255937   9.242400   9.093861
    36  H   11.552502  10.271429  10.098748   9.069073   9.263218
    37  H   12.535939  11.383493  11.481838  10.024702   9.914197
                   21         22         23         24         25
    21  H    0.000000
    22  H    2.845130   0.000000
    23  H    2.478543   3.533945   0.000000
    24  H    3.066837   2.408392   1.769001   0.000000
    25  H    3.089137   2.795309   3.069658   2.486748   0.000000
    26  H    2.512263   3.809203   2.520709   3.056731   1.760831
    27  H    4.700957   4.322509   3.110964   2.516707   2.481758
    28  H    4.436930   5.806204   2.925149   3.999963   3.787517
    29  H    4.331052   5.163822   2.043393   2.925051   3.811891
    30  H    5.640043   6.301610   3.628975   4.158679   4.326920
    31  H    5.279353   5.105506   4.695488   4.290933   2.426012
    32  H    5.033215   5.783737   4.409945   4.693030   3.031466
    33  H    6.752185   7.192700   5.214258   5.425984   4.701456
    34  H    6.908923   6.635145   5.432986   5.059770   4.312514
    35  H    7.772846   7.639000   6.986935   6.679443   5.006578
    36  H    7.572959   8.079957   6.755845   6.908046   5.301194
    37  H    9.044844   8.870880   7.662842   7.400239   6.405653
                   26         27         28         29         30
    26  H    0.000000
    27  H    3.064668   0.000000
    28  H    2.611817   3.067909   0.000000
    29  H    3.187756   2.500772   1.773783   0.000000
    30  H    3.809084   2.504755   1.775287   1.732899   0.000000
    31  H    3.040255   2.486326   3.797173   4.332081   3.814537
    32  H    2.521302   3.064019   2.621268   3.812823   3.185394
    33  H    4.428480   3.123677   2.964140   3.652418   2.064693
    34  H    4.717392   2.544935   4.022966   4.173635   2.936320
    35  H    5.370133   4.406371   5.283513   6.064953   4.860665
    36  H    5.061538   4.723514   4.468510   5.660117   4.340842
    37  H    6.677460   4.886521   5.740404   6.224013   4.672670
                   31         32         33         34         35
    31  H    0.000000
    32  H    1.760396   0.000000
    33  H    3.070639   2.532125   0.000000
    34  H    2.505187   3.069268   1.750379   0.000000
    35  H    2.581135   3.111984   3.048410   2.524510   0.000000
    36  H    3.112458   2.540402   2.473069   3.068219   1.777606
    37  H    4.167036   4.468006   2.807153   2.344906   2.320327
                   36         37
    36  H    0.000000
    37  H    2.841041   0.000000
 Stoichiometry    C11H24O2
 Framework group  C1[X(C11H24O2)]
 Deg. of freedom   105
 Full point group                 C1      NOp   1
 Largest Abelian subgroup         C1      NOp   1
 Largest concise Abelian subgroup C1      NOp   1
                         Standard orientation:                         
 ---------------------------------------------------------------------
 Center     Atomic      Atomic             Coordinates (Angstroms)
 Number     Number       Type             X           Y           Z
 ---------------------------------------------------------------------
      1          6           0       -6.144880    0.537199   -0.186787
      2          6           0       -4.935138   -0.231367    0.307998
      3          6           0       -3.647082    0.409277   -0.193288
      4          6           0       -2.420906   -0.363269    0.289194
      5          8           0       -2.461649   -1.702659   -0.193108
      6          6           0       -1.159331    0.325781   -0.210559
      7          6           0        0.106243   -0.374480    0.277962
      8          6           0        1.378133    0.337566   -0.210208
      9          6           0        1.423375    1.790112    0.280354
     10          6           0        2.609815   -0.454522    0.261360
     11          6           0        3.914476    0.155708   -0.240948
     12          6           0        5.124665   -0.617849    0.248102
     13          8           0        6.306256    0.017315   -0.224485
     14          1           0       -7.062553    0.064666    0.173221
     15          1           0       -6.172107    0.553825   -1.281068
     16          1           0       -6.123693    1.570850    0.172480
     17          1           0       -5.000512   -1.268177   -0.039674
     18          1           0       -4.934199   -0.252747    1.403829
     19          1           0       -3.590536    1.449388    0.153926
     20          1           0       -3.660487    0.433406   -1.290550
     21          1           0       -2.412023   -0.400268    1.384229
     22          1           0       -2.453938   -1.669491   -1.161764
     23          1           0       -1.187128    1.360772    0.142639
     24          1           0       -1.147519    0.348517   -1.307580
     25          1           0        0.111667   -1.411456   -0.082485
     26          1           0        0.100122   -0.422462    1.374320
     27          1           0        1.369179    0.342062   -1.308437
     28          1           0        1.424334    1.828771    1.374606
     29          1           0        0.573803    2.372317   -0.083976
     30          1           0        2.305844    2.317861   -0.086687
     31          1           0        2.536365   -1.489686   -0.098400
     32          1           0        2.620056   -0.503825    1.357644
     33          1           0        4.024144    1.188912    0.102720
     34          1           0        3.909985    0.199983   -1.337007
     35          1           0        5.112449   -1.650568   -0.111165
     36          1           0        5.157422   -0.626943    1.341437
     37          1           0        6.246250    0.062105   -1.190594
 ---------------------------------------------------------------------
 Rotational constants (GHZ):           2.9348792           0.1838203           0.1769252
 Standard basis: 6-31G(2df,p) (6D, 7F)
 There are   523 symmetry adapted cartesian basis functions of A   symmetry.
 There are   484 symmetry adapted basis functions of A   symmetry.
   484 basis functions,   740 primitive gaussians,   523 cartesian basis functions
    53 alpha electrons       53 beta electrons
       nuclear repulsion energy       821.9337006801 Hartrees.
 NAtoms=   37 NActive=   37 NUniq=   37 SFac= 1.00D+00 NAtFMM=   60 NAOKFM=F Big=F
 Integral buffers will be    131072 words long.
 Raffenetti 2 integral format.
 Two-electron integral symmetry is turned on.
 One-electron integrals computed using PRISM.
 PrsmSu:  requested number of processors reduced to:  12 ShMem   1 Linda.
 NBasis=   484 RedAO= T EigKep=  4.35D-04  NBF=   484
 NBsUse=   484 1.00D-06 EigRej= -1.00D+00 NBFU=   484
 ExpMin= 1.61D-01 ExpMax= 5.48D+03 ExpMxC= 8.25D+02 IAcc=3 IRadAn=         5 AccDes= 0.00D+00
 Harris functional with IExCor=  402 and IRadAn=       5 diagonalized for initial guess.
 HarFok:  IExCor=  402 AccDes= 0.00D+00 IRadAn=         5 IDoV= 1 UseB2=F ITyADJ=14
 ICtDFT=  3500011 ScaDFX=  1.000000  1.000000  1.000000  1.000000
 FoFCou: FMM=F IPFlag=           0 FMFlag=      100000 FMFlg1=           0
         NFxFlg=           0 DoJE=T BraDBF=F KetDBF=T FulRan=T
         wScrn=  0.000000 ICntrl=       500 IOpCl=  0 I1Cent=   200000004 NGrid=           0
         NMat0=    1 NMatS0=      1 NMatT0=    0 NMatD0=    1 NMtDS0=    0 NMtDT0=    0
 Petite list used in FoFCou.
 Requested convergence on RMS density matrix=1.00D-08 within 128 cycles.
 Requested convergence on MAX density matrix=1.00D-06.
 Requested convergence on             energy=1.00D-06.
 No special actions if energy rises.
 Integral accuracy reduced to 1.0D-05 until final iterations.
 Initial convergence to 1.0D-05 achieved.  Increase integral accuracy.
 SCF Done:  E(RB3LYP) =  -584.114871575     A.U. after   12 cycles
            NFock= 12  Conv=0.32D-08     -V/T= 2.0077

 **********************************************************************

            Population analysis using the SCF density.

 **********************************************************************

 Orbital symmetries:
       Occupied  (A) (A) (A) (A) (A) (A) (A) (A) (A) (A) (A) (A)
                 (A) (A) (A) (A) (A) (A) (A) (A) (A) (A) (A) (A)
                 (A) (A) (A) (A) (A) (A) (A) (A) (A) (A) (A) (A)
                 (A) (A) (A) (A) (A) (A) (A) (A) (A) (A) (A) (A)
                 (A) (A) (A) (A) (A)
       Virtual   (A) (A) (A) (A) (A) (A) (A) (A) (A) (A) (A) (A)
                 (A) (A) (A) (A) (A) (A) (A) (A) (A) (A) (A) (A)
                 (A) (A) (A) (A) (A) (A) (A) (A) (A) (A) (A) (A)
                 (A) (A) (A) (A) (A) (A) (A) (A) (A) (A) (A) (A)
                 (A) (A) (A) (A) (A) (A) (A) (A) (A) (A) (A) (A)
                 (A) (A) (A) (A) (A) (A) (A) (A) (A) (A) (A) (A)
                 (A) (A) (A) (A) (A) (A) (A) (A) (A) (A) (A) (A)
                 (A) (A) (A) (A) (A) (A) (A) (A) (A) (A) (A) (A)
                 (A) (A) (A) (A) (A) (A) (A) (A) (A) (A) (A) (A)
                 (A) (A) (A) (A) (A) (A) (A) (A) (A) (A) (A) (A)
                 (A) (A) (A) (A) (A) (A) (A) (A) (A) (A) (A) (A)
                 (A) (A) (A) (A) (A) (A) (A) (A) (A) (A) (A) (A)
                 (A) (A) (A) (A) (A) (A) (A) (A) (A) (A) (A) (A)
                 (A) (A) (A) (A) (A) (A) (A) (A) (A) (A) (A) (A)
                 (A) (A) (A) (A) (A) (A) (A) (A) (A) (A) (A) (A)
                 (A) (A) (A) (A) (A) (A) (A) (A) (A) (A) (A) (A)
                 (A) (A) (A) (A) (A) (A) (A) (A) (A) (A) (A) (A)
                 (A) (A) (A) (A) (A) (A) (A) (A) (A) (A) (A) (A)
                 (A) (A) (A) (A) (A) (A) (A) (A) (A) (A) (A) (A)
                 (A) (A) (A) (A) (A) (A) (A) (A) (A) (A) (A) (A)
                 (A) (A) (A) (A) (A) (A) (A) (A) (A) (A) (A) (A)
                 (A) (A) (A) (A) (A) (A) (A) (A) (A) (A) (A) (A)
                 (A) (A) (A) (A) (A) (A) (A) (A) (A) (A) (A) (A)
                 (A) (A) (A) (A) (A) (A) (A) (A) (A) (A) (A) (A)
                 (A) (A) (A) (A) (A) (A) (A) (A) (A) (A) (A) (A)
                 (A) (A) (A) (A) (A) (A) (A) (A) (A) (A) (A) (A)
                 (A) (A) (A) (A) (A) (A) (A) (A) (A) (A) (A) (A)
                 (A) (A) (A) (A) (A) (A) (A) (A) (A) (A) (A) (A)
                 (A) (A) (A) (A) (A) (A) (A) (A) (A) (A) (A) (A)
                 (A) (A) (A) (A) (A) (A) (A) (A) (A) (A) (A) (A)
                 (A) (A) (A) (A) (A) (A) (A) (A) (A) (A) (A) (A)
                 (A) (A) (A) (A) (A) (A) (A) (A) (A) (A) (A) (A)
                 (A) (A) (A) (A) (A) (A) (A) (A) (A) (A) (A) (A)
                 (A) (A) (A) (A) (A) (A) (A) (A) (A) (A) (A) (A)
                 (A) (A) (A) (A) (A) (A) (A) (A) (A) (A) (A) (A)
                 (A) (A) (A) (A) (A) (A) (A) (A) (A) (A) (A)
 The electronic state is 1-A.
 Alpha  occ. eigenvalues --  -19.13083 -19.12378 -10.22330 -10.21810 -10.18229
 Alpha  occ. eigenvalues --  -10.17545 -10.17350 -10.17338 -10.17236 -10.17052
 Alpha  occ. eigenvalues --  -10.16987 -10.16899 -10.16738  -1.01342  -1.00515
 Alpha  occ. eigenvalues --   -0.82000  -0.79488  -0.77009  -0.73803  -0.69631
 Alpha  occ. eigenvalues --   -0.67104  -0.63922  -0.60372  -0.58811  -0.57602
 Alpha  occ. eigenvalues --   -0.55544  -0.49802  -0.48531  -0.46953  -0.46780
 Alpha  occ. eigenvalues --   -0.45332  -0.44689  -0.44048  -0.41861  -0.41100
 Alpha  occ. eigenvalues --   -0.40747  -0.39776  -0.39233  -0.37620  -0.36707
 Alpha  occ. eigenvalues --   -0.35590  -0.35399  -0.34757  -0.33914  -0.33199
 Alpha  occ. eigenvalues --   -0.32546  -0.32227  -0.32022  -0.31738  -0.30587
 Alpha  occ. eigenvalues --   -0.29665  -0.25963  -0.25157
 Alpha virt. eigenvalues --    0.06832   0.07883   0.08977   0.09855   0.10716
 Alpha virt. eigenvalues --    0.11423   0.12123   0.12556   0.13013   0.14180
 Alpha virt. eigenvalues --    0.14948   0.15297   0.16350   0.16821   0.17340
 Alpha virt. eigenvalues --    0.17525   0.18028   0.19199   0.19666   0.19994
 Alpha virt. eigenvalues --    0.20282   0.20610   0.20993   0.22039   0.22673
 Alpha virt. eigenvalues --    0.23045   0.23298   0.24185   0.24753   0.25630
 Alpha virt. eigenvalues --    0.27123   0.27613   0.28000   0.28670   0.33271
 Alpha virt. eigenvalues --    0.34638   0.41672   0.45310   0.46797   0.47055
 Alpha virt. eigenvalues --    0.47957   0.48624   0.49450   0.50628   0.51086
 Alpha virt. eigenvalues --    0.52020   0.52851   0.53589   0.54287   0.55718
 Alpha virt. eigenvalues --    0.57397   0.58129   0.59241   0.59500   0.60326
 Alpha virt. eigenvalues --    0.61035   0.63393   0.63656   0.63928   0.65117
 Alpha virt. eigenvalues --    0.65659   0.66464   0.68186   0.69313   0.69944
 Alpha virt. eigenvalues --    0.71681   0.71994   0.72297   0.73052   0.73630
 Alpha virt. eigenvalues --    0.73765   0.74089   0.74430   0.75127   0.75482
 Alpha virt. eigenvalues --    0.76603   0.76931   0.77807   0.78144   0.78938
 Alpha virt. eigenvalues --    0.79505   0.79688   0.80294   0.80977   0.81456
 Alpha virt. eigenvalues --    0.82428   0.83235   0.83715   0.85586   0.86157
 Alpha virt. eigenvalues --    0.86767   0.87348   0.87759   0.89522   0.89641
 Alpha virt. eigenvalues --    0.90670   0.91660   0.92584   0.93993   0.96006
 Alpha virt. eigenvalues --    0.98151   0.98875   1.00278   1.00512   1.04180
 Alpha virt. eigenvalues --    1.06582   1.07388   1.08453   1.09484   1.12077
 Alpha virt. eigenvalues --    1.12643   1.15513   1.17307   1.17644   1.17913
 Alpha virt. eigenvalues --    1.20180   1.21666   1.22667   1.24300   1.24740
 Alpha virt. eigenvalues --    1.26101   1.26839   1.27368   1.31137   1.34027
 Alpha virt. eigenvalues --    1.34996   1.35657   1.35884   1.37973   1.38247
 Alpha virt. eigenvalues --    1.40377   1.41305   1.42891   1.43117   1.46525
 Alpha virt. eigenvalues --    1.47847   1.48501   1.49385   1.51634   1.54260
 Alpha virt. eigenvalues --    1.55974   1.58051   1.58697   1.59374   1.60282
 Alpha virt. eigenvalues --    1.60981   1.61914   1.63326   1.64569   1.66122
 Alpha virt. eigenvalues --    1.67994   1.68829   1.70028   1.71253   1.72390
 Alpha virt. eigenvalues --    1.74623   1.75254   1.78038   1.79853   1.81101
 Alpha virt. eigenvalues --    1.84112   1.85336   1.85746   1.87979   1.88911
 Alpha virt. eigenvalues --    1.89749   1.90217   1.92409   1.93285   1.94561
 Alpha virt. eigenvalues --    1.95549   1.96704   1.97170   1.99601   2.01510
 Alpha virt. eigenvalues --    2.03446   2.07340   2.13778   2.15077   2.16693
 Alpha virt. eigenvalues --    2.17354   2.19764   2.20657   2.20884   2.23381
 Alpha virt. eigenvalues --    2.24387   2.27374   2.28846   2.29306   2.29957
 Alpha virt. eigenvalues --    2.31897   2.33223   2.34153   2.36640   2.37758
 Alpha virt. eigenvalues --    2.39239   2.42285   2.42925   2.45828   2.50232
 Alpha virt. eigenvalues --    2.51605   2.53096   2.53516   2.55003   2.55081
 Alpha virt. eigenvalues --    2.57819   2.61453   2.66878   2.67694   2.70310
 Alpha virt. eigenvalues --    2.71574   2.74243   2.74754   2.75097   2.75613
 Alpha virt. eigenvalues --    2.76366   2.77545   2.78488   2.78924   2.80276
 Alpha virt. eigenvalues --    2.80866   2.81221   2.82021   2.82813   2.83409
 Alpha virt. eigenvalues --    2.84124   2.84633   2.85458   2.86412   2.87240
 Alpha virt. eigenvalues --    2.88234   2.88913   2.89678   2.90114   2.91034
 Alpha virt. eigenvalues --    2.91913   2.92371   2.93610   2.94069   2.96032
 Alpha virt. eigenvalues --    2.97083   2.97195   2.98062   2.99381   3.00045
 Alpha virt. eigenvalues --    3.00795   3.01853   3.04307   3.08034   3.09056
 Alpha virt. eigenvalues --    3.10232   3.11710   3.13802   3.14630   3.16940
 Alpha virt. eigenvalues --    3.18457   3.19845   3.21413   3.22016   3.23271
 Alpha virt. eigenvalues --    3.25333   3.27354   3.29571   3.33730   3.35545
 Alpha virt. eigenvalues --    3.36652   3.37945   3.40270   3.40641   3.43072
 Alpha virt. eigenvalues --    3.44145   3.45560   3.46972   3.48393   3.48762
 Alpha virt. eigenvalues --    3.50163   3.51345   3.53565   3.54694   3.55375
 Alpha virt. eigenvalues --    3.58321   3.59662   3.60448   3.62111   3.62707
 Alpha virt. eigenvalues --    3.63297   3.66099   3.67148   3.68897   3.70499
 Alpha virt. eigenvalues --    3.71635   3.72995   3.73777   3.75679   3.76852
 Alpha virt. eigenvalues --    3.77615   3.78284   3.79631   3.81349   3.81667
 Alpha virt. eigenvalues --    3.84158   3.87879   3.89006   3.90928   3.93146
 Alpha virt. eigenvalues --    3.94054   4.00002   4.02521   4.07954   4.13455
 Alpha virt. eigenvalues --    4.13700   4.17743   4.19755   4.23755   4.26203
 Alpha virt. eigenvalues --    4.27923   4.28413   4.30692   4.32035   4.35560
 Alpha virt. eigenvalues --    4.39185   4.40009   4.41288   4.41788   4.42402
 Alpha virt. eigenvalues --    4.44486   4.45308   4.47387   4.48155   4.48807
 Alpha virt. eigenvalues --    4.50060   4.51224   4.52435   4.54410   4.55829
 Alpha virt. eigenvalues --    4.56194   4.57320   4.57982   4.58407   4.59204
 Alpha virt. eigenvalues --    4.60107   4.61481   4.62420   4.63510   4.64516
 Alpha virt. eigenvalues --    4.66992   4.67787   4.68245   4.68537   4.68790
 Alpha virt. eigenvalues --    4.70041   4.70639   4.71483   4.71973   4.72852
 Alpha virt. eigenvalues --    4.73673   4.74089   4.75164   4.76627   4.77504
 Alpha virt. eigenvalues --    4.78509   4.79155   4.80185   4.80798   4.81849
 Alpha virt. eigenvalues --    4.83267   4.84049   4.85058   4.85800   4.86872
 Alpha virt. eigenvalues --    4.87468   4.90191   4.90514   4.91227   4.91723
 Alpha virt. eigenvalues --    4.94878   4.95164   4.96262   4.97583   4.99395
 Alpha virt. eigenvalues --    5.01106   5.02592   5.06405   5.13524   5.17400
 Alpha virt. eigenvalues --    5.22921   5.23852   5.25750   5.29936   5.32448
 Alpha virt. eigenvalues --    5.33451   5.36655   5.39373   5.40562   5.41789
 Alpha virt. eigenvalues --    5.46103   5.46396   5.48730   5.49775   5.50941
 Alpha virt. eigenvalues --    5.53451   5.54525   5.56271   5.64541   5.66812
 Alpha virt. eigenvalues --    5.70781   5.72666   5.81004   5.94598   5.96889
 Alpha virt. eigenvalues --    5.99327   6.03841   6.06344   6.09875   6.11621
 Alpha virt. eigenvalues --    6.53894   7.03086   7.11200  11.13301  11.24731
 Alpha virt. eigenvalues --   11.46678  11.63749  11.90917  11.98390  12.13926
 Alpha virt. eigenvalues --   12.32504  12.35243  12.50861  12.75517  13.17102
 Alpha virt. eigenvalues --   13.34422
          Condensed to atoms (all electrons):
               1          2          3          4          5          6
     1  C    4.966486   0.398761  -0.036734   0.001433   0.000359  -0.000112
     2  C    0.398761   4.783612   0.426425  -0.027069  -0.005647   0.003465
     3  C   -0.036734   0.426425   4.902328   0.406229  -0.037922  -0.044741
     4  C    0.001433  -0.027069   0.406229   4.580855   0.343848   0.404939
     5  O    0.000359  -0.005647  -0.037922   0.343848   7.869165  -0.040568
     6  C   -0.000112   0.003465  -0.044741   0.404939  -0.040568   4.951527
     7  C    0.000001  -0.000175   0.003535  -0.029378  -0.003987   0.413874
     8  C   -0.000000   0.000001  -0.000046   0.000785   0.000353  -0.030859
     9  C    0.000000   0.000000  -0.000006   0.000596  -0.000010  -0.004496
    10  C    0.000000  -0.000000   0.000001  -0.000122   0.000005   0.001675
    11  C   -0.000000   0.000000  -0.000000   0.000000   0.000000  -0.000132
    12  C    0.000000  -0.000000   0.000000  -0.000000   0.000000   0.000000
    13  O    0.000000   0.000000  -0.000000   0.000000  -0.000000  -0.000000
    14  H    0.372748  -0.023456   0.003346  -0.000152   0.000005   0.000002
    15  H    0.378027  -0.029646  -0.005008   0.000304   0.000004   0.000008
    16  H    0.376578  -0.028050  -0.004130   0.000153  -0.000006  -0.000002
    17  H   -0.036860   0.368614  -0.032235  -0.004161   0.013161   0.000556
    18  H   -0.036739   0.369649  -0.036537  -0.001026  -0.000089   0.000211
    19  H   -0.003521  -0.034009   0.343970  -0.020577   0.003186  -0.000820
    20  H   -0.003299  -0.038742   0.345811  -0.018823  -0.004087  -0.006892
    21  H    0.000033  -0.004042  -0.051566   0.361342  -0.023067  -0.049622
    22  H   -0.000068  -0.000223  -0.003265  -0.065581   0.305537  -0.003175
    23  H   -0.000006  -0.000034  -0.000084  -0.021505   0.003300   0.342141
    24  H    0.000001   0.000079  -0.007922  -0.019915  -0.004371   0.343101
    25  H    0.000000   0.000004   0.000500  -0.003883   0.013046  -0.031382
    26  H    0.000000   0.000005   0.000137  -0.001796  -0.000137  -0.037684
    27  H    0.000000   0.000000   0.000008   0.000250   0.000003  -0.004431
    28  H    0.000000  -0.000000   0.000001  -0.000038   0.000000  -0.000363
    29  H    0.000000  -0.000000   0.000001   0.000035  -0.000001  -0.001141
    30  H   -0.000000  -0.000000  -0.000000  -0.000007   0.000000   0.000143
    31  H    0.000000   0.000000   0.000000   0.000014  -0.000006   0.000213
    32  H    0.000000   0.000000   0.000000   0.000008   0.000000   0.000148
    33  H    0.000000   0.000000   0.000000   0.000000   0.000000   0.000007
    34  H    0.000000   0.000000   0.000000   0.000000   0.000000   0.000005
    35  H    0.000000   0.000000   0.000000   0.000000   0.000000   0.000000
    36  H    0.000000   0.000000  -0.000000   0.000000   0.000000  -0.000000
    37  H    0.000000  -0.000000   0.000000   0.000000   0.000000  -0.000000
               7          8          9         10         11         12
     1  C    0.000001  -0.000000   0.000000   0.000000  -0.000000   0.000000
     2  C   -0.000175   0.000001   0.000000  -0.000000   0.000000  -0.000000
     3  C    0.003535  -0.000046  -0.000006   0.000001  -0.000000   0.000000
     4  C   -0.029378   0.000785   0.000596  -0.000122   0.000000  -0.000000
     5  O   -0.003987   0.000353  -0.000010   0.000005   0.000000   0.000000
     6  C    0.413874  -0.030859  -0.004496   0.001675  -0.000132   0.000000
     7  C    4.876209   0.407399  -0.033038  -0.033120   0.000788  -0.000094
     8  C    0.407399   4.628678   0.400732   0.415361  -0.021227   0.001166
     9  C   -0.033038   0.400732   5.013343  -0.037398  -0.003839   0.000484
    10  C   -0.033120   0.415361  -0.037398   4.927253   0.337186  -0.031433
    11  C    0.000788  -0.021227  -0.003839   0.337186   4.955944   0.415495
    12  C   -0.000094   0.001166   0.000484  -0.031433   0.415495   4.738323
    13  O    0.000000  -0.000064  -0.000002   0.003986  -0.052119   0.360617
    14  H   -0.000000   0.000000   0.000000  -0.000000   0.000000  -0.000000
    15  H    0.000000   0.000000   0.000000   0.000000   0.000000   0.000000
    16  H    0.000000   0.000000  -0.000000   0.000000   0.000000   0.000000
    17  H    0.000002   0.000000   0.000000   0.000000  -0.000000  -0.000000
    18  H    0.000006   0.000000   0.000000   0.000000   0.000000   0.000000
    19  H   -0.000010  -0.000002  -0.000006   0.000000   0.000000   0.000000
    20  H    0.000154   0.000001  -0.000000   0.000000   0.000000  -0.000000
    21  H   -0.003667   0.000100  -0.000013   0.000005   0.000000   0.000000
    22  H   -0.000382  -0.000063   0.000003  -0.000000  -0.000000  -0.000000
    23  H   -0.029986  -0.005879  -0.000208   0.000141   0.000006   0.000000
    24  H   -0.035345  -0.002409  -0.001169   0.000169   0.000007   0.000000
    25  H    0.350928  -0.026205   0.005018  -0.003514   0.000157   0.000006
    26  H    0.355475  -0.026049  -0.009220  -0.004997   0.000125   0.000004
    27  H   -0.040786   0.358589  -0.052864  -0.041639  -0.004868   0.000072
    28  H   -0.005388  -0.026113   0.371508  -0.005269  -0.000372  -0.000041
    29  H   -0.004441  -0.023575   0.371954   0.004093   0.000221  -0.000006
    30  H    0.003879  -0.023667   0.371544  -0.005043   0.000301  -0.000097
    31  H   -0.002401  -0.025431   0.005358   0.356098  -0.035037  -0.003187
    32  H   -0.004159  -0.025474  -0.008709   0.360160  -0.036723  -0.004122
    33  H    0.000168  -0.005187   0.000178  -0.023564   0.357529  -0.030244
    34  H    0.000254  -0.002255  -0.000942  -0.028092   0.357963  -0.037610
    35  H    0.000015  -0.000070  -0.000010   0.004396  -0.048689   0.360747
    36  H    0.000008  -0.000028  -0.000002  -0.004078  -0.023348   0.357845
    37  H    0.000000  -0.000004  -0.000000  -0.000202  -0.002021  -0.068349
              13         14         15         16         17         18
     1  C    0.000000   0.372748   0.378027   0.376578  -0.036860  -0.036739
     2  C    0.000000  -0.023456  -0.029646  -0.028050   0.368614   0.369649
     3  C   -0.000000   0.003346  -0.005008  -0.004130  -0.032235  -0.036537
     4  C    0.000000  -0.000152   0.000304   0.000153  -0.004161  -0.001026
     5  O   -0.000000   0.000005   0.000004  -0.000006   0.013161  -0.000089
     6  C   -0.000000   0.000002   0.000008  -0.000002   0.000556   0.000211
     7  C    0.000000  -0.000000   0.000000   0.000000   0.000002   0.000006
     8  C   -0.000064   0.000000   0.000000   0.000000   0.000000   0.000000
     9  C   -0.000002   0.000000   0.000000  -0.000000   0.000000   0.000000
    10  C    0.003986  -0.000000   0.000000   0.000000   0.000000   0.000000
    11  C   -0.052119   0.000000   0.000000   0.000000  -0.000000   0.000000
    12  C    0.360617  -0.000000   0.000000   0.000000  -0.000000   0.000000
    13  O    7.845755   0.000000   0.000000   0.000000   0.000000   0.000000
    14  H    0.000000   0.608963  -0.031822  -0.032105  -0.001945  -0.002370
    15  H    0.000000  -0.031822   0.607620  -0.034157  -0.004199   0.005801
    16  H    0.000000  -0.032105  -0.034157   0.607571   0.005463  -0.004605
    17  H    0.000000  -0.001945  -0.004199   0.005463   0.623317  -0.038137
    18  H    0.000000  -0.002370   0.005801  -0.004605  -0.038137   0.646758
    19  H    0.000000  -0.000020  -0.000371   0.005036   0.006357  -0.004956
    20  H    0.000000  -0.000070   0.005446  -0.000408  -0.005075   0.006492
    21  H   -0.000000   0.000003   0.000012   0.000008  -0.000327   0.005374
    22  H   -0.000000   0.000001  -0.000007   0.000002   0.000070   0.000049
    23  H    0.000000   0.000000   0.000000   0.000000  -0.000021  -0.000005
    24  H    0.000000   0.000000  -0.000002   0.000001  -0.000003   0.000011
    25  H    0.000000  -0.000000  -0.000000   0.000000  -0.000006  -0.000000
    26  H    0.000000   0.000000  -0.000000   0.000000  -0.000000  -0.000002
    27  H   -0.000001  -0.000000  -0.000000   0.000000  -0.000000  -0.000000
    28  H    0.000000  -0.000000   0.000000   0.000000  -0.000000  -0.000000
    29  H   -0.000000  -0.000000  -0.000000   0.000000  -0.000000   0.000000
    30  H   -0.000004   0.000000  -0.000000  -0.000000  -0.000000   0.000000
    31  H    0.000024   0.000000   0.000000  -0.000000   0.000000   0.000000
    32  H    0.000055  -0.000000   0.000000  -0.000000  -0.000000   0.000000
    33  H    0.005307   0.000000  -0.000000   0.000000  -0.000000  -0.000000
    34  H   -0.000961   0.000000   0.000000  -0.000000  -0.000000   0.000000
    35  H   -0.029820   0.000000  -0.000000   0.000000  -0.000000  -0.000000
    36  H   -0.014879   0.000000   0.000000  -0.000000  -0.000000   0.000000
    37  H    0.309897   0.000000   0.000000   0.000000   0.000000   0.000000
              19         20         21         22         23         24
     1  C   -0.003521  -0.003299   0.000033  -0.000068  -0.000006   0.000001
     2  C   -0.034009  -0.038742  -0.004042  -0.000223  -0.000034   0.000079
     3  C    0.343970   0.345811  -0.051566  -0.003265  -0.000084  -0.007922
     4  C   -0.020577  -0.018823   0.361342  -0.065581  -0.021505  -0.019915
     5  O    0.003186  -0.004087  -0.023067   0.305537   0.003300  -0.004371
     6  C   -0.000820  -0.006892  -0.049622  -0.003175   0.342141   0.343101
     7  C   -0.000010   0.000154  -0.003667  -0.000382  -0.029986  -0.035345
     8  C   -0.000002   0.000001   0.000100  -0.000063  -0.005879  -0.002409
     9  C   -0.000006  -0.000000  -0.000013   0.000003  -0.000208  -0.001169
    10  C    0.000000   0.000000   0.000005  -0.000000   0.000141   0.000169
    11  C    0.000000   0.000000   0.000000  -0.000000   0.000006   0.000007
    12  C    0.000000  -0.000000   0.000000  -0.000000   0.000000   0.000000
    13  O    0.000000   0.000000  -0.000000  -0.000000   0.000000   0.000000
    14  H   -0.000020  -0.000070   0.000003   0.000001   0.000000   0.000000
    15  H   -0.000371   0.005446   0.000012  -0.000007   0.000000  -0.000002
    16  H    0.005036  -0.000408   0.000008   0.000002   0.000000   0.000001
    17  H    0.006357  -0.005075  -0.000327   0.000070  -0.000021  -0.000003
    18  H   -0.004956   0.006492   0.005374   0.000049  -0.000005   0.000011
    19  H    0.651928  -0.037952  -0.000775  -0.000100   0.003155   0.000098
    20  H   -0.037952   0.661936   0.006441   0.005258   0.000000   0.005504
    21  H   -0.000775   0.006441   0.655939   0.007279  -0.001142   0.006479
    22  H   -0.000100   0.005258   0.007279   0.472428  -0.000146   0.005505
    23  H    0.003155   0.000000  -0.001142  -0.000146   0.647981  -0.038618
    24  H    0.000098   0.005504   0.006479   0.005505  -0.038618   0.663436
    25  H   -0.000021  -0.000003  -0.000265   0.000069   0.006389  -0.005110
    26  H   -0.000002   0.000012   0.005602   0.000054  -0.004133   0.006556
    27  H   -0.000000  -0.000002   0.000013  -0.000010   0.000027   0.005958
    28  H   -0.000000  -0.000000   0.000010  -0.000000   0.001121   0.000118
    29  H   -0.000012   0.000003   0.000031   0.000001   0.003350   0.001038
    30  H    0.000000   0.000000  -0.000000  -0.000000  -0.000244  -0.000043
    31  H    0.000000   0.000000   0.000001   0.000001   0.000002  -0.000007
    32  H    0.000000  -0.000000  -0.000001  -0.000000   0.000005   0.000011
    33  H   -0.000000  -0.000000  -0.000000  -0.000000  -0.000000   0.000000
    34  H    0.000000   0.000000  -0.000000  -0.000000   0.000000  -0.000002
    35  H   -0.000000  -0.000000   0.000000  -0.000000  -0.000000   0.000000
    36  H    0.000000   0.000000  -0.000000   0.000000  -0.000000  -0.000000
    37  H    0.000000   0.000000  -0.000000   0.000000  -0.000000  -0.000000
              25         26         27         28         29         30
     1  C    0.000000   0.000000   0.000000   0.000000   0.000000  -0.000000
     2  C    0.000004   0.000005   0.000000  -0.000000  -0.000000  -0.000000
     3  C    0.000500   0.000137   0.000008   0.000001   0.000001  -0.000000
     4  C   -0.003883  -0.001796   0.000250  -0.000038   0.000035  -0.000007
     5  O    0.013046  -0.000137   0.000003   0.000000  -0.000001   0.000000
     6  C   -0.031382  -0.037684  -0.004431  -0.000363  -0.001141   0.000143
     7  C    0.350928   0.355475  -0.040786  -0.005388  -0.004441   0.003879
     8  C   -0.026205  -0.026049   0.358589  -0.026113  -0.023575  -0.023667
     9  C    0.005018  -0.009220  -0.052864   0.371508   0.371954   0.371544
    10  C   -0.003514  -0.004997  -0.041639  -0.005269   0.004093  -0.005043
    11  C    0.000157   0.000125  -0.004868  -0.000372   0.000221   0.000301
    12  C    0.000006   0.000004   0.000072  -0.000041  -0.000006  -0.000097
    13  O    0.000000   0.000000  -0.000001   0.000000  -0.000000  -0.000004
    14  H   -0.000000   0.000000  -0.000000  -0.000000  -0.000000   0.000000
    15  H   -0.000000  -0.000000  -0.000000   0.000000  -0.000000  -0.000000
    16  H    0.000000   0.000000   0.000000   0.000000   0.000000  -0.000000
    17  H   -0.000006  -0.000000  -0.000000  -0.000000  -0.000000  -0.000000
    18  H   -0.000000  -0.000002  -0.000000  -0.000000   0.000000   0.000000
    19  H   -0.000021  -0.000002  -0.000000  -0.000000  -0.000012   0.000000
    20  H   -0.000003   0.000012  -0.000002  -0.000000   0.000003   0.000000
    21  H   -0.000265   0.005602   0.000013   0.000010   0.000031  -0.000000
    22  H    0.000069   0.000054  -0.000010  -0.000000   0.000001  -0.000000
    23  H    0.006389  -0.004133   0.000027   0.001121   0.003350  -0.000244
    24  H   -0.005110   0.006556   0.005958   0.000118   0.001038  -0.000043
    25  H    0.633190  -0.038662  -0.003928  -0.000004  -0.000035  -0.000176
    26  H   -0.038662   0.650745   0.006859   0.005293   0.000088  -0.000072
    27  H   -0.003928   0.006859   0.706109   0.006367  -0.003158  -0.002887
    28  H   -0.000004   0.005293   0.006367   0.604495  -0.033806  -0.033127
    29  H   -0.000035   0.000088  -0.003158  -0.033806   0.602288  -0.030591
    30  H   -0.000176  -0.000072  -0.002887  -0.033127  -0.030591   0.601345
    31  H    0.005349  -0.000345  -0.004283  -0.000018  -0.000184  -0.000048
    32  H   -0.000312   0.005167   0.006791   0.005101  -0.000074   0.000091
    33  H    0.000003   0.000007  -0.000073   0.000894  -0.000207   0.003536
    34  H   -0.000004   0.000010   0.005521   0.000101  -0.000049   0.001055
    35  H   -0.000001   0.000001   0.000004   0.000001   0.000000  -0.000004
    36  H    0.000001  -0.000001   0.000008   0.000003  -0.000000   0.000030
    37  H    0.000000  -0.000000  -0.000002  -0.000000   0.000000   0.000005
              31         32         33         34         35         36
     1  C    0.000000   0.000000   0.000000   0.000000   0.000000   0.000000
     2  C    0.000000   0.000000   0.000000   0.000000   0.000000   0.000000
     3  C    0.000000   0.000000   0.000000   0.000000   0.000000  -0.000000
     4  C    0.000014   0.000008   0.000000   0.000000   0.000000   0.000000
     5  O   -0.000006   0.000000   0.000000   0.000000   0.000000   0.000000
     6  C    0.000213   0.000148   0.000007   0.000005   0.000000  -0.000000
     7  C   -0.002401  -0.004159   0.000168   0.000254   0.000015   0.000008
     8  C   -0.025431  -0.025474  -0.005187  -0.002255  -0.000070  -0.000028
     9  C    0.005358  -0.008709   0.000178  -0.000942  -0.000010  -0.000002
    10  C    0.356098   0.360160  -0.023564  -0.028092   0.004396  -0.004078
    11  C   -0.035037  -0.036723   0.357529   0.357963  -0.048689  -0.023348
    12  C   -0.003187  -0.004122  -0.030244  -0.037610   0.360747   0.357845
    13  O    0.000024   0.000055   0.005307  -0.000961  -0.029820  -0.014879
    14  H    0.000000  -0.000000   0.000000   0.000000   0.000000   0.000000
    15  H    0.000000   0.000000  -0.000000   0.000000  -0.000000   0.000000
    16  H   -0.000000  -0.000000   0.000000  -0.000000   0.000000  -0.000000
    17  H    0.000000  -0.000000  -0.000000  -0.000000  -0.000000  -0.000000
    18  H    0.000000   0.000000  -0.000000   0.000000  -0.000000   0.000000
    19  H    0.000000   0.000000  -0.000000   0.000000  -0.000000   0.000000
    20  H    0.000000  -0.000000  -0.000000   0.000000  -0.000000   0.000000
    21  H    0.000001  -0.000001  -0.000000  -0.000000   0.000000  -0.000000
    22  H    0.000001  -0.000000  -0.000000  -0.000000  -0.000000   0.000000
    23  H    0.000002   0.000005  -0.000000   0.000000  -0.000000  -0.000000
    24  H   -0.000007   0.000011   0.000000  -0.000002   0.000000  -0.000000
    25  H    0.005349  -0.000312   0.000003  -0.000004  -0.000001   0.000001
    26  H   -0.000345   0.005167   0.000007   0.000010   0.000001  -0.000001
    27  H   -0.004283   0.006791  -0.000073   0.005521   0.000004   0.000008
    28  H   -0.000018   0.005101   0.000894   0.000101   0.000001   0.000003
    29  H   -0.000184  -0.000074  -0.000207  -0.000049   0.000000  -0.000000
    30  H   -0.000048   0.000091   0.003536   0.001055  -0.000004   0.000030
    31  H    0.650873  -0.041814   0.006143  -0.005742   0.005126  -0.000550
    32  H   -0.041814   0.644992  -0.004794   0.006362  -0.000504   0.004776
    33  H    0.006143  -0.004794   0.625324  -0.046278   0.007148  -0.007147
    34  H   -0.005742   0.006362  -0.046278   0.665672  -0.007261   0.006169
    35  H    0.005126  -0.000504   0.007148  -0.007261   0.679058  -0.049387
    36  H   -0.000550   0.004776  -0.007147   0.006169  -0.049387   0.612263
    37  H    0.000016   0.000028  -0.000466   0.007129  -0.004542   0.007019
              37
     1  C    0.000000
     2  C   -0.000000
     3  C    0.000000
     4  C    0.000000
     5  O    0.000000
     6  C   -0.000000
     7  C    0.000000
     8  C   -0.000004
     9  C   -0.000000
    10  C   -0.000202
    11  C   -0.002021
    12  C   -0.068349
    13  O    0.309897
    14  H    0.000000
    15  H    0.000000
    16  H    0.000000
    17  H    0.000000
    18  H    0.000000
    19  H    0.000000
    20  H    0.000000
    21  H   -0.000000
    22  H    0.000000
    23  H   -0.000000
    24  H   -0.000000
    25  H    0.000000
    26  H   -0.000000
    27  H   -0.000002
    28  H   -0.000000
    29  H    0.000000
    30  H    0.000005
    31  H    0.000016
    32  H    0.000028
    33  H   -0.000466
    34  H    0.007129
    35  H   -0.004542
    36  H    0.007019
    37  H    0.473043
 Mulliken charges:
               1
     1  C   -0.377087
     2  C   -0.159522
     3  C   -0.172097
     4  C    0.113243
     5  O   -0.432075
     6  C   -0.205595
     7  C   -0.186337
     8  C    0.031444
     9  C   -0.388786
    10  C   -0.192057
    11  C   -0.197347
    12  C   -0.059577
    13  O   -0.427792
    14  H    0.106873
    15  H    0.107991
    16  H    0.108648
    17  H    0.105431
    18  H    0.090118
    19  H    0.089426
    20  H    0.078294
    21  H    0.085815
    22  H    0.276764
    23  H    0.094391
    24  H    0.076844
    25  H    0.098852
    26  H    0.086961
    27  H    0.062351
    28  H    0.109526
    29  H    0.114178
    30  H    0.114083
    31  H    0.089838
    32  H    0.092989
    33  H    0.111718
    34  H    0.078955
    35  H    0.083792
    36  H    0.111299
    37  H    0.278449
 Sum of Mulliken charges =  -0.00000
 Mulliken charges with hydrogens summed into heavy atoms:
               1
     1  C   -0.053575
     2  C    0.036027
     3  C   -0.004377
     4  C    0.199058
     5  O   -0.155311
     6  C   -0.034361
     7  C   -0.000524
     8  C    0.093795
     9  C   -0.051000
    10  C   -0.009229
    11  C   -0.006674
    12  C    0.135514
    13  O   -0.149343
 Electronic spatial extent (au):  <R**2>=           6102.4286
 Charge=             -0.0000 electrons
 Dipole moment (field-independent basis, Debye):
    X=             -1.2680    Y=              0.6407    Z=             -1.7121  Tot=              2.2248
 Quadrupole moment (field-independent basis, Debye-Ang):
   XX=           -101.9406   YY=            -87.5486   ZZ=            -78.1253
   XY=             -4.3717   XZ=             -4.2389   YZ=              2.3545
 Traceless Quadrupole moment (field-independent basis, Debye-Ang):
   XX=            -12.7357   YY=              1.6562   ZZ=             11.0795
   XY=             -4.3717   XZ=             -4.2389   YZ=              2.3545
 Octapole moment (field-independent basis, Debye-Ang**2):
  XXX=           -105.2596  YYY=             -2.1894  ZZZ=             -7.0220  XYY=             13.3510
  XXY=            -11.5639  XXZ=            -43.1343  XZZ=             16.1461  YZZ=             -6.8755
  YYZ=             -5.2461  XYZ=             -7.4391
 Hexadecapole moment (field-independent basis, Debye-Ang**3):
 XXXX=          -8496.8889 YYYY=           -500.2855 ZZZZ=           -191.8128 XXXY=            -10.3206
 XXXZ=           -276.0035 YYYX=             -0.3393 YYYZ=             11.8407 ZZZX=            -14.3751
 ZZZY=              7.0577 XXYY=          -1316.7735 XXZZ=          -1119.5533 YYZZ=           -111.2564
 XXYZ=             12.5522 YYXZ=              2.7165 ZZXY=             17.2974
 N-N= 8.219337006801D+02 E-N=-3.001914627060D+03  KE= 5.796232371270D+02
 PrsmSu:  requested number of processors reduced to:  13 ShMem   1 Linda.
 Calling FoFJK, ICntrl=      2127 FMM=F ISym2X=0 I1Cent= 0 IOpClX= 0 NMat=1 NMatS=1 NMatT=0.
 ***** Axes restored to original set *****
 -------------------------------------------------------------------
 Center     Atomic                   Forces (Hartrees/Bohr)
 Number     Number              X              Y              Z
 -------------------------------------------------------------------
      1        6          -0.004381680    0.001564714   -0.005566832
      2        6          -0.005120190    0.000402503    0.002087179
      3        6           0.004043435    0.000791871   -0.012441666
      4        6          -0.011525504    0.005578236    0.022397819
      5        8           0.003989024    0.005399100   -0.006158095
      6        6           0.009253620   -0.003425343   -0.008484038
      7        6          -0.003007026   -0.000582593    0.008833715
      8        6           0.005201508   -0.001653693   -0.010207317
      9        6          -0.002464452   -0.000516033    0.004980002
     10        6          -0.006587622   -0.000150694    0.007807617
     11        6           0.003023923   -0.000520523   -0.009648178
     12        6          -0.003921498    0.000217567    0.018259394
     13        8           0.006836360   -0.003779389    0.004620624
     14        1          -0.003975703   -0.000082477    0.000054704
     15        1          -0.001812461   -0.000126422    0.000015571
     16        1          -0.002151538    0.000013490    0.000150236
     17        1           0.003060251   -0.001846523    0.000047782
     18        1           0.001447189    0.000468866   -0.000896502
     19        1          -0.000133791    0.000393977    0.000773197
     20        1           0.000812043   -0.000709855    0.002433357
     21        1           0.002102822    0.004096081   -0.001782916
     22        1           0.001119149   -0.004537196   -0.004253761
     23        1          -0.000198382    0.000018211    0.001956345
     24        1          -0.003772097    0.000501848   -0.000054165
     25        1          -0.001344135   -0.001517282   -0.001352456
     26        1           0.000920832   -0.001103351    0.000013070
     27        1           0.000083280    0.000776784    0.000873851
     28        1          -0.000000124   -0.001325183   -0.000265696
     29        1          -0.000184465    0.000210052   -0.002036209
     30        1           0.002211863   -0.001113813   -0.000452126
     31        1          -0.000554046   -0.000220277   -0.001140300
     32        1          -0.000404405   -0.000646518   -0.000628758
     33        1           0.001153751    0.000082621   -0.000406828
     34        1           0.000840704    0.002466361    0.001146021
     35        1           0.000364638    0.005044535   -0.006213303
     36        1           0.002240205   -0.001216021    0.001773378
     37        1           0.002834525   -0.002953632   -0.006234715
 -------------------------------------------------------------------
 Cartesian Forces:  Max     0.022397819 RMS     0.004608401

 GradGradGradGradGradGradGradGradGradGradGradGradGradGradGradGradGradGrad
 Berny optimization.
 FormGI is forming the generalized inverse of G from B-inverse, IUseBI=4.
 Internal  Forces:  Max     0.018332554 RMS     0.003921163
 Search for a local minimum.
 Step number   1 out of a maximum of  210
 All quantities printed in internal units (Hartrees-Bohrs-Radians)
 Mixed Optimization -- RFO/linear search
 Second derivative matrix not updated -- first step.
 ITU=  0
     Eigenvalues ---    0.00257   0.00274   0.00319   0.00403   0.00413
     Eigenvalues ---    0.00430   0.00456   0.00477   0.00537   0.00551
     Eigenvalues ---    0.01372   0.01397   0.03553   0.03589   0.03599
     Eigenvalues ---    0.03670   0.03695   0.03733   0.03843   0.04607
     Eigenvalues ---    0.04620   0.04828   0.04837   0.04851   0.04908
     Eigenvalues ---    0.04927   0.04932   0.04960   0.04994   0.05278
     Eigenvalues ---    0.05372   0.05403   0.05689   0.05768   0.05778
     Eigenvalues ---    0.07093   0.08071   0.08117   0.08191   0.08227
     Eigenvalues ---    0.08254   0.08294   0.11434   0.11988   0.12034
     Eigenvalues ---    0.12100   0.12112   0.12147   0.12153   0.13730
     Eigenvalues ---    0.16000   0.16000   0.16000   0.16000   0.16000
     Eigenvalues ---    0.16000   0.16000   0.16000   0.16226   0.16348
     Eigenvalues ---    0.16808   0.19814   0.21862   0.21891   0.21894
     Eigenvalues ---    0.21897   0.21899   0.21931   0.22013   0.28657
     Eigenvalues ---    0.28767   0.29074   0.29660   0.29734   0.29853
     Eigenvalues ---    0.30040   0.30186   0.30631   0.30732   0.33864
     Eigenvalues ---    0.33874   0.33905   0.33921   0.33948   0.33967
     Eigenvalues ---    0.33969   0.33980   0.34020   0.34124   0.34163
     Eigenvalues ---    0.34184   0.34249   0.34270   0.34296   0.34312
     Eigenvalues ---    0.34360   0.34370   0.34412   0.34449   0.34530
     Eigenvalues ---    0.34607   0.41839   0.42116   0.53530   0.53581
 RFO step:  Lambda=-1.68948285D-02 EMin= 2.57373585D-03
 Linear search not attempted -- first point.
 Iteration  1 RMS(Cart)=  0.15564156 RMS(Int)=  0.00361721
 Iteration  2 RMS(Cart)=  0.01097367 RMS(Int)=  0.00046326
 Iteration  3 RMS(Cart)=  0.00006018 RMS(Int)=  0.00046293
 Iteration  4 RMS(Cart)=  0.00000001 RMS(Int)=  0.00046293
 Variable       Old X    -DE/DX   Delta X   Delta X   Delta X     New X
                                 (Linear)    (Quad)   (Total)
    R1        2.86528   0.01229   0.00000   0.03790   0.03790   2.90318
    R2        2.06579   0.00131   0.00000   0.00363   0.00363   2.06941
    R3        2.06877   0.00059   0.00000   0.00163   0.00163   2.07040
    R4        2.06833   0.00075   0.00000   0.00209   0.00209   2.07041
    R5        2.87884   0.00829   0.00000   0.02614   0.02614   2.90498
    R6        2.07020  -0.00076   0.00000  -0.00211  -0.00211   2.06809
    R7        2.07122   0.00094   0.00000   0.00263   0.00263   2.07385
[...]
 00036,0.00000456,0.00001321,0.00000940,-0.00001464,-0.00000974,-0.0000
 2759,0.00000521,-0.00004014,-0.00008274,0.00003807,-0.00003078,-0.0001
 0426,-0.00012604,0.00060583,0.00051956,0.00061341,-0.00072122,-0.00003
 225,-0.00077242,0.00239866,0.01479127,-0.00280868,-0.05196026,-0.03693
 434,0.00950932,-0.00932275,-0.03568273,0.00823183,0.00375124,0.0021834
 0,0.00064196,0.00000085,-0.00000059,0.00000075,0.00000003,0.00000030,-
 0.00000027,-0.00000048,-0.00000024,-0.00000055,0.00000009,-0.00000132,
 0.00000066,0.00000018,0.00000024,0.00000052,-0.00000215,-0.00000170,-0
 .00000150,0.00000024,0.00000045,-0.00000018,-0.00000043,-0.00000013,0.
 00000147,0.00000705,0.00000381,0.00000324,-0.00006158,0.00000661,-0.00
 002216,-0.00000009,0.00000500,0.00000103,0.00001806,-0.00015783,0.0001
 1877,0.00001053,0.00000105,-0.00001476,-0.00005915,-0.00002485,-0.0000
 6766,0.00001050,-0.00004320,0.00006055,0.00009886,-0.00006921,0.000203
 16,-0.00174540,-0.00059604,-0.00029818,-0.00106567,0.00046406,-0.00285
 667,0.00046229,-0.00065855,0.00055823,0.06093253,-0.00000262,-0.000002
 58,0.00000309,0.00000608,0.00000035,-0.00000393,0.00000126,-0.00001479
 ,0.00001283,0.00002287,-0.00002107,0.00000713,0.00004528,0.00004607,0.
 00000292,-0.00005877,-0.00003674,0.00002095,0.00024851,0.00002663,0.00
 004514,-0.00062821,-0.00057319,0.00027868,-0.00076085,-0.00045445,0.00
 060437,-0.00053826,-0.00644134,0.00159668,-0.03783244,-0.28628555,0.05
 345749,-0.00112016,-0.00731285,0.00236224,0.00072536,0.00182501,-0.001
 43190,0.00000233,-0.00000055,0.00000057,0.00000014,-0.00000063,-0.0000
 0031,0.00000236,0.00000253,0.00000026,-0.00000128,0.00000387,-0.000002
 11,-0.00000036,-0.00000053,0.00000051,0.00000530,0.00000651,0.00000264
 ,0.00000021,-0.00000155,0.00000037,-0.00000208,0.00000264,-0.00000271,
 -0.00002219,-0.00000293,-0.00000811,0.00006898,0.00005539,0.00001798,0
 .00000254,-0.00000770,-0.00000078,0.00002531,0.00014904,-0.00009193,-0
 .00000735,-0.00000721,0.00001689,-0.00000058,0.00006582,0.00005791,0.0
 0001775,-0.00000554,-0.00010888,-0.00011285,0.00030314,-0.00041508,-0.
 00049005,0.00060343,-0.00099802,0.00039821,0.00135096,0.00122418,0.000
 14247,0.00091734,0.00033172,0.04442914,0.31113210,0.00000227,0.0000015
 0,-0.00000265,-0.00000393,0.00000057,0.00000404,-0.00000101,0.00000728
 ,-0.00000767,0.00001917,0.00001255,0.00000656,-0.00004446,-0.00002338,
 -0.00001040,-0.00001180,-0.00013504,0.00001704,-0.00005867,0.00010592,
 -0.00004587,0.00086283,0.00002728,0.00054215,-0.00014208,0.00008316,-0
 .00006621,0.00508327,0.02874657,-0.00720560,0.01071225,0.05280448,-0.0
 6069210,-0.00008335,0.00233096,-0.00118334,0.00028926,-0.00073361,0.00
 055406,-0.00000215,0.00000070,-0.00000090,-0.00000039,0.00000016,0.000
 00040,-0.00000182,-0.00000153,0.00000022,0.00000165,-0.00000266,0.0000
 0110,0.00000037,0.00000049,-0.00000070,-0.00000336,-0.00000274,-0.0000
 0093,-0.00000102,0.00000080,0.00000018,0.00000190,-0.00000012,0.000001
 41,0.00001597,-0.00000433,0.00000275,-0.00009864,-0.00001192,-0.000016
 55,-0.00001247,0.00001007,0.00000346,0.00001800,-0.00025852,0.00012997
 ,0.00002560,0.00000523,-0.00001436,-0.00015416,-0.00003483,0.00005117,
 -0.00004264,-0.00007494,-0.00016626,0.00011939,-0.00023337,0.00014458,
 -0.00048630,-0.00024557,0.00047767,-0.00280128,0.00169849,-0.00482738,
 0.00073913,-0.00035552,0.00127797,-0.00987151,-0.06120168,0.06565566,-
 0.00000012,-0.00000047,0.00000145,0.00000296,0.00000072,-0.00000093,-0
 .00000125,-0.00000442,0.00000764,0.00002325,0.00001725,-0.00000158,-0.
 00000833,-0.00001244,-0.00000186,0.00000528,0.00000522,0.00009461,0.00
 015104,0.00000889,-0.00019933,0.00147513,-0.00096059,-0.00070258,-0.00
 003253,-0.00002035,0.00006060,0.00480870,-0.00854413,-0.01150045,-0.08
 520816,0.05393835,0.07083968,-0.01721843,0.02042435,0.02678551,0.00352
 757,-0.00106510,0.00022257,0.00000047,0.00000003,0.00000007,0.00000022
 ,-0.00000013,-0.00000044,-0.00000021,-0.00000018,-0.00000006,-0.000000
 04,-0.00000065,0.00000046,0.00000012,-0.00000024,-0.00000035,-0.000001
 08,-0.00000065,-0.00000024,0.00000024,-0.00000016,-0.00000126,0.000002
 70,-0.00000287,0.00000319,0.00000408,0.00000402,0.00000096,-0.00000309
 ,-0.00000114,0.00000167,-0.00003254,0.00001052,0.00000440,0.00000343,-
 0.00000910,0.00001294,-0.00011185,0.00008215,0.00009557,-0.00000802,0.
 00029770,0.00028586,0.00004508,0.00009374,0.00006404,-0.00003029,-0.00
 000608,0.00003824,0.00003712,-0.00003613,0.00005315,0.00027852,0.00007
 633,0.00075402,-0.00101547,0.00077639,-0.00303592,0.00181155,-0.003011
 88,-0.00401963,0.09682863,0.00000192,0.00000094,-0.00000416,-0.0000056
 9,-0.00000072,0.00000379,0.00000136,0.00000557,-0.00001687,-0.00001940
 ,-0.00000555,0.00001953,-0.00001621,0.00000784,-0.00000732,-0.00000464
 ,-0.00001156,-0.00010552,-0.00028657,0.00011020,0.00019467,0.00010373,
 0.00031432,-0.00022614,-0.00024813,0.00001359,0.00003128,-0.00278443,0
 .00392954,0.00578720,0.05342029,-0.12700944,-0.09880125,-0.00337986,0.
 00304839,0.00391706,0.00042243,-0.00011234,0.00151371,-0.00000225,0.00
 000059,-0.00000074,-0.00000087,0.00000113,0.00000138,-0.00000055,-0.00
 000089,-0.00000004,0.00000103,-0.00000040,0.00000027,-0.00000036,0.000
 00033,0.00000128,0.00000071,-0.00000058,-0.00000075,-0.00000175,0.0000
 0352,0.00000272,-0.00000055,-0.00000162,0.00000280,0.00000833,-0.00000
 516,-0.00000081,-0.00000892,0.00000051,-0.00000037,-0.00000190,0.00001
 499,0.00000541,-0.00000151,-0.00004529,0.00002855,0.00006538,-0.000068
 71,0.00004348,-0.00035846,0.00013965,-0.00009969,0.00008331,0.00001908
 ,0.00016241,-0.00009095,0.00003574,-0.00004713,0.00013871,-0.00017084,
 -0.00014138,-0.00051233,0.00078812,-0.00039277,0.00063553,0.00106885,0
 .00162010,0.01278977,-0.01736063,-0.02307417,-0.06031578,0.13287913,0.
 00000299,0.00000106,-0.00000545,-0.00000676,-0.00000389,0.00000271,0.0
 0000530,0.00000622,-0.00002195,0.00000076,-0.00004313,0.00002486,-0.00
 001065,0.00004572,-0.00000049,-0.00002266,0.00004667,0.00001211,-0.000
 09757,0.00029537,0.00022173,0.00215984,-0.00067773,0.00071652,-0.00032
 745,0.00001073,0.00004981,0.01039485,-0.01724539,-0.02404546,0.0707787
 4,-0.09803797,-0.17342449,-0.00023220,-0.00107032,-0.00352644,0.000053
 19,0.00059194,0.00279552,-0.00000306,0.00000070,-0.00000121,-0.0000022
 7,0.00000153,0.00000265,-0.00000019,-0.00000035,0.00000013,0.00000146,
 0.00000090,-0.00000096,-0.00000053,0.00000169,0.00000349,0.00000327,0.
 00000180,0.00000002,-0.00000493,0.00000486,0.00000566,0.00000530,0.000
 00212,0.00001076,-0.00001138,-0.00001521,-0.00001021,-0.00000970,-0.00
 000047,0.00000457,-0.00007569,0.00002903,0.00000709,0.00004211,-0.0000
 2864,-0.00004078,0.00008940,0.00003695,0.00034379,-0.00124247,0.000506
 05,0.00062775,0.00011569,0.00019322,0.00008349,-0.00007878,-0.00007168
 ,0.00001816,-0.00000522,-0.00012629,-0.00006910,0.00036949,0.00036492,
 0.00100746,-0.00268838,0.00215781,-0.00479833,-0.00276062,0.00350064,0
 .00480158,-0.07745019,0.10904660,0.19425183,0.00000163,0.00000153,-0.0
 0000422,-0.00000518,-0.00000355,0.00000589,0.00000296,0.00000755,-0.00
 001189,-0.00000710,-0.00004192,0.00003184,0.00000499,0.00005175,-0.000
 01582,-0.00000395,0.00001241,-0.00004942,-0.00004967,0.00000430,0.0000
 1298,-0.00000119,0.00023646,0.00006833,-0.00008459,-0.00014158,0.00022
 627,0.00140295,-0.00129582,0.00175654,-0.00896704,-0.03323538,0.004603
 40,-0.06094283,-0.04770112,0.01020267,0.00294218,0.01884493,-0.0108495
 4,-0.00000323,0.00000129,-0.00000224,-0.00000053,-0.00000028,0.0000012
 2,0.00000047,0.00000024,0.00000085,0.00000065,0.00000239,-0.00000082,-
 0.00000040,-0.00000007,-0.00000065,0.00000394,0.00000304,0.00000111,-0
 .00000115,0.00000011,0.00000100,0.00000059,0.00000212,-0.00000122,-0.0
 0000603,-0.00001473,0.00000134,0.00002010,0.00001068,0.00001017,-0.000
 00397,-0.00000050,0.00000462,-0.00001311,0.00003906,-0.00003298,-0.000
 00348,0.00000047,-0.00000048,-0.00000361,-0.00000618,0.00002636,0.0000
 0669,0.00000211,-0.00002548,-0.00006802,0.00008667,-0.00015222,0.00009
 333,0.00021024,-0.00024704,-0.00005533,0.00092203,-0.00075142,-0.00004
 402,0.00007928,-0.00010761,-0.00663047,-0.00114083,0.00008521,0.001755
 57,0.00074102,0.00029219,0.06687993,-0.00000063,0.00000106,-0.00000296
 ,-0.00000629,-0.00000393,0.00000332,0.00000311,0.00000820,-0.00001158,
 -0.00003368,-0.00006028,0.00002543,0.00002895,0.00006517,-0.00000423,0
 .00000120,0.00003624,-0.00006464,-0.00012954,-0.00006406,0.00003437,-0
 .00016455,0.00046508,-0.00033135,0.00023627,-0.00004946,0.00009480,0.0
 0015189,-0.00027618,0.00033675,-0.00074358,-0.00648517,0.00032542,-0.0
 4725932,-0.26813530,0.03407735,0.00433305,-0.00501257,0.01325420,-0.00
 000188,0.00000045,-0.00000119,0.00000010,-0.00000079,0.00000044,0.0000
 0177,0.00000172,0.00000063,-0.00000002,0.00000432,-0.00000089,-0.00000
 030,-0.00000096,-0.00000096,0.00000574,0.00000526,0.00000132,-0.000000
 47,-0.00000094,0.00000060,0.00000013,0.00000189,-0.00000168,-0.0000146
 4,-0.00001759,-0.00000285,0.00001828,0.00000917,0.00000446,0.00000001,
 -0.00000257,0.00000324,-0.00001388,0.00004506,-0.00001807,-0.00000406,
 -0.00000394,-0.00000696,0.00000250,-0.00002151,0.00000216,-0.00000637,
 0.00000355,-0.00000492,0.00001262,0.00007636,-0.00001827,0.00002967,0.
 00005750,-0.00007846,-0.00045411,0.00065821,-0.00071050,0.00002116,0.0
 0004388,0.00005893,-0.00114887,0.00144092,0.00038664,-0.00022515,0.001
 03914,0.00031478,0.04933999,0.29293423,0.00000021,0.,0.00000053,0.0000
 0159,0.00000049,-0.00000002,-0.00000074,-0.00000180,0.00000356,0.00000
 961,0.00000763,-0.00000357,-0.00000472,-0.00000884,-0.00000193,0.00000
 081,-0.00000706,0.00002332,0.00004016,0.00000129,-0.00001882,0.0000775
 4,-0.00005942,0.00014344,-0.00008147,-0.00003861,-0.00003316,0.0002892
 9,-0.00051471,0.00029333,0.00219983,0.00254453,0.00179431,0.01188797,0
 .03101953,-0.05745225,-0.00403654,0.03555710,-0.02054682,0.00000002,0.
 00000013,-0.00000015,0.00000014,0.00000007,-0.00000009,-0.00000026,-0.
 00000047,-0.00000005,-0.00000011,-0.00000054,0.00000037,-0.00000006,-0
 .00000011,-0.00000018,-0.00000059,-0.00000073,-0.00000030,0.00000050,0
 .,-0.00000057,-0.00000055,-0.00000075,-0.00000052,0.00000513,0.0000031
 3,0.00000241,0.00000078,-0.00000149,-0.00000078,0.00000209,-0.00000055
 ,-0.00000246,-0.00000611,0.00000302,0.00000147,-0.00000031,-0.00000080
 ,0.00000056,0.00001319,-0.00000093,-0.00002096,0.00000874,0.00000059,0
 .00001561,-0.00002449,-0.00000896,-0.00001371,-0.00000241,0.00001497,-
 0.00001133,-0.00013215,0.00004727,0.00017653,-0.00001877,-0.00006340,0
 .00008464,-0.00025096,0.00053694,0.00051686,-0.00062773,0.00050670,0.0
 0014977,-0.00507466,-0.04963912,0.06725188,0.00000045,0.00000145,-0.00
 000161,-0.00000230,-0.00000092,0.00000431,-0.00000030,0.00000534,-0.00
 000274,-0.00000148,-0.00000455,0.00001778,-0.00000565,0.00000760,-0.00
 001352,0.00001100,0.00000532,-0.00000405,-0.00001610,-0.00006436,-0.00
 005265,-0.00013591,-0.00018502,-0.00017860,0.00004806,-0.00001008,0.00
 006041,0.00140311,0.00027908,0.00176397,-0.01624095,0.01970314,0.02292
 937,-0.09663411,0.06361986,0.08191701,0.00724490,-0.00890519,-0.016802
 73,-0.00000163,0.00000082,-0.00000127,0.00000062,-0.00000078,-0.000000
 22,-0.00000026,-0.00000045,0.00000058,0.00000031,0.00000029,0.00000040
 ,0.00000016,-0.00000072,-0.00000243,-0.00000002,-0.00000011,0.00000046
 ,0.00000134,-0.00000177,-0.00000196,-0.00000002,-0.00000045,-0.0000048
 6,0.00000574,-0.00000405,0.00000603,-0.00000012,-0.00000062,0.00000090
 ,0.00000905,-0.00000556,0.,-0.00000131,0.00000549,0.00000486,-0.000024
 45,0.00000187,-0.00006165,0.00029930,-0.00014732,-0.00015833,-0.000035
 58,-0.00004057,-0.00006450,0.00000266,-0.00000253,-0.00002938,0.000016
 32,0.00009929,0.00000387,-0.00006541,0.00001980,-0.00017306,-0.0001427
 2,-0.00033162,-0.00115365,0.00172943,-0.00032243,-0.00017259,-0.006419
 21,-0.00143470,-0.00006909,0.00383507,-0.00474410,-0.00434557,0.105721
 32,0.00000015,-0.00000079,0.00000104,0.00000201,-0.00000018,-0.0000036
 0,0.00000031,-0.00000241,0.00000372,0.00000782,0.00000022,-0.00001700,
 0.00000312,-0.00000145,0.00001153,0.00000277,-0.00000856,0.00002789,0.
 00007340,-0.00002377,-0.00003649,-0.00004623,0.00006676,0.00031690,0.0
 0001322,-0.00000273,-0.00003257,0.00016846,0.00004416,-0.00004393,-0.0
 0342055,0.00355944,0.00394522,0.06263279,-0.13792876,-0.10595999,-0.00
 448740,0.00855437,0.00872274,0.00000108,-0.00000063,0.00000078,-0.0000
 0078,0.00000057,0.00000047,0.,0.00000024,-0.00000038,-0.00000006,-0.00
 000043,-0.00000058,-0.00000012,0.00000124,0.00000209,0.,-0.00000006,-0
 .00000016,-0.00000155,0.00000101,0.00000184,0.00000039,0.00000250,0.00
 000498,-0.00000742,-0.00000001,-0.00000440,-0.00000246,0.00000033,-0.0
 0000142,-0.00000640,0.00000124,0.00000277,0.00000211,-0.00000410,-0.00
 000907,0.00000861,0.00001879,0.00000868,-0.00009700,-0.00002691,-0.000
 02943,-0.00000093,0.00000345,-0.00000037,0.00001342,-0.00000530,0.0000
 0885,-0.00001542,-0.00001487,0.00002880,0.00001531,-0.00004883,-0.0001
 4464,0.00028826,0.00021325,0.00026104,0.00050117,0.00099768,0.00049250
 ,-0.00141522,0.00138027,0.00061783,0.01346985,-0.01774643,-0.02114272,
 -0.06794047,0.13989910,0.00000007,-0.00000111,0.00000095,0.00000188,0.
 00000016,-0.00000229,0.00000040,-0.00000388,0.00000258,0.00000684,-0.0
 0000007,-0.00000974,0.00000325,-0.00000112,0.00000558,0.00000190,-0.00
 001258,0.00001866,0.00006598,0.00001884,-0.00000265,-0.00002779,0.0001
 8187,0.00035347,0.00003430,-0.00000674,-0.00003702,0.00000712,0.000133
 50,0.00050004,0.00168636,-0.00132716,-0.00011525,0.07469445,-0.0969888
 5,-0.16751877,0.00725891,-0.01538869,-0.03582163,0.00000078,-0.0000004
 0,0.00000061,-0.00000040,0.00000043,0.00000022,0.00000015,0.00000043,-
 0.00000033,-0.00000022,0.00000002,-0.00000039,-0.00000025,0.00000054,0
 .00000144,0.00000026,0.00000048,-0.00000030,-0.00000069,0.00000091,0.0
 0000115,-0.00000058,0.00000095,0.00000203,-0.00000277,0.00000084,-0.00
 000221,0.00000053,0.00000103,-0.00000090,0.00000050,0.00000038,0.00000
 109,-0.00000221,-0.00000111,-0.00000430,0.00000630,0.00000021,0.000004
 17,-0.00016267,-0.00001656,-0.00010102,0.00001035,0.00000546,0.0000287
 2,0.00000141,0.00001581,0.00001134,-0.00000345,-0.00002875,-0.00000249
 ,0.00004526,0.00004830,0.00004567,0.00012373,-0.00012883,0.00043552,-0
 .00002291,0.00005953,0.00002636,-0.00036764,0.00014655,0.00063483,-0.0
 0134734,0.00192951,0.00570357,-0.07929499,0.10931311,0.20072044,-0.000
 00567,-0.00000532,0.00001097,0.00001261,0.00000862,-0.00001783,-0.0000
 0345,-0.00002117,0.00002534,-0.00000250,0.00006517,-0.00006924,0.00003
 836,-0.00007486,0.00005002,-0.00001664,-0.00002942,0.00006238,0.000059
 53,0.00004389,-0.00003410,-0.00010821,0.00000399,0.00005727,-0.0000078
 6,0.00000181,-0.00005190,-0.00070921,0.00054234,-0.00022132,0.00247521
 ,-0.00197517,-0.00256240,0.00431132,-0.01033510,-0.02000484,-0.0963318
 3,0.12911884,0.14792290,0.00000991,-0.00000429,0.00000753,0.00000075,0
 .00000097,-0.00000317,0.00000074,0.00000163,-0.00000236,-0.00000331,-0
 .00000255,-0.00000089,0.00000074,0.00000060,0.00000378,-0.00000379,-0.
 00000235,-0.00000062,0.00000103,0.00000052,0.00000054,-0.00000171,-0.0
 0000152,0.00000516,-0.00001809,0.00003155,-0.00001641,0.00000215,0.000
 00226,-0.00000545,0.00000287,0.00000006,-0.00000335,-0.00000673,0.0000
 0183,-0.00000702,0.00000911,0.00000071,0.00002095,-0.00006405,0.000043
 98,0.00000881,-0.00000342,0.00001071,0.00002742,0.00004664,0.00000832,
 0.00001879,-0.00003093,-0.00007381,0.00003626,0.00007121,-0.00016018,0
 .00013958,0.00001006,-0.00000506,0.00045193,-0.00019977,-0.00009091,0.
 00003697,-0.00067102,0.00106223,0.00078515,-0.00005614,0.00076499,0.00
 007058,-0.00060131,0.00023780,-0.00271683,0.09179341,-0.00000131,-0.00
 000107,0.00000415,0.00000639,0.00000512,-0.00000587,-0.00000384,-0.000
 00874,0.00001317,0.00001664,0.00005075,-0.00003032,-0.00000687,-0.0000
 5437,0.00001721,-0.00000789,-0.00001506,0.00004770,0.00004789,0.000022
 23,-0.00003386,-0.00003047,-0.00002251,0.00011623,-0.00001812,0.000006
 47,-0.00004884,0.00014070,0.00019257,-0.00014769,0.00001009,0.00012302
 ,0.00088217,-0.00177685,0.00446328,0.01526612,0.12104437,-0.17599706,-
 0.21596978,0.00000337,-0.00000118,0.00000262,0.00000067,0.00000052,-0.
 00000149,-0.00000100,-0.00000124,-0.00000083,-0.00000098,-0.00000351,0
 .00000104,0.00000040,0.00000015,0.00000046,-0.00000400,-0.00000397,-0.
 00000108,0.00000141,0.00000027,-0.00000110,-0.00000106,-0.00000251,0.0
 0000054,0.00000738,0.00001742,-0.00000369,-0.00000548,-0.00000523,-0.0
 0000555,0.00000578,-0.00000032,-0.00000470,-0.00000544,-0.00001002,0.0
 0000695,-0.00000109,0.00000045,0.00000041,0.00001608,0.00000347,-0.000
 01943,-0.00000090,-0.00000382,0.00001278,0.00001639,-0.00000156,0.0000
 1254,-0.00000624,-0.00003178,0.00002477,0.00000795,-0.00012676,0.00016
 167,0.00004743,-0.00006633,0.00008026,-0.00013897,-0.00039962,-0.00032
 143,-0.00010280,-0.00000773,-0.00045808,-0.00048755,0.00098427,0.00124
 762,0.00039905,0.00107160,0.00204695,-0.11917110,0.16982280,-0.0000066
 5,-0.00000494,0.00001116,0.00001290,0.00000704,-0.00001602,-0.00000423
 ,-0.00002087,0.00002972,0.00000240,0.00003938,-0.00006211,0.00005120,-
 0.00004204,0.00004499,-0.00002215,-0.00003101,0.00008954,0.00014995,0.
 00003057,-0.00006899,-0.00017294,0.00002867,0.00036288,0.00006847,-0.0
 0004437,-0.00001494,0.00054356,0.00046931,-0.00007148,0.00012153,-0.00
 078675,0.00269299,0.01558444,-0.02327919,-0.03530382,0.11185139,-0.177
 29079,-0.28513182,0.00000903,-0.00000361,0.00000618,0.00000145,-0.0000
 0067,-0.00000376,0.00000177,0.00000290,-0.00000140,-0.00000340,-0.0000
 0023,-0.00000095,0.00000086,-0.00000049,0.00000134,-0.00000105,0.00000
 134,0.00000057,0.00000212,-0.00000241,-0.00000141,-0.00000136,0.000000
 13,0.00000149,-0.00002408,0.00002132,-0.00001475,0.00001117,0.00000870
 ,-0.00000251,0.00000628,-0.00000794,-0.00000742,-0.00001387,0.00002007
 ,-0.00001956,0.00000310,0.00000590,0.00000753,-0.00003099,-0.00000716,
 -0.00002827,-0.00000727,0.00000817,0.00000597,0.00005860,0.00003249,0.
 00001388,-0.00004562,-0.00003082,0.00002355,-0.00000807,0.00001990,-0.
 00009339,0.00018201,0.00004340,0.00032989,-0.00010215,0.00012382,0.000
 02571,-0.00141640,-0.00011643,0.00016854,0.00134308,0.00004425,0.00194
 553,-0.00412052,0.00365399,-0.00487911,-0.12402457,0.19710836,0.319960
 22\\-0.00000842,-0.00000134,0.00000356,0.00001230,0.00000371,-0.000010
 49,-0.00000660,-0.00000636,0.00001121,0.00000876,0.00000498,-0.0000106
 7,-0.00000428,-0.00000667,0.00000512,-0.00001431,-0.00000365,0.0000087
 8,0.00001227,0.00001072,-0.00001709,-0.00000830,-0.00002180,0.00001356
 ,0.00000242,0.00000945,-0.00000108,0.00000555,0.00000675,-0.00000463,-
 0.00000049,-0.00000006,0.00000501,-0.00001387,0.00001206,-0.00003265,0
 .00001142,-0.00000474,0.00001651,0.00000208,-0.00000142,-0.00000048,0.
 00000170,0.00000028,-0.00000090,0.00000155,-0.00000051,0.00000040,-0.0
 0000263,-0.00000055,0.00000187,-0.00000161,-0.00000027,0.00000182,0.00
 000218,0.00000134,-0.00000160,0.00000095,0.00000105,-0.00000126,0.0000
 0045,-0.00000222,-0.00000123,-0.00000004,0.00000306,0.00000010,0.00000
 220,0.00000140,-0.00000209,0.00000132,0.00000069,-0.00000123,-0.000000
 29,-0.00000115,0.00000455,-0.00000172,-0.00000262,0.00000283,0.0000003
 0,0.00000259,-0.00000056,-0.00000113,-0.00000197,0.00000128,0.00000005
 ,0.00000178,-0.00000045,0.00000294,0.00000062,0.00000032,-0.00000215,0
 .00000037,-0.00000057,-0.00000100,-0.00000114,0.00000098,0.00000211,-0
 .00000140,0.00000093,-0.00000121,0.00000096,-0.00000137,0.00000311,-0.
 00000387,0.00000587,-0.00000125,-0.00000020,0.00000061,-0.00000433,0.0
 0000014,0.00000305\\\@


 HOW IS IT THAT THE SKY FEEDS THE STARS?

                           -- LUCRETIUS
 Job cpu time:       0 days  7 hours 27 minutes 57.2 seconds.
 Elapsed time:       0 days  1 hours 52 minutes  3.2 seconds.
 File lengths (MBytes):  RWF=    622 Int=      0 D2E=      0 Chk=     20 Scr=      1
 Normal termination of Gaussian 16 at Mon May 22 20:32:57 2023.
### All Done ###
