### Starting Gaussian ###
 Entering Gaussian System, Link 0=g16
 Initial command:
 /cluster/software/gaussian/gaussian-16-A.03/avx2/g16/l1.exe "/local/scratch/linjian/Gau-30644.inp" -scrdir="/local/scratch/linjian/"
 Entering Link 1 = /cluster/software/gaussian/gaussian-16-A.03/avx2/g16/l1.exe PID=     30645.
  
 Copyright (c) 1988,1990,1992,1993,1995,1998,2003,2009,2016,
            Gaussian, Inc.  All Rights Reserved.
  
 This is part of the Gaussian(R) 16 program.  It is based on
 the Gaussian(R) 09 system (copyright 2009, Gaussian, Inc.),
 the Gaussian(R) 03 system (copyright 2003, Gaussian, Inc.),
 the Gaussian(R) 98 system (copyright 1998, Gaussian, Inc.),
 the Gaussian(R) 94 system (copyright 1995, Gaussian, Inc.),
 the Gaussian 92(TM) system (copyright 1992, Gaussian, Inc.),
 the Gaussian 90(TM) system (copyright 1990, Gaussian, Inc.),
 the Gaussian 88(TM) system (copyright 1988, Gaussian, Inc.),
 the Gaussian 86(TM) system (copyright 1986, Carnegie Mellon
 University), and the Gaussian 82(TM) system (copyright 1983,
 Carnegie Mellon University). Gaussian is a federally registered
 trademark of Gaussian, Inc.
  
 This software contains proprietary and confidential information,
 including trade secrets, belonging to Gaussian, Inc.
  
 This software is provided under written license and may be
 used, copied, transmitted, or stored only in accord with that
 written license.
  
 The following legend is applicable only to US Government
 contracts under FAR:
  
                    RESTRICTED RIGHTS LEGEND
  
 Use, reproduction and disclosure by the US Government is
 subject to restrictions as set forth in subparagraphs (a)
 and (c) of the Commercial Computer Software - Restricted
 Rights clause in FAR 52.227-19.
  
 Gaussian, Inc.
 340 Quinnipiac St., Bldg. 40, Wallingford CT 06492
  
  
 ---------------------------------------------------------------
 Warning -- This program may not be used in any manner that
 competes with the business of Gaussian, Inc. or will provide
 assistance to any competitor of Gaussian, Inc.  The licensee
 of this program is prohibited from giving any competitor of
 Gaussian, Inc. access to this program.  By using this program,
 the user acknowledges that Gaussian, Inc. is engaged in the
 business of creating and licensing software in the field of
 computational chemistry and represents and warrants to the
 licensee that it is not a competitor of Gaussian, Inc. and that
 it will not use this program in any manner prohibited above.
 ---------------------------------------------------------------
  

 Cite this work as:
 Gaussian 16, Revision A.03,
 M. J. Frisch, G. W. Trucks, H. B. Schlegel, G. E. Scuseria, 
 M. A. Robb, J. R. Cheeseman, G. Scalmani, V. Barone, 
 G. A. Petersson, H. Nakatsuji, X. Li, M. Caricato, A. V. Marenich, 
 J. Bloino, B. G. Janesko, R. Gomperts, B. Mennucci, H. P. Hratchian, 
 J. V. Ortiz, A. F. Izmaylov, J. L. Sonnenberg, D. Williams-Young, 
 F. Ding, F. Lipparini, F. Egidi, J. Goings, B. Peng, A. Petrone, 
 T. Henderson, D. Ranasinghe, V. G. Zakrzewski, J. Gao, N. Rega, 
 G. Zheng, W. Liang, M. Hada, M. Ehara, K. Toyota, R. Fukuda, 
 J. Hasegawa, M. Ishida, T. Nakajima, Y. Honda, O. Kitao, H. Nakai, 
 T. Vreven, K. Throssell, J. A. Montgomery, Jr., J. E. Peralta, 
 F. Ogliaro, M. J. Bearpark, J. J. Heyd, E. N. Brothers, K. N. Kudin, 
 V. N. Staroverov, T. A. Keith, R. Kobayashi, J. Normand, 
 K. Raghavachari, A. P. Rendell, J. C. Burant, S. S. Iyengar, 
 J. Tomasi, M. Cossi, J. M. Millam, M. Klene, C. Adamo, R. Cammi, 
 J. W. Ochterski, R. L. Martin, K. Morokuma, O. Farkas, 
 J. B. Foresman, and D. J. Fox, Gaussian, Inc., Wallingford CT, 2016.
 
 ******************************************
 Gaussian 16:  ES64L-G16RevA.03 25-Dec-2016
                28-May-2023 
 ******************************************
 %chk=CCCCCCqCrqCrC.chk
 %NProcShared=20
 Will use up to   20 processors via shared memory.
 -----------------------------
 # opt freq b3lyp/6-31g(2df,p)
 -----------------------------
 1/18=20,19=15,26=3,38=1/1,3;
 2/9=110,12=2,17=6,18=5,40=1/2;
 3/5=1,6=6,7=104,11=2,25=1,30=1,71=1,74=-5/1,2,3;
 4//1;
 5/5=2,38=5/2;
 6/7=2,8=2,9=2,10=2,28=1/1;
 7//1,2,3,16;
 1/18=20,19=15,26=3/3(2);
 2/9=110/2;
 99//99;
 2/9=110/2;
 3/5=1,6=6,7=104,11=2,25=1,30=1,71=1,74=-5/1,2,3;
 4/5=5,16=3,69=1/1;
 5/5=2,38=5/2;
 7//1,2,3,16;
 1/18=20,19=15,26=3/3(-5);
 2/9=110/2;
 6/7=2,8=2,9=2,10=2,19=2,28=1/1;
 99/9=1/99;
 -------------------
 Title Card Required
 -------------------
 Symbolic Z-matrix:
 Charge =  0 Multiplicity = 1
 C                     0.85704  -0.0546   -0.06458 
 C                     2.3724   -0.06198  -0.03696 
 C                     2.88731  -0.43359   1.35327 
 C                     4.40977  -0.43045   1.34154 
 C                     4.9991   -0.79524   2.70623 
 C                     6.55     -0.80058   2.72623 
 C                     7.10298  -1.83633   1.73206 
 C                     7.10298   0.59307   2.38144 
 C                     7.02385  -1.17871   4.14084 
 H                     0.49993   0.21267  -1.06448 
 H                     0.46158   0.67343   0.64883 
 H                     0.46158  -1.04149   0.19044 
 H                     2.74858   0.9268   -0.32275 
 H                     2.74858  -0.77629  -0.77799 
 H                     2.51869  -1.42478   1.63796 
 H                     2.51869   0.28335   2.09454 
 H                     4.74874   0.5638    1.03756 
 H                     4.74874  -1.14043   0.58202 
 H                     4.6258   -1.78378   3.00376 
 H                     4.6258   -0.08699   3.45732 
 H                     6.84066  -1.5934    0.69718 
 H                     6.7123   -2.83664   1.95004 
 H                     8.19608  -1.8847    1.7775 
 H                     6.84066   0.89889   1.36337 
 H                     8.19607   0.61232   2.44495 
 H                     6.7123    1.35121   3.06946 
 H                     6.6623   -2.17194   4.42831 
 H                     6.6623   -0.46138   4.88555 
 H                     8.11867  -1.19374   4.19709 
 

 GradGradGradGradGradGradGradGradGradGradGradGradGradGradGradGradGradGrad
 Berny optimization.
 Initialization pass.
                           ----------------------------
                           !    Initial Parameters    !
                           ! (Angstroms and Degrees)  !
 --------------------------                            --------------------------
 ! Name  Definition              Value          Derivative Info.                !
 --------------------------------------------------------------------------------
 ! R1    R(1,2)                  1.5156         estimate D2E/DX2                !
 ! R2    R(1,10)                 1.0949         estimate D2E/DX2                !
 ! R3    R(1,11)                 1.0933         estimate D2E/DX2                !
 ! R4    R(1,12)                 1.0933         estimate D2E/DX2                !
 ! R5    R(2,3)                  1.5284         estimate D2E/DX2                !
 ! R6    R(2,13)                 1.0958         estimate D2E/DX2                !
 ! R7    R(2,14)                 1.0958         estimate D2E/DX2                !
 ! R8    R(3,4)                  1.5225         estimate D2E/DX2                !
 ! R9    R(3,15)                 1.0952         estimate D2E/DX2                !
 ! R10   R(3,16)                 1.0952         estimate D2E/DX2                !
 ! R11   R(4,5)                  1.5306         estimate D2E/DX2                !
 ! R12   R(4,17)                 1.0935         estimate D2E/DX2                !
 ! R13   R(4,18)                 1.0935         estimate D2E/DX2                !
 ! R14   R(5,6)                  1.551          estimate D2E/DX2                !
 ! R15   R(5,19)                 1.0978         estimate D2E/DX2                !
 ! R16   R(5,20)                 1.0978         estimate D2E/DX2                !
 ! R17   R(6,7)                  1.5385         estimate D2E/DX2                !
 ! R18   R(6,8)                  1.5385         estimate D2E/DX2                !
 ! R19   R(6,9)                  1.539          estimate D2E/DX2                !
 ! R20   R(7,21)                 1.0949         estimate D2E/DX2                !
 ! R21   R(7,22)                 1.0958         estimate D2E/DX2                !
 ! R22   R(7,23)                 1.0951         estimate D2E/DX2                !
 ! R23   R(8,24)                 1.0949         estimate D2E/DX2                !
 ! R24   R(8,25)                 1.0951         estimate D2E/DX2                !
 ! R25   R(8,26)                 1.0958         estimate D2E/DX2                !
 ! R26   R(9,27)                 1.0954         estimate D2E/DX2                !
 ! R27   R(9,28)                 1.0954         estimate D2E/DX2                !
 ! R28   R(9,29)                 1.0964         estimate D2E/DX2                !
 ! A1    A(2,1,10)             110.1169         estimate D2E/DX2                !
 ! A2    A(2,1,11)             110.6703         estimate D2E/DX2                !
 ! A3    A(2,1,12)             110.6704         estimate D2E/DX2                !
 ! A4    A(10,1,11)            108.384          estimate D2E/DX2                !
 ! A5    A(10,1,12)            108.3841         estimate D2E/DX2                !
 ! A6    A(11,1,12)            108.5438         estimate D2E/DX2                !
 ! A7    A(1,2,3)              110.7688         estimate D2E/DX2                !
 ! A8    A(1,2,13)             109.5161         estimate D2E/DX2                !
 ! A9    A(1,2,14)             109.5159         estimate D2E/DX2                !
 ! A10   A(3,2,13)             109.935          estimate D2E/DX2                !
 ! A11   A(3,2,14)             109.9351         estimate D2E/DX2                !
 ! A12   A(13,2,14)            107.095          estimate D2E/DX2                !
 ! A13   A(2,3,4)              109.231          estimate D2E/DX2                !
 ! A14   A(2,3,15)             110.0666         estimate D2E/DX2                !
 ! A15   A(2,3,16)             110.0666         estimate D2E/DX2                !
 ! A16   A(4,3,15)             109.9041         estimate D2E/DX2                !
 ! A17   A(4,3,16)             109.904          estimate D2E/DX2                !
 ! A18   A(15,3,16)            107.6529         estimate D2E/DX2                !
 ! A19   A(3,4,5)              112.1886         estimate D2E/DX2                !
 ! A20   A(3,4,17)             108.2993         estimate D2E/DX2                !
 ! A21   A(3,4,18)             108.299          estimate D2E/DX2                !
 ! A22   A(5,4,17)             110.1931         estimate D2E/DX2                !
 ! A23   A(5,4,18)             110.1925         estimate D2E/DX2                !
 ! A24   A(17,4,18)            107.5262         estimate D2E/DX2                !
 ! A25   A(4,5,6)              113.4103         estimate D2E/DX2                !
 ! A26   A(4,5,19)             108.9861         estimate D2E/DX2                !
 ! A27   A(4,5,20)             108.9858         estimate D2E/DX2                !
 ! A28   A(6,5,19)             109.477          estimate D2E/DX2                !
 ! A29   A(6,5,20)             109.4765         estimate D2E/DX2                !
 ! A30   A(19,5,20)            106.2543         estimate D2E/DX2                !
 ! A31   A(5,6,7)              110.6945         estimate D2E/DX2                !
 ! A32   A(5,6,8)              110.6949         estimate D2E/DX2                !
 ! A33   A(5,6,9)              108.6967         estimate D2E/DX2                !
 ! A34   A(7,6,8)              109.6235         estimate D2E/DX2                !
 ! A35   A(7,6,9)              108.5351         estimate D2E/DX2                !
 ! A36   A(8,6,9)              108.5354         estimate D2E/DX2                !
 ! A37   A(6,7,21)             112.0424         estimate D2E/DX2                !
 ! A38   A(6,7,22)             110.9696         estimate D2E/DX2                !
 ! A39   A(6,7,23)             111.2042         estimate D2E/DX2                !
 ! A40   A(21,7,22)            107.7667         estimate D2E/DX2                !
 ! A41   A(21,7,23)            106.748          estimate D2E/DX2                !
 ! A42   A(22,7,23)            107.8964         estimate D2E/DX2                !
 ! A43   A(6,8,24)             112.0422         estimate D2E/DX2                !
 ! A44   A(6,8,25)             111.2045         estimate D2E/DX2                !
 ! A45   A(6,8,26)             110.9694         estimate D2E/DX2                !
 ! A46   A(24,8,25)            106.7477         estimate D2E/DX2                !
 ! A47   A(24,8,26)            107.7671         estimate D2E/DX2                !
 ! A48   A(25,8,26)            107.8963         estimate D2E/DX2                !
 ! A49   A(6,9,27)             111.2462         estimate D2E/DX2                !
 ! A50   A(6,9,28)             111.2462         estimate D2E/DX2                !
 ! A51   A(6,9,29)             110.9761         estimate D2E/DX2                !
 ! A52   A(27,9,28)            107.8441         estimate D2E/DX2                !
 ! A53   A(27,9,29)            107.6804         estimate D2E/DX2                !
 ! A54   A(28,9,29)            107.6798         estimate D2E/DX2                !
 ! D1    D(10,1,2,3)          -179.9998         estimate D2E/DX2                !
 ! D2    D(10,1,2,13)           58.5812         estimate D2E/DX2                !
 ! D3    D(10,1,2,14)          -58.5807         estimate D2E/DX2                !
 ! D4    D(11,1,2,3)            60.1871         estimate D2E/DX2                !
 ! D5    D(11,1,2,13)          -61.232          estimate D2E/DX2                !
 ! D6    D(11,1,2,14)         -178.3939         estimate D2E/DX2                !
 ! D7    D(12,1,2,3)           -60.1864         estimate D2E/DX2                !
 ! D8    D(12,1,2,13)          178.3946         estimate D2E/DX2                !
 ! D9    D(12,1,2,14)           61.2326         estimate D2E/DX2                !
 ! D10   D(1,2,3,4)           -179.9999         estimate D2E/DX2                !
 ! D11   D(1,2,3,15)            59.2497         estimate D2E/DX2                !
 ! D12   D(1,2,3,16)           -59.2497         estimate D2E/DX2                !
 ! D13   D(13,2,3,4)           -58.828          estimate D2E/DX2                !
 ! D14   D(13,2,3,15)         -179.5784         estimate D2E/DX2                !
 ! D15   D(13,2,3,16)           61.9222         estimate D2E/DX2                !
 ! D16   D(14,2,3,4)            58.8283         estimate D2E/DX2                !
 ! D17   D(14,2,3,15)          -61.9221         estimate D2E/DX2                !
 ! D18   D(14,2,3,16)          179.5786         estimate D2E/DX2                !
 ! D19   D(2,3,4,5)           -179.9997         estimate D2E/DX2                !
 ! D20   D(2,3,4,17)            58.1616         estimate D2E/DX2                !
 ! D21   D(2,3,4,18)           -58.162          estimate D2E/DX2                !
 ! D22   D(15,3,4,5)           -59.1502         estimate D2E/DX2                !
 ! D23   D(15,3,4,17)          179.0111         estimate D2E/DX2                !
 ! D24   D(15,3,4,18)           62.6876         estimate D2E/DX2                !
 ! D25   D(16,3,4,5)            59.1509         estimate D2E/DX2                !
 ! D26   D(16,3,4,17)          -62.6878         estimate D2E/DX2                !
 ! D27   D(16,3,4,18)         -179.0114         estimate D2E/DX2                !
 ! D28   D(3,4,5,6)           -179.9999         estimate D2E/DX2                !
 ! D29   D(3,4,5,19)            57.7781         estimate D2E/DX2                !
 ! D30   D(3,4,5,20)           -57.7788         estimate D2E/DX2                !
 ! D31   D(17,4,5,6)           -59.249          estimate D2E/DX2                !
 ! D32   D(17,4,5,19)          178.529          estimate D2E/DX2                !
 ! D33   D(17,4,5,20)           62.9721         estimate D2E/DX2                !
 ! D34   D(18,4,5,6)            59.25           estimate D2E/DX2                !
 ! D35   D(18,4,5,19)          -62.9721         estimate D2E/DX2                !
 ! D36   D(18,4,5,20)         -178.5289         estimate D2E/DX2                !
 ! D37   D(4,5,6,7)            -60.884          estimate D2E/DX2                !
 ! D38   D(4,5,6,8)             60.8831         estimate D2E/DX2                !
 ! D39   D(4,5,6,9)            179.9998         estimate D2E/DX2                !
 ! D40   D(19,5,6,7)            61.0648         estimate D2E/DX2                !
 ! D41   D(19,5,6,8)          -177.1681         estimate D2E/DX2                !
 ! D42   D(19,5,6,9)           -58.0514         estimate D2E/DX2                !
 ! D43   D(20,5,6,7)           177.1679         estimate D2E/DX2                !
 ! D44   D(20,5,6,8)           -61.065          estimate D2E/DX2                !
 ! D45   D(20,5,6,9)            58.0518         estimate D2E/DX2                !
 ! D46   D(5,6,7,21)            63.63           estimate D2E/DX2                !
 ! D47   D(5,6,7,22)           -56.8827         estimate D2E/DX2                !
 ! D48   D(5,6,7,23)          -176.9938         estimate D2E/DX2                !
 ! D49   D(8,6,7,21)           -58.7646         estimate D2E/DX2                !
 ! D50   D(8,6,7,22)          -179.2773         estimate D2E/DX2                !
 ! D51   D(8,6,7,23)            60.6116         estimate D2E/DX2                !
 ! D52   D(9,6,7,21)          -177.1563         estimate D2E/DX2                !
 ! D53   D(9,6,7,22)            62.331          estimate D2E/DX2                !
 ! D54   D(9,6,7,23)           -57.7801         estimate D2E/DX2                !
 ! D55   D(5,6,8,24)           -63.6299         estimate D2E/DX2                !
 ! D56   D(5,6,8,25)           176.9941         estimate D2E/DX2                !
 ! D57   D(5,6,8,26)            56.8831         estimate D2E/DX2                !
 ! D58   D(7,6,8,24)            58.7645         estimate D2E/DX2                !
 ! D59   D(7,6,8,25)           -60.6115         estimate D2E/DX2                !
 ! D60   D(7,6,8,26)           179.2775         estimate D2E/DX2                !
 ! D61   D(9,6,8,24)           177.156          estimate D2E/DX2                !
 ! D62   D(9,6,8,25)            57.78           estimate D2E/DX2                !
 ! D63   D(9,6,8,26)           -62.331          estimate D2E/DX2                !
 ! D64   D(5,6,9,27)            60.1295         estimate D2E/DX2                !
 ! D65   D(5,6,9,28)           -60.1301         estimate D2E/DX2                !
 ! D66   D(5,6,9,29)          -179.9999         estimate D2E/DX2                !
 ! D67   D(7,6,9,27)           -60.3311         estimate D2E/DX2                !
 ! D68   D(7,6,9,28)           179.4094         estimate D2E/DX2                !
 ! D69   D(7,6,9,29)            59.5395         estimate D2E/DX2                !
 ! D70   D(8,6,9,27)          -179.4093         estimate D2E/DX2                !
 ! D71   D(8,6,9,28)            60.3312         estimate D2E/DX2                !
 ! D72   D(8,6,9,29)           -59.5387         estimate D2E/DX2                !
 --------------------------------------------------------------------------------
 Trust Radius=3.00D-01 FncErr=1.00D-07 GrdErr=1.00D-06 EigMax=2.50D+02 EigMin=1.00D-04
 Number of steps in this run=    164 maximum allowed number of steps=    174.
 GradGradGradGradGradGradGradGradGradGradGradGradGradGradGradGradGradGrad

                          Input orientation:                          
 ---------------------------------------------------------------------
 Center     Atomic      Atomic             Coordinates (Angstroms)
 Number     Number       Type             X           Y           Z
 ---------------------------------------------------------------------
      1          6           0        0.857040   -0.054600   -0.064580
      2          6           0        2.372400   -0.061980   -0.036960
      3          6           0        2.887310   -0.433590    1.353270
      4          6           0        4.409770   -0.430450    1.341540
      5          6           0        4.999100   -0.795240    2.706230
      6          6           0        6.550000   -0.800580    2.726230
      7          6           0        7.102980   -1.836330    1.732060
      8          6           0        7.102980    0.593070    2.381440
      9          6           0        7.023850   -1.178710    4.140840
     10          1           0        0.499930    0.212670   -1.064480
     11          1           0        0.461580    0.673430    0.648830
     12          1           0        0.461580   -1.041490    0.190440
     13          1           0        2.748580    0.926800   -0.322750
     14          1           0        2.748580   -0.776290   -0.777990
     15          1           0        2.518690   -1.424780    1.637960
     16          1           0        2.518690    0.283350    2.094540
     17          1           0        4.748740    0.563800    1.037560
     18          1           0        4.748740   -1.140430    0.582020
     19          1           0        4.625800   -1.783780    3.003760
     20          1           0        4.625800   -0.086990    3.457320
     21          1           0        6.840660   -1.593400    0.697180
     22          1           0        6.712300   -2.836640    1.950040
     23          1           0        8.196080   -1.884700    1.777500
     24          1           0        6.840660    0.898890    1.363370
     25          1           0        8.196070    0.612320    2.444950
     26          1           0        6.712300    1.351210    3.069460
     27          1           0        6.662300   -2.171940    4.428310
     28          1           0        6.662300   -0.461380    4.885550
     29          1           0        8.118670   -1.193740    4.197090
 ---------------------------------------------------------------------
                    Distance matrix (angstroms):
                    1          2          3          4          5
     1  C    0.000000
     2  C    1.515630   0.000000
     3  C    2.505180   1.528387   0.000000
     4  C    3.839313   2.487350   1.522508   0.000000
     5  C    5.038114   3.868115   2.533959   1.530608   0.000000
     6  C    6.383956   5.062913   3.928740   2.575839   1.551038
     7  C    6.739009   5.353143   4.459040   3.063068   2.541493
     8  C    6.739010   5.353143   4.459040   3.063065   2.541496
     9  C    7.548425   6.351148   5.043482   3.902485   2.510930
    10  H    1.094879   2.153456   3.458721   4.635664   5.956229
    11  H    1.093330   2.159252   2.757879   4.157716   5.194129
    12  H    1.093332   2.159255   2.757876   4.157716   5.194124
    13  H    2.146560   1.095844   2.163088   2.715058   4.147889
    14  H    2.146559   1.095845   2.163090   2.715063   4.147890
    15  H    2.745381   2.164251   1.095165   2.157021   2.773077
    16  H    2.745376   2.164243   1.095155   2.157013   2.773077
    17  H    4.091755   2.682011   2.135271   1.093544   2.166594
    18  H    4.091754   2.682011   2.135268   1.093546   2.166588
    19  H    5.158326   4.157930   2.751268   2.154332   1.097765
    20  H    5.158331   4.157936   2.751273   2.154335   1.097774
    21  H    6.225102   4.780121   4.171881   2.770718   2.839839
    22  H    6.788410   5.521018   4.556460   3.385508   2.770233
    23  H    7.784859   6.366304   5.519849   4.079344   3.502876
    24  H    6.225102   4.780120   4.171880   2.770712   2.839840
    25  H    7.784850   6.366293   5.519839   4.079332   3.502872
    26  H    6.788415   5.521022   4.556464   3.385508   2.770241
    27  H    7.640041   6.541698   5.169940   4.199384   2.761720
    28  H    7.640046   6.541702   5.169944   4.199387   2.761726
    29  H    8.496513   7.226872   6.002688   4.742649   3.480400
                    6          7          8          9         10
     6  C    0.000000
     7  C    1.538486   0.000000
     8  C    1.538482   2.514693   0.000000
     9  C    1.539038   2.498189   2.498190   0.000000
    10  H    7.211068   7.457835   7.457837   8.461254   0.000000
    11  H    6.599784   7.181955   6.864152   7.660806   1.774599
    12  H    6.599782   6.864150   7.181954   7.660801   1.774602
    13  H    5.170195   5.551390   5.136615   6.529528   2.473170
    14  H    5.170197   5.136617   5.551391   6.529530   2.473165
    15  H    4.222016   4.603688   5.063615   5.159595   3.749642
    16  H    4.222013   5.063610   4.603689   5.159596   3.749639
    17  H    2.820935   3.432987   2.710962   4.224075   4.753341
    18  H    2.820935   2.710962   3.432984   4.224073   4.753339
    19  H    2.178589   2.785032   3.489000   2.722077   6.128556
    20  H    2.178589   3.489002   2.785035   2.722076   6.128562
    21  H    2.197747   1.094899   2.772399   3.473373   6.824236
    22  H    2.185029   1.095795   3.478742   2.765032   7.548454
    23  H    2.187461   1.095113   2.774699   2.730919   8.467971
    24  H    2.197742   2.772395   1.094899   3.473373   6.824237
    25  H    2.187453   2.774697   1.095103   2.730921   8.467963
    26  H    2.185028   3.478747   1.095800   2.765034   7.548462
    27  H    2.188679   2.752562   3.468307   1.095383   8.592550
    28  H    2.188682   3.468312   2.752568   1.095387   8.592555
    29  H    2.186031   2.742430   2.742426   1.096367   9.365218
                   11         12         13         14         15
    11  H    0.000000
    12  H    1.775126   0.000000
    13  H    2.497706   3.060702   0.000000
    14  H    3.060698   2.497710   1.762884   0.000000
    15  H    3.100414   2.544391   3.070368   2.512012   0.000000
    16  H    2.544394   3.100403   2.512005   3.070361   1.768099
    17  H    4.306143   4.655568   2.445987   3.015411   3.047631
    18  H    4.655566   4.306143   3.015409   2.445990   2.483745
    19  H    5.378132   5.080009   4.683681   4.340579   2.536573
    20  H    5.080018   5.378132   4.340582   4.683689   3.088635
    21  H    6.770046   6.422932   4.912920   4.425937   4.426390
    22  H    7.285962   6.737229   5.919471   5.234335   4.435889
    23  H    8.224379   7.940545   6.480034   6.118362   5.697697
    24  H    6.422932   6.770044   4.425935   4.912919   4.914699
    25  H    7.940536   8.224369   6.118350   6.480025   6.085528
    26  H    6.737235   7.285964   5.234337   5.919477   5.228927
    27  H    7.799329   7.595156   6.891441   6.661126   5.051119
    28  H    7.595164   7.799328   6.661129   6.891448   5.352054
    29  H    8.643350   8.643347   7.332360   7.332363   6.161356
                   16         17         18         19         20
    16  H    0.000000
    17  H    2.483744   0.000000
    18  H    3.047620   1.764063   0.000000
    19  H    3.088628   3.064668   2.508752   0.000000
    20  H    2.536579   2.508761   3.064670   1.756364   0.000000
    21  H    4.914695   3.024153   2.143495   3.203461   3.846199
    22  H    5.228918   4.031275   2.933287   2.563654   3.766424
    23  H    6.085533   4.292647   3.723877   3.776347   4.335949
    24  H    4.426389   2.143494   3.024147   3.846193   3.203465
    25  H    5.697688   3.723867   4.292636   4.335942   3.776342
    26  H    4.435894   2.933292   4.031277   3.766425   2.563657
    27  H    5.352050   4.758484   4.418107   2.515421   3.071998
    28  H    5.051125   4.418114   4.758486   3.072004   2.515421
    29  H    6.161354   4.942470   4.942469   3.737957   3.737953
                   21         22         23         24         25
    21  H    0.000000
    22  H    1.769684   0.000000
    23  H    1.757587   1.771317   0.000000
    24  H    2.579790   3.783496   3.123626   0.000000
    25  H    3.123626   3.787061   2.584685   1.757576   0.000000
    26  H    3.783506   4.334880   3.787067   1.769693   1.771312
    27  H    3.779927   2.566349   3.076001   4.342311   3.746768
    28  H    4.342318   3.776451   3.746771   3.779934   3.076006
    29  H    3.747320   3.118691   2.517505   3.747316   2.517506
                   26         27         28         29
    26  H    0.000000
    27  H    3.776448   0.000000
    28  H    2.566353   1.770617   0.000000
    29  H    3.118685   1.769563   1.769560   0.000000
 Stoichiometry    C9H20
 Framework group  C1[X(C9H20)]
 Deg. of freedom    81
 Full point group                 C1      NOp   1
 Largest Abelian subgroup         C1      NOp   1
 Largest concise Abelian subgroup C1      NOp   1
                         Standard orientation:                         
 ---------------------------------------------------------------------
 Center     Atomic      Atomic             Coordinates (Angstroms)
 Number     Number       Type             X           Y           Z
 ---------------------------------------------------------------------
      1          6           0       -4.388389    0.179296    0.000000
      2          6           0       -3.041362   -0.515436    0.000002
      3          6           0       -1.904634    0.506238   -0.000003
      4          6           0       -0.570710   -0.227709   -0.000003
      5          6           0        0.618946    0.735349   -0.000001
      6          6           0        1.993499    0.016793   -0.000002
      7          6           0        2.150886   -0.855692    1.257352
      8          6           0        2.150886   -0.855707   -1.257341
      9          6           0        3.106085    1.080179   -0.000004
     10          1           0       -5.194319   -0.561810    0.000008
     11          1           0       -4.498270    0.808199   -0.887568
     12          1           0       -4.498266    0.808218    0.887558
     13          1           0       -2.962804   -1.161786   -0.881436
     14          1           0       -2.962806   -1.161778    0.881447
     15          1           0       -1.976749    1.148609    0.884047
     16          1           0       -1.976750    1.148595   -0.884052
     17          1           0       -0.533914   -0.873088   -0.882028
     18          1           0       -0.533914   -0.873076    0.882034
     19          1           0        0.548281    1.390257    0.878174
     20          1           0        0.548285    1.390252   -0.878190
     21          1           0        1.415298   -1.666035    1.289907
     22          1           0        2.029862   -0.257479    2.167440
     23          1           0        3.139551   -1.325360    1.292350
     24          1           0        1.415299   -1.666050   -1.289883
     25          1           0        3.139540   -1.325375   -1.292335
     26          1           0        2.029865   -0.257500   -2.167441
     27          1           0        3.041718    1.722019    0.885299
     28          1           0        3.041721    1.722014   -0.885318
     29          1           0        4.097134    0.611307   -0.000007
 ---------------------------------------------------------------------
 Rotational constants (GHZ):           3.6897210           0.5648652           0.5587181
 Standard basis: 6-31G(2df,p) (6D, 7F)
 There are   379 symmetry adapted cartesian basis functions of A   symmetry.
 There are   352 symmetry adapted basis functions of A   symmetry.
   352 basis functions,   536 primitive gaussians,   379 cartesian basis functions
    37 alpha electrons       37 beta electrons
       nuclear repulsion energy       480.7096322684 Hartrees.
 NAtoms=   29 NActive=   29 NUniq=   29 SFac= 1.00D+00 NAtFMM=   60 NAOKFM=F Big=F
 Integral buffers will be    131072 words long.
 Raffenetti 2 integral format.
 Two-electron integral symmetry is turned on.
 One-electron integrals computed using PRISM.
 PrsmSu:  requested number of processors reduced to:  13 ShMem   1 Linda.
 NBasis=   352 RedAO= T EigKep=  5.18D-04  NBF=   352
 NBsUse=   352 1.00D-06 EigRej= -1.00D+00 NBFU=   352
 ExpMin= 1.61D-01 ExpMax= 3.05D+03 ExpMxC= 4.57D+02 IAcc=3 IRadAn=         5 AccDes= 0.00D+00
 Harris functional with IExCor=  402 and IRadAn=       5 diagonalized for initial guess.
 HarFok:  IExCor=  402 AccDes= 0.00D+00 IRadAn=         5 IDoV= 1 UseB2=F ITyADJ=14
 ICtDFT=  3500011 ScaDFX=  1.000000  1.000000  1.000000  1.000000
 FoFCou: FMM=F IPFlag=           0 FMFlag=      100000 FMFlg1=           0
         NFxFlg=           0 DoJE=T BraDBF=F KetDBF=T FulRan=T
         wScrn=  0.000000 ICntrl=       500 IOpCl=  0 I1Cent=   200000004 NGrid=           0
         NMat0=    1 NMatS0=      1 NMatT0=    0 NMatD0=    1 NMtDS0=    0 NMtDT0=    0
 Petite list used in FoFCou.
 Requested convergence on RMS density matrix=1.00D-08 within 128 cycles.
 Requested convergence on MAX density matrix=1.00D-06.
 Requested convergence on             energy=1.00D-06.
 No special actions if energy rises.
 Integral accuracy reduced to 1.0D-05 until final iterations.
 Initial convergence to 1.0D-05 achieved.  Increase integral accuracy.
 SCF Done:  E(RB3LYP) =  -355.052522315     A.U. after   12 cycles
            NFock= 12  Conv=0.24D-08     -V/T= 2.0090

 **********************************************************************

            Population analysis using the SCF density.

 **********************************************************************

 Orbital symmetries:
       Occupied  (A) (A) (A) (A) (A) (A) (A) (A) (A) (A) (A) (A)
                 (A) (A) (A) (A) (A) (A) (A) (A) (A) (A) (A) (A)
                 (A) (A) (A) (A) (A) (A) (A) (A) (A) (A) (A) (A)
                 (A)
       Virtual   (A) (A) (A) (A) (A) (A) (A) (A) (A) (A) (A) (A)
                 (A) (A) (A) (A) (A) (A) (A) (A) (A) (A) (A) (A)
                 (A) (A) (A) (A) (A) (A) (A) (A) (A) (A) (A) (A)
                 (A) (A) (A) (A) (A) (A) (A) (A) (A) (A) (A) (A)
                 (A) (A) (A) (A) (A) (A) (A) (A) (A) (A) (A) (A)
                 (A) (A) (A) (A) (A) (A) (A) (A) (A) (A) (A) (A)
                 (A) (A) (A) (A) (A) (A) (A) (A) (A) (A) (A) (A)
                 (A) (A) (A) (A) (A) (A) (A) (A) (A) (A) (A) (A)
                 (A) (A) (A) (A) (A) (A) (A) (A) (A) (A) (A) (A)
                 (A) (A) (A) (A) (A) (A) (A) (A) (A) (A) (A) (A)
                 (A) (A) (A) (A) (A) (A) (A) (A) (A) (A) (A) (A)
                 (A) (A) (A) (A) (A) (A) (A) (A) (A) (A) (A) (A)
                 (A) (A) (A) (A) (A) (A) (A) (A) (A) (A) (A) (A)
                 (A) (A) (A) (A) (A) (A) (A) (A) (A) (A) (A) (A)
                 (A) (A) (A) (A) (A) (A) (A) (A) (A) (A) (A) (A)
                 (A) (A) (A) (A) (A) (A) (A) (A) (A) (A) (A) (A)
                 (A) (A) (A) (A) (A) (A) (A) (A) (A) (A) (A) (A)
                 (A) (A) (A) (A) (A) (A) (A) (A) (A) (A) (A) (A)
                 (A) (A) (A) (A) (A) (A) (A) (A) (A) (A) (A) (A)
                 (A) (A) (A) (A) (A) (A) (A) (A) (A) (A) (A) (A)
                 (A) (A) (A) (A) (A) (A) (A) (A) (A) (A) (A) (A)
                 (A) (A) (A) (A) (A) (A) (A) (A) (A) (A) (A) (A)
                 (A) (A) (A) (A) (A) (A) (A) (A) (A) (A) (A) (A)
                 (A) (A) (A) (A) (A) (A) (A) (A) (A) (A) (A) (A)
                 (A) (A) (A) (A) (A) (A) (A) (A) (A) (A) (A) (A)
                 (A) (A) (A) (A) (A) (A) (A) (A) (A) (A) (A) (A)
                 (A) (A) (A)
 The electronic state is 1-A.
 Alpha  occ. eigenvalues --  -10.18713 -10.17097 -10.16884 -10.16878 -10.16687
 Alpha  occ. eigenvalues --  -10.16526 -10.16505 -10.16505 -10.16412  -0.82153
 Alpha  occ. eigenvalues --   -0.79152  -0.73621  -0.67789  -0.67654  -0.66566
 Alpha  occ. eigenvalues --   -0.59482  -0.57257  -0.52252  -0.47596  -0.44986
 Alpha  occ. eigenvalues --   -0.44393  -0.43160  -0.42029  -0.41252  -0.39713
 Alpha  occ. eigenvalues --   -0.38177  -0.37209  -0.35934  -0.35619  -0.35208
 Alpha  occ. eigenvalues --   -0.33497  -0.33069  -0.33013  -0.32051  -0.31036
 Alpha  occ. eigenvalues --   -0.30595  -0.28530
 Alpha virt. eigenvalues --    0.07785   0.09509   0.11643   0.11997   0.12792
 Alpha virt. eigenvalues --    0.13783   0.14327   0.15540   0.15548   0.16126
 Alpha virt. eigenvalues --    0.17732   0.17744   0.18515   0.19548   0.19752
 Alpha virt. eigenvalues --    0.20010   0.21043   0.21143   0.21501   0.23190
 Alpha virt. eigenvalues --    0.23347   0.24124   0.24754   0.25046   0.26661
 Alpha virt. eigenvalues --    0.27236   0.29649   0.30498   0.43671   0.45398
 Alpha virt. eigenvalues --    0.46210   0.47275   0.47778   0.47807   0.51709
 Alpha virt. eigenvalues --    0.52678   0.52982   0.54015   0.55869   0.56359
 Alpha virt. eigenvalues --    0.57821   0.59480   0.61211   0.62550   0.64646
 Alpha virt. eigenvalues --    0.64828   0.66257   0.66890   0.68920   0.70367
 Alpha virt. eigenvalues --    0.71392   0.72058   0.72258   0.73457   0.73590
 Alpha virt. eigenvalues --    0.73858   0.73906   0.74695   0.74901   0.75670
 Alpha virt. eigenvalues --    0.76242   0.76728   0.77354   0.78612   0.80306
 Alpha virt. eigenvalues --    0.80952   0.82334   0.82932   0.85244   0.86385
 Alpha virt. eigenvalues --    0.87139   0.88160   0.88828   0.89462   0.90293
 Alpha virt. eigenvalues --    0.90868   0.93322   0.94697   1.04457   1.08258
 Alpha virt. eigenvalues --    1.08630   1.12556   1.13924   1.15823   1.20542
 Alpha virt. eigenvalues --    1.21885   1.21939   1.23285   1.25791   1.31238
 Alpha virt. eigenvalues --    1.32023   1.34348   1.34527   1.38751   1.39268
 Alpha virt. eigenvalues --    1.39813   1.40492   1.41134   1.42898   1.44426
 Alpha virt. eigenvalues --    1.47039   1.49252   1.50222   1.52412   1.53780
 Alpha virt. eigenvalues --    1.54458   1.56616   1.58425   1.60912   1.63864
 Alpha virt. eigenvalues --    1.64392   1.68077   1.69207   1.73711   1.76155
 Alpha virt. eigenvalues --    1.79156   1.80503   1.83824   1.84642   1.84852
 Alpha virt. eigenvalues --    1.85556   1.86964   1.89135   1.89492   1.92527
 Alpha virt. eigenvalues --    1.93621   1.94559   1.96873   1.97131   1.98201
 Alpha virt. eigenvalues --    1.99041   2.02296   2.02301   2.14627   2.17515
 Alpha virt. eigenvalues --    2.20343   2.22049   2.23515   2.28887   2.29892
 Alpha virt. eigenvalues --    2.30142   2.30822   2.31100   2.31861   2.32237
 Alpha virt. eigenvalues --    2.34631   2.36265   2.37493   2.42816   2.45402
 Alpha virt. eigenvalues --    2.46499   2.50804   2.51105   2.55697   2.62906
 Alpha virt. eigenvalues --    2.65782   2.67939   2.69756   2.72910   2.74467
 Alpha virt. eigenvalues --    2.75335   2.77201   2.77480   2.78677   2.80579
 Alpha virt. eigenvalues --    2.81541   2.82182   2.82274   2.84115   2.84465
 Alpha virt. eigenvalues --    2.86320   2.86655   2.87294   2.89322   2.91183
 Alpha virt. eigenvalues --    2.92361   2.93498   2.93845   2.94370   2.95380
 Alpha virt. eigenvalues --    2.95468   2.96676   2.96734   3.00159   3.01720
 Alpha virt. eigenvalues --    3.02978   3.03909   3.04682   3.05314   3.07317
 Alpha virt. eigenvalues --    3.09080   3.10186   3.14694   3.15282   3.18315
 Alpha virt. eigenvalues --    3.19984   3.25412   3.26349   3.30652   3.33619
 Alpha virt. eigenvalues --    3.38232   3.38837   3.40927   3.41570   3.43778
 Alpha virt. eigenvalues --    3.46252   3.47337   3.49892   3.50220   3.54422
 Alpha virt. eigenvalues --    3.55007   3.57228   3.60277   3.60367   3.61948
 Alpha virt. eigenvalues --    3.62900   3.63458   3.65211   3.67122   3.67677
 Alpha virt. eigenvalues --    3.68821   3.70133   3.73603   3.75228   3.76898
 Alpha virt. eigenvalues --    3.79747   3.81678   3.82398   3.82839   3.83333
 Alpha virt. eigenvalues --    3.87183   3.89249   3.95402   3.98960   3.99498
 Alpha virt. eigenvalues --    4.06058   4.10085   4.14398   4.20690   4.22217
 Alpha virt. eigenvalues --    4.24461   4.29371   4.32817   4.38656   4.40802
 Alpha virt. eigenvalues --    4.41230   4.44498   4.45422   4.45981   4.46113
 Alpha virt. eigenvalues --    4.48539   4.50181   4.53455   4.54576   4.55069
 Alpha virt. eigenvalues --    4.55338   4.57946   4.61232   4.62124   4.64542
 Alpha virt. eigenvalues --    4.64662   4.67644   4.69272   4.69289   4.69514
 Alpha virt. eigenvalues --    4.70498   4.71881   4.72198   4.72472   4.74348
 Alpha virt. eigenvalues --    4.76887   4.78602   4.79473   4.79972   4.80641
 Alpha virt. eigenvalues --    4.81498   4.81776   4.83100   4.85058   4.87608
 Alpha virt. eigenvalues --    4.88525   4.90905   4.91755   4.93609   4.94122
 Alpha virt. eigenvalues --    4.95175   4.96210   4.97141   5.02189   5.02942
 Alpha virt. eigenvalues --    5.05323   5.17695   5.25624   5.28917   5.32607
 Alpha virt. eigenvalues --    5.47153   5.50147   5.52358   5.52359   5.55844
 Alpha virt. eigenvalues --    5.57077   5.66838   5.66840   5.70350   5.86414
 Alpha virt. eigenvalues --    6.30520  11.17621  11.39227  11.69707  11.96671
 Alpha virt. eigenvalues --   12.00229  12.03730  12.33783  12.51665  12.85481
          Condensed to atoms (all electrons):
               1          2          3          4          5          6
     1  C    4.958593   0.403349  -0.038098   0.002214  -0.000168   0.000001
     2  C    0.403349   4.766708   0.432040  -0.034253   0.002173  -0.000119
     3  C   -0.038098   0.432040   4.787108   0.426612  -0.034374   0.001940
     4  C    0.002214  -0.034253   0.426612   4.803599   0.425816  -0.026719
     5  C   -0.000168   0.002173  -0.034374   0.425816   4.893495   0.424184
     6  C    0.000001  -0.000119   0.001940  -0.026719   0.424184   4.325413
     7  C    0.000000   0.000004   0.000499  -0.005318  -0.042928   0.411461
     8  C    0.000000   0.000004   0.000499  -0.005318  -0.042928   0.411462
     9  C   -0.000000   0.000001  -0.000160   0.002151  -0.039326   0.393803
    10  H    0.369668  -0.022020   0.003607  -0.000179   0.000001  -0.000000
    11  H    0.379158  -0.028976  -0.004644   0.000219   0.000005   0.000000
    12  H    0.379158  -0.028976  -0.004644   0.000219   0.000005   0.000000
    13  H   -0.036375   0.371036  -0.033450  -0.002608   0.000193   0.000012
    14  H   -0.036375   0.371036  -0.033450  -0.002608   0.000193   0.000012
    15  H   -0.002454  -0.034565   0.364311  -0.031464  -0.002382   0.000124
    16  H   -0.002454  -0.034566   0.364312  -0.031465  -0.002382   0.000124
    17  H    0.000149  -0.003432  -0.033086   0.364170  -0.031897  -0.004272
    18  H    0.000149  -0.003432  -0.033086   0.364169  -0.031897  -0.004272
    19  H    0.000009   0.000112  -0.002954  -0.033814   0.348814  -0.020643
    20  H    0.000009   0.000112  -0.002954  -0.033814   0.348813  -0.020644
    21  H   -0.000000   0.000005  -0.000102  -0.001005  -0.004354  -0.018551
    22  H    0.000000   0.000001  -0.000033  -0.000050  -0.005310  -0.018977
    23  H   -0.000000  -0.000000  -0.000007   0.000118   0.004652  -0.020530
    24  H   -0.000000   0.000005  -0.000102  -0.001005  -0.004354  -0.018551
    25  H   -0.000000  -0.000000  -0.000007   0.000118   0.004652  -0.020530
    26  H    0.000000   0.000001  -0.000033  -0.000050  -0.005310  -0.018977
    27  H    0.000000   0.000000   0.000003   0.000156  -0.005123  -0.017668
    28  H    0.000000   0.000000   0.000003   0.000156  -0.005123  -0.017669
    29  H    0.000000  -0.000000   0.000001  -0.000158   0.004144  -0.017168
               7          8          9         10         11         12
     1  C    0.000000   0.000000  -0.000000   0.369668   0.379158   0.379158
     2  C    0.000004   0.000004   0.000001  -0.022020  -0.028976  -0.028976
     3  C    0.000499   0.000499  -0.000160   0.003607  -0.004644  -0.004644
     4  C   -0.005318  -0.005318   0.002151  -0.000179   0.000219   0.000219
     5  C   -0.042928  -0.042928  -0.039326   0.000001   0.000005   0.000005
     6  C    0.411461   0.411462   0.393803  -0.000000   0.000000   0.000000
     7  C    5.058764  -0.056190  -0.051783  -0.000000  -0.000000   0.000000
     8  C   -0.056190   5.058762  -0.051783  -0.000000   0.000000  -0.000000
     9  C   -0.051783  -0.051783   5.085731   0.000000   0.000000   0.000000
    10  H   -0.000000  -0.000000   0.000000   0.614007  -0.031992  -0.031991
    11  H   -0.000000   0.000000   0.000000  -0.031992   0.603349  -0.033497
    12  H    0.000000  -0.000000   0.000000  -0.031991  -0.033497   0.603349
    13  H    0.000000  -0.000010   0.000000  -0.002441  -0.004581   0.005797
    14  H   -0.000010   0.000000   0.000000  -0.002441   0.005797  -0.004580
    15  H   -0.000010   0.000001   0.000001  -0.000051  -0.000404   0.004924
    16  H    0.000001  -0.000010   0.000001  -0.000051   0.004923  -0.000404
    17  H   -0.000793   0.001309   0.000193   0.000004   0.000002   0.000012
    18  H    0.001309  -0.000793   0.000193   0.000004   0.000012   0.000002
    19  H   -0.008027   0.005854  -0.004870   0.000000   0.000001  -0.000002
    20  H    0.005854  -0.008027  -0.004871   0.000000  -0.000002   0.000001
    21  H    0.365557  -0.005247   0.005637   0.000000  -0.000000   0.000000
    22  H    0.363709   0.005571  -0.004579   0.000000   0.000000  -0.000000
    23  H    0.365803  -0.004228  -0.006128  -0.000000   0.000000   0.000000
    24  H   -0.005247   0.365557   0.005637   0.000000   0.000000  -0.000000
    25  H   -0.004228   0.365804  -0.006128  -0.000000   0.000000   0.000000
    26  H    0.005571   0.363708  -0.004579   0.000000  -0.000000   0.000000
    27  H   -0.004995   0.005634   0.362462   0.000000   0.000000  -0.000000
    28  H    0.005634  -0.004995   0.362461   0.000000  -0.000000   0.000000
    29  H   -0.004801  -0.004801   0.362199  -0.000000   0.000000   0.000000
              13         14         15         16         17         18
     1  C   -0.036375  -0.036375  -0.002454  -0.002454   0.000149   0.000149
     2  C    0.371036   0.371036  -0.034565  -0.034566  -0.003432  -0.003432
     3  C   -0.033450  -0.033450   0.364311   0.364312  -0.033086  -0.033086
     4  C   -0.002608  -0.002608  -0.031464  -0.031465   0.364170   0.364169
     5  C    0.000193   0.000193  -0.002382  -0.002382  -0.031897  -0.031897
     6  C    0.000012   0.000012   0.000124   0.000124  -0.004272  -0.004272
     7  C    0.000000  -0.000010  -0.000010   0.000001  -0.000793   0.001309
     8  C   -0.000010   0.000000   0.000001  -0.000010   0.001309  -0.000793
     9  C    0.000000   0.000000   0.000001   0.000001   0.000193   0.000193
    10  H   -0.002441  -0.002441  -0.000051  -0.000051   0.000004   0.000004
    11  H   -0.004581   0.005797  -0.000404   0.004923   0.000002   0.000012
    12  H    0.005797  -0.004580   0.004924  -0.000404   0.000012   0.000002
    13  H    0.646667  -0.041942   0.006168  -0.005501   0.005766  -0.000550
    14  H   -0.041942   0.646667  -0.005501   0.006168  -0.000550   0.005766
    15  H    0.006168  -0.005501   0.650259  -0.043196   0.006353  -0.005853
    16  H   -0.005501   0.006168  -0.043196   0.650257  -0.005853   0.006353
    17  H    0.005766  -0.000550   0.006353  -0.005853   0.644521  -0.043376
    18  H   -0.000550   0.005766  -0.005853   0.006353  -0.043376   0.644523
    19  H    0.000008   0.000004   0.005163  -0.000438   0.006365  -0.004993
    20  H    0.000004   0.000008  -0.000438   0.005163  -0.004993   0.006366
    21  H    0.000002  -0.000005   0.000012   0.000001   0.000574   0.004111
    22  H   -0.000000   0.000000   0.000006   0.000000   0.000058   0.000777
    23  H    0.000000   0.000000  -0.000000   0.000000  -0.000040  -0.000178
    24  H   -0.000005   0.000002   0.000001   0.000012   0.004111   0.000574
    25  H    0.000000   0.000000   0.000000  -0.000000  -0.000178  -0.000040
    26  H    0.000000  -0.000000   0.000000   0.000006   0.000777   0.000058
    27  H   -0.000000   0.000000   0.000001   0.000000   0.000003  -0.000005
    28  H    0.000000  -0.000000   0.000000   0.000001  -0.000005   0.000003
    29  H    0.000000   0.000000   0.000000   0.000000   0.000002   0.000002
              19         20         21         22         23         24
     1  C    0.000009   0.000009  -0.000000   0.000000  -0.000000  -0.000000
     2  C    0.000112   0.000112   0.000005   0.000001  -0.000000   0.000005
     3  C   -0.002954  -0.002954  -0.000102  -0.000033  -0.000007  -0.000102
     4  C   -0.033814  -0.033814  -0.001005  -0.000050   0.000118  -0.001005
     5  C    0.348814   0.348813  -0.004354  -0.005310   0.004652  -0.004354
     6  C   -0.020643  -0.020644  -0.018551  -0.018977  -0.020530  -0.018551
     7  C   -0.008027   0.005854   0.365557   0.363709   0.365803  -0.005247
     8  C    0.005854  -0.008027  -0.005247   0.005571  -0.004228   0.365557
     9  C   -0.004870  -0.004871   0.005637  -0.004579  -0.006128   0.005637
    10  H    0.000000   0.000000   0.000000   0.000000  -0.000000   0.000000
    11  H    0.000001  -0.000002  -0.000000   0.000000   0.000000   0.000000
    12  H   -0.000002   0.000001   0.000000  -0.000000   0.000000  -0.000000
    13  H    0.000008   0.000004   0.000002  -0.000000   0.000000  -0.000005
    14  H    0.000004   0.000008  -0.000005   0.000000   0.000000   0.000002
    15  H    0.005163  -0.000438   0.000012   0.000006  -0.000000   0.000001
    16  H   -0.000438   0.005163   0.000001   0.000000   0.000000   0.000012
    17  H    0.006365  -0.004993   0.000574   0.000058  -0.000040   0.004111
    18  H   -0.004993   0.006366   0.004111   0.000777  -0.000178   0.000574
    19  H    0.657987  -0.041684   0.000038   0.004424  -0.000096  -0.000058
    20  H   -0.041684   0.657991  -0.000058  -0.000046  -0.000180   0.000038
    21  H    0.000038  -0.000058   0.603987  -0.033589  -0.031905   0.003829
    22  H    0.004424  -0.000046  -0.033589   0.611844  -0.032191  -0.000054
    23  H   -0.000096  -0.000180  -0.031905  -0.032191   0.611648  -0.000057
    24  H   -0.000058   0.000038   0.003829  -0.000054  -0.000057   0.603987
    25  H   -0.000180  -0.000096  -0.000057  -0.000081   0.003721  -0.031906
    26  H   -0.000046   0.004424  -0.000054  -0.000216  -0.000081  -0.033588
    27  H    0.004706  -0.000137  -0.000072   0.003919  -0.000034  -0.000220
    28  H   -0.000137   0.004706  -0.000220  -0.000072  -0.000040  -0.000072
    29  H   -0.000076  -0.000076  -0.000067  -0.000051   0.004364  -0.000067
              25         26         27         28         29
     1  C   -0.000000   0.000000   0.000000   0.000000   0.000000
     2  C   -0.000000   0.000001   0.000000   0.000000  -0.000000
     3  C   -0.000007  -0.000033   0.000003   0.000003   0.000001
     4  C    0.000118  -0.000050   0.000156   0.000156  -0.000158
     5  C    0.004652  -0.005310  -0.005123  -0.005123   0.004144
     6  C   -0.020530  -0.018977  -0.017668  -0.017669  -0.017168
     7  C   -0.004228   0.005571  -0.004995   0.005634  -0.004801
     8  C    0.365804   0.363708   0.005634  -0.004995  -0.004801
     9  C   -0.006128  -0.004579   0.362462   0.362461   0.362199
    10  H   -0.000000   0.000000   0.000000   0.000000  -0.000000
    11  H    0.000000  -0.000000   0.000000  -0.000000   0.000000
    12  H    0.000000   0.000000  -0.000000   0.000000   0.000000
    13  H    0.000000   0.000000  -0.000000   0.000000   0.000000
    14  H    0.000000  -0.000000   0.000000  -0.000000   0.000000
    15  H    0.000000   0.000000   0.000001   0.000000   0.000000
    16  H   -0.000000   0.000006   0.000000   0.000001   0.000000
    17  H   -0.000178   0.000777   0.000003  -0.000005   0.000002
    18  H   -0.000040   0.000058  -0.000005   0.000003   0.000002
    19  H   -0.000180  -0.000046   0.004706  -0.000137  -0.000076
    20  H   -0.000096   0.004424  -0.000137   0.004706  -0.000076
    21  H   -0.000057  -0.000054  -0.000072  -0.000220  -0.000067
    22  H   -0.000081  -0.000216   0.003919  -0.000072  -0.000051
    23  H    0.003721  -0.000081  -0.000034  -0.000040   0.004364
    24  H   -0.031906  -0.033588  -0.000220  -0.000072  -0.000067
    25  H    0.611646  -0.032191  -0.000040  -0.000034   0.004364
    26  H   -0.032191   0.611845  -0.000072   0.003919  -0.000051
    27  H   -0.000040  -0.000072   0.611815  -0.032324  -0.032607
    28  H   -0.000034   0.003919  -0.032324   0.611817  -0.032608
    29  H    0.004364  -0.000051  -0.032607  -0.032608   0.613514
 Mulliken charges:
               1
     1  C   -0.376533
     2  C   -0.156247
     3  C   -0.159749
     4  C   -0.179886
     5  C   -0.199283
     6  C    0.276753
     7  C   -0.399835
     8  C   -0.399835
     9  C   -0.406264
    10  H    0.103875
    11  H    0.110629
    12  H    0.110628
    13  H    0.091809
    14  H    0.091809
    15  H    0.088994
    16  H    0.088996
    17  H    0.094105
    18  H    0.094104
    19  H    0.084535
    20  H    0.084533
    21  H    0.111533
    22  H    0.104941
    23  H    0.105388
    24  H    0.111532
    25  H    0.105390
    26  H    0.104940
    27  H    0.104601
    28  H    0.104600
    29  H    0.103940
 Sum of Mulliken charges =  -0.00000
 Mulliken charges with hydrogens summed into heavy atoms:
               1
     1  C   -0.051401
     2  C    0.027371
     3  C    0.018242
     4  C    0.008323
     5  C   -0.030216
     6  C    0.276753
     7  C   -0.077974
     8  C   -0.077973
     9  C   -0.093124
 Electronic spatial extent (au):  <R**2>=           2246.7116
 Charge=             -0.0000 electrons
 Dipole moment (field-independent basis, Debye):
    X=             -0.0315    Y=             -0.0650    Z=             -0.0000  Tot=              0.0722
 Quadrupole moment (field-independent basis, Debye-Ang):
   XX=            -63.2739   YY=            -61.6993   ZZ=            -60.7838
   XY=              0.0200   XZ=             -0.0000   YZ=              0.0000
 Traceless Quadrupole moment (field-independent basis, Debye-Ang):
   XX=             -1.3549   YY=              0.2197   ZZ=              1.1352
   XY=              0.0200   XZ=             -0.0000   YZ=              0.0000
 Octapole moment (field-independent basis, Debye-Ang**2):
  XXX=              7.6673  YYY=             -0.8500  ZZZ=             -0.0000  XYY=             -1.5009
  XXY=             -4.8027  XXZ=             -0.0002  XZZ=             -2.8843  YZZ=              2.5963
  YYZ=              0.0000  XYZ=              0.0000
 Hexadecapole moment (field-independent basis, Debye-Ang**3):
 XXXX=          -2587.9287 YYYY=           -316.2938 ZZZZ=           -280.5889 XXXY=             -2.7223
 XXXZ=             -0.0003 YYYX=              0.1554 YYYZ=              0.0003 ZZZX=             -0.0000
 ZZZY=              0.0000 XXYY=           -476.7070 XXZZ=           -468.1262 YYZZ=            -96.6197
 XXYZ=              0.0002 YYXZ=             -0.0000 ZZXY=              3.3936
 N-N= 4.807096322684D+02 E-N=-1.781266032068D+03  KE= 3.518794849714D+02
 PrsmSu:  requested number of processors reduced to:  13 ShMem   1 Linda.
 Calling FoFJK, ICntrl=      2127 FMM=F ISym2X=0 I1Cent= 0 IOpClX= 0 NMat=1 NMatS=1 NMatT=0.
 ***** Axes restored to original set *****
 -------------------------------------------------------------------
 Center     Atomic                   Forces (Hartrees/Bohr)
 Number     Number              X              Y              Z
 -------------------------------------------------------------------
      1        6          -0.004336592    0.002202083   -0.008241335
      2        6          -0.006726483   -0.001671832    0.006250181
      3        6           0.008368673    0.002864406   -0.010732373
      4        6          -0.003723654   -0.002904845    0.010856515
      5        6           0.007360231    0.001688584   -0.006293952
      6        6           0.001381869   -0.001295114    0.004835748
      7        6          -0.000064429   -0.000472281   -0.002206473
      8        6          -0.000071575    0.001513481   -0.001675127
      9        6           0.000778347   -0.000129990    0.000498230
     10        1          -0.003905004   -0.000218494    0.000817065
     11        1          -0.002183729    0.000150041    0.000503055
     12        1          -0.002182917   -0.000379594    0.000360569
     13        1           0.001847128    0.000240260   -0.000228630
     14        1           0.001847245   -0.000093677   -0.000317428
     15        1          -0.001856571   -0.000808439    0.001021324
     16        1          -0.001858908    0.000194962    0.001292810
     17        1           0.001291133    0.000395778   -0.001224973
     18        1           0.001290837    0.000269543   -0.001258735
     19        1           0.000964531   -0.000688945    0.000431963
     20        1           0.000965754    0.000378043    0.000714921
     21        1           0.000186807   -0.000244774    0.000662785
     22        1           0.000383059   -0.000331878   -0.000129758
     23        1           0.000262278   -0.000061471    0.001387428
     24        1           0.000186348   -0.000118022    0.000697056
     25        1           0.000268687   -0.000639400    0.001233764
     26        1           0.000383985    0.000350308    0.000050361
     27        1          -0.000267916   -0.000193356    0.000169012
     28        1          -0.000267550    0.000081343    0.000240920
     29        1          -0.000321583   -0.000076719    0.000285075
 -------------------------------------------------------------------
 Cartesian Forces:  Max     0.010856515 RMS     0.002849189

 GradGradGradGradGradGradGradGradGradGradGradGradGradGradGradGradGradGrad
 Berny optimization.
 FormGI is forming the generalized inverse of G from B-inverse, IUseBI=4.
 Internal  Forces:  Max     0.017989824 RMS     0.003103115
 Search for a local minimum.
 Step number   1 out of a maximum of  164
 All quantities printed in internal units (Hartrees-Bohrs-Radians)
 Mixed Optimization -- RFO/linear search
 Second derivative matrix not updated -- first step.
 ITU=  0
     Eigenvalues ---    0.00230   0.00250   0.00257   0.00257   0.00361
     Eigenvalues ---    0.00390   0.00468   0.00559   0.03397   0.03650
     Eigenvalues ---    0.03805   0.03933   0.04430   0.04759   0.04840
     Eigenvalues ---    0.04891   0.04962   0.04981   0.04992   0.05335
     Eigenvalues ---    0.05335   0.05397   0.05415   0.05415   0.05436
     Eigenvalues ---    0.05711   0.05780   0.07786   0.08074   0.08260
     Eigenvalues ---    0.08439   0.11777   0.11993   0.12133   0.12287
     Eigenvalues ---    0.14334   0.14439   0.16000   0.16000   0.16000
     Eigenvalues ---    0.16000   0.16000   0.16000   0.16000   0.16000
     Eigenvalues ---    0.16000   0.16000   0.16000   0.16000   0.21866
     Eigenvalues ---    0.21883   0.21912   0.21934   0.27563   0.28604
     Eigenvalues ---    0.28653   0.28654   0.29367   0.29573   0.30126
     Eigenvalues ---    0.30791   0.33930   0.33930   0.34087   0.34146
     Eigenvalues ---    0.34146   0.34151   0.34151   0.34197   0.34198
     Eigenvalues ---    0.34222   0.34224   0.34228   0.34230   0.34253
     Eigenvalues ---    0.34253   0.34255   0.34406   0.34406   0.34430
     Eigenvalues ---    0.34431
 RFO step:  Lambda=-7.16050222D-03 EMin= 2.30000000D-03
 Linear search not attempted -- first point.
 Iteration  1 RMS(Cart)=  0.10707609 RMS(Int)=  0.00207973
 Iteration  2 RMS(Cart)=  0.00385896 RMS(Int)=  0.00018997
 Iteration  3 RMS(Cart)=  0.00000728 RMS(Int)=  0.00018996
 Iteration  4 RMS(Cart)=  0.00000000 RMS(Int)=  0.00018996
 Variable       Old X    -DE/DX   Delta X   Delta X   Delta X     New X
                                 (Linear)    (Quad)   (Total)
    R1        2.86412   0.01273   0.00000   0.04041   0.04041   2.90454
    R2        2.06902   0.00047   0.00000   0.00136   0.00136   2.07038
    R3        2.06609   0.00122   0.00000   0.00346   0.00346   2.06956
    R4        2.06610   0.00122   0.00000   0.00346   0.00346   2.06956
    R5        2.88823   0.00611   0.00000   0.02016   0.02016   2.90839
    R6        2.07084   0.00091   0.00000   0.00261   0.00261   2.07346
    R7        2.07085   0.00091   0.00000   0.00261   0.00261   2.07346
    R8        2.87712   0.01091   0.00000   0.03537   0.03537   2.91249
    R9        2.06956   0.00162   0.00000   0.00464   0.00464   2.07420
   R10        2.06954   0.00163   0.00000   0.00466   0.00466   2.07420
   R11        2.89243   0.00553   0.00000   0.01839   0.01839   2.91082
   R12        2.06650   0.00110   0.00000   0.00313   0.00313   2.06963
   R13        2.06650   0.00110   0.00000   0.00313   0.00313   2.06963
   R14        2.93104   0.00292   0.00000   0.01033   0.01033   2.94136
   R15        2.07448   0.00041   0.00000   0.00118   0.00118   2.07566
   R16        2.07449   0.00040   0.00000   0.00117   0.00117   2.07566
   R17        2.90732   0.00121   0.00000   0.00411   0.00411   2.91143
   R18        2.90731   0.00121   0.00000   0.00412   0.00412   2.91143
   R19        2.90836   0.00115   0.00000   0.00393   0.00393   2.91229
   R20        2.06906  -0.00073   0.00000  -0.00208  -0.00208   2.06698
   R21        2.07075   0.00014   0.00000   0.00040   0.00040   2.07116
   R22        2.06946   0.00032   0.00000   0.00092   0.00092   2.07038
   R23        2.06906  -0.00073   0.00000  -0.00208  -0.00208   2.06698
   R24        2.06944   0.00033   0.00000   0.00094   0.00094   2.07038
   R25        2.07076   0.00014   0.00000   0.00039   0.00039   2.07116
   R26        2.06997   0.00031   0.00000   0.00088   0.00088   2.07086
   R27        2.06998   0.00031   0.00000   0.00088   0.00088   2.07086
   R28        2.07183  -0.00031   0.00000  -0.00088  -0.00088   2.07096
    A1        1.92190   0.00514   0.00000   0.03350   0.03329   1.95519
    A2        1.93156   0.00127   0.00000   0.00621   0.00611   1.93767
    A3        1.93156   0.00127   0.00000   0.00621   0.00611   1.93767
    A4        1.89166  -0.00296   0.00000  -0.01506  -0.01526   1.87640
    A5        1.89166  -0.00296   0.00000  -0.01506  -0.01526   1.87640
    A6        1.89445  -0.00203   0.00000  -0.01738  -0.01736   1.87708
    A7        1.93328   0.01055   0.00000   0.05300   0.05288   1.98616
    A8        1.91142  -0.00227   0.00000  -0.00099  -0.00087   1.91055
    A9        1.91141  -0.00227   0.00000  -0.00098  -0.00086   1.91055
   A10        1.91873  -0.00377   0.00000  -0.01896  -0.01943   1.89929
   A11        1.91873  -0.00377   0.00000  -0.01896  -0.01943   1.89930
   A12        1.86916   0.00115   0.00000  -0.01550  -0.01590   1.85326
   A13        1.90644   0.01568   0.00000   0.07897   0.07868   1.98512
   A14        1.92103  -0.00492   0.00000  -0.02028  -0.02092   1.90010
   A15        1.92102  -0.00492   0.00000  -0.02028  -0.02092   1.90010
   A16        1.91819  -0.00400   0.00000  -0.00892  -0.00900   1.90919
   A17        1.91819  -0.00400   0.00000  -0.00892  -0.00900   1.90919
   A18        1.87890   0.00179   0.00000  -0.02257  -0.02322   1.85568
   A19        1.95806   0.00392   0.00000   0.02175   0.02168   1.97974
   A20        1.89018  -0.00079   0.00000   0.00083   0.00081   1.89098
   A21        1.89017  -0.00079   0.00000   0.00083   0.00081   1.89098
   A22        1.92323  -0.00117   0.00000  -0.00475  -0.00486   1.91837
   A23        1.92322  -0.00117   0.00000  -0.00474  -0.00485   1.91837
   A24        1.87669  -0.00014   0.00000  -0.01528  -0.01533   1.86136
   A25        1.97938   0.01799   0.00000   0.08597   0.08593   2.06531
   A26        1.90217  -0.00482   0.00000  -0.01307  -0.01291   1.88926
   A27        1.90216  -0.00482   0.00000  -0.01306  -0.01290   1.88926
   A28        1.91073  -0.00610   0.00000  -0.02836  -0.02894   1.88179
   A29        1.91073  -0.00610   0.00000  -0.02835  -0.02893   1.88179
   A30        1.85449   0.00294   0.00000  -0.00900  -0.00986   1.84462
   A31        1.93198   0.00103   0.00000   0.01250   0.01237   1.94435
   A32        1.93199   0.00102   0.00000   0.01249   0.01237   1.94436
   A33        1.89711  -0.00160   0.00000  -0.01686  -0.01679   1.88032
   A34        1.91329  -0.00067   0.00000   0.00175   0.00159   1.91488
   A35        1.89429   0.00009   0.00000  -0.00538  -0.00532   1.88897
   A36        1.89430   0.00009   0.00000  -0.00538  -0.00533   1.88897
   A37        1.95551   0.00044   0.00000   0.00483   0.00483   1.96033
   A38        1.93678   0.00071   0.00000   0.00362   0.00359   1.94038
   A39        1.94088  -0.00157   0.00000  -0.01101  -0.01101   1.92987
   A40        1.88088  -0.00025   0.00000   0.00149   0.00146   1.88235
   A41        1.86310   0.00076   0.00000   0.00571   0.00573   1.86883
   A42        1.88315  -0.00006   0.00000  -0.00458  -0.00459   1.87855
   A43        1.95551   0.00044   0.00000   0.00483   0.00483   1.96033
   A44        1.94088  -0.00157   0.00000  -0.01101  -0.01101   1.92987
   A45        1.93678   0.00071   0.00000   0.00362   0.00359   1.94037
   A46        1.86310   0.00076   0.00000   0.00571   0.00573   1.86883
   A47        1.88089  -0.00025   0.00000   0.00148   0.00145   1.88235
   A48        1.88315  -0.00006   0.00000  -0.00457  -0.00459   1.87855
   A49        1.94161  -0.00010   0.00000  -0.00106  -0.00106   1.94055
   A50        1.94161  -0.00010   0.00000  -0.00106  -0.00106   1.94055
   A51        1.93690   0.00052   0.00000   0.00405   0.00405   1.94095
   A52        1.88223  -0.00011   0.00000  -0.00237  -0.00238   1.87986
   A53        1.87938  -0.00012   0.00000   0.00017   0.00017   1.87955
   A54        1.87937  -0.00012   0.00000   0.00018   0.00018   1.87954
    D1       -3.14159   0.00000   0.00000  -0.00000  -0.00000  -3.14159
    D2        1.02243  -0.00062   0.00000  -0.00994  -0.01008   1.01236
    D3       -1.02243   0.00062   0.00000   0.00994   0.01008  -1.01235
    D4        1.05046  -0.00044   0.00000  -0.00682  -0.00688   1.04358
    D5       -1.06870  -0.00106   0.00000  -0.01676  -0.01696  -1.08566
    D6       -3.11356   0.00018   0.00000   0.00312   0.00320  -3.11036
    D7       -1.05045   0.00044   0.00000   0.00682   0.00688  -1.04357
    D8        3.11357  -0.00018   0.00000  -0.00312  -0.00320   3.11037
    D9        1.06871   0.00106   0.00000   0.01676   0.01696   1.08567
   D10       -3.14159   0.00000   0.00000  -0.00000  -0.00000  -3.14159
   D11        1.03410  -0.00192   0.00000  -0.02632  -0.02609   1.00801
   D12       -1.03410   0.00192   0.00000   0.02632   0.02609  -1.00801
   D13       -1.02674   0.00155   0.00000   0.02083   0.02060  -1.00614
   D14       -3.13423  -0.00037   0.00000  -0.00549  -0.00549  -3.13972
   D15        1.08075   0.00347   0.00000   0.04715   0.04669   1.12744
   D16        1.02675  -0.00155   0.00000  -0.02083  -0.02061   1.00614
   D17       -1.08074  -0.00347   0.00000  -0.04715  -0.04669  -1.12744
   D18        3.13424   0.00037   0.00000   0.00549   0.00549   3.13972
   D19       -3.14159  -0.00000   0.00000  -0.00000  -0.00000  -3.14159
   D20        1.01511  -0.00051   0.00000  -0.00857  -0.00860   1.00651
   D21       -1.01512   0.00051   0.00000   0.00858   0.00861  -1.00651
   D22       -1.03237   0.00133   0.00000   0.01921   0.01933  -1.01303
   D23        3.12433   0.00082   0.00000   0.01064   0.01073   3.13506
   D24        1.09410   0.00184   0.00000   0.02780   0.02794   1.12205
   D25        1.03238  -0.00133   0.00000  -0.01923  -0.01934   1.01304
   D26       -1.09411  -0.00184   0.00000  -0.02780  -0.02794  -1.12205
   D27       -3.12434  -0.00082   0.00000  -0.01064  -0.01073  -3.13507
   D28       -3.14159  -0.00000   0.00000   0.00000   0.00000  -3.14159
   D29        1.00842  -0.00088   0.00000  -0.01248  -0.01261   0.99580
   D30       -1.00843   0.00088   0.00000   0.01250   0.01263  -0.99580
   D31       -1.03409   0.00081   0.00000   0.01234   0.01232  -1.02177
   D32        3.11592  -0.00007   0.00000  -0.00014  -0.00029   3.11562
   D33        1.09907   0.00169   0.00000   0.02484   0.02494   1.12402
   D34        1.03411  -0.00081   0.00000  -0.01235  -0.01233   1.02178
   D35       -1.09907  -0.00169   0.00000  -0.02484  -0.02495  -1.12401
   D36       -3.11592   0.00007   0.00000   0.00014   0.00029  -3.11562
   D37       -1.06263  -0.00027   0.00000  -0.00958  -0.00966  -1.07228
   D38        1.06261   0.00027   0.00000   0.00959   0.00967   1.07228
   D39        3.14159   0.00000   0.00000   0.00000   0.00000   3.14159
   D40        1.06578   0.00142   0.00000   0.01190   0.01146   1.07724
   D41       -3.09217   0.00197   0.00000   0.03108   0.03078  -3.06138
   D42       -1.01319   0.00169   0.00000   0.02149   0.02112  -0.99207
   D43        3.09216  -0.00197   0.00000  -0.03108  -0.03078   3.06138
   D44       -1.06579  -0.00142   0.00000  -0.01191  -0.01146  -1.07724
   D45        1.01319  -0.00169   0.00000  -0.02149  -0.02112   0.99207
   D46        1.11055   0.00118   0.00000   0.03085   0.03086   1.14142
   D47       -0.99279   0.00071   0.00000   0.02313   0.02313  -0.96966
   D48       -3.08912   0.00137   0.00000   0.03384   0.03384  -3.05529
   D49       -1.02564  -0.00034   0.00000   0.00568   0.00570  -1.01994
   D50       -3.12898  -0.00081   0.00000  -0.00204  -0.00203  -3.13101
   D51        1.05787  -0.00015   0.00000   0.00867   0.00867   1.06654
   D52       -3.09196  -0.00011   0.00000   0.01432   0.01431  -3.07765
   D53        1.08788  -0.00058   0.00000   0.00660   0.00658   1.09446
   D54       -1.00845   0.00007   0.00000   0.01731   0.01729  -0.99117
   D55       -1.11055  -0.00118   0.00000  -0.03085  -0.03086  -1.14141
   D56        3.08913  -0.00137   0.00000  -0.03384  -0.03384   3.05529
   D57        0.99280  -0.00071   0.00000  -0.02313  -0.02314   0.96966
   D58        1.02563   0.00034   0.00000  -0.00568  -0.00570   1.01994
   D59       -1.05787   0.00015   0.00000  -0.00867  -0.00867  -1.06654
   D60        3.12898   0.00081   0.00000   0.00204   0.00203   3.13101
   D61        3.09196   0.00011   0.00000  -0.01431  -0.01431   3.07765
   D62        1.00845  -0.00007   0.00000  -0.01731  -0.01729   0.99117
   D63       -1.08788   0.00058   0.00000  -0.00660  -0.00658  -1.09446
   D64        1.04946  -0.00014   0.00000  -0.00222  -0.00222   1.04724
   D65       -1.04947   0.00014   0.00000   0.00223   0.00223  -1.04724
   D66       -3.14159   0.00000   0.00000  -0.00000  -0.00000  -3.14159
   D67       -1.05298  -0.00048   0.00000  -0.00424  -0.00427  -1.05725
   D68        3.13128  -0.00021   0.00000   0.00021   0.00017   3.13145
   D69        1.03916  -0.00035   0.00000  -0.00202  -0.00206   1.03710
   D70       -3.13128   0.00021   0.00000  -0.00021  -0.00017  -3.13145
   D71        1.05298   0.00048   0.00000   0.00424   0.00427   1.05725
   D72       -1.03915   0.00035   0.00000   0.00201   0.00205  -1.03710
         Item               Value     Threshold  Converged?
 Maximum Force            0.017990     0.000450     NO 
 RMS     Force            0.003103     0.000300     NO 
 Maximum Displacement     0.418301     0.001800     NO 
 RMS     Displacement     0.107481     0.001200     NO 
 Predicted change in Energy=-3.753859D-03
 GradGradGradGradGradGradGradGradGradGradGradGradGradGradGradGradGradGrad

                          Input orientation:                          
 ---------------------------------------------------------------------
 Center     Atomic      Atomic             Coordinates (Angstroms)
 Number     Number       Type             X           Y           Z
 ---------------------------------------------------------------------
      1          6           0        0.704799   -0.061324   -0.039421
      2          6           0        2.241637   -0.055295   -0.061974
      3          6           0        2.883999   -0.416460    1.289180
      4          6           0        4.425022   -0.409999    1.265015
      5          6           0        5.060386   -0.772355    2.620619
      6          6           0        6.613149   -0.800198    2.724796
      7          6           0        7.221549   -1.850680    1.776125
      8          6           0        7.221546    0.583521    2.426788
      9          6           0        6.979760   -1.186744    4.170901
     10          1           0        0.278575    0.199306   -1.014479
     11          1           0        0.319818    0.657832    0.691324
     12          1           0        0.319819   -1.049171    0.235047
     13          1           0        2.598926    0.935260   -0.370276
     14          1           0        2.598927   -0.759911   -0.823398
     15          1           0        2.528566   -1.408146    1.597399
     16          1           0        2.528563    0.289176    2.051096
     17          1           0        4.760662    0.583582    0.949405
     18          1           0        4.760663   -1.113591    0.495748
     19          1           0        4.685454   -1.759411    2.923286
     20          1           0        4.685452   -0.067960    3.375415
     21          1           0        7.055404   -1.605272    0.723238
     22          1           0        6.796722   -2.844011    1.960654
     23          1           0        8.304997   -1.920561    1.923083
     24          1           0        7.055399    0.896182    1.391878
     25          1           0        8.304994    0.570760    2.589012
     26          1           0        6.796718    1.352300    3.082330
     27          1           0        6.577779   -2.172360    4.431397
     28          1           0        6.577777   -0.462555    4.888430
     29          1           0        8.066420   -1.223417    4.308113
 ---------------------------------------------------------------------
                    Distance matrix (angstroms):
                    1          2          3          4          5
     1  C    0.000000
     2  C    1.537016   0.000000
     3  C    2.576862   1.539054   0.000000
     4  C    3.957674   2.579512   1.541225   0.000000
     5  C    5.152914   3.956744   2.576053   1.540342   0.000000
     6  C    6.564712   5.237470   4.014326   2.659158   1.556503
     7  C    6.997573   5.603707   4.594392   3.187061   2.558628
     8  C    6.997571   5.603705   4.594390   3.187059   2.558629
     9  C    7.639929   6.453465   5.066844   3.946415   2.501816
    10  H    1.095597   2.196748   3.531890   4.770783   6.084717
    11  H    1.095163   2.183895   2.843688   4.280430   5.314189
    12  H    1.095163   2.183894   2.843684   4.280427   5.314184
    13  H    2.165724   1.097226   2.159215   2.796163   4.233225
    14  H    2.165725   1.097226   2.159215   2.796164   4.233225
    15  H    2.796290   2.160105   1.097622   2.168714   2.803805
    16  H    2.796288   2.160105   1.097621   2.168715   2.803807
    17  H    4.224181   2.788644   2.153460   1.095202   2.172868
    18  H    4.224181   2.788644   2.153461   1.095202   2.172867
    19  H    5.244687   4.217585   2.778319   2.153741   1.098391
    20  H    5.244687   4.217586   2.778319   2.153741   1.098392
    21  H    6.579940   5.117747   4.374264   2.939577   2.876439
    22  H    6.989647   5.711108   4.653308   3.468903   2.782476
    23  H    8.066672   6.647105   5.661393   4.215337   3.511757
    24  H    6.579936   5.117743   4.374260   2.939573   2.876438
    25  H    8.066669   6.647102   5.661391   4.215334   3.511757
    26  H    6.989645   5.711106   4.653306   3.468901   2.782477
    27  H    7.677016   6.593517   5.157589   4.215004   2.746163
    28  H    7.677016   6.593517   5.157588   4.215003   2.746164
    29  H    8.628150   7.374975   6.051662   4.814756   3.476684
                    6          7          8          9         10
     6  C    0.000000
     7  C    1.540662   0.000000
     8  C    1.540661   2.519663   0.000000
     9  C    1.541116   2.496843   2.496844   0.000000
    10  H    7.423478   7.758531   7.758530   8.585754   0.000000
    11  H    6.772509   7.423161   7.116966   7.737231   1.766836
    12  H    6.772506   7.116966   7.423156   7.737227   1.766836
    13  H    5.357731   5.808369   5.414416   6.657093   2.518066
    14  H    5.357732   5.414419   5.808367   6.657094   2.518063
    15  H    4.280706   4.717188   5.165141   5.146363   3.803718
    16  H    4.280707   5.165144   4.717189   5.146364   3.803719
    17  H    2.915231   3.558801   2.870298   4.293772   4.908525
    18  H    2.915232   2.870300   3.558799   4.293773   4.908523
    19  H    2.162290   2.784975   3.488210   2.673636   6.226006
    20  H    2.162289   3.488210   2.784976   2.673635   6.226007
    21  H    2.202264   1.093801   2.778579   3.473797   7.225066
    22  H    2.189699   1.096008   3.485073   2.768614   7.784564
    23  H    2.181813   1.095601   2.774530   2.710614   8.806053
    24  H    2.202263   2.778579   1.093801   3.473797   7.225063
    25  H    2.181812   2.774529   1.095600   2.710616   8.806051
    26  H    2.189697   3.485073   1.096009   2.768615   7.784563
    27  H    2.190106   2.751070   3.468109   1.095850   8.658079
    28  H    2.190106   3.468109   2.751072   1.095851   8.658080
    29  H    2.190433   2.741939   2.741937   1.095902   9.539636
                   11         12         13         14         15
    11  H    0.000000
    12  H    1.766931   0.000000
    13  H    2.529485   3.081997   0.000000
    14  H    3.081998   2.529487   1.754686   0.000000
    15  H    3.157183   2.619814   3.060759   2.507074   0.000000
    16  H    2.619817   3.157175   2.507074   3.060760   1.756912
    17  H    4.448956   4.785109   2.557018   3.101758   3.060903
    18  H    4.785111   4.448956   3.101757   2.557018   2.506522
    19  H    5.466579   5.175889   4.739452   4.403434   2.556077
    20  H    5.175894   5.466574   4.403435   4.739453   3.099935
    21  H    7.105686   6.776111   5.245024   4.792381   4.614681
    22  H    7.471571   6.938979   6.110451   5.451230   4.517833
    23  H    8.481063   8.208036   6.780447   6.438129   5.808253
    24  H    6.776108   7.105680   4.792376   5.245020   5.083737
    25  H    8.208035   8.481058   6.438126   6.780445   6.185991
    26  H    6.938979   7.471565   5.451226   6.110450   5.295488
    27  H    7.820499   7.617937   6.967398   6.740857   5.001169
    28  H    7.617940   7.820494   6.740856   6.967399   5.302937
    29  H    8.753862   8.753859   7.512702   7.512704   6.168461
                   16         17         18         19         20
    16  H    0.000000
    17  H    2.506524   0.000000
    18  H    3.060904   1.756759   0.000000
    19  H    3.099935   3.064552   2.513101   0.000000
    20  H    2.556078   2.513103   3.064552   1.750837   0.000000
    21  H    5.083742   3.179320   2.357825   3.237380   3.874796
    22  H    5.295490   4.112974   3.047267   2.561341   3.763704
    23  H    6.185994   4.447594   3.905226   3.758653   4.317697
    24  H    4.614680   2.357821   3.179316   3.874794   3.237381
    25  H    5.808253   3.905223   4.447592   4.317697   3.758654
    26  H    4.517833   3.047264   4.112972   3.763705   2.561343
    27  H    5.302937   4.798062   4.462313   2.454755   3.020679
    28  H    5.001169   4.462312   4.798063   3.020681   2.454753
    29  H    6.168461   5.047197   5.047198   3.692691   3.692689
                   21         22         23         24         25
    21  H    0.000000
    22  H    1.769912   0.000000
    23  H    1.760829   1.768916   0.000000
    24  H    2.589276   3.792026   3.126934   0.000000
    25  H    3.126932   3.785549   2.578787   1.760829   0.000000
    26  H    3.792027   4.343636   3.785549   1.769912   1.768916
    27  H    3.781555   2.569751   3.055868   4.345428   3.728587
    28  H    4.345429   3.780362   3.728587   3.781556   3.055870
    29  H    3.744234   3.122342   2.496256   3.744234   2.496256
                   26         27         28         29
    26  H    0.000000
    27  H    3.780363   0.000000
    28  H    2.569753   1.769835   0.000000
    29  H    3.122339   1.769673   1.769672   0.000000
 Stoichiometry    C9H20
 Framework group  C1[X(C9H20)]
 Deg. of freedom    81
 Full point group                 C1      NOp   1
 Largest Abelian subgroup         C1      NOp   1
 Largest concise Abelian subgroup C1      NOp   1
                         Standard orientation:                         
 ---------------------------------------------------------------------
[...]
 0001069,-0.00000677,-0.00000512,-0.00003121,-0.00001518,-0.00002198,-0
 .00004937,0.00013218,-0.00003604,0.00004961,0.00000462,0.00012737,0.00
 034316,-0.00006257,-0.00011221,-0.00098491,0.00033098,0.00002341,-0.00
 513811,-0.00009410,-0.00056306,-0.01186730,0.00103704,-0.00198427,0.32
 822979,-0.00000584,-0.00000966,0.00002512,0.00003211,0.00003219,-0.000
 03432,-0.00000298,-0.00010440,0.00006385,-0.00009683,0.00017557,-0.000
 43629,0.00045511,-0.00319996,-0.00285447,0.02260705,-0.00212524,0.0033
 0487,0.01331436,-0.04731449,0.00203029,0.00110417,0.00117202,0.0005449
 9,-0.00000869,0.00050067,0.00110527,0.00001622,-0.00000102,0.00000624,
 -0.00000135,0.00000250,-0.00000340,0.00000330,0.00000259,-0.00000357,-
 0.00000206,-0.00000186,0.00000292,0.00000199,-0.00000087,0.00002133,0.
 00002253,0.00001659,-0.00001538,-0.00000111,0.00003809,0.00003032,-0.0
 0000988,-0.00000983,0.00004586,-0.00008003,-0.00006165,0.00011034,0.00
 023023,0.00026815,-0.00019118,0.00150037,0.00023649,-0.00011747,0.0085
 2434,-0.00121596,0.00106984,-0.02918337,0.00225870,-0.00461646,-0.0169
 3534,0.04935605,0.00000526,0.00000536,0.00000857,0.00004086,-0.0000047
 2,0.00000969,0.00007641,0.00017602,0.00033160,-0.00035105,-0.00034223,
 -0.00076402,0.00092882,-0.00328372,-0.00317553,0.02088562,-0.00066178,
 0.00141456,-0.03453021,0.00223460,-0.05029615,0.00002039,0.00083497,0.
 00031185,0.00147432,0.00018668,0.00120653,-0.00000150,-0.00000006,-0.0
 0000503,-0.00000578,0.00000100,0.00000155,-0.00000181,-0.00000188,0.00
 000016,0.00000181,-0.00000227,0.00000214,0.00001605,0.00000725,0.00002
 483,-0.00002811,-0.00001856,-0.00000763,-0.00019519,0.00003216,0.00001
 783,0.00001827,0.00002377,0.00007636,0.00007704,0.00039306,0.00058433,
 -0.00029724,-0.00003438,0.00001378,0.00154583,-0.00031253,0.00021897,-
 0.03099781,0.00091845,-0.00354006,0.00654757,-0.00042282,-0.00001996,0
 .03591770,0.00025980,0.05363575,-0.00001212,-0.00000128,0.00002913,0.0
 0000369,-0.00001277,-0.00006452,-0.00014100,0.00023527,-0.00003595,-0.
 00070921,-0.00076351,0.00001447,0.00056315,0.00057198,0.00055407,0.001
 92278,-0.00228935,0.01281691,0.00004141,0.00059980,-0.00011007,-0.0545
 9642,0.01235280,-0.04471534,-0.00107686,-0.00201607,0.00012720,0.00002
 530,-0.00000516,0.00001354,0.00000178,-0.00000164,-0.00000493,0.000006
 07,0.00000482,-0.00000515,-0.00001003,0.00001130,-0.00000972,-0.000001
 14,0.00000878,0.00000555,0.00013305,0.00001630,0.00000631,0.00002686,-
 0.00003057,-0.00000615,-0.00171294,-0.00013640,-0.00053018,0.00003787,
 0.00010234,-0.00004902,0.00013059,0.00004811,-0.00019878,-0.00006779,-
 0.00008568,-0.00001756,0.00033164,0.00006981,-0.00008884,-0.00013546,0
 .00007531,0.00013291,-0.00002584,0.00000916,-0.00017974,0.05756164,-0.
 00000830,-0.00000767,0.00000990,-0.00002935,0.00002559,-0.00003292,-0.
 00007214,0.00017768,-0.00019976,-0.00014011,0.00003121,0.00000976,0.00
 089697,0.00073835,-0.00003359,0.00712973,-0.00717773,0.02791509,0.0003
 2574,0.00163218,0.00154609,0.01207463,-0.06520043,0.06407732,-0.003015
 13,-0.00581056,-0.00002429,0.00001006,-0.00000144,0.00000748,0.0000060
 1,-0.00000131,-0.00000533,0.00000037,0.00000073,-0.00000185,-0.0000047
 9,-0.00000159,0.00000732,-0.00000615,-0.00001136,-0.00000713,0.0001244
 2,0.00000309,0.00001959,0.00007064,-0.00002356,-0.00002039,-0.00036045
 ,0.00043152,-0.00018540,-0.00009928,-0.00013694,-0.00010828,0.00010287
 ,-0.00001255,-0.00007516,-0.00008706,-0.00001074,-0.00003594,-0.000016
 17,-0.00035304,-0.00089809,-0.00014357,0.00038998,-0.00024559,0.000022
 46,-0.00008598,-0.00006044,-0.01208134,0.07037973,0.00001554,-0.000011
 57,-0.00000442,0.00006586,0.00002827,0.00004164,0.00008917,-0.00052526
 ,0.00026871,-0.00073154,0.00088032,-0.00044937,-0.00053017,0.00031975,
 -0.00043882,-0.00085426,0.00071409,-0.00644112,0.00004870,-0.00076758,
 0.00055330,-0.04366545,0.06540975,-0.28209672,0.00133645,0.00187133,0.
 00093264,-0.00001011,0.00000513,-0.00000807,-0.00000276,0.00000461,0.0
 0000324,-0.00001023,-0.00000671,0.00000367,0.00001394,-0.00002500,0.00
 001828,0.00000008,-0.00000410,-0.00000095,-0.00026395,-0.00004441,0.00
 000830,-0.00002511,0.00003995,0.00000281,-0.00047174,-0.00107632,0.000
 52623,0.00000278,-0.00009689,0.00000547,0.00015654,0.00000120,0.000118
 02,-0.00005575,0.00005473,0.00005147,-0.00011182,0.00032332,0.00064527
 ,0.00013219,0.00002908,0.00025918,0.00003845,0.00000921,-0.00001473,0.
 04983784,-0.07278895,0.30727287,0.00001586,0.00000955,-0.00004772,-0.0
 0003297,0.00000194,0.00008654,0.00002636,-0.00005660,-0.00010761,0.000
 29978,0.00006427,0.00043469,0.00092395,-0.00304763,0.00055409,-0.01395
 286,0.00081857,-0.00151203,0.00023787,0.00091056,0.00005107,-0.3003860
 7,0.00445602,-0.03598275,0.00025074,0.00104148,-0.00067081,-0.00003734
 ,0.00000546,-0.00002042,-0.00000097,0.00000069,0.00000910,-0.00000350,
 -0.00000579,0.00000849,-0.00000042,0.00000710,-0.00000935,-0.00000224,
 -0.00000765,-0.00001670,-0.00003121,0.00002413,-0.00001148,0.00001070,
 0.00000840,-0.00000108,0.00004961,-0.00006754,0.00010807,-0.00004936,-
 0.00009657,-0.00009719,-0.00098490,-0.00029852,-0.00014486,0.00034317,
 0.00011019,-0.00006605,-0.00002584,-0.00003866,0.00002214,0.00035323,-
 0.00007428,0.00010094,0.00066455,-0.00051949,-0.00027600,-0.00513809,0
 .00036249,-0.00044102,0.32822964,0.00000245,0.00000805,-0.00002541,-0.
 00004821,0.00000970,0.00003434,-0.00003553,0.00010786,-0.00019264,0.00
 025906,-0.00039497,0.00064876,-0.00085784,-0.00584807,0.00131578,-0.03
 001289,-0.00010112,-0.00417752,-0.00096708,0.00155459,0.00017050,0.005
 69033,-0.04621261,0.00032077,-0.00072809,0.00123504,-0.00108884,-0.000
 01331,0.00000065,-0.00000298,-0.00000198,-0.00000036,0.00000328,0.0000
 0406,0.00000124,0.00000320,-0.00000973,0.00001789,-0.00002533,0.000000
 88,-0.00000059,-0.00000449,0.00009836,0.00006007,-0.00000601,-0.000005
 50,-0.00000413,0.00001739,0.00003092,0.00031684,-0.00026435,-0.0000005
 5,0.00004173,-0.00006580,-0.00207156,0.00004619,0.00001800,-0.00005121
 ,0.00010729,0.00024502,0.00008174,-0.00009040,-0.00005277,0.00027792,0
 .00029080,0.00021230,0.00058791,-0.00037789,-0.00011057,0.00807901,-0.
 00093481,0.00043013,-0.00324457,0.05064619,0.00000746,-0.00000566,-0.0
 0000916,0.00001939,0.00000474,0.00003217,0.00006769,-0.00030483,0.0001
 1931,-0.00025591,0.00055468,-0.00019348,0.00057787,0.00174503,-0.00052
 740,0.00682025,-0.00021083,-0.00060956,-0.00053326,-0.00011949,-0.0000
 7072,-0.03656829,0.00011644,-0.05139808,0.00128202,-0.00017025,0.00047
 214,-0.00000938,0.00000335,-0.00000669,-0.00000320,0.00000156,0.000003
 11,-0.00000434,-0.00000120,0.00000284,0.00001290,-0.00001126,0.0000060
 8,0.00000261,0.00000070,0.00000086,-0.00016860,-0.00000785,-0.00000414
 ,-0.00003561,0.00002059,0.00001308,0.00010669,-0.00054705,0.00020584,0
 .00002076,-0.00004370,0.00002480,0.00059105,0.00021306,0.00040926,-0.0
 0037247,0.00008822,0.00017463,-0.00016034,0.00001688,-0.00001031,0.000
 14857,-0.00000313,-0.00012527,0.00002002,-0.00025602,0.00025885,-0.031
 11686,0.00058151,-0.00382126,0.03957743,-0.00198103,0.05234569,-0.0000
 0606,-0.00000268,0.00001122,-0.00000157,0.00000956,-0.00001752,-0.0000
 3060,0.00003067,-0.00000538,-0.00002891,0.00002192,0.00002008,0.001089
 86,-0.00060915,-0.00092752,0.00392620,-0.00884460,-0.00835195,-0.00084
 735,-0.00230785,0.00040436,-0.08696327,0.07099157,0.06185545,-0.000028
 12,0.00038660,-0.00023671,0.00001008,-0.00000129,0.00000639,0.00000003
 ,-0.00000031,-0.00000338,0.00000124,0.00000185,-0.00000215,-0.00000004
 ,-0.00000122,0.00000006,0.00000310,0.00000100,0.00000730,0.00001792,0.
 00000043,0.00000506,-0.00002304,0.00000179,0.00000509,0.00000508,0.000
 04102,-0.00007544,0.00006127,0.00004871,0.00009001,0.00017476,0.000186
 67,0.00002854,-0.00000923,0.00009117,0.00028366,-0.00013546,0.00005846
 ,0.00018619,0.00077836,-0.00066075,-0.00029403,0.00035323,-0.00031498,
 -0.00000992,0.00187234,-0.00508002,-0.00421020,-0.01186731,0.02202424,
 0.02023543,0.09146065,-0.00000149,0.00000015,-0.00000729,-0.00002357,-
 0.00000835,0.00000223,-0.00000703,0.00002122,-0.00007225,-0.00031920,-
 0.00000651,-0.00003391,0.00168822,0.00081715,-0.00069876,0.01255157,-0
 .02048404,-0.01861253,-0.00368378,-0.00501090,0.00286140,0.07023432,-0
 .16966541,-0.10718129,0.00056857,0.00087432,-0.00165224,-0.00000062,-0
 .00000051,0.00000226,-0.00000502,0.00000372,0.00000217,0.00000294,0.00
 000185,-0.00000173,0.00000123,0.00000621,-0.00000569,0.00000384,0.0000
 0555,0.00001550,0.00001391,0.00000593,0.00000229,-0.00005237,0.0000158
 5,0.00001822,-0.00005534,-0.00005344,-0.00016044,0.00010760,0.00006202
 ,0.00018756,0.00013239,0.00038116,0.00035150,-0.00099678,0.00041300,0.
 00053871,-0.00013158,0.00026380,-0.00002642,0.00071933,-0.00160597,-0.
 00137729,0.00001402,0.00027766,0.00023512,-0.00402361,0.00622728,0.005
 23080,0.00009133,-0.00048761,0.00015359,-0.07631650,0.18738076,-0.0000
 0097,0.00000320,-0.00000835,-0.00001885,-0.00002202,0.00000422,0.00001
 979,0.00000839,-0.00001938,-0.00020074,-0.00014008,0.00001942,0.000104
 41,-0.00020508,0.00018891,-0.00313466,0.00446536,0.00263287,0.00000437
 ,0.00109186,0.00029011,0.06171533,-0.10807417,-0.14176685,-0.00037339,
 0.00054941,0.00093974,-0.00000062,-0.00000079,0.00000065,-0.00000906,0
 .00000151,0.00000527,0.00000349,0.00000498,-0.00000008,0.00000324,0.00
 000756,-0.00001964,0.00000641,0.00001769,0.00001558,0.00001577,0.00001
 187,0.00001171,-0.00006313,0.00000516,0.00003787,0.00006116,-0.0000025
 3,-0.00026057,0.00009229,0.00019799,0.00006767,-0.00021854,0.00009591,
 0.00007089,-0.00029767,-0.00008977,0.00022137,0.00007760,0.00024824,0.
 00038537,0.00007486,0.00010240,0.00060835,0.00012455,0.00001969,-0.000
 11213,0.01302468,-0.02138706,-0.01757925,-0.00223707,0.00434722,0.0027
 2637,-0.06883994,0.11887068,0.15128933,-0.00000196,-0.00000355,0.00001
 381,0.00001719,-0.00000357,-0.00002170,-0.00002296,0.00001037,0.000044
 61,0.00010368,-0.00007325,0.00011005,0.00076301,0.00113641,-0.00027302
 ,0.00134301,0.00732816,-0.00150140,-0.00008848,-0.00022339,0.00024733,
 -0.00035140,0.00045407,-0.00101552,-0.08232918,-0.08669530,0.02179489,
 0.00000970,-0.00000192,0.00000547,-0.00000006,0.00000073,-0.00000207,0
 .00000033,0.00000112,-0.00000305,0.00000146,-0.00000250,0.00000564,-0.
 00000016,0.00000176,0.00000537,-0.00000975,-0.00000627,-0.00000816,-0.
 00000288,0.00000104,-0.00000304,0.00003018,0.00002262,0.00001465,0.000
 01135,0.00000863,0.00003806,-0.00004604,-0.00016414,-0.00035016,-0.000
 02934,0.00005823,0.00002842,-0.00008283,0.00023608,0.00003382,0.000261
 45,0.00009360,0.00026180,-0.00005676,-0.00018045,0.00000228,0.00064294
 ,0.00022434,-0.00025676,0.00046779,0.00023454,-0.00015362,-0.00005215,
 -0.00025678,-0.00007314,0.08613941,-0.00000271,-0.00000728,0.00000898,
 0.00001739,0.00000241,-0.00000714,-0.00000747,-0.00001964,0.00005886,0
 .00036335,0.00035409,0.00002739,-0.00090134,-0.00018564,-0.00063669,-0
 .00306683,-0.00856557,0.00097771,0.00015623,0.00050514,-0.00081690,0.0
 0127943,0.00075590,0.00253539,-0.08618462,-0.25682446,0.05260489,0.000
 00370,0.00000057,-0.00000142,0.00000013,-0.00000239,0.00000072,0.00000
 484,0.00000685,0.00000068,-0.00000201,0.00000989,-0.00000975,-0.000001
 04,-0.00000130,-0.00000123,0.00004156,0.00003102,0.00000843,0.00000036
 ,-0.00000968,-0.00000022,-0.00009219,0.00014400,-0.00021929,-0.0000029
 2,-0.00001792,-0.00000549,0.00080394,0.00060657,0.00016289,-0.00004248
 ,-0.00006566,0.00007382,0.00017062,0.00022384,0.00005070,-0.00011095,0
 .00066033,0.00029470,0.00003992,0.00000217,0.00004382,-0.00049888,-0.0
 0050518,0.00033987,-0.00000807,0.00014936,-0.00019612,0.00000075,0.000
 42901,-0.00016565,0.09557508,0.27947707,0.00000069,-0.00000112,0.00000
 789,0.00001984,0.00001004,-0.00000769,-0.00002426,-0.00004221,0.000026
 62,0.00005822,-0.00025973,-0.00002250,0.00169214,0.00046740,0.00085150
 ,0.01196067,0.02779754,-0.00680635,0.00034129,0.00136993,0.00162571,-0
 .00215908,0.00044478,-0.00624489,0.02119773,0.05136626,-0.05965603,0.0
 0000453,-0.00000012,0.00000193,0.00000108,-0.00000103,-0.00000180,-0.0
 0000267,-0.00000121,0.00000024,0.00000315,-0.00000746,0.00000374,0.000
 00027,0.00000026,-0.00000324,-0.00003644,-0.00000882,-0.00000093,0.000
 00607,-0.00000480,-0.00000306,0.00011936,-0.00010806,0.00015756,-0.000
 00555,0.00001642,-0.00002417,-0.00077286,-0.00049201,0.00019373,-0.000
 14990,-0.00012180,0.00001441,-0.00026076,-0.00020496,0.00035952,-0.000
 15437,-0.00084154,-0.00034190,0.00004182,-0.00009602,-0.00009485,0.000
 64705,0.00216894,-0.00040767,0.00000110,-0.00033815,-0.00000836,-0.000
 23832,0.00013133,0.00013380,-0.02266721,-0.05935758,0.06545136,-0.0000
 0200,-0.00000381,0.00001370,0.00001722,0.00001393,-0.00001704,-0.00002
 303,-0.00003123,0.00003345,0.00010370,0.00000855,0.00013195,0.00076299
 ,-0.00084863,-0.00080356,0.00134305,-0.00560165,-0.00495756,-0.0003513
 8,0.00011319,-0.00110665,-0.00008846,0.00007017,0.00032579,-0.08232928
 ,0.06425811,0.06214503,0.00000971,-0.00000106,0.00000573,0.00000035,0.
 00000055,-0.00000320,-0.00000007,0.00000038,-0.00000214,-0.00000017,-0
 .00000421,0.00000378,0.00000146,-0.00000064,0.00000613,-0.00000287,0.0
 0000062,-0.00000315,-0.00000974,0.00000949,-0.00000393,0.00001134,-0.0
 0002646,0.00002868,0.00003017,-0.00002692,0.00000141,-0.00002933,-0.00
 006461,-0.00000445,-0.00004603,0.00031695,-0.00022160,0.00064293,-0.00
 006630,-0.00033445,-0.00005216,0.00025902,0.00006474,0.00046779,-0.000
 12661,-0.00025014,-0.00008283,-0.00022147,-0.00008849,-0.00005676,0.00
 015523,0.00009203,0.00026144,-0.00021172,0.00018020,0.00432783,-0.0085
 0403,-0.00876240,0.08613952,0.00000203,-0.00000014,-0.00001355,-0.0000
 2502,0.00000116,0.00001224,0.00001866,-0.00000091,-0.00007471,-0.00034
 395,0.00015987,0.00007757,-0.00006314,-0.00000061,0.00014602,-0.003310
 00,0.00431501,0.00542532,-0.00003155,0.00030167,0.00123373,-0.00030571
 ,0.00102324,0.00047006,0.06411348,-0.16278061,-0.11197784,-0.00000547,
 0.00000024,0.00000044,-0.00000288,0.00000498,0.00000205,-0.00000064,-0
 .00000234,-0.00000107,0.00000076,-0.00000220,0.00000182,0.00000017,0.0
 0000091,0.00000812,-0.00000336,-0.00001024,-0.00000388,-0.00001784,0.0
 0002292,0.00000530,0.00000530,-0.00001477,0.00001091,0.00002035,0.0000
 0584,0.00013194,0.00011159,-0.00006653,-0.00012037,-0.00031111,0.00036
 149,-0.00006627,0.00010950,0.00060393,0.00024253,0.00011826,0.00034068
 ,0.00028476,0.00000646,-0.00012093,0.00013130,-0.00001775,0.00019092,-
 0.00014779,-0.00005545,-0.00004455,-0.00001487,0.00017319,0.00017435,0
 .00000252,0.01174188,-0.01870703,-0.01865675,-0.07151835,0.17486110,0.
 00000201,-0.00000352,0.00000079,0.00000844,-0.00000494,-0.00000640,-0.
 00001714,0.00002634,0.00000795,-0.00013087,0.00036473,0.00017165,0.001
 91624,-0.00095796,0.00066638,0.01189566,-0.02139451,-0.01968693,-0.002
 50956,0.00332431,-0.00579065,0.00021777,-0.00171679,0.00110763,0.06137
 274,-0.11073924,-0.15369976,0.00000206,-0.00000083,0.00000221,-0.00000
 474,0.00000393,0.00000207,0.00000087,0.00000072,-0.00000183,0.00000074
 ,0.00000034,-0.00000234,0.00000374,0.00000582,0.00001269,0.00000506,0.
 00000067,-0.00000255,-0.00005234,0.00002256,0.00000719,-0.00000335,-0.
 00001102,-0.00002734,0.00014945,0.00002073,0.00029575,-0.00010874,0.00
 007515,0.00001528,-0.00107094,0.00058863,0.00043890,0.00080969,-0.0015
 8653,-0.00151677,-0.00020689,-0.00001219,0.00022213,0.00000500,0.00027
 334,0.00026190,-0.00031110,0.00010789,0.00039243,0.00001633,0.00012499
 ,-0.00004814,-0.00007841,0.00113875,0.00014406,-0.00335066,0.00510821,
 0.00482529,-0.06733165,0.12234920,0.17006725,0.00001184,0.00001916,-0.
 00007158,-0.00012914,-0.00003010,0.00011251,0.00008083,0.00009638,-0.0
 0036062,-0.00024701,-0.00019163,0.00071701,0.00056384,0.00078293,-0.00
 292912,-0.00900351,-0.00004801,0.00017949,0.00024745,0.00000355,0.0008
 5340,0.00024744,-0.00042885,0.00073780,-0.30262816,0.00724203,-0.02709
 335,-0.00004410,0.00000485,-0.00001822,-0.00000246,0.00000052,0.000009
 99,-0.00000245,-0.00000543,0.00000838,0.00000205,0.00001097,-0.0000069
 9,0.00000200,-0.00000600,-0.00001150,0.00001008,-0.00000494,0.00001319
 ,0.00001007,-0.00000231,0.00001390,-0.00005516,0.00012370,-0.00015165,
 -0.00005517,-0.00003154,-0.00019315,0.00035768,0.00007627,0.00016419,0
 .00035768,-0.00014801,0.00010425,0.00040863,-0.00000854,-0.00001442,-0
 .00002247,0.00005815,-0.00001307,0.00069659,-0.00035192,-0.00043371,0.
 00040863,0.00001459,-0.00000821,0.00069660,0.00052139,-0.00020028,-0.0
 0002246,-0.00004389,-0.00004036,-0.01104536,0.00096825,-0.00086120,-0.
 01104539,-0.00040942,-0.00122943,0.33020142,-0.00000033,-0.00001488,0.
 00002901,0.00006902,0.00001720,-0.00003792,-0.00001589,-0.00005139,0.0
 0020149,0.00055524,0.00077232,-0.00004697,0.00004404,-0.00083302,0.001
 58997,0.00822140,-0.00191097,0.00050310,-0.00067932,-0.00001313,-0.000
 42502,0.00129632,0.00038356,-0.00023142,0.00684267,-0.04681658,0.00067
 112,0.00001489,-0.00000048,0.00000362,0.00000109,-0.00000052,-0.000002
 51,-0.00000022,0.00000231,-0.00000095,-0.00000120,-0.00000623,0.000001
 14,-0.00000135,0.00000072,-0.00000061,0.00000449,0.00001346,0.00000541
 ,-0.00000366,-0.00000090,-0.00000934,-0.00006185,-0.00000159,-0.000117
 61,0.00003755,-0.00001364,0.00011268,0.00036805,0.00039939,-0.00005634
 ,-0.00041229,0.00016778,0.00020621,0.00007445,-0.00015794,0.00001455,-
 0.00013632,0.00001774,-0.00000954,0.00000379,0.00029031,-0.00022738,-0
 .00022078,0.00004661,-0.00019695,-0.00039135,-0.00009638,0.00037293,0.
 00006976,-0.00003826,0.00003548,-0.02951754,0.00155353,-0.00322952,0.0
 2205151,-0.00061746,0.00289123,-0.00821218,0.04690842,0.00000116,0.000
 02904,-0.00011573,-0.00025812,-0.00003792,0.00014890,0.00005930,0.0002
 0150,-0.00075139,-0.00207716,-0.00004698,0.00093555,-0.00016483,0.0015
 8992,-0.00635611,-0.03075698,0.00050309,-0.00365864,-0.00141811,0.0004
 5761,0.00152372,-0.00089003,-0.00111404,0.00112701,-0.02559930,0.00067
 114,-0.04914799,-0.00005568,0.00000361,-0.00001302,-0.00000144,0.00000
 396,0.00000833,-0.00000180,-0.00000743,0.00000550,0.00000479,0.0000114
 5,-0.00000019,0.00000475,-0.00001092,-0.00000713,-0.00000044,-0.000034
 27,0.00000593,-0.00000262,0.00003034,0.00002029,0.00003215,0.00009179,
 -0.00000508,0.00005871,-0.00009671,0.00000695,0.00018706,-0.00019600,-
 0.00009260,-0.00002152,0.00034592,0.00013898,0.00031315,0.00015834,0.0
 0036342,0.00009694,-0.00006182,-0.00008332,0.00077776,-0.00029870,-0.0
 0034915,0.00023424,-0.00034074,0.00015887,0.00067214,0.00044424,0.0000
 3754,0.00015203,0.00008775,-0.00002730,0.00707330,-0.00087956,-0.00002
 986,0.02085780,0.00054127,0.00214113,0.03072276,-0.00204587,0.05401539
 \\-0.00001737,-0.00000370,0.00001386,0.00002662,0.00002271,-0.00008497
 ,-0.00007426,-0.00002896,0.00010823,0.00008681,0.00000487,-0.00001825,
 -0.00005076,0.00000294,-0.00001084,0.00001012,0.00000692,-0.00002582,-
 0.00001089,0.00002008,0.00002419,-0.00001091,-0.00002950,0.00001095,0.
 00001132,-0.00001052,0.00003942,0.00000742,0.00000272,-0.00001019,0.00
 000728,-0.00000230,-0.00000131,0.00000728,0.00000264,0.00000002,-0.000
 01302,-0.00000929,0.00002314,-0.00001303,-0.00000349,0.00002468,0.0000
 1699,0.00001349,-0.00001939,0.00001699,-0.00000200,-0.00002352,-0.0000
 0236,0.00000332,-0.00000488,-0.00000234,-0.00000045,-0.00000589,0.0000
 0336,-0.00000295,-0.00000538,0.00000335,0.00000523,-0.00000321,-0.0000
 1255,0.00000829,-0.00000309,-0.00000055,-0.00000208,-0.00000669,0.0000
 0470,-0.00000815,0.00000194,-0.00001252,-0.00000565,-0.00000679,0.0000
 0472,0.00000610,0.00000576,-0.00000055,0.00000515,-0.00000476,0.000001
 56,0.00000794,-0.00001234,0.00000156,-0.00000073,-0.00001466,0.0000110
 1,-0.00000262,0.00000978\\\@


 WOMEN HOLD UP HALF THE SKY. -- MAO TSE TUNG
 Job cpu time:       0 days  2 hours 48 minutes 46.7 seconds.
 Elapsed time:       0 days  0 hours 42 minutes 12.4 seconds.
 File lengths (MBytes):  RWF=    254 Int=      0 D2E=      0 Chk=     11 Scr=      1
 Normal termination of Gaussian 16 at Sun May 28 22:06:40 2023.
### All Done ###
