### Starting Gaussian ###
 Entering Gaussian System, Link 0=g16
 Initial command:
 /cluster/software/gaussian/gaussian-16-A.03/avx2/g16/l1.exe "/local/scratch/yxie/Gau-12294.inp" -scrdir="/local/scratch/yxie/"
 Entering Link 1 = /cluster/software/gaussian/gaussian-16-A.03/avx2/g16/l1.exe PID=     12295.
  
 Copyright (c) 1988,1990,1992,1993,1995,1998,2003,2009,2016,
            Gaussian, Inc.  All Rights Reserved.
  
 This is part of the Gaussian(R) 16 program.  It is based on
 the Gaussian(R) 09 system (copyright 2009, Gaussian, Inc.),
 the Gaussian(R) 03 system (copyright 2003, Gaussian, Inc.),
 the Gaussian(R) 98 system (copyright 1998, Gaussian, Inc.),
 the Gaussian(R) 94 system (copyright 1995, Gaussian, Inc.),
 the Gaussian 92(TM) system (copyright 1992, Gaussian, Inc.),
 the Gaussian 90(TM) system (copyright 1990, Gaussian, Inc.),
 the Gaussian 88(TM) system (copyright 1988, Gaussian, Inc.),
 the Gaussian 86(TM) system (copyright 1986, Carnegie Mellon
 University), and the Gaussian 82(TM) system (copyright 1983,
 Carnegie Mellon University). Gaussian is a federally registered
 trademark of Gaussian, Inc.
  
 This software contains proprietary and confidential information,
 including trade secrets, belonging to Gaussian, Inc.
  
 This software is provided under written license and may be
 used, copied, transmitted, or stored only in accord with that
 written license.
  
 The following legend is applicable only to US Government
 contracts under FAR:
  
                    RESTRICTED RIGHTS LEGEND
  
 Use, reproduction and disclosure by the US Government is
 subject to restrictions as set forth in subparagraphs (a)
 and (c) of the Commercial Computer Software - Restricted
 Rights clause in FAR 52.227-19.
  
 Gaussian, Inc.
 340 Quinnipiac St., Bldg. 40, Wallingford CT 06492
  
  
 ---------------------------------------------------------------
 Warning -- This program may not be used in any manner that
 competes with the business of Gaussian, Inc. or will provide
 assistance to any competitor of Gaussian, Inc.  The licensee
 of this program is prohibited from giving any competitor of
 Gaussian, Inc. access to this program.  By using this program,
 the user acknowledges that Gaussian, Inc. is engaged in the
 business of creating and licensing software in the field of
 computational chemistry and represents and warrants to the
 licensee that it is not a competitor of Gaussian, Inc. and that
 it will not use this program in any manner prohibited above.
 ---------------------------------------------------------------
  

 Cite this work as:
 Gaussian 16, Revision A.03,
 M. J. Frisch, G. W. Trucks, H. B. Schlegel, G. E. Scuseria, 
 M. A. Robb, J. R. Cheeseman, G. Scalmani, V. Barone, 
 G. A. Petersson, H. Nakatsuji, X. Li, M. Caricato, A. V. Marenich, 
 J. Bloino, B. G. Janesko, R. Gomperts, B. Mennucci, H. P. Hratchian, 
 J. V. Ortiz, A. F. Izmaylov, J. L. Sonnenberg, D. Williams-Young, 
 F. Ding, F. Lipparini, F. Egidi, J. Goings, B. Peng, A. Petrone, 
 T. Henderson, D. Ranasinghe, V. G. Zakrzewski, J. Gao, N. Rega, 
 G. Zheng, W. Liang, M. Hada, M. Ehara, K. Toyota, R. Fukuda, 
 J. Hasegawa, M. Ishida, T. Nakajima, Y. Honda, O. Kitao, H. Nakai, 
 T. Vreven, K. Throssell, J. A. Montgomery, Jr., J. E. Peralta, 
 F. Ogliaro, M. J. Bearpark, J. J. Heyd, E. N. Brothers, K. N. Kudin, 
 V. N. Staroverov, T. A. Keith, R. Kobayashi, J. Normand, 
 K. Raghavachari, A. P. Rendell, J. C. Burant, S. S. Iyengar, 
 J. Tomasi, M. Cossi, J. M. Millam, M. Klene, C. Adamo, R. Cammi, 
 J. W. Ochterski, R. L. Martin, K. Morokuma, O. Farkas, 
 J. B. Foresman, and D. J. Fox, Gaussian, Inc., Wallingford CT, 2016.
 
 ******************************************
 Gaussian 16:  ES64L-G16RevA.03 25-Dec-2016
                23-May-2023 
 ******************************************
 %chk=CCCCC1CqCrC1CCCCCqCrC.chk
 %NProcShared=20
 Will use up to   20 processors via shared memory.
 -----------------------------
 # opt freq b3lyp/6-31g(2df,p)
 -----------------------------
 1/18=20,19=15,26=3,38=1/1,3;
 2/9=110,12=2,17=6,18=5,40=1/2;
 3/5=1,6=6,7=104,11=2,25=1,30=1,71=1,74=-5/1,2,3;
 4//1;
 5/5=2,38=5/2;
 6/7=2,8=2,9=2,10=2,28=1/1;
 7//1,2,3,16;
 1/18=20,19=15,26=3/3(2);
 2/9=110/2;
 99//99;
 2/9=110/2;
 3/5=1,6=6,7=104,11=2,25=1,30=1,71=1,74=-5/1,2,3;
 4/5=5,16=3,69=1/1;
 5/5=2,38=5/2;
 7//1,2,3,16;
 1/18=20,19=15,26=3/3(-5);
 2/9=110/2;
 6/7=2,8=2,9=2,10=2,19=2,28=1/1;
 99/9=1/99;
 -------------------
 Title Card Required
 -------------------
 Symbolic Z-matrix:
 Charge =  0 Multiplicity = 1
 C                     0.97749  -0.04002  -0.10624 
 C                     2.49641  -0.03988  -0.10529 
 C                     3.03643  -0.62577   1.19305 
 C                     4.5632   -0.61664   1.21963 
 C                     5.05295  -1.24924   2.48604 
 C                     5.32296  -2.73357   2.58612 
 C                     5.14742  -3.65067   1.41966 
 C                     6.46792  -1.75193   2.60682 
 C                     7.22516  -1.50616   3.87849 
 C                     8.31171  -0.45667   3.65725 
 C                     9.10725  -0.22587   4.93266 
 C                     10.22989   0.78732   4.71175 
 C                     11.05558   1.02523   5.98585 
 C                     11.71849  -0.26114   6.48292 
 C                     12.12416   2.0863    5.72483 
 H                     0.59844   0.38273  -1.04093 
 H                     0.58742   0.55811   0.72365 
 H                     0.58725  -1.05819  -0.0073 
 H                     2.8614    0.98572  -0.23121 
 H                     2.8609   -0.62418  -0.95809 
 H                     2.66782  -1.65196   1.31799 
 H                     2.65499  -0.05176   2.04723 
 H                     4.93215   0.41372   1.16698 
 H                     4.95468  -1.12629   0.33271 
 H                     4.62466  -0.75765   3.35679 
 H                     5.05094  -3.22711   3.51466 
 H                     5.44613  -3.19507   0.47039 
 H                     4.09893  -3.95073   1.33597 
 H                     5.75546  -4.55005   1.54977 
 H                     7.11407  -1.73127   1.73412 
 H                     7.67913  -2.44558   4.2157 
 H                     6.55186  -1.17572   4.68108 
 H                     7.86519   0.48328   3.31215 
 H                     8.99012  -0.79877   2.8654 
 H                     9.52103  -1.18896   5.24739 
 H                     8.44596   0.12426   5.73421 
 H                     9.7946    1.73806   4.37635 
 H                     10.88579   0.4405    3.90277 
 H                     10.38677   1.39871   6.77186 
 H                     12.37333  -0.68543   5.71419 
 H                     10.97918  -1.02032   6.75412 
 H                     12.31623  -0.07077   7.37899 
 H                     12.82144   1.76028   4.94538 
 H                     12.70086   2.28545   6.63398 
 H                     11.67026   3.02881   5.40159 
 

 GradGradGradGradGradGradGradGradGradGradGradGradGradGradGradGradGradGrad
 Berny optimization.
 Initialization pass.
                           ----------------------------
                           !    Initial Parameters    !
                           ! (Angstroms and Degrees)  !
 --------------------------                            --------------------------
 ! Name  Definition              Value          Derivative Info.                !
 --------------------------------------------------------------------------------
 ! R1    R(1,2)                  1.5189         estimate D2E/DX2                !
 ! R2    R(1,16)                 1.0936         estimate D2E/DX2                !
 ! R3    R(1,17)                 1.0948         estimate D2E/DX2                !
 ! R4    R(1,18)                 1.0949         estimate D2E/DX2                !
 ! R5    R(2,3)                  1.5233         estimate D2E/DX2                !
 ! R6    R(2,19)                 1.0959         estimate D2E/DX2                !
 ! R7    R(2,20)                 1.0961         estimate D2E/DX2                !
 ! R8    R(3,4)                  1.527          estimate D2E/DX2                !
 ! R9    R(3,21)                 1.0975         estimate D2E/DX2                !
 ! R10   R(3,22)                 1.0975         estimate D2E/DX2                !
 ! R11   R(4,5)                  1.4979         estimate D2E/DX2                !
 ! R12   R(4,23)                 1.0957         estimate D2E/DX2                !
 ! R13   R(4,24)                 1.0953         estimate D2E/DX2                !
 ! R14   R(5,6)                  1.512          estimate D2E/DX2                !
 ! R15   R(5,8)                  1.5065         estimate D2E/DX2                !
 ! R16   R(5,25)                 1.0878         estimate D2E/DX2                !
 ! R17   R(6,7)                  1.4942         estimate D2E/DX2                !
 ! R18   R(6,8)                  1.5083         estimate D2E/DX2                !
 ! R19   R(6,26)                 1.0862         estimate D2E/DX2                !
 ! R20   R(7,27)                 1.0945         estimate D2E/DX2                !
 ! R21   R(7,28)                 1.0938         estimate D2E/DX2                !
 ! R22   R(7,29)                 1.0934         estimate D2E/DX2                !
 ! R23   R(8,9)                  1.5003         estimate D2E/DX2                !
 ! R24   R(8,30)                 1.0861         estimate D2E/DX2                !
 ! R25   R(9,10)                 1.5268         estimate D2E/DX2                !
 ! R26   R(9,31)                 1.0965         estimate D2E/DX2                !
 ! R27   R(9,32)                 1.0985         estimate D2E/DX2                !
 ! R28   R(10,11)                1.5208         estimate D2E/DX2                !
 ! R29   R(10,33)                1.0963         estimate D2E/DX2                !
 ! R30   R(10,34)                1.0974         estimate D2E/DX2                !
 ! R31   R(11,12)                1.5283         estimate D2E/DX2                !
 ! R32   R(11,35)                1.0944         estimate D2E/DX2                !
 ! R33   R(11,36)                1.0965         estimate D2E/DX2                !
 ! R34   R(12,13)                1.5368         estimate D2E/DX2                !
 ! R35   R(12,37)                1.0981         estimate D2E/DX2                !
 ! R36   R(12,38)                1.0977         estimate D2E/DX2                !
 ! R37   R(13,14)                1.5301         estimate D2E/DX2                !
 ! R38   R(13,15)                1.5284         estimate D2E/DX2                !
 ! R39   R(13,39)                1.0975         estimate D2E/DX2                !
 ! R40   R(14,40)                1.0953         estimate D2E/DX2                !
 ! R41   R(14,41)                1.0938         estimate D2E/DX2                !
 ! R42   R(14,42)                1.0938         estimate D2E/DX2                !
 ! R43   R(15,43)                1.0955         estimate D2E/DX2                !
 ! R44   R(15,44)                1.0949         estimate D2E/DX2                !
 ! R45   R(15,45)                1.0949         estimate D2E/DX2                !
 ! A1    A(2,1,16)             110.3097         estimate D2E/DX2                !
 ! A2    A(2,1,17)             110.8402         estimate D2E/DX2                !
 ! A3    A(2,1,18)             110.8826         estimate D2E/DX2                !
 ! A4    A(16,1,17)            108.2506         estimate D2E/DX2                !
 ! A5    A(16,1,18)            108.2504         estimate D2E/DX2                !
 ! A6    A(17,1,18)            108.2139         estimate D2E/DX2                !
 ! A7    A(1,2,3)              110.7931         estimate D2E/DX2                !
 ! A8    A(1,2,19)             109.4555         estimate D2E/DX2                !
 ! A9    A(1,2,20)             109.3893         estimate D2E/DX2                !
 ! A10   A(3,2,19)             109.8653         estimate D2E/DX2                !
 ! A11   A(3,2,20)             109.8887         estimate D2E/DX2                !
 ! A12   A(19,2,20)            107.3811         estimate D2E/DX2                !
 ! A13   A(2,3,4)              111.529          estimate D2E/DX2                !
 ! A14   A(2,3,21)             109.7292         estimate D2E/DX2                !
 ! A15   A(2,3,22)             109.8136         estimate D2E/DX2                !
 ! A16   A(4,3,21)             109.8409         estimate D2E/DX2                !
 ! A17   A(4,3,22)             109.3177         estimate D2E/DX2                !
 ! A18   A(21,3,22)            106.4802         estimate D2E/DX2                !
 ! A19   A(3,4,5)              109.8211         estimate D2E/DX2                !
 ! A20   A(3,4,23)             109.9657         estimate D2E/DX2                !
 ! A21   A(3,4,24)             109.9066         estimate D2E/DX2                !
 ! A22   A(5,4,23)             109.1271         estimate D2E/DX2                !
 ! A23   A(5,4,24)             111.7919         estimate D2E/DX2                !
 ! A24   A(23,4,24)            106.1591         estimate D2E/DX2                !
 ! A25   A(4,5,6)              121.9331         estimate D2E/DX2                !
 ! A26   A(4,5,8)              121.0506         estimate D2E/DX2                !
 ! A27   A(4,5,25)             110.9265         estimate D2E/DX2                !
 ! A28   A(6,5,25)             117.4497         estimate D2E/DX2                !
 ! A29   A(8,5,25)             117.1571         estimate D2E/DX2                !
 ! A30   A(5,6,7)              121.9988         estimate D2E/DX2                !
 ! A31   A(5,6,26)             117.2537         estimate D2E/DX2                !
 ! A32   A(7,6,8)              119.958          estimate D2E/DX2                !
 ! A33   A(7,6,26)             111.0427         estimate D2E/DX2                !
 ! A34   A(8,6,26)             118.301          estimate D2E/DX2                !
 ! A35   A(6,7,27)             112.9254         estimate D2E/DX2                !
 ! A36   A(6,7,28)             109.9215         estimate D2E/DX2                !
 ! A37   A(6,7,29)             110.2822         estimate D2E/DX2                !
 ! A38   A(27,7,28)            108.0262         estimate D2E/DX2                !
 ! A39   A(27,7,29)            107.0878         estimate D2E/DX2                !
 ! A40   A(28,7,29)            108.4528         estimate D2E/DX2                !
 ! A41   A(5,8,9)              119.1672         estimate D2E/DX2                !
 ! A42   A(5,8,30)             119.2119         estimate D2E/DX2                !
 ! A43   A(6,8,9)              120.0913         estimate D2E/DX2                !
 ! A44   A(6,8,30)             116.9349         estimate D2E/DX2                !
 ! A45   A(9,8,30)             112.1904         estimate D2E/DX2                !
 ! A46   A(8,9,10)             110.4247         estimate D2E/DX2                !
 ! A47   A(8,9,31)             109.2253         estimate D2E/DX2                !
 ! A48   A(8,9,32)             111.0511         estimate D2E/DX2                !
 ! A49   A(10,9,31)            109.8066         estimate D2E/DX2                !
 ! A50   A(10,9,32)            109.5911         estimate D2E/DX2                !
 ! A51   A(31,9,32)            106.666          estimate D2E/DX2                !
 ! A52   A(9,10,11)            110.7981         estimate D2E/DX2                !
 ! A53   A(9,10,33)            110.1881         estimate D2E/DX2                !
 ! A54   A(9,10,34)            109.2826         estimate D2E/DX2                !
 ! A55   A(11,10,33)           110.2991         estimate D2E/DX2                !
 ! A56   A(11,10,34)           109.2121         estimate D2E/DX2                !
 ! A57   A(33,10,34)           106.9726         estimate D2E/DX2                !
 ! A58   A(10,11,12)           111.3244         estimate D2E/DX2                !
 ! A59   A(10,11,35)           107.7819         estimate D2E/DX2                !
 ! A60   A(10,11,36)           110.2444         estimate D2E/DX2                !
 ! A61   A(12,11,35)           110.3182         estimate D2E/DX2                !
 ! A62   A(12,11,36)           109.6928         estimate D2E/DX2                !
 ! A63   A(35,11,36)           107.3843         estimate D2E/DX2                !
 ! A64   A(11,12,13)           112.1769         estimate D2E/DX2                !
 ! A65   A(11,12,37)           109.0835         estimate D2E/DX2                !
 ! A66   A(11,12,38)           109.6327         estimate D2E/DX2                !
 ! A67   A(13,12,37)           109.4004         estimate D2E/DX2                !
 ! A68   A(13,12,38)           109.8087         estimate D2E/DX2                !
 ! A69   A(37,12,38)           106.5772         estimate D2E/DX2                !
 ! A70   A(12,13,14)           111.8361         estimate D2E/DX2                !
 ! A71   A(12,13,15)           109.9707         estimate D2E/DX2                !
 ! A72   A(12,13,39)           108.6034         estimate D2E/DX2                !
 ! A73   A(14,13,15)           109.6475         estimate D2E/DX2                !
 ! A74   A(14,13,39)           108.5078         estimate D2E/DX2                !
 ! A75   A(15,13,39)           108.1867         estimate D2E/DX2                !
 ! A76   A(13,14,40)           110.8957         estimate D2E/DX2                !
 ! A77   A(13,14,41)           111.7902         estimate D2E/DX2                !
 ! A78   A(13,14,42)           110.8889         estimate D2E/DX2                !
 ! A79   A(40,14,41)           108.0128         estimate D2E/DX2                !
 ! A80   A(40,14,42)           108.3998         estimate D2E/DX2                !
 ! A81   A(41,14,42)           106.6803         estimate D2E/DX2                !
 ! A82   A(13,15,43)           111.0962         estimate D2E/DX2                !
 ! A83   A(13,15,44)           110.6544         estimate D2E/DX2                !
 ! A84   A(13,15,45)           110.9895         estimate D2E/DX2                !
 ! A85   A(43,15,44)           108.0403         estimate D2E/DX2                !
 ! A86   A(43,15,45)           108.0592         estimate D2E/DX2                !
 ! A87   A(44,15,45)           107.8735         estimate D2E/DX2                !
 ! D1    D(16,1,2,3)           179.9513         estimate D2E/DX2                !
 ! D2    D(16,1,2,19)           58.6437         estimate D2E/DX2                !
 ! D3    D(16,1,2,20)          -58.7555         estimate D2E/DX2                !
 ! D4    D(17,1,2,3)            60.0704         estimate D2E/DX2                !
 ! D5    D(17,1,2,19)          -61.2371         estimate D2E/DX2                !
 ! D6    D(17,1,2,20)         -178.6364         estimate D2E/DX2                !
 ! D7    D(18,1,2,3)           -60.1407         estimate D2E/DX2                !
 ! D8    D(18,1,2,19)          178.5517         estimate D2E/DX2                !
 ! D9    D(18,1,2,20)           61.1525         estimate D2E/DX2                !
 ! D10   D(1,2,3,4)           -179.2442         estimate D2E/DX2                !
 ! D11   D(1,2,3,21)            58.8114         estimate D2E/DX2                !
 ! D12   D(1,2,3,22)           -57.9034         estimate D2E/DX2                !
 ! D13   D(19,2,3,4)           -58.1786         estimate D2E/DX2                !
 ! D14   D(19,2,3,21)          179.877          estimate D2E/DX2                !
 ! D15   D(19,2,3,22)           63.1622         estimate D2E/DX2                !
 ! D16   D(20,2,3,4)            59.7575         estimate D2E/DX2                !
 ! D17   D(20,2,3,21)          -62.1869         estimate D2E/DX2                !
 ! D18   D(20,2,3,22)         -178.9017         estimate D2E/DX2                !
 ! D19   D(2,3,4,5)           -177.7586         estimate D2E/DX2                !
 ! D20   D(2,3,4,23)            62.1411         estimate D2E/DX2                !
 ! D21   D(2,3,4,24)           -54.3767         estimate D2E/DX2                !
 ! D22   D(21,3,4,5)           -55.8787         estimate D2E/DX2                !
 ! D23   D(21,3,4,23)         -175.979          estimate D2E/DX2                !
 ! D24   D(21,3,4,24)           67.5032         estimate D2E/DX2                !
 ! D25   D(22,3,4,5)            60.6128         estimate D2E/DX2                !
 ! D26   D(22,3,4,23)          -59.4875         estimate D2E/DX2                !
 ! D27   D(22,3,4,24)         -176.0053         estimate D2E/DX2                !
 ! D28   D(3,4,5,6)             89.6038         estimate D2E/DX2                !
 ! D29   D(3,4,5,8)            161.3445         estimate D2E/DX2                !
 ! D30   D(3,4,5,25)           -55.4661         estimate D2E/DX2                !
 ! D31   D(23,4,5,6)          -149.7875         estimate D2E/DX2                !
 ! D32   D(23,4,5,8)           -78.0468         estimate D2E/DX2                !
 ! D33   D(23,4,5,25)           65.1426         estimate D2E/DX2                !
 ! D34   D(24,4,5,6)           -32.665          estimate D2E/DX2                !
 ! D35   D(24,4,5,8)            39.0757         estimate D2E/DX2                !
 ! D36   D(24,4,5,25)         -177.7348         estimate D2E/DX2                !
 ! D37   D(4,5,6,7)              1.4401         estimate D2E/DX2                !
 ! D38   D(4,5,6,26)          -141.5119         estimate D2E/DX2                !
 ! D39   D(25,5,6,7)           144.3795         estimate D2E/DX2                !
 ! D40   D(25,5,6,26)            1.4275         estimate D2E/DX2                !
 ! D41   D(4,5,8,9)            138.5888         estimate D2E/DX2                !
 ! D42   D(4,5,8,30)            -5.2766         estimate D2E/DX2                !
 ! D43   D(25,5,8,9)            -2.4355         estimate D2E/DX2                !
 ! D44   D(25,5,8,30)         -146.3009         estimate D2E/DX2                !
 ! D45   D(5,6,7,27)            37.0075         estimate D2E/DX2                !
 ! D46   D(5,6,7,28)           -83.7001         estimate D2E/DX2                !
 ! D47   D(5,6,7,29)           156.7713         estimate D2E/DX2                !
 ! D48   D(8,6,7,27)           -34.1064         estimate D2E/DX2                !
 ! D49   D(8,6,7,28)          -154.814          estimate D2E/DX2                !
 ! D50   D(8,6,7,29)            85.6574         estimate D2E/DX2                !
 ! D51   D(26,6,7,27)         -178.013          estimate D2E/DX2                !
 ! D52   D(26,6,7,28)           61.2794         estimate D2E/DX2                !
 ! D53   D(26,6,7,29)          -58.2492         estimate D2E/DX2                !
 ! D54   D(7,6,8,9)           -139.636          estimate D2E/DX2                !
 ! D55   D(7,6,8,30)             1.9977         estimate D2E/DX2                !
 ! D56   D(26,6,8,9)             1.7215         estimate D2E/DX2                !
 ! D57   D(26,6,8,30)          143.3552         estimate D2E/DX2                !
 ! D58   D(5,8,9,10)          -108.3323         estimate D2E/DX2                !
 ! D59   D(5,8,9,31)           130.8174         estimate D2E/DX2                !
 ! D60   D(5,8,9,32)            13.4513         estimate D2E/DX2                !
 ! D61   D(6,8,9,10)          -178.8017         estimate D2E/DX2                !
 ! D62   D(6,8,9,31)            60.348          estimate D2E/DX2                !
 ! D63   D(6,8,9,32)           -57.0181         estimate D2E/DX2                !
 ! D64   D(30,8,9,10)           37.8978         estimate D2E/DX2                !
 ! D65   D(30,8,9,31)          -82.9525         estimate D2E/DX2                !
 ! D66   D(30,8,9,32)          159.6814         estimate D2E/DX2                !
 ! D67   D(8,9,10,11)         -178.6027         estimate D2E/DX2                !
 ! D68   D(8,9,10,33)           59.0497         estimate D2E/DX2                !
 ! D69   D(8,9,10,34)          -58.2178         estimate D2E/DX2                !
 ! D70   D(31,9,10,11)         -58.0998         estimate D2E/DX2                !
 ! D71   D(31,9,10,33)         179.5527         estimate D2E/DX2                !
 ! D72   D(31,9,10,34)          62.2852         estimate D2E/DX2                !
 ! D73   D(32,9,10,11)          58.7554         estimate D2E/DX2                !
 ! D74   D(32,9,10,33)         -63.5921         estimate D2E/DX2                !
 ! D75   D(32,9,10,34)         179.1404         estimate D2E/DX2                !
 ! D76   D(9,10,11,12)         178.0222         estimate D2E/DX2                !
 ! D77   D(9,10,11,35)          56.9141         estimate D2E/DX2                !
 ! D78   D(9,10,11,36)         -60.0038         estimate D2E/DX2                !
 ! D79   D(33,10,11,12)        -59.695          estimate D2E/DX2                !
 ! D80   D(33,10,11,35)        179.1969         estimate D2E/DX2                !
 ! D81   D(33,10,11,36)         62.2791         estimate D2E/DX2                !
 ! D82   D(34,10,11,12)         57.5952         estimate D2E/DX2                !
 ! D83   D(34,10,11,35)        -63.5129         estimate D2E/DX2                !
 ! D84   D(34,10,11,36)        179.5693         estimate D2E/DX2                !
 ! D85   D(10,11,12,13)       -179.4461         estimate D2E/DX2                !
 ! D86   D(10,11,12,37)         59.1825         estimate D2E/DX2                !
 ! D87   D(10,11,12,38)        -57.1734         estimate D2E/DX2                !
 ! D88   D(35,11,12,13)        -59.8333         estimate D2E/DX2                !
 ! D89   D(35,11,12,37)        178.7953         estimate D2E/DX2                !
 ! D90   D(35,11,12,38)         62.4394         estimate D2E/DX2                !
 ! D91   D(36,11,12,13)         58.2607         estimate D2E/DX2                !
 ! D92   D(36,11,12,37)        -63.1107         estimate D2E/DX2                !
 ! D93   D(36,11,12,38)       -179.4665         estimate D2E/DX2                !
 ! D94   D(11,12,13,14)         60.2563         estimate D2E/DX2                !
 ! D95   D(11,12,13,15)       -177.6701         estimate D2E/DX2                !
 ! D96   D(11,12,13,39)        -59.4597         estimate D2E/DX2                !
 ! D97   D(37,12,13,14)       -178.5543         estimate D2E/DX2                !
 ! D98   D(37,12,13,15)        -56.4808         estimate D2E/DX2                !
 ! D99   D(37,12,13,39)         61.7296         estimate D2E/DX2                !
 ! D100  D(38,12,13,14)        -61.9164         estimate D2E/DX2                !
 ! D101  D(38,12,13,15)         60.1572         estimate D2E/DX2                !
 ! D102  D(38,12,13,39)        178.3676         estimate D2E/DX2                !
 ! D103  D(12,13,14,40)         58.4873         estimate D2E/DX2                !
 ! D104  D(12,13,14,41)        -62.1161         estimate D2E/DX2                !
 ! D105  D(12,13,14,42)        178.974          estimate D2E/DX2                !
 ! D106  D(15,13,14,40)        -63.7714         estimate D2E/DX2                !
 ! D107  D(15,13,14,41)        175.6252         estimate D2E/DX2                !
 ! D108  D(15,13,14,42)         56.7153         estimate D2E/DX2                !
 ! D109  D(39,13,14,40)        178.2595         estimate D2E/DX2                !
 ! D110  D(39,13,14,41)         57.6561         estimate D2E/DX2                !
 ! D111  D(39,13,14,42)        -61.2538         estimate D2E/DX2                !
 ! D112  D(12,13,15,43)        -61.6106         estimate D2E/DX2                !
 ! D113  D(12,13,15,44)        178.3787         estimate D2E/DX2                !
 ! D114  D(12,13,15,45)         58.6474         estimate D2E/DX2                !
 ! D115  D(14,13,15,43)         61.7532         estimate D2E/DX2                !
 ! D116  D(14,13,15,44)        -58.2575         estimate D2E/DX2                !
 ! D117  D(14,13,15,45)       -177.9888         estimate D2E/DX2                !
 ! D118  D(39,13,15,43)        179.922          estimate D2E/DX2                !
 ! D119  D(39,13,15,44)         59.9113         estimate D2E/DX2                !
 ! D120  D(39,13,15,45)        -59.82           estimate D2E/DX2                !
 --------------------------------------------------------------------------------
 Trust Radius=3.00D-01 FncErr=1.00D-07 GrdErr=1.00D-06 EigMax=2.50D+02 EigMin=1.00D-04
 Number of steps in this run=    262 maximum allowed number of steps=    270.
 GradGradGradGradGradGradGradGradGradGradGradGradGradGradGradGradGradGrad

                          Input orientation:                          
 ---------------------------------------------------------------------
 Center     Atomic      Atomic             Coordinates (Angstroms)
 Number     Number       Type             X           Y           Z
 ---------------------------------------------------------------------
      1          6           0        0.977490   -0.040020   -0.106240
      2          6           0        2.496410   -0.039880   -0.105290
      3          6           0        3.036430   -0.625770    1.193050
      4          6           0        4.563200   -0.616640    1.219630
      5          6           0        5.052950   -1.249240    2.486040
      6          6           0        5.322960   -2.733570    2.586120
      7          6           0        5.147420   -3.650670    1.419660
      8          6           0        6.467920   -1.751930    2.606820
      9          6           0        7.225160   -1.506160    3.878490
     10          6           0        8.311710   -0.456670    3.657250
     11          6           0        9.107250   -0.225870    4.932660
     12          6           0       10.229890    0.787320    4.711750
     13          6           0       11.055580    1.025230    5.985850
     14          6           0       11.718490   -0.261140    6.482920
     15          6           0       12.124160    2.086300    5.724830
     16          1           0        0.598440    0.382730   -1.040930
     17          1           0        0.587420    0.558110    0.723650
     18          1           0        0.587250   -1.058190   -0.007300
     19          1           0        2.861400    0.985720   -0.231210
     20          1           0        2.860900   -0.624180   -0.958090
     21          1           0        2.667820   -1.651960    1.317990
     22          1           0        2.654990   -0.051760    2.047230
     23          1           0        4.932150    0.413720    1.166980
     24          1           0        4.954680   -1.126290    0.332710
     25          1           0        4.624660   -0.757650    3.356790
     26          1           0        5.050940   -3.227110    3.514660
     27          1           0        5.446130   -3.195070    0.470390
     28          1           0        4.098930   -3.950730    1.335970
     29          1           0        5.755460   -4.550050    1.549770
     30          1           0        7.114070   -1.731270    1.734120
     31          1           0        7.679130   -2.445580    4.215700
     32          1           0        6.551860   -1.175720    4.681080
     33          1           0        7.865190    0.483280    3.312150
     34          1           0        8.990120   -0.798770    2.865400
     35          1           0        9.521030   -1.188960    5.247390
     36          1           0        8.445960    0.124260    5.734210
     37          1           0        9.794600    1.738060    4.376350
     38          1           0       10.885790    0.440500    3.902770
     39          1           0       10.386770    1.398710    6.771860
     40          1           0       12.373330   -0.685430    5.714190
     41          1           0       10.979180   -1.020320    6.754120
     42          1           0       12.316230   -0.070770    7.378990
     43          1           0       12.821440    1.760280    4.945380
     44          1           0       12.700860    2.285450    6.633980
     45          1           0       11.670260    3.028810    5.401590
 ---------------------------------------------------------------------
                    Distance matrix (angstroms):
                    1          2          3          4          5
     1  C    0.000000
     2  C    1.518920   0.000000
     3  C    2.504095   1.523344   0.000000
     4  C    3.866230   2.521842   1.527029   0.000000
     5  C    4.979107   3.835810   2.475256   1.497943   0.000000
     6  C    5.778159   4.742261   3.407592   2.631715   1.512004
     7  C    5.723066   4.731927   3.695626   3.096234   2.629250
     8  C    6.358943   5.104855   3.878415   2.615557   1.506461
     9  C    7.553875   6.354648   5.052933   3.866111   2.592956
    10  C    8.253983   6.938886   5.824900   4.474250   3.552382
    11  C    9.566507   8.313768   7.141391   5.881129   4.844645
    12  C   10.464436   9.148489   8.131663   6.802748   5.991834
    13  C   11.824391  10.559159   9.487017   8.219707   7.311187
    14  C   12.602976  11.335794  10.173192   8.889701   7.834591
    15  C   12.758169  11.454454  10.510908   9.207107   8.462718
    16  H    1.093637   2.157849   3.457099   4.672065   5.911472
    17  H    1.094820   2.165404   2.760355   4.175268   5.129668
    18  H    1.094873   2.165975   2.761577   4.184316   5.118176
    19  H    2.148692   1.095869   2.157789   2.751112   4.145043
    20  H    2.148051   1.096142   2.158290   2.764118   4.130111
    21  H    2.735690   2.157292   1.097520   2.161950   2.686144
    22  H    2.729758   2.158386   1.097546   2.155290   2.716013
    23  H    4.179271   2.785185   2.162169   1.095691   2.126017
    24  H    4.146167   2.723091   2.161108   1.095275   2.159075
    25  H    5.080297   4.126820   2.687310   2.142689   1.087795
    26  H    6.313593   5.457847   4.026797   3.509930   2.229357
    27  H    5.500508   4.357463   3.595858   2.826522   2.829079
    28  H    5.207400   4.465428   3.493521   3.368269   3.087210
    29  H    6.775820   5.805365   4.787520   4.123371   3.502209
    30  H    6.626075   5.250430   4.259347   2.830908   2.246320
    31  H    8.329337   7.163723   5.831191   4.693663   3.364487
    32  H    7.435176   6.375433   4.982675   4.031002   2.659011
    33  H    7.707116   6.385639   5.388645   4.060985   3.404817
    34  H    8.579545   7.181169   6.186526   4.726452   3.980973
    35  H   10.147586   8.906001   7.668435   6.413305   5.252849
    36  H    9.482399   8.338096   7.102654   6.000516   4.893836
    37  H   10.049707   8.746985   7.835429   6.548056   5.914430
    38  H   10.699414   9.310049   8.372095   6.949239   6.235733
    39  H   11.743626  10.565156   9.447176   8.294749   7.336861
    40  H   12.812460  11.482013  10.374101   9.011322   8.020399
    41  H   12.167963  10.953089   9.704043   8.482826   7.306785
    42  H   13.586635  12.346832  11.166403   9.916913   8.836571
    43  H   13.001504  11.634264  10.748006   9.366402   8.686484
    44  H   13.721362  12.448121  11.466478  10.196020   9.390951
    45  H   12.413269  11.131132  10.276711   9.016008   8.401841
                    6          7          8          9         10
     6  C    0.000000
     7  C    1.494161   0.000000
     8  C    1.508303   2.599670   0.000000
     9  C    2.606745   3.868045   1.500320   0.000000
    10  C    3.906945   5.022069   2.486094   1.526751   0.000000
    11  C    5.110348   6.304814   3.834639   2.508521   1.520797
    12  C    6.402572   7.507670   5.003093   3.870759   2.517716
    13  C    7.651776   8.810249   6.338540   5.051833   3.891944
    14  C    7.886746   8.961276   6.694407   5.340706   4.430439
    15  C    8.907242  10.006109   7.513125   6.349405   5.027560
    16  H    6.722195   6.558661   7.232817   8.466523   9.070393
    17  H    6.060470   6.244346   6.592639   7.633729   8.324689
    18  H    5.653289   5.436204   6.472803   7.704667   8.570766
    19  H    5.275390   5.426543   5.343793   6.491649   6.848831
    20  H    4.803404   4.476775   5.195286   6.573976   7.144281
    21  H    3.134933   3.186471   4.013955   5.229414   6.225299
    22  H    3.821069   4.422466   4.212144   5.133736   5.895303
    23  H    3.474496   4.077923   3.020227   4.036845   4.287243
    24  H    2.792281   2.755196   2.802302   4.227521   4.771856
    25  H    2.232894   3.520698   2.224557   2.755910   3.711496
    26  H    1.086169   2.139565   2.237892   2.796654   4.281155
    27  H    2.168978   1.094492   2.773273   4.199108   5.085908
    28  H    2.131338   1.093788   3.473024   4.713135   5.945108
    29  H    2.135574   1.093401   3.074806   4.104658   5.266084
    30  H    2.222293   2.765989   1.086067   2.159013   2.599495
    31  H    2.879237   3.959752   2.129947   1.096499   2.160506
    32  H    2.885472   4.328359   2.154442   1.098487   2.159244
    33  H    4.163914   5.296917   2.728739   2.165237   1.096349
    34  H    4.155660   4.998984   2.708666   2.154492   1.097406
    35  H    5.204995   6.311893   4.075663   2.691751   2.127733
    36  H    5.275490   6.614061   4.148891   2.755416   2.160848
    37  H    6.572364   7.705628   5.135958   4.168315   2.744614
    38  H    6.538606   7.472108   5.099393   4.146117   2.736984
    39  H    7.761336   9.032888   6.529278   5.177416   4.177213
    40  H    7.980440   8.913440   6.757739   5.526938   4.558518
    41  H    7.231893   8.329744   6.171452   4.753731   4.125979
    42  H    8.886390   9.986047   7.733216   6.342936   5.480552
    43  H    9.054722  10.029938   7.627037   6.567057   5.187659
    44  H    9.798425  10.930741   8.447958   7.207796   5.970325
    45  H    9.023309  10.149811   7.598063   6.530291   5.145012
                   11         12         13         14         15
    11  C    0.000000
    12  C    1.528292   0.000000
    13  C    2.543708   1.536781   0.000000
    14  C    3.036960   2.540126   1.530123   0.000000
    15  C    3.882706   2.510366   1.528353   2.499949   0.000000
    16  H   10.414126  11.225945  12.615079  13.441667  13.472931
    17  H    9.535087  10.437179  11.725669  12.559502  12.666631
    18  H    9.883641  10.892926  12.241095  12.909793  13.260672
    19  H    8.194153   8.875070  10.285815  11.184017  11.067268
    20  H    8.595143   9.404330  10.866998  11.573994  11.739511
    21  H    7.521026   8.640173   9.965479  10.513111  11.082292
    22  H    7.070197   8.073589   9.340372  10.092880  10.380810
    23  H    5.658700   6.385219   7.816127   8.646911   8.677357
    24  H    6.262119   7.117987   8.591159   9.182739   9.528753
    25  H    4.781189   5.970046   7.172681   7.767988   8.362904
    26  H    5.241356   6.661096   7.761757   7.878056   9.118532
    27  H    6.490901   7.532126   8.927327   9.170658  10.004903
    28  H    7.203751   8.451845   9.735324   9.907667  10.959568
    29  H    6.432494   7.648932   8.879968   8.848076  10.101119
    30  H    4.058282   4.991784   6.419580   6.775918   7.456582
    31  H    2.735082   4.147781   5.155615   5.121376   6.524853
    32  H    2.737796   4.169217   5.179778   5.547716   6.540697
    33  H    2.161402   2.764621   4.197734   5.045381   5.150682
    34  H    2.148371   2.731615   4.162969   4.562839   5.130514
    35  H    1.094446   2.166812   2.793350   2.686301   4.210886
    36  H    1.096530   2.160435   2.772217   3.379135   4.168794
    37  H    2.153823   1.098124   2.165338   3.483646   2.714133
    38  H    2.160539   1.097696   2.170244   2.800511   2.749931
    39  H    2.767506   2.154637   1.097545   2.147572   2.141863
    40  H    3.389582   2.787152   2.176378   1.095346   2.782928
    41  H    2.730016   2.828475   2.186401   1.093839   3.467204
    42  H    4.038086   3.493323   2.175154   1.093835   2.725085
    43  H    4.211907   2.778015   2.177415   2.768875   1.095459
    44  H    4.702685   3.470599   2.171445   2.733677   1.094896
    45  H    4.169155   2.752240   2.175666   3.463434   1.094913
                   16         17         18         19         20
    16  H    0.000000
    17  H    1.773308   0.000000
    18  H    1.773349   1.773898   0.000000
    19  H    2.477949   2.503117   3.065854   0.000000
    20  H    2.477792   3.065089   2.502369   1.766390   0.000000
    21  H    3.739893   3.092849   2.537268   3.065102   2.504826
    22  H    3.735627   2.529556   3.083755   2.512023   3.066270
    23  H    4.863833   4.369676   4.735357   2.563225   3.143761
    24  H    4.810494   4.697126   4.381174   3.026617   2.510417
    25  H    6.070491   4.996394   5.263849   4.361441   4.663352
    26  H    7.321824   6.483875   6.085470   6.047608   5.619343
    27  H    6.211670   6.144718   5.329461   4.965086   3.915794
    28  H    6.056563   5.747632   4.743739   5.325042   4.226271
    29  H    7.592029   7.313304   6.428682   6.495554   5.484551
    30  H    7.390760   6.989955   6.788590   5.415696   5.153940
    31  H    9.261083   8.456295   8.369787   7.399956   7.300749
    32  H    8.403176   7.364914   7.587575   6.513210   6.762220
    33  H    8.471427   7.724757   8.146367   6.151891   6.671157
    34  H    9.331433   8.776878   8.884139   7.094689   7.226126
    35  H   11.028408  10.164933  10.365389   8.893535   9.120542
    36  H   10.370771   9.330090   9.804206   8.216791   8.748711
    37  H   10.758866   9.975303  10.574058   8.358522   9.061602
    38  H   11.413723  10.778546  11.117313   9.043113   9.442477
    39  H   12.565162  11.546199  12.166510  10.288087  10.976472
    40  H   13.616925  12.859221  13.106719  11.340958  11.619354
    41  H   13.057225  12.118031  12.398002  10.895751  11.204534
    42  H   14.436319  13.500149  13.896088  12.182985  12.618099
    43  H   13.679740  12.997671  13.496230  11.251641  11.821547
    44  H   14.456596  13.588640  14.213588  12.067937  12.764415
    45  H   13.080252  12.280750  12.992027  10.653575  11.462752
                   21         22         23         24         25
    21  H    0.000000
    22  H    1.758578   0.000000
    23  H    3.068718   2.485351   0.000000
    24  H    2.544963   3.063130   1.751612   0.000000
    25  H    2.964071   2.468365   2.502384   3.064289   0.000000
    26  H    3.603570   4.239903   4.333746   3.814121   2.510950
    27  H    3.289167   4.489686   3.711169   2.130805   3.866152
    28  H    2.707904   4.218154   4.446486   3.117098   3.815215
    29  H    4.241010   5.485890   5.046125   3.720835   4.350440
    30  H    4.466385   4.775163   3.111817   2.644412   3.127004
    31  H    5.842926   5.972823   5.001619   4.923491   3.593970
    32  H    5.159743   4.835912   4.183142   4.632683   2.375421
    33  H    5.962263   5.388179   3.634462   4.465294   3.470293
    34  H    6.564594   6.431275   4.563100   4.775622   4.393222
    35  H    7.913346   7.660075   6.346349   6.708916   5.266387
    36  H    7.486311   6.867324   5.769769   6.552031   4.586090
    37  H    8.463852   7.720252   5.974726   6.926785   5.830639
    38  H    8.865354   8.451711   6.552182   7.097762   6.398078
    39  H    9.931439   9.176405   7.882751   8.794651   7.036654
    40  H   10.698490  10.406453   8.789563   9.175568   8.099657
    41  H    9.951341   9.611715   8.356984   8.805699   7.210463
    42  H   11.503378  11.034835   9.661699  10.244833   8.706902
    43  H   11.309171  10.725645   8.850448   9.565298   8.720711
    44  H   12.017689  11.288061   9.682165  10.552217   9.231762
    45  H   10.937519  10.100333   8.376917   9.383891   8.255844
                   26         27         28         29         30
    26  H    0.000000
    27  H    3.069981   0.000000
    28  H    2.485285   1.770649   0.000000
    29  H    2.471298   1.759749   1.774538   0.000000
    30  H    3.108756   2.553771   3.765049   3.134538   0.000000
    31  H    2.830129   4.424406   4.834889   3.903394   2.643439
    32  H    2.796694   4.798992   4.990722   4.671772   3.051113
    33  H    4.661331   5.240010   6.144139   5.735099   2.821098
    34  H    4.672848   4.902876   6.016456   5.125037   2.380948
    35  H    5.209425   6.591587   7.233654   6.256903   4.293090
    36  H    5.261582   6.908309   7.405858   6.826236   4.606261
    37  H    6.920819   7.648626   8.605051   7.990277   5.118874
    38  H    6.902714   7.388403   8.481323   7.534088   4.862664
    39  H    7.776802   9.231536   9.884449   9.170987   6.773933
    40  H    8.057013   9.043331   9.914469   8.722034   6.677915
    41  H    7.106902   8.650401   9.234798   8.175054   6.375337
    42  H    8.813624  10.231729  10.913121   9.853297   7.853934
    43  H    9.343537   9.948680  11.032935  10.063722   7.421400
    44  H    9.931755  10.984400  11.872323  10.991444   8.447182
    45  H    9.301206  10.089262  11.071056  10.356664   7.541059
                   31         32         33         34         35
    31  H    0.000000
    32  H    1.760642   0.000000
    33  H    3.070707   2.520136   0.000000
    34  H    2.500797   3.063315   1.763152   0.000000
    35  H    2.456842   3.022723   3.046858   2.471435   0.000000
    36  H    3.081879   2.527181   2.516459   3.062379   1.765592
    37  H    4.690828   4.370164   2.535669   3.060337   3.066105
    38  H    4.325512   4.690510   3.078098   2.491082   2.515097
    39  H    5.351993   5.070068   4.377896   4.694676   3.125628
    40  H    5.232506   5.932724   5.240134   4.424315   2.933779
    41  H    4.400599   4.891095   4.879027   4.373510   2.103539
    42  H    6.094983   6.459690   6.054578   5.653803   3.688795
    43  H    6.683191   6.928029   5.372391   5.055103   4.436432
    44  H    7.310848   7.321456   6.137269   6.122434   4.909733
    45  H    6.877819   6.662974   5.032300   5.316557   4.736301
                   36         37         38         39         40
    36  H    0.000000
    37  H    2.503391   0.000000
    38  H    3.067075   1.760294   0.000000
    39  H    2.543164   2.490842   3.065757   0.000000
    40  H    4.010017   3.783248   2.600334   3.067365   0.000000
    41  H    2.960994   3.829580   3.205139   2.490576   1.771231
    42  H    4.209790   4.318140   3.793634   2.500159   1.775564
    43  H    4.737472   3.079943   2.564292   3.065025   2.602570
    44  H    4.856388   3.720602   3.762689   2.482001   3.127206
    45  H    4.352374   2.497049   3.092120   2.486406   3.793100
                   41         42         43         44         45
    41  H    0.000000
    42  H    1.754939   0.000000
    43  H    3.794364   3.087141   0.000000
    44  H    3.729173   2.500950   1.772488   0.000000
    45  H    4.324625   3.732932   1.772713   1.770171   0.000000
 Stoichiometry    C15H30
 Framework group  C1[X(C15H30)]
 Deg. of freedom   129
 Full point group                 C1      NOp   1
 Largest Abelian subgroup         C1      NOp   1
 Largest concise Abelian subgroup C1      NOp   1
                         Standard orientation:                         
 ---------------------------------------------------------------------
 Center     Atomic      Atomic             Coordinates (Angstroms)
 Number     Number       Type             X           Y           Z
 ---------------------------------------------------------------------
      1          6           0       -6.512232   -1.689050   -0.393103
      2          6           0       -5.234344   -1.498136    0.405440
      3          6           0       -4.215605   -0.691062   -0.389154
      4          6           0       -2.916420   -0.504800    0.391384
      5          6           0       -1.964396    0.337925   -0.400637
      6          6           0       -1.942306    1.845175   -0.282887
      7          6           0       -2.846423    2.579574    0.652926
      8          6           0       -0.799305    1.025629    0.261972
      9          6           0        0.532039    1.038206   -0.429639
     10          6           0        1.513573    0.114244    0.287197
     11          6           0        2.876459    0.146836   -0.386822
     12          6           0        3.882246   -0.736824    0.350210
     13          6           0        5.271043   -0.707604   -0.307121
     14          6           0        5.861303    0.703934   -0.327869
     15          6           0        6.219066   -1.650202    0.433572
     16          1           0       -7.237297   -2.269796    0.184008
     17          1           0       -6.311443   -2.222789   -1.327682
     18          1           0       -6.965490   -0.723700   -0.640901
     19          1           0       -4.814872   -2.477351    0.662561
     20          1           0       -5.466005   -0.984092    1.345450
     21          1           0       -4.638725    0.288155   -0.647324
     22          1           0       -3.999268   -1.196938   -1.338836
     23          1           0       -2.455225   -1.479025    0.588164
     24          1           0       -3.129989   -0.065101    1.371527
     25          1           0       -1.793193   -0.090652   -1.385680
     26          1           0       -1.780154    2.412977   -1.194518
     27          1           0       -3.003311    2.049869    1.597761
     28          1           0       -3.822906    2.732593    0.184484
     29          1           0       -2.423655    3.557409    0.899161
     30          1           0       -0.699841    0.977227    1.342391
     31          1           0        0.924521    2.062014   -0.438747
     32          1           0        0.434417    0.728887   -1.479146
     33          1           0        1.123403   -0.910138    0.306906
     34          1           0        1.618987    0.437025    1.330749
     35          1           0        3.219528    1.186072   -0.397021
     36          1           0        2.791804   -0.180481   -1.429931
     37          1           0        3.508356   -1.769198    0.367149
     38          1           0        3.959130   -0.414372    1.396657
     39          1           0        5.176127   -1.060791   -1.341942
     40          1           0        5.944558    1.107534    0.687000
     41          1           0        5.247536    1.392098   -0.916260
     42          1           0        6.856345    0.703943   -0.782144
     43          1           0        6.349484   -1.339321    1.475865
     44          1           0        7.204638   -1.659840   -0.043244
     45          1           0        5.834341   -2.675293    0.430726
 ---------------------------------------------------------------------
 Rotational constants (GHZ):           1.2353575           0.1430752           0.1322351
 Standard basis: 6-31G(2df,p) (6D, 7F)
 There are   615 symmetry adapted cartesian basis functions of A   symmetry.
 There are   570 symmetry adapted basis functions of A   symmetry.
   570 basis functions,   870 primitive gaussians,   615 cartesian basis functions
    60 alpha electrons       60 beta electrons
       nuclear repulsion energy       985.6630973110 Hartrees.
 NAtoms=   45 NActive=   45 NUniq=   45 SFac= 1.00D+00 NAtFMM=   60 NAOKFM=F Big=F
 Integral buffers will be    131072 words long.
 Raffenetti 2 integral format.
 Two-electron integral symmetry is turned on.
 One-electron integrals computed using PRISM.
 PrsmSu:  requested number of processors reduced to:  12 ShMem   1 Linda.
 NBasis=   570 RedAO= T EigKep=  4.49D-04  NBF=   570
 NBsUse=   570 1.00D-06 EigRej= -1.00D+00 NBFU=   570
 ExpMin= 1.61D-01 ExpMax= 3.05D+03 ExpMxC= 4.57D+02 IAcc=3 IRadAn=         5 AccDes= 0.00D+00
 Harris functional with IExCor=  402 and IRadAn=       5 diagonalized for initial guess.
 HarFok:  IExCor=  402 AccDes= 0.00D+00 IRadAn=         5 IDoV= 1 UseB2=F ITyADJ=14
 ICtDFT=  3500011 ScaDFX=  1.000000  1.000000  1.000000  1.000000
 FoFCou: FMM=F IPFlag=           0 FMFlag=      100000 FMFlg1=           0
         NFxFlg=           0 DoJE=T BraDBF=F KetDBF=T FulRan=T
         wScrn=  0.000000 ICntrl=       500 IOpCl=  0 I1Cent=   200000004 NGrid=           0
         NMat0=    1 NMatS0=      1 NMatT0=    0 NMatD0=    1 NMtDS0=    0 NMtDT0=    0
 Petite list used in FoFCou.
 Requested convergence on RMS density matrix=1.00D-08 within 128 cycles.
 Requested convergence on MAX density matrix=1.00D-06.
 Requested convergence on             energy=1.00D-06.
 No special actions if energy rises.
 Integral accuracy reduced to 1.0D-05 until final iterations.
 Initial convergence to 1.0D-05 achieved.  Increase integral accuracy.
 SCF Done:  E(RB3LYP) =  -589.706591816     A.U. after   12 cycles
            NFock= 12  Conv=0.20D-08     -V/T= 2.0087

 **********************************************************************

            Population analysis using the SCF density.

 **********************************************************************

 Orbital symmetries:
       Occupied  (A) (A) (A) (A) (A) (A) (A) (A) (A) (A) (A) (A)
                 (A) (A) (A) (A) (A) (A) (A) (A) (A) (A) (A) (A)
                 (A) (A) (A) (A) (A) (A) (A) (A) (A) (A) (A) (A)
                 (A) (A) (A) (A) (A) (A) (A) (A) (A) (A) (A) (A)
                 (A) (A) (A) (A) (A) (A) (A) (A) (A) (A) (A) (A)
       Virtual   (A) (A) (A) (A) (A) (A) (A) (A) (A) (A) (A) (A)
                 (A) (A) (A) (A) (A) (A) (A) (A) (A) (A) (A) (A)
                 (A) (A) (A) (A) (A) (A) (A) (A) (A) (A) (A) (A)
                 (A) (A) (A) (A) (A) (A) (A) (A) (A) (A) (A) (A)
                 (A) (A) (A) (A) (A) (A) (A) (A) (A) (A) (A) (A)
                 (A) (A) (A) (A) (A) (A) (A) (A) (A) (A) (A) (A)
                 (A) (A) (A) (A) (A) (A) (A) (A) (A) (A) (A) (A)
                 (A) (A) (A) (A) (A) (A) (A) (A) (A) (A) (A) (A)
                 (A) (A) (A) (A) (A) (A) (A) (A) (A) (A) (A) (A)
                 (A) (A) (A) (A) (A) (A) (A) (A) (A) (A) (A) (A)
                 (A) (A) (A) (A) (A) (A) (A) (A) (A) (A) (A) (A)
                 (A) (A) (A) (A) (A) (A) (A) (A) (A) (A) (A) (A)
                 (A) (A) (A) (A) (A) (A) (A) (A) (A) (A) (A) (A)
                 (A) (A) (A) (A) (A) (A) (A) (A) (A) (A) (A) (A)
                 (A) (A) (A) (A) (A) (A) (A) (A) (A) (A) (A) (A)
                 (A) (A) (A) (A) (A) (A) (A) (A) (A) (A) (A) (A)
                 (A) (A) (A) (A) (A) (A) (A) (A) (A) (A) (A) (A)
                 (A) (A) (A) (A) (A) (A) (A) (A) (A) (A) (A) (A)
                 (A) (A) (A) (A) (A) (A) (A) (A) (A) (A) (A) (A)
                 (A) (A) (A) (A) (A) (A) (A) (A) (A) (A) (A) (A)
                 (A) (A) (A) (A) (A) (A) (A) (A) (A) (A) (A) (A)
                 (A) (A) (A) (A) (A) (A) (A) (A) (A) (A) (A) (A)
                 (A) (A) (A) (A) (A) (A) (A) (A) (A) (A) (A) (A)
                 (A) (A) (A) (A) (A) (A) (A) (A) (A) (A) (A) (A)
                 (A) (A) (A) (A) (A) (A) (A) (A) (A) (A) (A) (A)
                 (A) (A) (A) (A) (A) (A) (A) (A) (A) (A) (A) (A)
                 (A) (A) (A) (A) (A) (A) (A) (A) (A) (A) (A) (A)
                 (A) (A) (A) (A) (A) (A) (A) (A) (A) (A) (A) (A)
                 (A) (A) (A) (A) (A) (A) (A) (A) (A) (A) (A) (A)
                 (A) (A) (A) (A) (A) (A) (A) (A) (A) (A) (A) (A)
                 (A) (A) (A) (A) (A) (A) (A) (A) (A) (A) (A) (A)
                 (A) (A) (A) (A) (A) (A) (A) (A) (A) (A) (A) (A)
                 (A) (A) (A) (A) (A) (A) (A) (A) (A) (A) (A) (A)
                 (A) (A) (A) (A) (A) (A) (A) (A) (A) (A) (A) (A)
                 (A) (A) (A) (A) (A) (A) (A) (A) (A) (A) (A) (A)
                 (A) (A) (A) (A) (A) (A) (A) (A) (A) (A) (A) (A)
                 (A) (A) (A) (A) (A) (A) (A) (A) (A) (A) (A) (A)
                 (A) (A) (A) (A) (A) (A) (A) (A) (A) (A) (A) (A)
                 (A) (A) (A) (A) (A) (A) (A) (A) (A) (A) (A) (A)
                 (A) (A) (A) (A) (A) (A) (A) (A) (A) (A) (A) (A)
                 (A) (A) (A) (A) (A) (A) (A) (A) (A) (A) (A) (A)
                 (A) (A) (A) (A) (A) (A) (A) (A) (A) (A) (A) (A)
                 (A) (A) (A) (A) (A) (A)
 The electronic state is 1-A.
 Alpha  occ. eigenvalues --  -10.17791 -10.17545 -10.17401 -10.17106 -10.17056
 Alpha  occ. eigenvalues --  -10.16848 -10.16826 -10.16823 -10.16815 -10.16812
 Alpha  occ. eigenvalues --  -10.16786 -10.16713 -10.16555 -10.16498 -10.16431
 Alpha  occ. eigenvalues --   -0.86157  -0.81142  -0.79237  -0.77548  -0.72914
 Alpha  occ. eigenvalues --   -0.72086  -0.69102  -0.67559  -0.64044  -0.62113
 Alpha  occ. eigenvalues --   -0.57638  -0.57342  -0.55969  -0.54915  -0.53579
 Alpha  occ. eigenvalues --   -0.48133  -0.47471  -0.45883  -0.44952  -0.44230
 Alpha  occ. eigenvalues --   -0.43132  -0.42109  -0.41691  -0.40802  -0.39742
 Alpha  occ. eigenvalues --   -0.39272  -0.38563  -0.37955  -0.37479  -0.36982
 Alpha  occ. eigenvalues --   -0.36071  -0.35306  -0.34514  -0.34407  -0.33478
 Alpha  occ. eigenvalues --   -0.33353  -0.32842  -0.32204  -0.31958  -0.31671
 Alpha  occ. eigenvalues --   -0.31425  -0.31001  -0.29706  -0.25334  -0.24935
 Alpha virt. eigenvalues --    0.08627   0.08752   0.09459   0.10524   0.10974
 Alpha virt. eigenvalues --    0.11677   0.11965   0.12508   0.13521   0.13754
 Alpha virt. eigenvalues --    0.14244   0.15242   0.15561   0.15851   0.16167
 Alpha virt. eigenvalues --    0.16370   0.17094   0.17159   0.17624   0.17972
 Alpha virt. eigenvalues --    0.19098   0.19430   0.19667   0.19876   0.20405
 Alpha virt. eigenvalues --    0.20774   0.20988   0.21139   0.22007   0.22153
 Alpha virt. eigenvalues --    0.22320   0.23176   0.23492   0.24479   0.24723
 Alpha virt. eigenvalues --    0.25582   0.26219   0.26828   0.27253   0.29427
 Alpha virt. eigenvalues --    0.29588   0.30930   0.32306   0.33679   0.36311
 Alpha virt. eigenvalues --    0.43589   0.44252   0.45296   0.46493   0.47508
 Alpha virt. eigenvalues --    0.47699   0.48509   0.48745   0.49776   0.50555
 Alpha virt. eigenvalues --    0.51750   0.51948   0.52393   0.53783   0.53984
 Alpha virt. eigenvalues --    0.55404   0.55967   0.56672   0.56858   0.57638
 Alpha virt. eigenvalues --    0.59119   0.59533   0.60663   0.61610   0.62204
 Alpha virt. eigenvalues --    0.62623   0.63501   0.63814   0.64360   0.64751
 Alpha virt. eigenvalues --    0.65506   0.66130   0.67387   0.68136   0.68817
 Alpha virt. eigenvalues --    0.70119   0.70512   0.71361   0.72052   0.72573
 Alpha virt. eigenvalues --    0.72796   0.73540   0.73769   0.73900   0.74114
 Alpha virt. eigenvalues --    0.74608   0.74869   0.75312   0.75881   0.76149
 Alpha virt. eigenvalues --    0.76588   0.77337   0.78059   0.78624   0.79110
 Alpha virt. eigenvalues --    0.79924   0.80053   0.80508   0.80857   0.81734
 Alpha virt. eigenvalues --    0.81936   0.82011   0.82382   0.83433   0.84622
 Alpha virt. eigenvalues --    0.84971   0.85949   0.86433   0.86818   0.88218
 Alpha virt. eigenvalues --    0.88401   0.88693   0.90188   0.91046   0.92263
 Alpha virt. eigenvalues --    0.93635   0.96685   0.99137   1.00234   1.03623
 Alpha virt. eigenvalues --    1.04141   1.06548   1.08540   1.09742   1.10620
 Alpha virt. eigenvalues --    1.11266   1.11772   1.14244   1.15195   1.18286
 Alpha virt. eigenvalues --    1.18989   1.20479   1.20764   1.21276   1.22377
 Alpha virt. eigenvalues --    1.22717   1.23935   1.24882   1.25953   1.27545
 Alpha virt. eigenvalues --    1.27854   1.32412   1.33818   1.33983   1.34526
 Alpha virt. eigenvalues --    1.35982   1.36449   1.38409   1.38526   1.40044
 Alpha virt. eigenvalues --    1.40637   1.41636   1.42404   1.44127   1.45828
 Alpha virt. eigenvalues --    1.47084   1.47374   1.48592   1.50245   1.50970
 Alpha virt. eigenvalues --    1.51887   1.54230   1.54388   1.56106   1.56724
 Alpha virt. eigenvalues --    1.57643   1.58156   1.60361   1.61312   1.62005
 Alpha virt. eigenvalues --    1.62967   1.64495   1.64567   1.65537   1.67415
 Alpha virt. eigenvalues --    1.69025   1.71475   1.72259   1.72887   1.74601
 Alpha virt. eigenvalues --    1.77152   1.79050   1.79613   1.81394   1.81876
 Alpha virt. eigenvalues --    1.82774   1.84564   1.85160   1.85704   1.86482
 Alpha virt. eigenvalues --    1.86998   1.87527   1.89120   1.89605   1.91266
 Alpha virt. eigenvalues --    1.93984   1.94223   1.94846   1.95820   1.96223
 Alpha virt. eigenvalues --    1.96681   1.97207   1.98713   1.99465   2.00584
 Alpha virt. eigenvalues --    2.02781   2.07567   2.11738   2.13489   2.14876
 Alpha virt. eigenvalues --    2.15578   2.18658   2.19518   2.20895   2.21371
 Alpha virt. eigenvalues --    2.23239   2.23577   2.23956   2.25423   2.27466
 Alpha virt. eigenvalues --    2.27783   2.29859   2.30291   2.30663   2.31069
 Alpha virt. eigenvalues --    2.33664   2.34503   2.35794   2.37197   2.38142
 Alpha virt. eigenvalues --    2.39937   2.41134   2.42504   2.43767   2.44448
 Alpha virt. eigenvalues --    2.46720   2.48282   2.53387   2.55611   2.56036
 Alpha virt. eigenvalues --    2.57972   2.59829   2.62319   2.63838   2.66175
 Alpha virt. eigenvalues --    2.67904   2.68126   2.70577   2.71510   2.72531
 Alpha virt. eigenvalues --    2.74778   2.75086   2.75343   2.75827   2.76368
 Alpha virt. eigenvalues --    2.77287   2.77597   2.78341   2.79290   2.79868
 Alpha virt. eigenvalues --    2.80529   2.80882   2.82026   2.83164   2.83488
 Alpha virt. eigenvalues --    2.83574   2.84292   2.84931   2.85470   2.86184
 Alpha virt. eigenvalues --    2.86784   2.88338   2.88486   2.89036   2.90193
 Alpha virt. eigenvalues --    2.90759   2.91364   2.92039   2.92746   2.93999
 Alpha virt. eigenvalues --    2.94294   2.94941   2.95224   2.95982   2.96638
 Alpha virt. eigenvalues --    2.97147   2.97433   2.98550   2.98766   3.00875
 Alpha virt. eigenvalues --    3.01795   3.02584   3.04206   3.05784   3.06096
 Alpha virt. eigenvalues --    3.06641   3.09258   3.10232   3.10694   3.13193
 Alpha virt. eigenvalues --    3.14007   3.15710   3.17106   3.17575   3.19467
 Alpha virt. eigenvalues --    3.21072   3.21999   3.23443   3.25783   3.26181
 Alpha virt. eigenvalues --    3.27943   3.28379   3.29312   3.32879   3.33534
 Alpha virt. eigenvalues --    3.34083   3.35146   3.35934   3.37465   3.38272
 Alpha virt. eigenvalues --    3.39838   3.41759   3.41961   3.42858   3.43854
 Alpha virt. eigenvalues --    3.45271   3.46014   3.49874   3.51240   3.51672
 Alpha virt. eigenvalues --    3.53247   3.54119   3.54136   3.56187   3.57610
 Alpha virt. eigenvalues --    3.58159   3.59126   3.60176   3.60405   3.61634
 Alpha virt. eigenvalues --    3.62544   3.63280   3.63928   3.64629   3.66398
 Alpha virt. eigenvalues --    3.66772   3.67368   3.68071   3.70213   3.71190
 Alpha virt. eigenvalues --    3.72116   3.72956   3.73974   3.74507   3.76550
 Alpha virt. eigenvalues --    3.76892   3.78148   3.79192   3.80146   3.81185
 Alpha virt. eigenvalues --    3.81994   3.82250   3.83747   3.85702   3.86194
 Alpha virt. eigenvalues --    3.88134   3.91606   3.92967   3.93814   3.95294
 Alpha virt. eigenvalues --    3.98531   4.00440   4.01340   4.04200   4.08826
 Alpha virt. eigenvalues --    4.13452   4.15549   4.16912   4.19294   4.25017
 Alpha virt. eigenvalues --    4.26996   4.28595   4.30626   4.32602   4.37938
 Alpha virt. eigenvalues --    4.39350   4.40960   4.41377   4.42755   4.43144
 Alpha virt. eigenvalues --    4.44545   4.45511   4.45946   4.46463   4.47226
 Alpha virt. eigenvalues --    4.48461   4.49168   4.51044   4.51407   4.52981
 Alpha virt. eigenvalues --    4.53857   4.54327   4.55178   4.56058   4.56957
 Alpha virt. eigenvalues --    4.58163   4.59148   4.59211   4.59664   4.60528
 Alpha virt. eigenvalues --    4.62170   4.62611   4.63395   4.64076   4.65444
 Alpha virt. eigenvalues --    4.66302   4.67083   4.67647   4.67732   4.68404
 Alpha virt. eigenvalues --    4.69322   4.70661   4.71598   4.72286   4.72487
 Alpha virt. eigenvalues --    4.73575   4.74665   4.75096   4.75447   4.75816
 Alpha virt. eigenvalues --    4.76062   4.76574   4.78182   4.79256   4.79780
 Alpha virt. eigenvalues --    4.80088   4.82209   4.83054   4.83552   4.85078
 Alpha virt. eigenvalues --    4.85354   4.86238   4.86809   4.86885   4.88748
 Alpha virt. eigenvalues --    4.89581   4.91090   4.91620   4.92459   4.92494
 Alpha virt. eigenvalues --    4.93759   4.94914   4.95697   4.96549   4.97606
 Alpha virt. eigenvalues --    4.98610   4.99715   5.00681   5.02086   5.06117
 Alpha virt. eigenvalues --    5.07133   5.11822   5.17175   5.19301   5.22940
 Alpha virt. eigenvalues --    5.24959   5.27665   5.31469   5.32238   5.35959
 Alpha virt. eigenvalues --    5.37781   5.42294   5.44554   5.46446   5.48323
 Alpha virt. eigenvalues --    5.49268   5.51048   5.52283   5.54523   5.57915
 Alpha virt. eigenvalues --    5.59372   5.64102   5.68684   5.71947   5.78544
 Alpha virt. eigenvalues --    5.82969   6.04077   6.18067   6.48989   6.74064
 Alpha virt. eigenvalues --   10.99130  11.20026  11.31421  11.49983  11.75391
 Alpha virt. eigenvalues --   11.82140  11.83325  11.95703  12.17722  12.24750
 Alpha virt. eigenvalues --   12.38945  12.45438  12.51361  12.61195  12.76433
          Condensed to atoms (all electrons):
               1          2          3          4          5          6
     1  C    4.953082   0.404426  -0.034770   0.002225  -0.000156   0.000004
     2  C    0.404426   4.784678   0.421886  -0.031086   0.001995   0.000182
     3  C   -0.034770   0.421886   4.783484   0.414135  -0.036877  -0.002055
     4  C    0.002225  -0.031086   0.414135   4.865808   0.433809  -0.009483
     5  C   -0.000156   0.001995  -0.036877   0.433809   4.697836   0.350615
     6  C    0.000004   0.000182  -0.002055  -0.009483   0.350615   4.738653
     7  C   -0.000000  -0.000029  -0.000282  -0.013667  -0.014156   0.405271
     8  C    0.000002  -0.000181   0.003529  -0.019419   0.335958   0.328081
     9  C   -0.000000   0.000001  -0.000128   0.002206  -0.003187  -0.015629
    10  C    0.000000   0.000000  -0.000000   0.000076  -0.000894   0.002813
    11  C    0.000000   0.000000   0.000000  -0.000000   0.000020  -0.000169
    12  C    0.000000  -0.000000   0.000000   0.000000   0.000002   0.000001
    13  C    0.000000   0.000000   0.000000   0.000000  -0.000000  -0.000000
    14  C    0.000000   0.000000  -0.000000   0.000000   0.000000   0.000000
    15  C    0.000000  -0.000000   0.000000  -0.000000   0.000000   0.000000
    16  H    0.370137  -0.021992   0.003344  -0.000170   0.000001   0.000000
    17  H    0.379180  -0.029307  -0.004669   0.000158   0.000006   0.000000
    18  H    0.378932  -0.029086  -0.004453   0.000175   0.000007  -0.000002
    19  H   -0.036016   0.369996  -0.032875  -0.002296   0.000233  -0.000006
    20  H   -0.036209   0.370203  -0.032258  -0.003080   0.000298  -0.000006
    21  H   -0.002300  -0.036175   0.368786  -0.035453  -0.001448   0.002178
    22  H   -0.002937  -0.036361   0.365257  -0.034156  -0.001669  -0.000432
    23  H    0.000064  -0.002442  -0.033034   0.356796  -0.029869   0.003855
    24  H    0.000089  -0.003771  -0.031601   0.348729  -0.012814  -0.012495
    25  H    0.000001   0.000109  -0.005059  -0.058950   0.379934  -0.037345
    26  H    0.000000  -0.000004   0.000319   0.004097  -0.038228   0.384386
    27  H    0.000001  -0.000045   0.000362   0.001541  -0.010582  -0.013383
    28  H   -0.000006  -0.000007  -0.000328   0.000290  -0.002277  -0.026273
    29  H    0.000000   0.000001   0.000008   0.000212   0.003993  -0.028067
    30  H    0.000000   0.000004   0.000220  -0.004585  -0.039559  -0.039076
    31  H    0.000000  -0.000000   0.000003  -0.000093   0.002572  -0.005440
    32  H    0.000000   0.000000  -0.000006   0.000309  -0.013416  -0.001723
    33  H    0.000000  -0.000000   0.000007  -0.000130   0.001149   0.000140
    34  H    0.000000   0.000000  -0.000000   0.000033  -0.000128   0.000125
    35  H    0.000000  -0.000000   0.000000   0.000000  -0.000006   0.000004
    36  H   -0.000000  -0.000000  -0.000000   0.000000  -0.000006   0.000003
    37  H   -0.000000   0.000000  -0.000000   0.000000  -0.000001   0.000000
    38  H   -0.000000  -0.000000   0.000000  -0.000000  -0.000000   0.000000
    39  H    0.000000  -0.000000  -0.000000  -0.000000  -0.000000   0.000000
    40  H    0.000000  -0.000000   0.000000  -0.000000  -0.000000   0.000000
    41  H   -0.000000  -0.000000  -0.000000  -0.000000   0.000000   0.000000
    42  H    0.000000   0.000000   0.000000   0.000000  -0.000000  -0.000000
    43  H    0.000000   0.000000  -0.000000   0.000000  -0.000000  -0.000000
    44  H    0.000000   0.000000   0.000000   0.000000  -0.000000  -0.000000
    45  H    0.000000   0.000000  -0.000000   0.000000  -0.000000   0.000000
               7          8          9         10         11         12
     1  C   -0.000000   0.000002  -0.000000   0.000000   0.000000   0.000000
     2  C   -0.000029  -0.000181   0.000001   0.000000   0.000000  -0.000000
     3  C   -0.000282   0.003529  -0.000128  -0.000000   0.000000   0.000000
     4  C   -0.013667  -0.019419   0.002206   0.000076  -0.000000   0.000000
     5  C   -0.014156   0.335958  -0.003187  -0.000894   0.000020   0.000002
     6  C    0.405271   0.328081  -0.015629   0.002813  -0.000169   0.000001
     7  C    4.994714  -0.011154   0.001968  -0.000132   0.000002  -0.000000
     8  C   -0.011154   4.767273   0.419424  -0.032787   0.002055  -0.000129
     9  C    0.001968   0.419424   4.868307   0.424169  -0.035409   0.001896
    10  C   -0.000132  -0.032787   0.424169   4.806238   0.416914  -0.032349
    11  C    0.000002   0.002055  -0.035409   0.416914   4.822871   0.425754
    12  C   -0.000000  -0.000129   0.001896  -0.032349   0.425754   4.825394
    13  C    0.000000   0.000001  -0.000127   0.001861  -0.029604   0.427711
    14  C   -0.000000   0.000000   0.000006   0.000580  -0.004412  -0.033811
    15  C   -0.000000  -0.000000   0.000001  -0.000147   0.002261  -0.033596
    16  H   -0.000000  -0.000000   0.000000   0.000000  -0.000000  -0.000000
    17  H   -0.000000   0.000000   0.000000  -0.000000   0.000000  -0.000000
    18  H   -0.000001   0.000000   0.000000  -0.000000   0.000000   0.000000
    19  H    0.000000   0.000003   0.000000   0.000000   0.000000   0.000000
    20  H    0.000002   0.000002   0.000000  -0.000000  -0.000000  -0.000000
    21  H    0.000199   0.000260  -0.000005   0.000000   0.000000  -0.000000
    22  H    0.000039   0.000099   0.000005  -0.000000  -0.000000  -0.000000
    23  H    0.000210  -0.001069  -0.000118   0.000029   0.000002  -0.000000
    24  H    0.002265  -0.005185   0.000166  -0.000014  -0.000000   0.000000
    25  H    0.004013  -0.037427  -0.007288   0.000240  -0.000031   0.000000
    26  H   -0.061407  -0.033218  -0.007158   0.000202   0.000000   0.000000
    27  H    0.366500  -0.006728   0.000036   0.000007   0.000000   0.000000
    28  H    0.367729   0.002883  -0.000080   0.000001  -0.000000   0.000000
    29  H    0.373908  -0.002221   0.000061  -0.000005   0.000000  -0.000000
    30  H   -0.005480   0.386466  -0.062273  -0.005413   0.000299   0.000004
    31  H    0.000387  -0.029178   0.349783  -0.033448  -0.004412   0.000152
    32  H   -0.000032  -0.017369   0.347736  -0.028911  -0.003172   0.000130
    33  H    0.000003   0.001115  -0.034263   0.362862  -0.033302  -0.002346
    34  H    0.000000  -0.003575  -0.035393   0.364504  -0.032385  -0.003321
    35  H    0.000000   0.000270  -0.003114  -0.031228   0.363434  -0.031192
    36  H    0.000000   0.000284  -0.002782  -0.032171   0.361843  -0.033203
    37  H    0.000000   0.000012   0.000135  -0.002157  -0.032533   0.356332
    38  H    0.000000   0.000009   0.000152  -0.003364  -0.033738   0.356798
    39  H    0.000000   0.000000   0.000006   0.000117  -0.004072  -0.043342
    40  H   -0.000000  -0.000000   0.000001  -0.000055  -0.000318  -0.006780
    41  H   -0.000000  -0.000000   0.000003  -0.000063  -0.000691  -0.003423
    42  H    0.000000  -0.000000  -0.000000  -0.000008   0.000150   0.004100
    43  H    0.000000   0.000000   0.000000   0.000002   0.000175  -0.006724
    44  H    0.000000   0.000000  -0.000000   0.000001  -0.000166   0.003724
    45  H    0.000000   0.000000   0.000000   0.000004   0.000164  -0.003428
              13         14         15         16         17         18
     1  C    0.000000   0.000000   0.000000   0.370137   0.379180   0.378932
     2  C    0.000000   0.000000  -0.000000  -0.021992  -0.029307  -0.029086
     3  C    0.000000  -0.000000   0.000000   0.003344  -0.004669  -0.004453
     4  C    0.000000   0.000000  -0.000000  -0.000170   0.000158   0.000175
     5  C   -0.000000   0.000000   0.000000   0.000001   0.000006   0.000007
     6  C   -0.000000   0.000000   0.000000   0.000000   0.000000  -0.000002
     7  C    0.000000  -0.000000  -0.000000  -0.000000  -0.000000  -0.000001
     8  C    0.000001   0.000000  -0.000000  -0.000000   0.000000   0.000000
     9  C   -0.000127   0.000006   0.000001   0.000000   0.000000   0.000000
    10  C    0.001861   0.000580  -0.000147   0.000000  -0.000000  -0.000000
    11  C   -0.029604  -0.004412   0.002261  -0.000000   0.000000   0.000000
    12  C    0.427711  -0.033811  -0.033596  -0.000000  -0.000000   0.000000
    13  C    4.578704   0.415573   0.402132   0.000000   0.000000  -0.000000
    14  C    0.415573   4.986557  -0.045844   0.000000   0.000000   0.000000
    15  C    0.402132  -0.045844   5.009600   0.000000   0.000000   0.000000
    16  H    0.000000   0.000000   0.000000   0.612958  -0.032026  -0.032115
    17  H    0.000000   0.000000   0.000000  -0.032026   0.603776  -0.033633
    18  H   -0.000000   0.000000   0.000000  -0.032115  -0.033633   0.603482
    19  H    0.000000   0.000000   0.000000  -0.002374  -0.004514   0.005742
    20  H   -0.000000   0.000000  -0.000000  -0.002351   0.005737  -0.004536
    21  H    0.000000   0.000000  -0.000000  -0.000052  -0.000418   0.005121
    22  H   -0.000000   0.000000   0.000000  -0.000040   0.005206  -0.000421
    23  H    0.000000   0.000000  -0.000000   0.000005   0.000005   0.000008
    24  H   -0.000000   0.000000   0.000000   0.000004   0.000011   0.000004
    25  H   -0.000000   0.000000   0.000000   0.000000  -0.000002   0.000001
    26  H    0.000000  -0.000000   0.000000  -0.000000  -0.000000   0.000000
    27  H   -0.000000  -0.000000   0.000000  -0.000000  -0.000000   0.000000
    28  H   -0.000000   0.000000   0.000000   0.000000  -0.000000   0.000002
    29  H    0.000000   0.000000  -0.000000   0.000000   0.000000  -0.000000
    30  H    0.000000  -0.000000  -0.000000  -0.000000  -0.000000  -0.000000
    31  H    0.000012  -0.000011   0.000000  -0.000000  -0.000000   0.000000
    32  H    0.000006   0.000000   0.000000   0.000000  -0.000000  -0.000000
    33  H    0.000048  -0.000002   0.000001  -0.000000   0.000000   0.000000
    34  H    0.000212  -0.000015   0.000006  -0.000000   0.000000  -0.000000
    35  H   -0.005661   0.000817   0.000116  -0.000000   0.000000  -0.000000
    36  H   -0.002042  -0.001062   0.000136  -0.000000  -0.000000   0.000000
    37  H   -0.028617   0.005325  -0.003860   0.000000   0.000000   0.000000
    38  H   -0.028532  -0.009066  -0.004242  -0.000000  -0.000000   0.000000
    39  H    0.364965  -0.048050  -0.043153  -0.000000  -0.000000  -0.000000
    40  H   -0.026670   0.372669  -0.005260   0.000000   0.000000   0.000000
    41  H   -0.023225   0.371032   0.005115   0.000000  -0.000000   0.000000
    42  H   -0.024841   0.370763  -0.004432   0.000000   0.000000   0.000000
    43  H   -0.024826  -0.006152   0.372889   0.000000   0.000000   0.000000
    44  H   -0.021142  -0.003387   0.367162   0.000000   0.000000   0.000000
    45  H   -0.022304   0.005154   0.367523   0.000000   0.000000   0.000000
              19         20         21         22         23         24
     1  C   -0.036016  -0.036209  -0.002300  -0.002937   0.000064   0.000089
     2  C    0.369996   0.370203  -0.036175  -0.036361  -0.002442  -0.003771
     3  C   -0.032875  -0.032258   0.368786   0.365257  -0.033034  -0.031601
     4  C   -0.002296  -0.003080  -0.035453  -0.034156   0.356796   0.348729
     5  C    0.000233   0.000298  -0.001448  -0.001669  -0.029869  -0.012814
     6  C   -0.000006  -0.000006   0.002178  -0.000432   0.003855  -0.012495
     7  C    0.000000   0.000002   0.000199   0.000039   0.000210   0.002265
     8  C    0.000003   0.000002   0.000260   0.000099  -0.001069  -0.005185
     9  C    0.000000   0.000000  -0.000005   0.000005  -0.000118   0.000166
    10  C    0.000000  -0.000000   0.000000  -0.000000   0.000029  -0.000014
    11  C    0.000000  -0.000000   0.000000  -0.000000   0.000002  -0.000000
    12  C    0.000000  -0.000000  -0.000000  -0.000000  -0.000000   0.000000
    13  C    0.000000  -0.000000   0.000000  -0.000000   0.000000  -0.000000
    14  C    0.000000   0.000000   0.000000   0.000000   0.000000   0.000000
    15  C    0.000000  -0.000000  -0.000000   0.000000  -0.000000   0.000000
    16  H   -0.002374  -0.002351  -0.000052  -0.000040   0.000005   0.000004
    17  H   -0.004514   0.005737  -0.000418   0.005206   0.000005   0.000011
    18  H    0.005742  -0.004536   0.005121  -0.000421   0.000008   0.000004
    19  H    0.647652  -0.041849   0.006252  -0.005552   0.004821  -0.000526
    20  H   -0.041849   0.647385  -0.005713   0.006290  -0.000476   0.005196
    21  H    0.006252  -0.005713   0.643099  -0.042913   0.006371  -0.004852
    22  H   -0.005552   0.006290  -0.042913   0.653839  -0.006462   0.006240
    23  H    0.004821  -0.000476   0.006371  -0.006462   0.658734  -0.043759
    24  H   -0.000526   0.005196  -0.004852   0.006240  -0.043759   0.649214
    25  H    0.000006   0.000013  -0.000338   0.005994  -0.003108   0.006951
    26  H   -0.000000  -0.000000  -0.000210  -0.000019  -0.000132  -0.000091
    27  H   -0.000001   0.000024  -0.000124   0.000005  -0.000133   0.004643
    28  H    0.000001   0.000006   0.002041   0.000016  -0.000024   0.000606
    29  H    0.000000  -0.000000  -0.000016  -0.000001   0.000003  -0.000203
    30  H    0.000000  -0.000000   0.000021   0.000003   0.001354   0.001441
    31  H   -0.000000  -0.000000  -0.000000  -0.000000  -0.000006   0.000003
    32  H    0.000000  -0.000000   0.000001  -0.000002   0.000036   0.000008
    33  H   -0.000000  -0.000000   0.000000  -0.000000   0.000214  -0.000001
    34  H    0.000000  -0.000000   0.000000  -0.000000  -0.000002  -0.000004
    35  H   -0.000000  -0.000000  -0.000000  -0.000000   0.000000  -0.000000
    36  H   -0.000000  -0.000000  -0.000000  -0.000000  -0.000000  -0.000000
    37  H   -0.000000   0.000000  -0.000000   0.000000   0.000000   0.000000
    38  H   -0.000000  -0.000000  -0.000000   0.000000  -0.000000   0.000000
    39  H   -0.000000  -0.000000  -0.000000  -0.000000   0.000000   0.000000
    40  H   -0.000000  -0.000000  -0.000000   0.000000   0.000000   0.000000
    41  H    0.000000  -0.000000   0.000000   0.000000   0.000000  -0.000000
    42  H   -0.000000  -0.000000   0.000000  -0.000000   0.000000  -0.000000
    43  H    0.000000  -0.000000  -0.000000  -0.000000   0.000000   0.000000
    44  H   -0.000000   0.000000   0.000000  -0.000000   0.000000  -0.000000
    45  H    0.000000  -0.000000   0.000000  -0.000000   0.000000   0.000000
              25         26         27         28         29         30
     1  C    0.000001   0.000000   0.000001  -0.000006   0.000000   0.000000
     2  C    0.000109  -0.000004  -0.000045  -0.000007   0.000001   0.000004
     3  C   -0.005059   0.000319   0.000362  -0.000328   0.000008   0.000220
     4  C   -0.058950   0.004097   0.001541   0.000290   0.000212  -0.004585
     5  C    0.379934  -0.038228  -0.010582  -0.002277   0.003993  -0.039559
     6  C   -0.037345   0.384386  -0.013383  -0.026273  -0.028067  -0.039076
     7  C    0.004013  -0.061407   0.366500   0.367729   0.373908  -0.005480
     8  C   -0.037427  -0.033218  -0.006728   0.002883  -0.002221   0.386466
     9  C   -0.007288  -0.007158   0.000036  -0.000080   0.000061  -0.062273
    10  C    0.000240   0.000202   0.000007   0.000001  -0.000005  -0.005413
    11  C   -0.000031   0.000000   0.000000  -0.000000   0.000000   0.000299
    12  C    0.000000   0.000000   0.000000   0.000000  -0.000000   0.000004
[...]
 0003978,0.00011905,0.00044303,0.00028304,-0.00016279,-0.00211982,0.004
 02624,0.00096165,-0.01314644,-0.00608449,-0.01853160,-0.12618791,-0.03
 542056,-0.11441417,0.00063649,-0.00139283,0.00029271,-0.00000492,0.000
 00259,-0.00000376,-0.00000042,0.00000027,0.00000172,-0.00000127,-0.000
 00177,0.00000101,-0.00000019,-0.00000043,-0.00000026,-0.00000030,-0.00
 000011,-0.00000143,-0.00000302,-0.00000218,-0.00000063,0.00000007,0.00
 000148,0.00000039,0.00000066,-0.00000346,0.00000320,-0.00000165,-0.000
 00185,-0.00000372,0.00000809,0.00000413,-0.00000463,0.00000032,-0.0000
 0440,0.00000217,0.00000144,0.00000089,-0.00000223,-0.00001223,-0.00000
 993,-0.00000932,0.00000324,-0.00000723,-0.00000192,-0.00000666,0.00000
 559,-0.00000901,-0.00000839,-0.00001773,0.00000290,-0.00001008,-0.0000
 0359,0.00000782,-0.00000581,-0.00004783,-0.00004506,0.00000512,-0.0000
 0084,-0.00003067,-0.00001880,0.00012188,0.00011511,-0.00006099,-0.0000
 0397,0.00004520,-0.00076204,-0.00016887,-0.00133316,0.00018855,0.00000
 301,-0.00021881,0.00032384,-0.00064792,0.00045178,0.01172452,0.0052528
 0,0.01612745,-0.00855722,-0.00337576,-0.01174193,0.13697411,0.00000081
 ,0.00000074,-0.00000161,-0.00000184,-0.00000115,0.00000223,0.00000210,
 0.00000127,-0.00000405,-0.00000316,-0.00000394,0.00000535,0.00000413,0
 .00000028,-0.00000704,0.00000569,-0.00000313,-0.00000044,-0.00000126,0
 .00000156,0.00000268,-0.00000592,0.00001123,0.00000439,0.00003294,0.00
 001108,0.00003580,-0.00000399,0.00035934,0.00001570,-0.00008236,-0.000
 82717,-0.00016601,0.00289905,-0.00436103,0.00018382,0.01295480,0.00518
 440,0.02054108,-0.03630853,-0.06177497,-0.05176745,0.00062278,0.001553
 80,0.00095631,-0.00000121,0.00000059,-0.00000085,-0.00000026,0.0000001
 4,0.00000053,-0.00000012,-0.00000039,0.00000024,0.,0.00000037,-0.00000
 041,-0.00000004,0.00000018,-0.00000003,0.00000008,-0.00000020,-0.00000
 002,-0.00000049,0.00000038,0.00000054,0.00000040,0.00000112,-0.0000006
 7,-0.00000021,0.00000024,-0.00000027,0.00000123,0.00000091,-0.00000003
 ,-0.00000032,-0.00000073,0.00000029,0.00000073,-0.00000018,-0.00000033
 ,-0.00000345,-0.00000162,-0.00000163,0.00000113,-0.00000024,-0.0000004
 1,-0.00000181,-0.00000038,-0.00000068,0.00000720,0.00003101,0.00000427
 ,0.,0.00000122,0.00000013,-0.00013302,0.00000214,-0.00012677,-0.000005
 15,-0.00002157,-0.00001755,-0.00009635,0.00065599,0.00005948,-0.000010
 10,0.00008982,0.00000443,0.00114473,0.00034683,0.00124217,-0.00013427,
 -0.00009460,-0.00009474,-0.00072065,0.00081729,-0.00044963,-0.00190308
 ,-0.00178428,-0.00195924,-0.01474172,-0.00673492,-0.02330683,0.0368388
 9,0.06673248,0.00000279,0.00000155,-0.00000409,-0.00000306,-0.00000171
 ,0.00000680,0.00000589,0.00000136,-0.00000648,-0.00000086,-0.00000122,
 0.00001015,0.00001354,0.00000366,-0.00000463,0.00000645,-0.00001065,-0
 .00001846,-0.00000780,0.00000769,0.00000884,-0.00002357,-0.00001986,0.
 00002578,0.00001343,0.00003028,-0.00003920,-0.00001780,-0.00010228,0.0
 0002572,0.00021124,0.00025309,0.00008779,-0.00069828,0.00147040,0.0010
 3734,-0.00213825,-0.00166195,-0.00503440,-0.11476544,-0.05054242,-0.21
 183364,0.00016322,-0.00075805,-0.00009191,-0.00000385,0.00000211,-0.00
 000320,-0.00000039,0.00000017,0.00000150,-0.00000101,-0.00000143,0.000
 00086,-0.00000016,-0.00000038,-0.00000024,-0.00000020,0.00000010,-0.00
 000099,-0.00000225,-0.00000166,-0.00000042,-0.00000015,0.00000104,0.00
 000025,0.00000025,-0.00000247,0.00000168,-0.00000086,-0.00000076,-0.00
 000216,0.00000438,0.00000267,-0.00000277,-0.00000031,-0.00000263,0.000
 00142,0.00000158,0.00000032,-0.00000124,-0.00000951,-0.00000665,-0.000
 00600,0.00000267,-0.00000433,-0.00000148,-0.00000375,0.00000371,-0.000
 00281,-0.00000460,-0.00000701,-0.00000531,-0.00001159,-0.00000271,0.00
 000559,0.00001728,-0.00000417,0.00002320,0.00000771,-0.00000341,0.0000
 2008,0.00006911,-0.00005845,-0.00008067,-0.00008855,-0.00000584,0.0000
 0412,-0.00061205,-0.00010312,-0.00017903,0.00017699,-0.00005003,0.0005
 6644,-0.00017900,0.00038660,0.00069771,-0.01453442,-0.00648668,-0.0197
 7744,0.00428181,0.00147038,0.00544385,0.12772338,0.05541299,0.22854274
 ,-0.00000078,0.00000094,0.00000028,-0.00000138,-0.00000231,0.00000135,
 -0.00000078,0.00000323,0.00000061,-0.00000174,-0.00000644,0.00000314,-
 0.00000185,0.00000269,0.00000492,-0.00000020,-0.00000086,-0.00000336,-
 0.00000058,0.00000051,0.00000150,-0.00000449,-0.00000396,0.00000905,0.
 00000153,0.00000413,-0.00001013,0.00000004,-0.00003971,-0.00000538,0.0
 0004187,-0.00014540,-0.00033039,0.00044502,0.00100124,0.00122454,-0.01
 123935,0.00022869,0.01287807,0.00051617,0.00081396,-0.00077769,-0.1429
 8799,0.00553443,0.12354724,-0.00000057,0.00000012,-0.00000068,0.000000
 70,-0.00000080,-0.00000047,0.00000084,0.00000057,0.00000006,0.00000012
 ,0.00000205,0.00000033,0.00000002,-0.00000096,-0.00000145,0.00000161,0
 .00000079,-0.00000037,0.00000151,-0.00000156,-0.00000163,-0.00000048,0
 .00000476,0.00000064,-0.00000051,-0.00000208,-0.00000258,0.00000192,-0
 .00000083,-0.00000281,0.00000109,0.00000148,-0.00000182,0.00000005,0.0
 0000024,-0.00000211,-0.00000019,-0.00000063,-0.00000044,-0.00000030,-0
 .00000021,0.00000029,-0.00000015,-0.00000280,-0.00000529,-0.00000086,0
 .00000134,0.00000040,0.00000944,0.00000597,-0.00000341,-0.00000777,0.0
 0000262,0.00000486,-0.00000941,-0.00002473,-0.00004659,0.00001060,0.00
 002458,-0.00000162,0.00019386,0.00015655,-0.00012055,-0.00011052,0.000
 00543,0.00002768,0.00004852,-0.00050178,-0.00076377,-0.00057731,-0.003
 30380,-0.00010791,0.00066808,-0.00041501,0.00000399,0.00002302,-0.0000
 2464,-0.00023489,0.00008383,-0.00007816,-0.00006403,0.15459973,0.00000
 017,-0.00000021,-0.00000030,0.00000015,0.00000049,-0.00000004,0.000000
 23,-0.00000049,-0.00000065,0.00000032,0.00000069,0.00000008,0.00000069
 ,-0.00000049,-0.00000109,-0.00000044,-0.00000058,0.00000186,0.00000017
 ,0.00000062,-0.00000006,0.00000144,0.00000265,0.00000039,0.00001214,0.
 00000789,0.00001664,0.00008099,-0.00000016,-0.00008020,0.00000254,-0.0
 0010597,0.00007272,0.00073537,0.00131591,0.00131067,-0.01895792,0.0001
 5502,0.02445400,-0.00085386,0.00209486,0.00058072,0.00583301,-0.047129
 76,-0.00704789,0.00000012,0.,0.00000014,-0.00000017,0.00000015,0.00000
 016,-0.00000017,-0.00000010,0.00000006,-0.00000002,-0.00000040,-0.0000
 0024,-0.00000002,0.00000025,0.00000021,-0.00000026,-0.00000009,0.00000
 023,-0.00000024,0.00000011,0.00000041,0.00000012,-0.00000064,-0.000000
 31,-0.00000005,0.00000036,-0.00000002,0.00000045,-0.00000053,0.0000003
 8,0.00000002,0.00000015,-0.00000010,-0.00000018,0.00000008,-0.00000013
 ,0.00000013,-0.00000013,-0.00000014,-0.00000009,-0.00000049,0.00000010
 ,-0.00000077,0.00000085,-0.00000053,-0.00000081,-0.00000296,0.00000105
 ,0.00000471,-0.00000016,0.00000157,0.00000072,0.00000088,-0.00000168,-
 0.00002637,-0.00000559,-0.00003931,0.00000033,-0.00000923,0.00000468,0
 .00017045,0.00005060,-0.00015499,-0.00000705,-0.00001742,-0.00022537,0
 .00015773,-0.00001388,-0.00066879,-0.00311717,-0.00518100,0.00081295,0
 .00055773,-0.00023715,-0.00052703,0.00011640,0.00024714,-0.00040341,0.
 00010796,-0.00010489,0.00000576,-0.00305817,0.05081608,-0.00000048,-0.
 00000105,0.00000120,0.00000154,0.00000121,-0.00000356,-0.00000168,-0.0
 0000213,0.00000168,0.00000071,0.00000230,-0.00000556,-0.00000515,-0.00
 000223,-0.00000072,-0.00000089,0.00000523,0.00000927,0.00000371,-0.000
 00392,-0.00000454,0.00001308,0.00001198,-0.00001633,0.00001136,-0.0000
 1971,0.00002142,0.00001854,0.00007108,-0.00002779,-0.00014295,0.000041
 60,0.00028052,-0.00071034,-0.00012716,0.00066905,0.00278645,0.00029484
 ,-0.00419380,0.00003289,-0.00050253,0.00005941,0.12369980,-0.00672170,
 -0.20666627,0.00000180,-0.00000101,0.00000179,-0.00000039,0.00000047,-
 0.00000020,0.00000003,0.00000034,-0.00000044,0.00000015,-0.00000049,-0
 .00000019,-0.00000006,0.00000066,0.00000144,0.00000045,0.00000041,0.00
 000025,-0.00000092,0.00000063,0.00000110,0.00000005,-0.00000072,-0.000
 00130,0.00000056,0.00000165,0.00000265,-0.00000305,-0.00000011,0.00000
 281,-0.00000069,0.00000035,0.00000060,-0.00000045,-0.00000069,0.000002
 10,0.00000379,0.00000330,0.00000283,-0.00000073,0.00000266,0.00000018,
 0.00000169,-0.00000100,0.00000545,0.00000143,0.00000402,-0.00000009,-0
 .00000035,0.00000233,0.00000052,-0.00000015,-0.00000390,-0.00000373,0.
 00000687,0.00000509,0.00000561,0.00001083,0.00003560,0.00000262,-0.000
 10974,-0.00013396,-0.00007815,0.00001243,0.00006843,0.00003334,0.00031
 945,0.00008189,0.00060770,0.00004147,0.00107041,0.00119273,-0.00031974
 ,0.00064532,0.00018133,-0.00028529,0.00008460,0.00025599,0.00008799,-0
 .00000741,-0.00008382,-0.13832096,0.00632196,0.22379908,0.00000330,0.0
 0000168,-0.00000546,-0.00000458,-0.00000215,0.00000871,0.00000742,0.00
 000151,-0.00001005,-0.00000287,-0.00000274,0.00001527,0.00002084,0.000
 00324,-0.00000682,0.00000652,-0.00001698,-0.00003770,-0.00001563,0.000
 01130,0.00001296,-0.00005592,-0.00005689,0.00005757,-0.00004412,0.0000
 7676,-0.00016045,-0.00012552,-0.00036668,0.00022230,0.00017823,0.00004
 175,-0.00124369,-0.00129045,-0.00310210,0.00168676,-0.00936883,-0.0024
 8433,-0.01292024,0.00039843,0.00104985,0.00017505,-0.12228204,-0.03070
 436,-0.11397372,-0.00000477,0.00000245,-0.00000372,-0.00000051,0.00000
 029,0.00000185,-0.00000101,-0.00000139,0.00000097,-0.00000004,-0.00000
 003,-0.00000041,-0.00000039,0.,-0.00000113,-0.00000219,-0.00000168,-0.
 00000054,-0.00000013,0.00000147,0.00000062,0.00000044,-0.00000156,0.00
 000188,-0.00000163,-0.00000163,-0.00000303,0.00000565,0.00000524,-0.00
 000343,0.00000143,-0.00000409,0.00000190,0.00000171,0.00000067,-0.0000
 0250,-0.00001217,-0.00001033,-0.00000940,0.00000305,-0.00000579,-0.000
 00160,-0.00000517,0.00000457,-0.00000838,-0.00000071,-0.00000693,-0.00
 000267,-0.00001044,-0.00000119,0.00000941,0.00000740,0.00001932,0.0000
 0300,0.00001425,-0.00000205,-0.00000984,-0.00006051,-0.00019314,0.0000
 1387,-0.00001169,0.00006975,0.00005102,0.00042764,-0.00012530,0.000452
 83,0.00014202,-0.00013190,-0.00035552,0.00004255,0.00057217,0.00008173
 ,0.00007309,-0.00000154,0.00009719,-0.00005561,0.00011150,0.00025535,0
 .00061666,-0.00018555,0.00021253,0.01155646,0.00466109,0.01681549,0.13
 145039,0.00000250,0.00000212,-0.00000520,-0.00000614,-0.00000404,0.000
 00812,0.00000687,0.00000274,-0.00001122,-0.00000648,-0.00000904,0.0000
 1734,0.00002454,0.00000410,-0.00000426,0.00000664,-0.00002005,-0.00004
 802,-0.00002083,0.00001299,0.00001324,-0.00007035,-0.00009087,0.000067
 71,-0.00009697,0.00010033,-0.00024754,-0.00025196,-0.00061012,0.000358
 63,-0.00090903,0.00053971,-0.00181999,-0.00203488,-0.00553101,0.002533
 76,-0.01481117,-0.00684497,-0.02494594,-0.00081510,0.00140822,-0.00139
 636,-0.03000491,-0.05917700,-0.04593985,-0.00000430,0.00000194,-0.0000
 0308,-0.00000060,-0.00000005,0.00000153,-0.00000021,-0.00000060,0.0000
 0088,0.00000045,0.00000159,-0.00000095,-0.00000013,0.00000010,-0.00000
 098,-0.00000042,-0.00000035,-0.00000023,-0.00000068,0.00000073,0.00000
 092,0.00000118,0.00000223,-0.00000049,-0.00000121,-0.00000084,-0.00000
 270,0.00000296,0.00000574,-0.00000175,0.00000202,-0.00000309,0.0000016
 2,0.00000186,0.00000041,-0.00000301,-0.00001168,-0.00001157,-0.0000101
 6,0.00000287,-0.00000534,-0.00000130,-0.00000475,0.00000411,-0.0000102
 7,0.00000543,-0.00000983,-0.00000380,-0.00000787,0.00000268,0.00000954
 ,-0.00001717,0.00002811,0.00000673,0.00002872,-0.00000007,-0.00001322,
 0.00010878,-0.00003864,-0.00001628,-0.00004798,0.00001854,0.00006272,-
 0.00024189,0.00028187,0.00008377,0.00022260,0.00003285,0.00013147,0.00
 047784,0.00121364,0.00039183,0.00007520,-0.00007928,0.00005965,0.00007
 420,0.00042961,0.00030505,0.00061106,-0.00040330,0.00070595,-0.0003797
 6,-0.00112451,-0.00106690,0.03615321,0.06426801,0.00000248,0.00000092,
 -0.00000312,-0.00000136,0.00000002,0.00000539,0.00000464,0.00000029,-0
 .00000438,0.00000090,0.00000255,0.00000690,0.00000995,0.00000224,-0.00
 000449,0.00000513,-0.00000736,-0.00001234,-0.00000531,0.00000619,0.000
 00693,-0.00001431,-0.00001220,0.00001778,0.00001118,0.00003171,-0.0000
 2840,0.00004801,-0.00002769,0.00003841,0.00021497,0.00039279,0.0002924
 6,-0.00003985,0.00034336,0.00087156,0.00308060,0.00182534,0.00349401,0
 .00029226,0.00015493,0.00012284,-0.11447953,-0.04718377,-0.21911138,-0
 .00000306,0.00000188,-0.00000278,-0.00000030,0.00000031,0.00000130,-0.
 00000126,-0.00000158,0.00000073,-0.00000041,-0.00000141,-0.00000009,-0
 .00000019,0.00000014,-0.00000075,-0.00000272,-0.00000198,-0.00000036,0
 .00000002,0.00000107,0.00000013,0.00000011,-0.00000413,0.00000193,-0.0
 0000069,-0.00000061,-0.00000180,0.00000434,0.00000167,-0.00000248,-0.0
 0000029,-0.00000255,0.00000152,0.00000100,0.00000057,-0.00000088,-0.00
 000761,-0.00000519,-0.00000476,0.00000208,-0.00000424,-0.00000116,-0.0
 0000396,0.00000379,-0.00000362,-0.00000305,-0.00000629,-0.00000062,-0.
 00000295,-0.00000221,0.00000309,0.00001240,0.00000252,0.00000134,-0.00
 000461,0.00001070,-0.00000613,-0.00004181,-0.00011529,-0.00000128,-0.0
 0008358,-0.00008704,0.00001892,0.00020541,0.00008333,-0.00003222,0.000
 09949,0.00028366,0.00039932,-0.00027937,-0.00054117,0.00077823,-0.0000
 9062,0.00000170,-0.00006691,0.00023823,-0.00005763,0.00023423,0.000219
 12,-0.00032921,0.00036447,-0.01438642,-0.00496820,-0.02030294,0.126182
 80,0.05086003,0.23637666,-0.00000079,-0.00000062,0.00000200,0.00000305
 ,0.00000371,-0.00000282,-0.00000248,-0.00000094,0.00000396,0.00000252,
 0.00000611,-0.00000595,-0.00000486,-0.00000240,0.00000055,-0.00000345,
 0.00000496,0.00000927,0.00000392,-0.00000259,-0.00000306,0.00001318,0.
 00001634,-0.00001265,0.00000925,-0.00001484,0.00003335,0.00000451,0.00
 007645,-0.00004390,0.00027145,0.00003589,0.00025315,0.00085653,-0.0004
 3580,0.00045844,0.01029996,-0.01210916,0.00176494,-0.00097148,-0.00238
 740,-0.00009336,-0.16402152,0.12789051,-0.02545872,0.00000179,-0.00000
 049,0.00000145,0.00000053,0.00000021,-0.00000096,-0.00000053,-0.000000
 73,-0.00000028,-0.00000090,-0.00000192,0.00000069,0.00000017,-0.000000
 40,0.00000004,-0.00000074,-0.00000090,0.00000023,0.00000056,0.00000002
 ,-0.00000070,-0.00000090,-0.00000272,0.00000083,0.00000056,-0.00000005
 ,0.00000055,-0.00000092,-0.00000151,0.00000039,-0.00000069,-0.00000009
 ,0.00000033,-0.00000105,0.00000031,0.00000138,0.00000347,0.00000289,0.
 00000205,-0.00000050,-0.00000014,0.00000033,0.00000148,-0.00000016,0.0
 0000219,0.00000203,-0.00000050,0.00000236,0.00000045,-0.00000019,-0.00
 000137,0.00000571,-0.00000747,-0.00000427,-0.00000306,0.00000456,0.000
 00851,0.00000883,-0.00005442,0.00001722,-0.00001272,-0.00000453,0.0000
 0881,0.00007028,0.00004684,0.00002513,-0.00006222,0.00004345,-0.000096
 86,0.00088332,0.00080339,-0.00017423,0.00009259,-0.00029399,-0.0001661
 4,0.00064450,-0.00075890,0.00013153,-0.00002265,-0.00009366,0.00025748
 ,-0.01325884,0.01357860,-0.00396854,-0.01160056,0.01193758,-0.00118184
 ,0.17679023,-0.00000030,-0.00000024,-0.00000115,-0.00000322,-0.0000039
 2,-0.00000016,0.00000097,-0.00000020,-0.00000506,-0.00000543,-0.000009
 29,0.00000424,-0.00000046,0.00000062,-0.00000596,0.00000564,-0.0000007
 7,0.00000274,-0.00000062,-0.00000096,-0.00000166,0.00000165,-0.0000024
 8,-0.00000085,0.00000278,-0.00000421,0.00000734,-0.00001110,0.00000913
 ,-0.00000648,-0.00038384,0.00030281,0.00006046,0.00198157,0.00051737,0
 .00093480,0.02063959,-0.02072002,0.00341258,-0.00497352,-0.00471202,0.
 00066269,0.12625304,-0.18407036,0.02717875,-0.00000011,-0.00000051,0.0
 0000028,-0.00000097,-0.00000003,0.00000066,0.00000131,0.00000178,-0.00
 000003,0.00000135,0.00000288,-0.00000147,-0.00000005,0.00000096,0.0000
 0142,0.00000281,0.00000254,0.00000059,-0.00000218,0.00000009,0.0000021
 6,0.00000155,0.00000627,-0.00000483,0.00000008,0.00000199,0.00000235,-
 0.00000409,0.00000119,0.00000411,0.00000159,0.00000150,-0.00000169,0.0
 0000100,-0.00000098,-0.00000096,-0.00000003,0.00000013,0.00000089,-0.0
 0000044,0.00000469,0.00000090,-0.00000055,-0.00000186,0.00000071,0.,0.
 00001873,0.00000183,0.00000217,-0.00000256,0.00000087,-0.00006022,0.00
 000961,-0.00003687,-0.00000207,-0.00000232,-0.00000107,0.00012872,0.00
 033433,0.00002866,0.00002137,-0.00004104,0.00000972,-0.00110133,0.0004
 4636,-0.00080952,-0.00010268,0.00004761,-0.00002254,-0.00012591,0.0012
 2562,0.00032763,-0.00012778,0.00026246,-0.00017843,0.00143707,-0.00155
 382,0.00042609,-0.00012287,0.00031431,0.00008005,0.00019829,-0.0007579
 4,-0.00016175,-0.00537748,0.00560220,-0.00065196,-0.13827531,0.2027703
 2,-0.00000128,0.00000033,0.00000191,0.00000042,-0.00000085,-0.00000185
 ,-0.00000249,0.00000186,0.00000345,-0.00000075,-0.00000368,-0.00000272
 ,-0.00000607,0.00000078,0.00000575,-0.00000209,0.00000403,0.00000496,0
 .00000237,-0.00000194,-0.00000252,0.00000891,0.00000453,-0.00000753,-0
 .00001224,-0.00000473,0.00001101,0.00001668,-0.00001497,-0.00001915,-0
 .00002407,0.00007273,-0.00002074,0.00047682,-0.00085242,0.00011741,-0.
 00317079,0.00322090,-0.00224747,0.00069717,0.00080272,0.00002320,-0.02
 542402,0.02739238,-0.05249657,0.00000107,-0.00000064,0.00000075,0.0000
 0055,-0.00000058,-0.00000094,0.00000068,0.00000056,-0.00000025,0.00000
 002,0.00000112,0.00000029,0.00000024,-0.00000045,-0.00000052,0.0000015
 0,0.00000077,-0.00000009,0.00000076,-0.00000128,-0.00000108,-0.0000003
 9,0.00000281,-0.00000049,0.00000052,-0.00000014,-0.00000040,-0.0000011
 8,-0.00000164,-0.00000031,-0.00000013,0.00000185,-0.00000106,-0.000000
 37,-0.00000021,-0.00000006,0.00000312,0.00000213,0.00000199,-0.0000007
 5,0.00000099,0.00000031,0.00000168,-0.00000236,-0.00000005,0.00000408,
 0.00000332,-0.00000139,0.00000518,0.00000362,-0.00000415,-0.00001057,-
 0.00000021,0.00000735,0.00000160,-0.00000517,-0.00000398,0.00002686,-0
 .00002203,-0.00002239,0.00002494,0.00002570,-0.00003856,-0.00024835,-0
 .00017448,0.00020783,0.00002618,-0.00008958,0.00002703,-0.00034850,-0.
 00005285,-0.00000993,-0.00029196,0.00031278,0.00019032,-0.00026287,0.0
 0039676,0.00053210,0.00039202,-0.00022912,0.00030402,0.01748779,-0.019
 46625,0.00424674,-0.01760076,0.01993303,-0.00344528,0.02822849,-0.0312
 6009,0.05264306\\0.00000112,0.00000065,-0.00000093,-0.00000203,-0.0000
 0109,0.00000337,0.00000433,0.00000087,-0.00000123,-0.00000430,0.000006
 59,-0.00001207,-0.00000029,-0.00001616,0.00002025,0.00000644,0.0000180
 5,0.00000668,-0.00000569,-0.00000852,-0.00001189,-0.00000986,0.0000022
 6,-0.00001679,0.00000515,0.00000264,0.00000796,-0.00000076,-0.00000212
 ,0.00000254,-0.00000085,0.00000382,-0.00000681,-0.00000131,-0.00000327
 ,0.00000505,0.00000118,-0.00000198,-0.00000378,-0.00000357,0.00000124,
 0.00000288,-0.00000129,0.00000192,0.00000185,0.00000102,0.00000049,0.0
 0000050,-0.00000006,0.00000006,0.00000063,-0.00000012,0.00000043,0.000
 00005,0.00000127,0.00000083,-0.00000134,0.00000038,0.00000066,-0.00000
 112,-0.00000012,0.00000008,0.00000051,-0.00000072,0.00000053,0.0000007
 4,0.00000068,-0.00000076,0.00000140,-0.00000048,-0.00000062,0.00000132
 ,-0.00000047,0.00000485,-0.00000306,0.00000489,-0.00000564,-0.00000097
 ,0.00000414,-0.00000022,0.00000235,0.00000106,0.00000338,-0.00000130,-
 0.00000299,0.00000004,0.00000376,0.00000260,-0.00000005,0.00000300,-0.
 00000016,-0.00000094,-0.00000220,-0.00000203,-0.00000147,-0.00000263,0
 .00000033,0.00000164,0.00000038,-0.00000032,0.00000023,-0.00000089,0.0
 0000024,-0.00000056,0.00000208,-0.00000153,-0.00000254,0.00000184,0.00
 000035,-0.00000020,-0.00000039,0.00000059,0.00000032,-0.00000184,-0.00
 000012,-0.00000060,0.00000151,0.00000178,-0.00000168,-0.00000047,-0.00
 000006,0.00000043,-0.00000078,0.00000129,-0.00000010,-0.00000096,0.000
 00032,-0.00000090,0.00000047,-0.00000001,-0.00000088,0.00000041,-0.000
 00006,-0.00000170,-0.00000008\\\@


 REPARTEE - WHAT YOU THINK OF AFTER YOU BECOME A DEPARTEE.
 Job cpu time:       0 days 13 hours 20 minutes 30.2 seconds.
 Elapsed time:       0 days  3 hours 21 minutes 13.9 seconds.
 File lengths (MBytes):  RWF=    985 Int=      0 D2E=      0 Chk=     28 Scr=      1
 Normal termination of Gaussian 16 at Wed May 24 02:53:46 2023.
### All Done ###
