### Starting Gaussian ###
 Entering Gaussian System, Link 0=g16
 Initial command:
 /cluster/software/gaussian/gaussian-16-A.03/avx2/g16/l1.exe "/local/scratch/ks29c/Gau-18921.inp" -scrdir="/local/scratch/ks29c/"
 Entering Link 1 = /cluster/software/gaussian/gaussian-16-A.03/avx2/g16/l1.exe PID=     18922.
  
 Copyright (c) 1988,1990,1992,1993,1995,1998,2003,2009,2016,
            Gaussian, Inc.  All Rights Reserved.
  
 This is part of the Gaussian(R) 16 program.  It is based on
 the Gaussian(R) 09 system (copyright 2009, Gaussian, Inc.),
 the Gaussian(R) 03 system (copyright 2003, Gaussian, Inc.),
 the Gaussian(R) 98 system (copyright 1998, Gaussian, Inc.),
 the Gaussian(R) 94 system (copyright 1995, Gaussian, Inc.),
 the Gaussian 92(TM) system (copyright 1992, Gaussian, Inc.),
 the Gaussian 90(TM) system (copyright 1990, Gaussian, Inc.),
 the Gaussian 88(TM) system (copyright 1988, Gaussian, Inc.),
 the Gaussian 86(TM) system (copyright 1986, Carnegie Mellon
 University), and the Gaussian 82(TM) system (copyright 1983,
 Carnegie Mellon University). Gaussian is a federally registered
 trademark of Gaussian, Inc.
  
 This software contains proprietary and confidential information,
 including trade secrets, belonging to Gaussian, Inc.
  
 This software is provided under written license and may be
 used, copied, transmitted, or stored only in accord with that
 written license.
  
 The following legend is applicable only to US Government
 contracts under FAR:
  
                    RESTRICTED RIGHTS LEGEND
  
 Use, reproduction and disclosure by the US Government is
 subject to restrictions as set forth in subparagraphs (a)
 and (c) of the Commercial Computer Software - Restricted
 Rights clause in FAR 52.227-19.
  
 Gaussian, Inc.
 340 Quinnipiac St., Bldg. 40, Wallingford CT 06492
  
  
 ---------------------------------------------------------------
 Warning -- This program may not be used in any manner that
 competes with the business of Gaussian, Inc. or will provide
 assistance to any competitor of Gaussian, Inc.  The licensee
 of this program is prohibited from giving any competitor of
 Gaussian, Inc. access to this program.  By using this program,
 the user acknowledges that Gaussian, Inc. is engaged in the
 business of creating and licensing software in the field of
 computational chemistry and represents and warrants to the
 licensee that it is not a competitor of Gaussian, Inc. and that
 it will not use this program in any manner prohibited above.
 ---------------------------------------------------------------
  

 Cite this work as:
 Gaussian 16, Revision A.03,
 M. J. Frisch, G. W. Trucks, H. B. Schlegel, G. E. Scuseria, 
 M. A. Robb, J. R. Cheeseman, G. Scalmani, V. Barone, 
 G. A. Petersson, H. Nakatsuji, X. Li, M. Caricato, A. V. Marenich, 
 J. Bloino, B. G. Janesko, R. Gomperts, B. Mennucci, H. P. Hratchian, 
 J. V. Ortiz, A. F. Izmaylov, J. L. Sonnenberg, D. Williams-Young, 
 F. Ding, F. Lipparini, F. Egidi, J. Goings, B. Peng, A. Petrone, 
 T. Henderson, D. Ranasinghe, V. G. Zakrzewski, J. Gao, N. Rega, 
 G. Zheng, W. Liang, M. Hada, M. Ehara, K. Toyota, R. Fukuda, 
 J. Hasegawa, M. Ishida, T. Nakajima, Y. Honda, O. Kitao, H. Nakai, 
 T. Vreven, K. Throssell, J. A. Montgomery, Jr., J. E. Peralta, 
 F. Ogliaro, M. J. Bearpark, J. J. Heyd, E. N. Brothers, K. N. Kudin, 
 V. N. Staroverov, T. A. Keith, R. Kobayashi, J. Normand, 
 K. Raghavachari, A. P. Rendell, J. C. Burant, S. S. Iyengar, 
 J. Tomasi, M. Cossi, J. M. Millam, M. Klene, C. Adamo, R. Cammi, 
 J. W. Ochterski, R. L. Martin, K. Morokuma, O. Farkas, 
 J. B. Foresman, and D. J. Fox, Gaussian, Inc., Wallingford CT, 2016.
 
 ******************************************
 Gaussian 16:  ES64L-G16RevA.03 25-Dec-2016
                28-May-2023 
 ******************************************
 %chk=CCCC1CC2dCCdCCdC1CCCN2CCC.chk
 %NProcShared=20
 Will use up to   20 processors via shared memory.
 -----------------------------
 # opt freq b3lyp/6-31g(2df,p)
 -----------------------------
 1/18=20,19=15,26=3,38=1/1,3;
 2/9=110,12=2,17=6,18=5,40=1/2;
 3/5=1,6=6,7=104,11=2,25=1,30=1,71=1,74=-5/1,2,3;
 4//1;
 5/5=2,38=5/2;
 6/7=2,8=2,9=2,10=2,28=1/1;
 7//1,2,3,16;
 1/18=20,19=15,26=3/3(2);
 2/9=110/2;
 99//99;
 2/9=110/2;
 3/5=1,6=6,7=104,11=2,25=1,30=1,71=1,74=-5/1,2,3;
 4/5=5,16=3,69=1/1;
 5/5=2,38=5/2;
 7//1,2,3,16;
 1/18=20,19=15,26=3/3(-5);
 2/9=110/2;
 6/7=2,8=2,9=2,10=2,19=2,28=1/1;
 99/9=1/99;
 -------------------
 Title Card Required
 -------------------
 Symbolic Z-matrix:
 Charge =  0 Multiplicity = 1
 C                     0.84696  -0.01434   0.01862 
 C                     2.35287  -0.03738   0.08055 
 C                     3.07876  -1.35053  -0.33004 
 C                     4.6437   -1.18029  -0.2406 
 C                     5.00695  -0.02537   0.71182 
 C                     6.39937   0.41666   0.36476 
 C                     7.23428   0.32931   1.4412 
 C                     8.26175  -0.61606   1.25612 
 C                     7.88462  -1.91198   1.39528 
 C                     6.44205  -2.40717   1.25456 
 C                     5.73178  -2.36957   0.06599 
 C                     6.60613  -2.79129  -1.12794 
 C                     6.76841  -1.77906  -2.25343 
 C                     7.53737  -0.5319   -1.76733 
 N                     6.76079   0.47907  -0.97826 
 C                     6.21186   1.6623   -1.63461 
 C                     6.61847   1.81779  -3.07373 
 C                     6.04953   3.09788  -3.6245 
 H                     0.49571   0.94552   0.42296 
 H                     0.43267  -0.80936   0.63994 
 H                     0.4833   -0.10241  -1.00588 
 H                     2.58678   0.17286   1.13038 
 H                     2.72248   0.80025  -0.53155 
 H                     2.79939  -1.54896  -1.37934 
 H                     2.71703  -2.19587   0.25598 
 H                     4.81779  -0.81529  -1.25467 
 H                     4.87596  -0.43391   1.72749 
 H                     4.40267   0.87714   0.68314 
 H                     6.79748   0.24337   2.43574 
 H                     9.20444  -0.2576    0.84442 
 H                     8.58843  -2.50991   1.96011 
 H                     6.44303  -3.40252   1.70541 
 H                     6.31258  -3.78539  -1.48335 
 H                     7.63935  -2.96343  -0.78831 
 H                     5.82393  -1.55049  -2.75778 
 H                     7.37652  -2.27561  -3.0248 
 H                     7.97413  -0.08655  -2.66135 
 H                     8.42906  -0.85598  -1.22688 
 H                     6.54859   2.53638  -1.05935 
 H                     5.11713   1.64136  -1.55508 
 H                     6.25458   0.96349  -3.65583 
 H                     7.71034   1.85713  -3.1509 
 H                     4.95776   3.08935  -3.56186 
 H                     6.3505    3.20574  -4.667 
 H                     6.42615   3.95261  -3.05405 
 

 GradGradGradGradGradGradGradGradGradGradGradGradGradGradGradGradGradGrad
 Berny optimization.
 Initialization pass.
                           ----------------------------
                           !    Initial Parameters    !
                           ! (Angstroms and Degrees)  !
 --------------------------                            --------------------------
 ! Name  Definition              Value          Derivative Info.                !
 --------------------------------------------------------------------------------
 ! R1    R(1,2)                  1.5074         estimate D2E/DX2                !
 ! R2    R(1,19)                 1.0992         estimate D2E/DX2                !
 ! R3    R(1,20)                 1.0907         estimate D2E/DX2                !
 ! R4    R(1,21)                 1.0907         estimate D2E/DX2                !
 ! R5    R(2,3)                  1.5556         estimate D2E/DX2                !
 ! R6    R(2,22)                 1.0959         estimate D2E/DX2                !
 ! R7    R(2,23)                 1.1013         estimate D2E/DX2                !
 ! R8    R(3,4)                  1.5767         estimate D2E/DX2                !
 ! R9    R(3,24)                 1.1038         estimate D2E/DX2                !
 ! R10   R(3,25)                 1.0904         estimate D2E/DX2                !
 ! R11   R(4,5)                  1.5404         estimate D2E/DX2                !
 ! R12   R(4,11)                 1.6408         estimate D2E/DX2                !
 ! R13   R(4,26)                 1.0917         estimate D2E/DX2                !
 ! R14   R(5,6)                  1.5016         estimate D2E/DX2                !
 ! R15   R(5,27)                 1.1026         estimate D2E/DX2                !
 ! R16   R(5,28)                 1.0865         estimate D2E/DX2                !
 ! R17   R(6,7)                  1.3651         estimate D2E/DX2                !
 ! R18   R(6,15)                 1.3922         estimate D2E/DX2                !
 ! R19   R(7,8)                  1.4084         estimate D2E/DX2                !
 ! R20   R(7,29)                 1.0896         estimate D2E/DX2                !
 ! R21   R(8,9)                  1.3568         estimate D2E/DX2                !
 ! R22   R(8,30)                 1.0893         estimate D2E/DX2                !
 ! R23   R(9,10)                 1.5317         estimate D2E/DX2                !
 ! R24   R(9,31)                 1.0825         estimate D2E/DX2                !
 ! R25   R(10,11)                1.3851         estimate D2E/DX2                !
 ! R26   R(10,32)                1.0927         estimate D2E/DX2                !
 ! R27   R(11,12)                1.5388         estimate D2E/DX2                !
 ! R28   R(12,13)                1.5224         estimate D2E/DX2                !
 ! R29   R(12,33)                1.0958         estimate D2E/DX2                !
 ! R30   R(12,34)                1.1011         estimate D2E/DX2                !
 ! R31   R(13,14)                1.5437         estimate D2E/DX2                !
 ! R32   R(13,35)                1.0948         estimate D2E/DX2                !
 ! R33   R(13,36)                1.1006         estimate D2E/DX2                !
 ! R34   R(14,15)                1.4993         estimate D2E/DX2                !
 ! R35   R(14,37)                1.0901         estimate D2E/DX2                !
 ! R36   R(14,38)                1.0919         estimate D2E/DX2                !
 ! R37   R(15,16)                1.4602         estimate D2E/DX2                !
 ! R38   R(16,17)                1.5035         estimate D2E/DX2                !
 ! R39   R(16,39)                1.0992         estimate D2E/DX2                !
 ! R40   R(16,40)                1.0978         estimate D2E/DX2                !
 ! R41   R(17,18)                1.5052         estimate D2E/DX2                !
 ! R42   R(17,41)                1.0959         estimate D2E/DX2                !
 ! R43   R(17,42)                1.0953         estimate D2E/DX2                !
 ! R44   R(18,43)                1.0936         estimate D2E/DX2                !
 ! R45   R(18,44)                1.0904         estimate D2E/DX2                !
 ! R46   R(18,45)                1.0944         estimate D2E/DX2                !
 ! A1    A(2,1,19)             108.5108         estimate D2E/DX2                !
 ! A2    A(2,1,20)             110.1765         estimate D2E/DX2                !
 ! A3    A(2,1,21)             111.7439         estimate D2E/DX2                !
 ! A4    A(19,1,20)            107.7928         estimate D2E/DX2                !
 ! A5    A(19,1,21)            108.0289         estimate D2E/DX2                !
 ! A6    A(20,1,21)            110.4606         estimate D2E/DX2                !
 ! A7    A(1,2,3)              117.9203         estimate D2E/DX2                !
 ! A8    A(1,2,22)             104.4571         estimate D2E/DX2                !
 ! A9    A(1,2,23)             107.5071         estimate D2E/DX2                !
 ! A10   A(3,2,22)             108.372          estimate D2E/DX2                !
 ! A11   A(3,2,23)             109.7996         estimate D2E/DX2                !
 ! A12   A(22,2,23)            108.3532         estimate D2E/DX2                !
 ! A13   A(2,3,4)              110.9181         estimate D2E/DX2                !
 ! A14   A(2,3,24)             106.5321         estimate D2E/DX2                !
 ! A15   A(2,3,25)             110.9647         estimate D2E/DX2                !
 ! A16   A(4,3,24)             108.9373         estimate D2E/DX2                !
 ! A17   A(4,3,25)             112.4886         estimate D2E/DX2                !
 ! A18   A(24,3,25)            106.7127         estimate D2E/DX2                !
 ! A19   A(3,4,5)              110.4919         estimate D2E/DX2                !
 ! A20   A(3,4,11)             126.1939         estimate D2E/DX2                !
 ! A21   A(3,4,26)              98.1451         estimate D2E/DX2                !
 ! A22   A(5,4,11)             105.7546         estimate D2E/DX2                !
 ! A23   A(5,4,26)             106.6209         estimate D2E/DX2                !
 ! A24   A(11,4,26)            108.0678         estimate D2E/DX2                !
 ! A25   A(4,5,6)              107.2461         estimate D2E/DX2                !
 ! A26   A(4,5,27)             105.2918         estimate D2E/DX2                !
 ! A27   A(4,5,28)             118.3791         estimate D2E/DX2                !
 ! A28   A(6,5,27)             115.6051         estimate D2E/DX2                !
 ! A29   A(6,5,28)             105.3737         estimate D2E/DX2                !
 ! A30   A(27,5,28)            105.428          estimate D2E/DX2                !
 ! A31   A(5,6,7)              111.4734         estimate D2E/DX2                !
 ! A32   A(5,6,15)             118.4831         estimate D2E/DX2                !
 ! A33   A(7,6,15)             127.2138         estimate D2E/DX2                !
 ! A34   A(6,7,8)              112.6757         estimate D2E/DX2                !
 ! A35   A(6,7,29)             118.6598         estimate D2E/DX2                !
 ! A36   A(8,7,29)             111.0659         estimate D2E/DX2                !
 ! A37   A(7,8,9)              115.1407         estimate D2E/DX2                !
 ! A38   A(7,8,30)             117.3934         estimate D2E/DX2                !
 ! A39   A(9,8,30)             126.4116         estimate D2E/DX2                !
 ! A40   A(8,9,10)             124.1348         estimate D2E/DX2                !
 ! A41   A(8,9,31)             113.5999         estimate D2E/DX2                !
 ! A42   A(10,9,31)            118.7957         estimate D2E/DX2                !
 ! A43   A(9,10,11)            123.5737         estimate D2E/DX2                !
 ! A44   A(9,10,32)            104.8178         estimate D2E/DX2                !
 ! A45   A(11,10,32)           112.2864         estimate D2E/DX2                !
 ! A46   A(4,11,10)            121.3357         estimate D2E/DX2                !
 ! A47   A(4,11,12)            115.4971         estimate D2E/DX2                !
 ! A48   A(10,11,12)           111.5297         estimate D2E/DX2                !
 ! A49   A(11,12,13)           116.8696         estimate D2E/DX2                !
 ! A50   A(11,12,33)           110.3695         estimate D2E/DX2                !
 ! A51   A(11,12,34)           109.6756         estimate D2E/DX2                !
 ! A52   A(13,12,33)           113.0772         estimate D2E/DX2                !
 ! A53   A(13,12,34)           103.4115         estimate D2E/DX2                !
 ! A54   A(33,12,34)           102.0979         estimate D2E/DX2                !
 ! A55   A(12,13,14)           110.945          estimate D2E/DX2                !
 ! A56   A(12,13,35)           112.794          estimate D2E/DX2                !
 ! A57   A(12,13,36)           106.0846         estimate D2E/DX2                !
 ! A58   A(14,13,35)           113.961          estimate D2E/DX2                !
 ! A59   A(14,13,36)           108.0567         estimate D2E/DX2                !
 ! A60   A(35,13,36)           104.3575         estimate D2E/DX2                !
 ! A61   A(13,14,15)           116.9038         estimate D2E/DX2                !
 ! A62   A(13,14,37)           105.7467         estimate D2E/DX2                !
 ! A63   A(13,14,38)           108.8364         estimate D2E/DX2                !
 ! A64   A(15,14,37)           111.3263         estimate D2E/DX2                !
 ! A65   A(15,14,38)           111.2624         estimate D2E/DX2                !
 ! A66   A(37,14,38)           101.5364         estimate D2E/DX2                !
 ! A67   A(6,15,14)            127.7311         estimate D2E/DX2                !
 ! A68   A(6,15,16)            111.8606         estimate D2E/DX2                !
 ! A69   A(14,15,16)           120.3025         estimate D2E/DX2                !
 ! A70   A(15,16,17)           114.3543         estimate D2E/DX2                !
 ! A71   A(15,16,39)           107.0948         estimate D2E/DX2                !
 ! A72   A(15,16,40)           109.078          estimate D2E/DX2                !
 ! A73   A(17,16,39)           109.6232         estimate D2E/DX2                !
 ! A74   A(17,16,40)           109.9373         estimate D2E/DX2                !
 ! A75   A(39,16,40)           106.4229         estimate D2E/DX2                !
 ! A76   A(16,17,18)           109.6312         estimate D2E/DX2                !
 ! A77   A(16,17,41)           109.7539         estimate D2E/DX2                !
 ! A78   A(16,17,42)           109.9222         estimate D2E/DX2                !
 ! A79   A(18,17,41)           110.0644         estimate D2E/DX2                !
 ! A80   A(18,17,42)           108.6914         estimate D2E/DX2                !
 ! A81   A(41,17,42)           108.7579         estimate D2E/DX2                !
 ! A82   A(17,18,43)           110.4723         estimate D2E/DX2                !
 ! A83   A(17,18,44)           109.2458         estimate D2E/DX2                !
 ! A84   A(17,18,45)           110.0827         estimate D2E/DX2                !
 ! A85   A(43,18,44)           109.3346         estimate D2E/DX2                !
 ! A86   A(43,18,45)           108.6496         estimate D2E/DX2                !
 ! A87   A(44,18,45)           109.0312         estimate D2E/DX2                !
 ! D1    D(19,1,2,3)           175.0042         estimate D2E/DX2                !
 ! D2    D(19,1,2,22)           54.6731         estimate D2E/DX2                !
 ! D3    D(19,1,2,23)          -60.3061         estimate D2E/DX2                !
 ! D4    D(20,1,2,3)            57.207          estimate D2E/DX2                !
 ! D5    D(20,1,2,22)          -63.1241         estimate D2E/DX2                !
 ! D6    D(20,1,2,23)         -178.1033         estimate D2E/DX2                !
 ! D7    D(21,1,2,3)           -65.9887         estimate D2E/DX2                !
 ! D8    D(21,1,2,22)          173.6802         estimate D2E/DX2                !
 ! D9    D(21,1,2,23)           58.7009         estimate D2E/DX2                !
 ! D10   D(1,2,3,4)            178.505          estimate D2E/DX2                !
 ! D11   D(1,2,3,24)            60.0892         estimate D2E/DX2                !
 ! D12   D(1,2,3,25)           -55.6941         estimate D2E/DX2                !
 ! D13   D(22,2,3,4)           -63.2194         estimate D2E/DX2                !
 ! D14   D(22,2,3,24)          178.3648         estimate D2E/DX2                !
 ! D15   D(22,2,3,25)           62.5815         estimate D2E/DX2                !
 ! D16   D(23,2,3,4)            54.9576         estimate D2E/DX2                !
 ! D17   D(23,2,3,24)          -63.4582         estimate D2E/DX2                !
 ! D18   D(23,2,3,25)         -179.2415         estimate D2E/DX2                !
 ! D19   D(2,3,4,5)             22.0406         estimate D2E/DX2                !
 ! D20   D(2,3,4,11)           151.2854         estimate D2E/DX2                !
 ! D21   D(2,3,4,26)           -89.1802         estimate D2E/DX2                !
 ! D22   D(24,3,4,5)           138.99           estimate D2E/DX2                !
 ! D23   D(24,3,4,11)          -91.7652         estimate D2E/DX2                !
 ! D24   D(24,3,4,26)           27.7693         estimate D2E/DX2                !
 ! D25   D(25,3,4,5)          -102.905          estimate D2E/DX2                !
 ! D26   D(25,3,4,11)           26.3398         estimate D2E/DX2                !
 ! D27   D(25,3,4,26)          145.8743         estimate D2E/DX2                !
 ! D28   D(3,4,5,6)           -159.0163         estimate D2E/DX2                !
 ! D29   D(3,4,5,27)            77.342          estimate D2E/DX2                !
 ! D30   D(3,4,5,28)           -40.1206         estimate D2E/DX2                !
 ! D31   D(11,4,5,6)            61.4796         estimate D2E/DX2                !
 ! D32   D(11,4,5,27)          -62.1621         estimate D2E/DX2                !
 ! D33   D(11,4,5,28)         -179.6247         estimate D2E/DX2                !
 ! D34   D(26,4,5,6)           -53.3874         estimate D2E/DX2                !
 ! D35   D(26,4,5,27)         -177.029          estimate D2E/DX2                !
 ! D36   D(26,4,5,28)           65.5084         estimate D2E/DX2                !
 ! D37   D(3,4,11,10)         -111.0509         estimate D2E/DX2                !
 ! D38   D(3,4,11,12)          108.9183         estimate D2E/DX2                !
 ! D39   D(5,4,11,10)           20.032          estimate D2E/DX2                !
 ! D40   D(5,4,11,12)         -119.9989         estimate D2E/DX2                !
 ! D41   D(26,4,11,10)         133.9013         estimate D2E/DX2                !
 ! D42   D(26,4,11,12)          -6.1295         estimate D2E/DX2                !
 ! D43   D(4,5,6,7)           -122.3283         estimate D2E/DX2                !
 ! D44   D(4,5,6,15)            40.0044         estimate D2E/DX2                !
 ! D45   D(27,5,6,7)            -5.2638         estimate D2E/DX2                !
 ! D46   D(27,5,6,15)          157.0689         estimate D2E/DX2                !
 ! D47   D(28,5,6,7)           110.6941         estimate D2E/DX2                !
 ! D48   D(28,5,6,15)          -86.9732         estimate D2E/DX2                !
 ! D49   D(5,6,7,8)            115.388          estimate D2E/DX2                !
 ! D50   D(5,6,7,29)           -16.8576         estimate D2E/DX2                !
 ! D51   D(15,6,7,8)           -45.0422         estimate D2E/DX2                !
 ! D52   D(15,6,7,29)         -177.2877         estimate D2E/DX2                !
 ! D53   D(5,6,15,14)          -99.2406         estimate D2E/DX2                !
 ! D54   D(5,6,15,16)           76.9829         estimate D2E/DX2                !
 ! D55   D(7,6,15,14)           59.9885         estimate D2E/DX2                !
 ! D56   D(7,6,15,16)         -123.788          estimate D2E/DX2                !
 ! D57   D(6,7,8,9)            -76.726          estimate D2E/DX2                !
 ! D58   D(6,7,8,30)            92.2967         estimate D2E/DX2                !
 ! D59   D(29,7,8,9)            59.1594         estimate D2E/DX2                !
 ! D60   D(29,7,8,30)         -131.8179         estimate D2E/DX2                !
 ! D61   D(7,8,9,10)            21.661          estimate D2E/DX2                !
 ! D62   D(7,8,9,31)          -136.9682         estimate D2E/DX2                !
 ! D63   D(30,8,9,10)         -146.2118         estimate D2E/DX2                !
 ! D64   D(30,8,9,31)           55.159          estimate D2E/DX2                !
 ! D65   D(8,9,10,11)           65.8886         estimate D2E/DX2                !
 ! D66   D(8,9,10,32)         -163.8395         estimate D2E/DX2                !
 ! D67   D(31,9,10,11)        -136.5098         estimate D2E/DX2                !
 ! D68   D(31,9,10,32)          -6.2378         estimate D2E/DX2                !
 ! D69   D(9,10,11,4)          -99.6912         estimate D2E/DX2                !
 ! D70   D(9,10,11,12)          41.7511         estimate D2E/DX2                !
 ! D71   D(32,10,11,4)         133.1685         estimate D2E/DX2                !
 ! D72   D(32,10,11,12)        -85.3892         estimate D2E/DX2                !
 ! D73   D(4,11,12,13)          22.4897         estimate D2E/DX2                !
 ! D74   D(4,11,12,33)        -108.5697         estimate D2E/DX2                !
 ! D75   D(4,11,12,34)         139.7031         estimate D2E/DX2                !
 ! D76   D(10,11,12,13)       -121.3654         estimate D2E/DX2                !
 ! D77   D(10,11,12,33)        107.5752         estimate D2E/DX2                !
 ! D78   D(10,11,12,34)         -4.152          estimate D2E/DX2                !
 ! D79   D(11,12,13,14)         65.5919         estimate D2E/DX2                !
 ! D80   D(11,12,13,35)        -63.6456         estimate D2E/DX2                !
 ! D81   D(11,12,13,36)       -177.2932         estimate D2E/DX2                !
 ! D82   D(33,12,13,14)       -164.6154         estimate D2E/DX2                !
 ! D83   D(33,12,13,35)         66.1471         estimate D2E/DX2                !
 ! D84   D(33,12,13,36)        -47.5004         estimate D2E/DX2                !
 ! D85   D(34,12,13,14)        -54.9945         estimate D2E/DX2                !
 ! D86   D(34,12,13,35)        175.768          estimate D2E/DX2                !
 ! D87   D(34,12,13,36)         62.1205         estimate D2E/DX2                !
 ! D88   D(12,13,14,15)        -79.0841         estimate D2E/DX2                !
 ! D89   D(12,13,14,37)        156.389          estimate D2E/DX2                !
 ! D90   D(12,13,14,38)         47.9838         estimate D2E/DX2                !
 ! D91   D(35,13,14,15)         49.5288         estimate D2E/DX2                !
 ! D92   D(35,13,14,37)        -74.9981         estimate D2E/DX2                !
 ! D93   D(35,13,14,38)        176.5967         estimate D2E/DX2                !
 ! D94   D(36,13,14,15)        165.0152         estimate D2E/DX2                !
 ! D95   D(36,13,14,37)         40.4883         estimate D2E/DX2                !
 ! D96   D(36,13,14,38)        -67.9169         estimate D2E/DX2                !
 ! D97   D(13,14,15,6)          78.6611         estimate D2E/DX2                !
 ! D98   D(13,14,15,16)        -97.2789         estimate D2E/DX2                !
 ! D99   D(37,14,15,6)        -159.6847         estimate D2E/DX2                !
 ! D100  D(37,14,15,16)         24.3754         estimate D2E/DX2                !
 ! D101  D(38,14,15,6)         -47.2088         estimate D2E/DX2                !
 ! D102  D(38,14,15,16)        136.8513         estimate D2E/DX2                !
 ! D103  D(6,15,16,17)         177.4212         estimate D2E/DX2                !
 ! D104  D(6,15,16,39)          55.7606         estimate D2E/DX2                !
 ! D105  D(6,15,16,40)         -59.0328         estimate D2E/DX2                !
 ! D106  D(14,15,16,17)         -6.0379         estimate D2E/DX2                !
 ! D107  D(14,15,16,39)       -127.6985         estimate D2E/DX2                !
 ! D108  D(14,15,16,40)        117.5081         estimate D2E/DX2                !
 ! D109  D(15,16,17,18)       -177.3694         estimate D2E/DX2                !
 ! D110  D(15,16,17,41)         61.6253         estimate D2E/DX2                !
 ! D111  D(15,16,17,42)        -57.9509         estimate D2E/DX2                !
 ! D112  D(39,16,17,18)        -57.1074         estimate D2E/DX2                !
 ! D113  D(39,16,17,41)       -178.1128         estimate D2E/DX2                !
 ! D114  D(39,16,17,42)         62.311          estimate D2E/DX2                !
 ! D115  D(40,16,17,18)         59.5479         estimate D2E/DX2                !
 ! D116  D(40,16,17,41)        -61.4575         estimate D2E/DX2                !
 ! D117  D(40,16,17,42)        178.9663         estimate D2E/DX2                !
 ! D118  D(16,17,18,43)        -59.8552         estimate D2E/DX2                !
 ! D119  D(16,17,18,44)        179.8356         estimate D2E/DX2                !
 ! D120  D(16,17,18,45)         60.1401         estimate D2E/DX2                !
 ! D121  D(41,17,18,43)         60.9624         estimate D2E/DX2                !
 ! D122  D(41,17,18,44)        -59.3469         estimate D2E/DX2                !
 ! D123  D(41,17,18,45)       -179.0423         estimate D2E/DX2                !
 ! D124  D(42,17,18,43)        179.9733         estimate D2E/DX2                !
 ! D125  D(42,17,18,44)         59.664          estimate D2E/DX2                !
 ! D126  D(42,17,18,45)        -60.0314         estimate D2E/DX2                !
 --------------------------------------------------------------------------------
 Trust Radius=3.00D-01 FncErr=1.00D-07 GrdErr=1.00D-06 EigMax=2.50D+02 EigMin=1.00D-04
 Number of steps in this run=    269 maximum allowed number of steps=    270.
 GradGradGradGradGradGradGradGradGradGradGradGradGradGradGradGradGradGrad

                          Input orientation:                          
 ---------------------------------------------------------------------
 Center     Atomic      Atomic             Coordinates (Angstroms)
 Number     Number       Type             X           Y           Z
 ---------------------------------------------------------------------
      1          6           0        0.846960   -0.014340    0.018620
      2          6           0        2.352870   -0.037380    0.080550
      3          6           0        3.078760   -1.350530   -0.330040
      4          6           0        4.643700   -1.180290   -0.240600
      5          6           0        5.006950   -0.025370    0.711820
      6          6           0        6.399370    0.416660    0.364760
      7          6           0        7.234280    0.329310    1.441200
      8          6           0        8.261750   -0.616060    1.256120
      9          6           0        7.884620   -1.911980    1.395280
     10          6           0        6.442050   -2.407170    1.254560
     11          6           0        5.731780   -2.369570    0.065990
     12          6           0        6.606130   -2.791290   -1.127940
     13          6           0        6.768410   -1.779060   -2.253430
     14          6           0        7.537370   -0.531900   -1.767330
     15          7           0        6.760790    0.479070   -0.978260
     16          6           0        6.211860    1.662300   -1.634610
     17          6           0        6.618470    1.817790   -3.073730
     18          6           0        6.049530    3.097880   -3.624500
     19          1           0        0.495710    0.945520    0.422960
     20          1           0        0.432670   -0.809360    0.639940
     21          1           0        0.483300   -0.102410   -1.005880
     22          1           0        2.586780    0.172860    1.130380
     23          1           0        2.722480    0.800250   -0.531550
     24          1           0        2.799390   -1.548960   -1.379340
     25          1           0        2.717030   -2.195870    0.255980
     26          1           0        4.817790   -0.815290   -1.254670
     27          1           0        4.875960   -0.433910    1.727490
     28          1           0        4.402670    0.877140    0.683140
     29          1           0        6.797480    0.243370    2.435740
     30          1           0        9.204440   -0.257600    0.844420
     31          1           0        8.588430   -2.509910    1.960110
     32          1           0        6.443030   -3.402520    1.705410
     33          1           0        6.312580   -3.785390   -1.483350
     34          1           0        7.639350   -2.963430   -0.788310
     35          1           0        5.823930   -1.550490   -2.757780
     36          1           0        7.376520   -2.275610   -3.024800
     37          1           0        7.974130   -0.086550   -2.661350
     38          1           0        8.429060   -0.855980   -1.226880
     39          1           0        6.548590    2.536380   -1.059350
     40          1           0        5.117130    1.641360   -1.555080
     41          1           0        6.254580    0.963490   -3.655830
     42          1           0        7.710340    1.857130   -3.150900
     43          1           0        4.957760    3.089350   -3.561860
     44          1           0        6.350500    3.205740   -4.667000
     45          1           0        6.426150    3.952610   -3.054050
 ---------------------------------------------------------------------
                    Distance matrix (angstroms):
                    1          2          3          4          5
     1  C    0.000000
     2  C    1.507359   0.000000
     3  C    2.624481   1.555591   0.000000
     4  C    3.980185   2.580171   1.576711   0.000000
     5  C    4.217365   2.728147   2.561140   1.540420   0.000000
     6  C    5.579859   4.081800   3.825200   2.449303   1.501557
     7  C    6.552838   5.080747   4.819492   3.437797   2.370399
     8  C    7.541391   6.052413   5.469802   3.955858   3.352447
     9  C    7.417876   5.986894   5.136949   3.703382   3.508190
    10  C    6.209526   4.869866   3.865122   2.640985   2.833205
    11  C    5.423174   4.105649   2.869459   1.640824   2.537272
    12  C    6.495698   5.209097   3.892913   2.689577   3.686788
    13  C    6.583314   5.289414   4.182892   2.987374   3.869222
    14  C    6.943995   5.526142   4.755540   3.335362   3.578517
    15  N    6.017525   4.562626   4.162328   2.789209   2.487325
    16  C    5.858877   4.552196   4.538211   3.533088   3.131417
    17  C    6.799239   5.620185   5.485949   4.573273   4.508284
    18  C    7.072833   6.101028   6.282300   5.632928   5.444753
    19  H    1.099181   2.128939   3.537089   4.707993   4.623565
    20  H    1.090748   2.143837   2.869759   4.318068   4.641535
    21  H    1.090690   2.163296   2.958205   4.365364   4.839405
    22  H    2.073169   1.095928   2.166931   2.818070   2.464084
    23  H    2.117503   1.101318   2.189383   2.774577   2.728813
    24  H    2.849795   2.148379   1.103835   2.198665   3.401117
    25  H    2.883154   2.196012   1.090352   2.233842   3.187882
    26  H    4.246208   2.909259   2.040992   1.091728   2.127637
    27  H    4.396489   3.039018   2.881588   2.117642   1.102565
    28  H    3.725506   2.324036   2.782406   2.268129   1.086509
    29  H    6.427875   5.037886   4.900912   3.718652   2.500024
    30  H    8.401702   6.897536   6.332283   4.777968   4.206000
    31  H    8.362273   6.966230   6.078274   4.708706   4.534111
    32  H    6.755814   5.540194   4.435316   3.458735   3.801932
    33  H    6.808064   5.672095   4.209069   3.334087   4.545458
    34  H    7.448814   6.104388   4.859057   3.528951   4.220440
    35  H    5.902405   4.732217   3.670131   2.804672   3.877057
    36  H    7.550556   6.315848   5.156379   4.052135   4.963947
    37  H    7.614723   6.254518   5.567522   4.260054   4.492903
    38  H    7.729675   6.268936   5.447441   3.925159   4.019864
    39  H    6.338515   5.052492   5.261148   4.255889   3.475091
    40  H    4.842750   3.624167   3.821921   3.148603   2.815842
    41  H    6.610604   5.494144   5.147951   4.342180   4.648741
    42  H    7.788083   6.537119   6.300624   5.205771   5.076685
    43  H    6.273070   5.461597   5.804122   5.418416   5.288501
    44  H    7.912832   7.002721   7.090353   6.460917   6.416923
    45  H    7.503689   6.506716   6.837291   6.118766   5.658642
                    6          7          8          9         10
     6  C    0.000000
     7  C    1.365074   0.000000
     8  C    2.308569   1.408429   0.000000
     9  C    2.947966   2.334188   1.356835   0.000000
    10  C    2.961010   2.854958   2.553309   1.531673   0.000000
    11  C    2.880628   3.381222   3.300296   2.571210   1.385134
    12  C    3.544269   4.090623   3.627181   2.962155   2.418838
    13  C    3.436902   4.279317   3.987427   3.817941   3.578691
    14  C    2.596270   3.335897   3.110154   3.468041   3.721315
    15  N    1.392200   2.469900   2.905967   3.551592   3.662985
    16  C    2.363104   3.504684   4.212991   4.975323   4.996086
    17  C    3.719460   4.793682   5.231787   5.957044   6.051075
    18  C    4.819287   5.893210   6.519794   7.325602   7.366470
    19  H    5.927586   6.842869   7.965178   7.981648   6.876849
    20  H    6.097570   6.942657   7.855669   7.570857   6.248472
    21  H    6.094914   7.193769   8.116943   7.988720   6.777035
    22  H    3.896339   4.660509   5.730924   5.699459   4.640591
    23  H    3.803950   4.946703   5.990427   6.141381   5.226178
    24  H    4.457062   5.581361   6.136231   5.804297   4.576344
    25  H    4.516279   5.309127   5.851495   5.299300   3.862329
    26  H    2.577140   3.797005   4.266687   4.198858   3.386523
    27  H    2.213884   2.495223   3.423294   3.368544   2.563212
    28  H    2.073697   2.982078   4.177374   4.517777   3.907977
    29  H    2.116005   1.089628   2.067416   2.628681   2.923505
    30  H    2.924571   2.140593   1.089337   2.186857   3.524154
    31  H    3.987723   3.188128   2.046702   1.082544   2.261704
    32  H    4.047886   3.823930   3.357672   2.096681   1.092698
    33  H    4.591325   5.131596   4.620456   3.777233   3.067964
    34  H    3.780493   3.997116   3.174464   2.435933   2.432338
    35  H    3.735113   4.811878   4.788269   4.650272   4.149078
    36  H    4.437596   5.172137   4.675897   4.464023   4.382176
    37  H    3.448250   4.189419   3.963544   4.449321   4.802801
    38  H    2.876208   3.154530   2.500169   2.878763   3.537223
    39  H    2.558040   3.405008   4.270152   5.253389   5.459324
    40  H    2.613392   3.896344   4.784080   5.384222   5.102949
    41  H    4.060189   5.228930   5.536331   6.036478   5.958895
    42  H    4.019137   4.862947   5.083557   5.907988   6.261062
    43  H    4.963855   6.150689   6.918045   7.625815   7.457396
    44  H    5.753257   6.809187   7.303587   8.080583   8.159535
    45  H    4.918528   5.829979   6.543679   7.504471   7.681873
                   11         12         13         14         15
    11  C    0.000000
    12  C    1.538767   0.000000
    13  C    2.608259   1.522390   0.000000
    14  C    3.162001   2.526039   1.543697   0.000000
    15  N    3.203759   3.277435   2.593312   1.499256   0.000000
    16  C    4.402101   4.499625   3.540571   2.566925   1.460189
    17  C    5.308300   5.002986   3.692249   2.841144   2.490667
    18  C    6.604066   6.420665   5.116753   4.340282   3.790335
    19  H    6.207550   7.328456   7.343920   7.520978   6.436787
    20  H    5.553759   6.720495   7.032319   7.506577   6.657607
    21  H    5.816826   6.688350   6.623454   7.108036   6.304424
    22  H    4.181854   5.481001   5.722429   5.779425   4.686415
    23  H    4.411428   5.323305   5.097770   5.146352   4.075617
    24  H    3.370651   4.012213   4.070639   4.861420   4.468385
    25  H    3.025721   4.170714   4.783780   5.486188   5.003064
    26  H    2.235018   2.668107   2.394012   2.781950   2.350961
    27  H    2.690686   4.087078   4.608527   4.393913   3.421579
    28  H    3.562097   4.646787   4.612545   4.220964   2.911948
    29  H    3.684954   4.684612   5.106798   4.337543   3.422323
    30  H    4.138326   4.130497   4.224424   3.110563   3.136283
    31  H    3.430428   3.680318   4.647637   4.348685   4.572558
    32  H    2.064112   2.903115   4.291143   4.636590   4.729672
    33  H    2.177689   1.095775   2.196853   3.487973   4.317595
    34  H    2.172860   1.101147   2.075535   2.623208   3.557914
    35  H    2.941609   2.192670   1.094831   2.225847   2.857186
    36  H    3.502425   2.111280   1.100623   2.155836   3.486504
    37  H    4.204604   3.396820   2.117723   1.090123   2.150561
    38  H    3.352281   2.660505   2.159546   1.091891   2.151115
    39  H    5.099207   5.328422   4.482987   3.300494   2.069814
    40  H    4.369579   4.695525   3.861825   3.259704   2.094101
    41  H    5.023401   4.540065   3.122872   2.729134   2.767723
    42  H    5.668163   5.188396   3.861938   2.766161   2.742455
    43  H    6.600016   6.574421   5.356478   4.794599   4.091389
    44  H    7.339488   6.968117   5.554116   4.877161   4.605417
    45  H    7.084261   7.015873   5.797428   4.795966   4.060341
                   16         17         18         19         20
    16  C    0.000000
    17  C    1.503521   0.000000
    18  C    2.459045   1.505215   0.000000
    19  H    6.117331   7.104638   7.201354   0.000000
    20  H    6.684438   7.678371   8.062325   1.769367   0.000000
    21  H    6.027097   6.753035   6.934114   1.771975   1.791945
    22  H    4.796333   6.052674   6.569267   2.338807   2.417742
    23  H    3.759740   4.762017   5.090649   2.427076   3.034215
    24  H    4.692793   5.365756   6.098957   3.844172   3.197790
    25  H    5.538379   6.512885   7.361214   3.851036   2.699655
    26  H    2.868142   3.672130   4.737740   4.959362   4.776909
    27  H    4.181201   5.581954   6.518789   4.774015   4.589832
    28  H    3.043289   4.461913   5.118554   3.916211   4.313589
    29  H    4.350180   5.732809   6.740487   6.652564   6.696562
    30  H    4.334414   5.132873   6.417472   8.801540   8.791485
    31  H    5.998119   6.924541   8.311510   8.932802   8.435114
    32  H    6.071373   7.079731   8.415342   7.478017   6.632053
    33  H    5.450720   5.832538   7.213399   7.736375   6.923760
    34  H    4.914400   5.396796   6.878298   8.232779   7.656119
    35  H    3.425496   3.475116   4.733861   6.688580   6.415564
    36  H    4.335458   4.163287   5.567310   8.343157   7.987319
    37  H    2.686683   2.373685   3.843480   8.155054   8.264054
    38  H    3.379934   3.719965   5.200361   8.300929   8.211543
    39  H    1.099239   2.139856   2.672889   6.431597   7.175377
    40  H    1.097815   2.142766   2.696909   5.074875   5.724361
    41  H    2.139040   1.095940   2.144446   7.057013   7.449246
    42  H    2.140686   1.095300   2.126511   8.102740   8.628158
    43  H    2.706202   2.147811   1.093599   6.354895   7.302842
    44  H    3.405410   2.129958   1.090423   8.080523   8.905355
    45  H    2.703008   2.143556   1.094449   7.503486   8.499631
                   21         22         23         24         25
    21  H    0.000000
    22  H    3.010649   0.000000
    23  H    2.460429   1.781585   0.000000
    24  H    2.756130   3.050994   2.498690   0.000000
    25  H    3.311256   2.528324   3.097897   1.760553   0.000000
    26  H    4.399761   3.412083   2.742845   2.151221   2.932790
    27  H    5.184271   2.442346   3.356172   3.899727   3.151321
    28  H    4.378786   1.998372   2.074710   3.565150   3.530898
    29  H    7.199526   4.408960   5.071543   5.809648   5.229849
    30  H    8.916612   6.637808   6.710301   6.901984   6.796296
    31  H    8.960261   6.626123   7.181567   6.751913   6.121766
    32  H    7.332135   5.290053   6.042331   5.121277   4.176114
    33  H    6.911789   6.031659   5.901088   4.165926   4.298816
    34  H    7.709852   6.248692   6.197324   5.076934   5.090081
    35  H    5.804172   5.344798   4.483422   3.323844   4.376310
    36  H    7.504353   6.797215   6.110425   4.917894   5.699186
    37  H    7.671595   6.593030   5.736052   5.528121   6.371589
    38  H    7.984473   6.383371   5.982611   5.674209   6.051567
    39  H    6.614667   5.106573   4.234600   5.554178   6.229377
    40  H    4.981439   3.971254   2.736682   3.947271   4.874911
    41  H    6.439414   6.081584   4.718422   4.840780   6.148014
    42  H    7.789160   6.886000   5.732080   6.233563   7.277828
    43  H    6.061449   6.012036   4.406726   5.562003   6.894224
    44  H    7.666270   7.548083   6.004237   6.784266   8.161815
    45  H    7.480351   6.821783   5.478828   6.798920   7.906812
                   26         27         28         29         30
    26  H    0.000000
    27  H    3.007011   0.000000
    28  H    2.606099   1.741701   0.000000
    29  H    4.319613   2.156981   3.034532   0.000000
    30  H    4.894885   4.421158   4.936663   2.928605   0.000000
    31  H    5.236819   4.259850   5.533837   3.318776   2.587882
    32  H    4.254085   3.356909   4.850113   3.735175   4.272846
    33  H    3.332894   4.858579   5.484580   5.641392   5.121198
    34  H    3.576758   4.512654   5.233664   4.624588   3.526589
    35  H    1.952480   4.718373   4.444468   5.580178   5.106394
    36  H    3.437004   5.677052   5.703721   6.041361   4.731228
    37  H    3.531613   5.383422   4.986947   5.241534   3.719320
    38  H    3.611606   4.640147   4.781600   4.157572   2.291191
    39  H    3.777236   4.403043   3.224023   4.187540   4.299326
    40  H    2.492986   3.891038   2.470651   4.550230   5.105855
    41  H    3.315719   5.730048   4.718441   6.157965   5.517697
    42  H    4.370854   6.089439   5.157608   5.886262   4.760987
    43  H    4.537503   6.355885   4.818923   6.888786   6.975075
    44  H    5.491983   7.504054   6.151457   7.708719   7.107422
    45  H    5.343918   6.671415   5.245910   6.635823   6.375173
                   31         32         33         34         35
    31  H    0.000000
    32  H    2.337598   0.000000
    33  H    4.320157   3.214311   0.000000
    34  H    2.942830   2.800468   1.708513   0.000000
    35  H    5.551705   4.871690   2.618727   3.028360   0.000000
    36  H    5.135460   4.951385   2.405717   2.354584   1.734253
    37  H    5.254325   5.692848   4.222541   3.449173   2.603033
    38  H    3.594133   4.362053   3.623080   2.292887   3.100436
    39  H    6.224398   6.551761   6.340367   5.613478   4.484674
    40  H    6.452870   6.150572   5.557325   5.305999   3.483383
    41  H    7.003581   6.916679   5.222537   5.055785   2.704080
    42  H    6.779713   7.270058   6.047519   5.368861   3.914711
    43  H    8.661734   8.490850   7.308748   7.177719   4.787996
    44  H    9.033027   9.180701   7.681990   7.400272   5.152099
    45  H    8.460580   8.760747   7.896622   7.378146   5.543875
                   36         37         38         39         40
    36  H    0.000000
    37  H    2.298090   0.000000
    38  H    2.521053   1.690174   0.000000
    39  H    5.263431   3.387968   3.882311   0.000000
    40  H    4.754742   3.517379   4.160926   1.759513   0.000000
    41  H    3.485501   2.246870   3.733448   3.049940   2.483234
    42  H    4.148117   2.021667   3.402848   2.487092   3.052529
    43  H    5.909453   4.471660   5.750451   3.016467   2.479766
    44  H    5.813324   4.183059   5.714228   3.674564   3.694933
    45  H    6.300380   4.343417   5.520212   2.449393   3.049971
                   41         42         43         44         45
    41  H    0.000000
    42  H    1.781231   0.000000
    43  H    2.491958   3.043674   0.000000
    44  H    2.461575   2.442636   1.781742   0.000000
    45  H    3.053918   2.459585   1.777430   1.779086   0.000000
 Stoichiometry    C17H27N
 Framework group  C1[X(C17H27N)]
 Deg. of freedom   129
 Full point group                 C1      NOp   1
 Largest Abelian subgroup         C1      NOp   1
 Largest concise Abelian subgroup C1      NOp   1
                         Standard orientation:                         
 ---------------------------------------------------------------------
 Center     Atomic      Atomic             Coordinates (Angstroms)
 Number     Number       Type             X           Y           Z
 ---------------------------------------------------------------------
      1          6           0        4.914089    0.093176   -0.124114
      2          6           0        3.424879   -0.040988   -0.314863
      3          6           0        2.611749   -0.772065    0.791577
      4          6           0        1.073798   -0.784825    0.444354
      5          6           0        0.860926   -0.589304   -1.068707
      6          6           0       -0.545381   -0.099314   -1.260762
      7          6           0       -1.256190   -0.928871   -2.079305
      8          6           0       -2.330480   -1.554756   -1.417609
      9          6           0       -1.985734   -2.587083   -0.607391
     10          6           0       -0.586470   -2.786168   -0.017096
     11          6           0       -0.013812   -1.924304    0.903692
     12          6           0       -1.031404   -1.477784    1.968084
     13          6           0       -1.283919    0.018246    2.093793
     14          6           0       -1.948991    0.574850    0.816737
     15          7           0       -1.053460    0.830888   -0.358098
     16          6           0       -0.540864    2.173814   -0.614905
     17          6           0       -1.101386    3.235098    0.290670
     18          6           0       -0.553624    4.579686   -0.106458
     19          1           0        5.342107    0.548559   -1.028340
     20          1           0        5.367640   -0.890995    0.000100
     21          1           0        5.156646    0.734560    0.724060
     22          1           0        3.318302   -0.602589   -1.249905
     23          1           0        3.018227    0.970722   -0.469718
     24          1           0        2.763941   -0.199811    1.723143
     25          1           0        3.007365   -1.772348    0.969871
     26          1           0        0.799424    0.157424    0.922638
     27          1           0        1.091155   -1.566969   -1.523477
     28          1           0        1.489389    0.127277   -1.590287
     29          1           0       -0.713360   -1.638583   -2.702952
     30          1           0       -3.300416   -1.060548   -1.458065
     31          1           0       -2.641923   -3.443726   -0.693878
     32          1           0       -0.571522   -3.824706    0.322321
     33          1           0       -0.814816   -1.959001    2.928419
     34          1           0       -2.025156   -1.884983    1.724834
     35          1           0       -0.394874    0.573354    2.410196
     36          1           0       -1.992128    0.138953    2.927604
     37          1           0       -2.467851    1.482661    1.125008
     38          1           0       -2.784894   -0.072449    0.543797
     39          1           0       -0.779759    2.416474   -1.660071
     40          1           0        0.554442    2.159821   -0.542071
     41          1           0       -0.835599    3.013013    1.330440
     42          1           0       -2.192942    3.261248    0.204036
     43          1           0        0.537274    4.586063   -0.029923
     44          1           0       -0.966211    5.344629    0.552069
     45          1           0       -0.833350    4.809276   -1.139348
 ---------------------------------------------------------------------
 Rotational constants (GHZ):           0.4182672           0.3974213           0.2705488
 Standard basis: 6-31G(2df,p) (6D, 7F)
 There are   693 symmetry adapted cartesian basis functions of A   symmetry.
 There are   639 symmetry adapted basis functions of A   symmetry.
   639 basis functions,   981 primitive gaussians,   693 cartesian basis functions
    68 alpha electrons       68 beta electrons
       nuclear repulsion energy      1431.7607890628 Hartrees.
 NAtoms=   45 NActive=   45 NUniq=   45 SFac= 1.00D+00 NAtFMM=   60 NAOKFM=F Big=F
 Integral buffers will be    131072 words long.
 Raffenetti 2 integral format.
 Two-electron integral symmetry is turned on.
 One-electron integrals computed using PRISM.
 PrsmSu:  requested number of processors reduced to:  12 ShMem   1 Linda.
 NBasis=   639 RedAO= T EigKep=  1.86D-04  NBF=   639
 NBsUse=   639 1.00D-06 EigRej= -1.00D+00 NBFU=   639
 ExpMin= 1.61D-01 ExpMax= 4.17D+03 ExpMxC= 6.27D+02 IAcc=3 IRadAn=         5 AccDes= 0.00D+00
 Harris functional with IExCor=  402 and IRadAn=       5 diagonalized for initial guess.
 HarFok:  IExCor=  402 AccDes= 0.00D+00 IRadAn=         5 IDoV= 1 UseB2=F ITyADJ=14
 ICtDFT=  3500011 ScaDFX=  1.000000  1.000000  1.000000  1.000000
 FoFCou: FMM=F IPFlag=           0 FMFlag=      100000 FMFlg1=           0
         NFxFlg=           0 DoJE=T BraDBF=F KetDBF=T FulRan=T
         wScrn=  0.000000 ICntrl=       500 IOpCl=  0 I1Cent=   200000004 NGrid=           0
         NMat0=    1 NMatS0=      1 NMatT0=    0 NMatD0=    1 NMtDS0=    0 NMtDT0=    0
 Petite list used in FoFCou.
 Requested convergence on RMS density matrix=1.00D-08 within 128 cycles.
 Requested convergence on MAX density matrix=1.00D-06.
 Requested convergence on             energy=1.00D-06.
 No special actions if energy rises.
 Integral accuracy reduced to 1.0D-05 until final iterations.
 EnCoef did    18 forward-backward iterations
 Initial convergence to 1.0D-05 achieved.  Increase integral accuracy.
 SCF Done:  E(RB3LYP) =  -718.518989934     A.U. after   21 cycles
            NFock= 21  Conv=0.68D-08     -V/T= 2.0080

 **********************************************************************

            Population analysis using the SCF density.

 **********************************************************************

 Orbital symmetries:
       Occupied  (A) (A) (A) (A) (A) (A) (A) (A) (A) (A) (A) (A)
                 (A) (A) (A) (A) (A) (A) (A) (A) (A) (A) (A) (A)
                 (A) (A) (A) (A) (A) (A) (A) (A) (A) (A) (A) (A)
                 (A) (A) (A) (A) (A) (A) (A) (A) (A) (A) (A) (A)
                 (A) (A) (A) (A) (A) (A) (A) (A) (A) (A) (A) (A)
                 (A) (A) (A) (A) (A) (A) (A) (A)
       Virtual   (A) (A) (A) (A) (A) (A) (A) (A) (A) (A) (A) (A)
                 (A) (A) (A) (A) (A) (A) (A) (A) (A) (A) (A) (A)
                 (A) (A) (A) (A) (A) (A) (A) (A) (A) (A) (A) (A)
                 (A) (A) (A) (A) (A) (A) (A) (A) (A) (A) (A) (A)
                 (A) (A) (A) (A) (A) (A) (A) (A) (A) (A) (A) (A)
                 (A) (A) (A) (A) (A) (A) (A) (A) (A) (A) (A) (A)
                 (A) (A) (A) (A) (A) (A) (A) (A) (A) (A) (A) (A)
                 (A) (A) (A) (A) (A) (A) (A) (A) (A) (A) (A) (A)
                 (A) (A) (A) (A) (A) (A) (A) (A) (A) (A) (A) (A)
                 (A) (A) (A) (A) (A) (A) (A) (A) (A) (A) (A) (A)
                 (A) (A) (A) (A) (A) (A) (A) (A) (A) (A) (A) (A)
                 (A) (A) (A) (A) (A) (A) (A) (A) (A) (A) (A) (A)
                 (A) (A) (A) (A) (A) (A) (A) (A) (A) (A) (A) (A)
                 (A) (A) (A) (A) (A) (A) (A) (A) (A) (A) (A) (A)
                 (A) (A) (A) (A) (A) (A) (A) (A) (A) (A) (A) (A)
                 (A) (A) (A) (A) (A) (A) (A) (A) (A) (A) (A) (A)
                 (A) (A) (A) (A) (A) (A) (A) (A) (A) (A) (A) (A)
                 (A) (A) (A) (A) (A) (A) (A) (A) (A) (A) (A) (A)
                 (A) (A) (A) (A) (A) (A) (A) (A) (A) (A) (A) (A)
                 (A) (A) (A) (A) (A) (A) (A) (A) (A) (A) (A) (A)
                 (A) (A) (A) (A) (A) (A) (A) (A) (A) (A) (A) (A)
                 (A) (A) (A) (A) (A) (A) (A) (A) (A) (A) (A) (A)
                 (A) (A) (A) (A) (A) (A) (A) (A) (A) (A) (A) (A)
                 (A) (A) (A) (A) (A) (A) (A) (A) (A) (A) (A) (A)
                 (A) (A) (A) (A) (A) (A) (A) (A) (A) (A) (A) (A)
                 (A) (A) (A) (A) (A) (A) (A) (A) (A) (A) (A) (A)
                 (A) (A) (A) (A) (A) (A) (A) (A) (A) (A) (A) (A)
                 (A) (A) (A) (A) (A) (A) (A) (A) (A) (A) (A) (A)
                 (A) (A) (A) (A) (A) (A) (A) (A) (A) (A) (A) (A)
                 (A) (A) (A) (A) (A) (A) (A) (A) (A) (A) (A) (A)
                 (A) (A) (A) (A) (A) (A) (A) (A) (A) (A) (A) (A)
                 (A) (A) (A) (A) (A) (A) (A) (A) (A) (A) (A) (A)
                 (A) (A) (A) (A) (A) (A) (A) (A) (A) (A) (A) (A)
                 (A) (A) (A) (A) (A) (A) (A) (A) (A) (A) (A) (A)
                 (A) (A) (A) (A) (A) (A) (A) (A) (A) (A) (A) (A)
                 (A) (A) (A) (A) (A) (A) (A) (A) (A) (A) (A) (A)
                 (A) (A) (A) (A) (A) (A) (A) (A) (A) (A) (A) (A)
                 (A) (A) (A) (A) (A) (A) (A) (A) (A) (A) (A) (A)
                 (A) (A) (A) (A) (A) (A) (A) (A) (A) (A) (A) (A)
                 (A) (A) (A) (A) (A) (A) (A) (A) (A) (A) (A) (A)
                 (A) (A) (A) (A) (A) (A) (A) (A) (A) (A) (A) (A)
                 (A) (A) (A) (A) (A) (A) (A) (A) (A) (A) (A) (A)
                 (A) (A) (A) (A) (A) (A) (A) (A) (A) (A) (A) (A)
                 (A) (A) (A) (A) (A) (A) (A) (A) (A) (A) (A) (A)
                 (A) (A) (A) (A) (A) (A) (A) (A) (A) (A) (A) (A)
                 (A) (A) (A) (A) (A) (A) (A) (A) (A) (A) (A) (A)
                 (A) (A) (A) (A) (A) (A) (A) (A) (A) (A) (A) (A)
                 (A) (A) (A) (A) (A) (A) (A)
 The electronic state is 1-A.
 Alpha  occ. eigenvalues --  -14.31574 -10.21106 -10.20861 -10.20377 -10.19046
 Alpha  occ. eigenvalues --  -10.18969 -10.18327 -10.18223 -10.18036 -10.17924
 Alpha  occ. eigenvalues --  -10.17793 -10.17516 -10.17498 -10.17365 -10.17265
 Alpha  occ. eigenvalues --  -10.16573 -10.16456 -10.16185  -0.92467  -0.83063
 Alpha  occ. eigenvalues --   -0.80352  -0.79397  -0.78692  -0.75781  -0.73801
 Alpha  occ. eigenvalues --   -0.70554  -0.68025  -0.66321  -0.64444  -0.62261
 Alpha  occ. eigenvalues --   -0.59682  -0.58378  -0.56536  -0.53058  -0.52959
 Alpha  occ. eigenvalues --   -0.50126  -0.48636  -0.47816  -0.46665  -0.46319
 Alpha  occ. eigenvalues --   -0.44851  -0.43890  -0.43336  -0.43222  -0.41696
 Alpha  occ. eigenvalues --   -0.41130  -0.40271  -0.40198  -0.38600  -0.38231
 Alpha  occ. eigenvalues --   -0.37552  -0.37312  -0.36544  -0.35666  -0.35075
 Alpha  occ. eigenvalues --   -0.34649  -0.33904  -0.33421  -0.33027  -0.32895
 Alpha  occ. eigenvalues --   -0.32452  -0.30822  -0.30076  -0.29261  -0.24409
 Alpha  occ. eigenvalues --   -0.21262  -0.19076  -0.13549
 Alpha virt. eigenvalues --   -0.08999  -0.01522   0.01494   0.06948   0.08963
 Alpha virt. eigenvalues --    0.10146   0.11101   0.11288   0.12205   0.12748
 Alpha virt. eigenvalues --    0.13250   0.13748   0.14080   0.14840   0.15507
 Alpha virt. eigenvalues --    0.15641   0.16124   0.17016   0.17194   0.17742
 Alpha virt. eigenvalues --    0.18053   0.18298   0.18912   0.19047   0.19215
 Alpha virt. eigenvalues --    0.19913   0.20139   0.20565   0.21657   0.22206
 Alpha virt. eigenvalues --    0.22837   0.23328   0.23859   0.24650   0.25331
 Alpha virt. eigenvalues --    0.25921   0.26255   0.27797   0.28131   0.28290
 Alpha virt. eigenvalues --    0.29821   0.30763   0.31669   0.33467   0.34172
 Alpha virt. eigenvalues --    0.36429   0.38913   0.40511   0.42044   0.43533
 Alpha virt. eigenvalues --    0.44344   0.45687   0.46134   0.47711   0.48321
 Alpha virt. eigenvalues --    0.48994   0.49224   0.49297   0.49554   0.51160
 Alpha virt. eigenvalues --    0.52027   0.52486   0.52636   0.53070   0.53368
 Alpha virt. eigenvalues --    0.54604   0.55414   0.56022   0.56870   0.56889
 Alpha virt. eigenvalues --    0.57811   0.57970   0.58794   0.58990   0.59542
 Alpha virt. eigenvalues --    0.60478   0.60706   0.61896   0.62326   0.63609
 Alpha virt. eigenvalues --    0.64014   0.64390   0.64917   0.66182   0.67078
 Alpha virt. eigenvalues --    0.68962   0.69456   0.69678   0.71232   0.71881
 Alpha virt. eigenvalues --    0.71988   0.73095   0.73338   0.73695   0.73935
 Alpha virt. eigenvalues --    0.74493   0.74566   0.74956   0.75376   0.75807
 Alpha virt. eigenvalues --    0.76432   0.76605   0.76682   0.77603   0.78017
 Alpha virt. eigenvalues --    0.78739   0.79009   0.79393   0.80742   0.80887
 Alpha virt. eigenvalues --    0.81104   0.81686   0.82160   0.83019   0.83435
 Alpha virt. eigenvalues --    0.83789   0.84895   0.85951   0.86127   0.86603
 Alpha virt. eigenvalues --    0.87817   0.88308   0.88947   0.89768   0.90478
 Alpha virt. eigenvalues --    0.90840   0.91460   0.93300   0.94074   0.95077
 Alpha virt. eigenvalues --    0.97049   0.97502   0.98874   1.00034   1.01490
 Alpha virt. eigenvalues --    1.03586   1.05154   1.05575   1.05757   1.08776
 Alpha virt. eigenvalues --    1.09037   1.11788   1.13225   1.14718   1.15120
 Alpha virt. eigenvalues --    1.16647   1.16920   1.19210   1.19496   1.21095
 Alpha virt. eigenvalues --    1.21475   1.23252   1.24122   1.25778   1.26669
 Alpha virt. eigenvalues --    1.27337   1.28327   1.28664   1.29821   1.30698
 Alpha virt. eigenvalues --    1.32489   1.33354   1.34001   1.34972   1.36200
 Alpha virt. eigenvalues --    1.38109   1.38647   1.38737   1.39317   1.41191
 Alpha virt. eigenvalues --    1.41477   1.43035   1.43438   1.45944   1.46665
 Alpha virt. eigenvalues --    1.48166   1.49218   1.49790   1.51170   1.51422
 Alpha virt. eigenvalues --    1.52072   1.53753   1.54022   1.54614   1.56127
 Alpha virt. eigenvalues --    1.56622   1.57209   1.58213   1.59089   1.59677
 Alpha virt. eigenvalues --    1.60518   1.61260   1.62382   1.62856   1.63260
 Alpha virt. eigenvalues --    1.64941   1.65607   1.66929   1.67762   1.69195
 Alpha virt. eigenvalues --    1.69764   1.70564   1.72138   1.73760   1.74249
 Alpha virt. eigenvalues --    1.76078   1.77352   1.78691   1.80080   1.80513
 Alpha virt. eigenvalues --    1.81171   1.81759   1.82323   1.84282   1.86244
 Alpha virt. eigenvalues --    1.86697   1.87606   1.88443   1.90095   1.90948
 Alpha virt. eigenvalues --    1.91706   1.92927   1.93214   1.94160   1.95525
 Alpha virt. eigenvalues --    1.96073   1.96518   1.97969   1.99526   2.00772
 Alpha virt. eigenvalues --    2.01836   2.03010   2.04210   2.05565   2.08194
 Alpha virt. eigenvalues --    2.10728   2.11755   2.14394   2.15025   2.16208
 Alpha virt. eigenvalues --    2.17030   2.19259   2.21992   2.22405   2.23951
 Alpha virt. eigenvalues --    2.24777   2.26556   2.26863   2.28528   2.30496
 Alpha virt. eigenvalues --    2.30973   2.32167   2.33777   2.34474   2.35381
 Alpha virt. eigenvalues --    2.36644   2.37486   2.38125   2.38918   2.40071
 Alpha virt. eigenvalues --    2.41910   2.44257   2.44898   2.46450   2.47653
 Alpha virt. eigenvalues --    2.49400   2.49538   2.52611   2.55246   2.56177
 Alpha virt. eigenvalues --    2.56574   2.57295   2.60201   2.62031   2.63862
 Alpha virt. eigenvalues --    2.64464   2.65605   2.67475   2.68799   2.69819
 Alpha virt. eigenvalues --    2.70451   2.71573   2.73228   2.74513   2.74891
 Alpha virt. eigenvalues --    2.75369   2.76164   2.77409   2.77775   2.79017
 Alpha virt. eigenvalues --    2.79342   2.79748   2.80925   2.81000   2.82032
 Alpha virt. eigenvalues --    2.83176   2.83693   2.85336   2.86013   2.86404
 Alpha virt. eigenvalues --    2.87573   2.88755   2.89266   2.90102   2.90450
 Alpha virt. eigenvalues --    2.91182   2.92069   2.92865   2.93464   2.93583
 Alpha virt. eigenvalues --    2.94655   2.95972   2.96127   2.97150   2.98816
 Alpha virt. eigenvalues --    2.99325   2.99698   2.99934   3.00611   3.01658
 Alpha virt. eigenvalues --    3.02484   3.03428   3.04432   3.05686   3.06866
 Alpha virt. eigenvalues --    3.07193   3.07931   3.10772   3.11215   3.13327
 Alpha virt. eigenvalues --    3.13701   3.14369   3.16173   3.17037   3.18557
 Alpha virt. eigenvalues --    3.18810   3.19749   3.20668   3.21322   3.22316
 Alpha virt. eigenvalues --    3.23213   3.25264   3.27228   3.27622   3.29443
 Alpha virt. eigenvalues --    3.30701   3.32061   3.32621   3.33851   3.34970
 Alpha virt. eigenvalues --    3.35854   3.36054   3.36863   3.37903   3.39000
 Alpha virt. eigenvalues --    3.39289   3.40314   3.42020   3.43369   3.43785
 Alpha virt. eigenvalues --    3.45094   3.45629   3.47126   3.47792   3.48805
 Alpha virt. eigenvalues --    3.50458   3.51809   3.52580   3.53349   3.54698
 Alpha virt. eigenvalues --    3.54984   3.56736   3.57336   3.57903   3.59361
 Alpha virt. eigenvalues --    3.59872   3.61578   3.61998   3.62451   3.63633
 Alpha virt. eigenvalues --    3.64256   3.65375   3.65841   3.67657   3.68514
 Alpha virt. eigenvalues --    3.69497   3.70151   3.71094   3.71978   3.73745
 Alpha virt. eigenvalues --    3.75349   3.75740   3.77569   3.79039   3.79395
 Alpha virt. eigenvalues --    3.79580   3.81025   3.81245   3.82949   3.84996
 Alpha virt. eigenvalues --    3.85359   3.86512   3.86905   3.88305   3.89119
 Alpha virt. eigenvalues --    3.90911   3.93330   3.93721   3.95609   3.96771
 Alpha virt. eigenvalues --    3.98680   4.00588   4.01748   4.02378   4.03998
 Alpha virt. eigenvalues --    4.05591   4.08239   4.09116   4.10595   4.12808
 Alpha virt. eigenvalues --    4.14766   4.17771   4.20642   4.22482   4.24118
 Alpha virt. eigenvalues --    4.25888   4.28365   4.30042   4.31455   4.34255
 Alpha virt. eigenvalues --    4.36946   4.37500   4.40425   4.40765   4.41176
 Alpha virt. eigenvalues --    4.43028   4.44434   4.44839   4.45318   4.46359
 Alpha virt. eigenvalues --    4.47342   4.48833   4.50091   4.51000   4.51776
 Alpha virt. eigenvalues --    4.52480   4.53518   4.54624   4.55336   4.56622
 Alpha virt. eigenvalues --    4.57510   4.58147   4.58923   4.59371   4.60417
 Alpha virt. eigenvalues --    4.61336   4.61963   4.63580   4.63953   4.64770
 Alpha virt. eigenvalues --    4.65208   4.65853   4.66460   4.66855   4.67266
 Alpha virt. eigenvalues --    4.67926   4.68963   4.69703   4.70557   4.71421
 Alpha virt. eigenvalues --    4.72908   4.73174   4.73806   4.74887   4.75537
 Alpha virt. eigenvalues --    4.76144   4.76888   4.77400   4.78070   4.78683
 Alpha virt. eigenvalues --    4.79655   4.81317   4.82027   4.82350   4.83822
 Alpha virt. eigenvalues --    4.84166   4.84425   4.85386   4.85602   4.86097
 Alpha virt. eigenvalues --    4.86473   4.88248   4.88801   4.89266   4.90548
 Alpha virt. eigenvalues --    4.92234   4.93286   4.93443   4.93958   4.95765
 Alpha virt. eigenvalues --    4.96044   4.97514   4.97751   4.99204   5.00339
 Alpha virt. eigenvalues --    5.01180   5.02644   5.04091   5.04766   5.06312
 Alpha virt. eigenvalues --    5.08297   5.09383   5.12284   5.12764   5.16102
 Alpha virt. eigenvalues --    5.16815   5.19485   5.22971   5.24540   5.26958
 Alpha virt. eigenvalues --    5.28218   5.30524   5.32644   5.34705   5.36675
 Alpha virt. eigenvalues --    5.37792   5.40015   5.42137   5.43245   5.45467
 Alpha virt. eigenvalues --    5.46109   5.47574   5.49180   5.51360   5.53318
 Alpha virt. eigenvalues --    5.55265   5.55494   5.57996   5.64205   5.68376
 Alpha virt. eigenvalues --    5.70251   5.72117   5.73163   5.84335   5.85078
 Alpha virt. eigenvalues --    5.87480   5.90822   6.13889   6.29680   6.46473
 Alpha virt. eigenvalues --    6.65523   7.32014  10.62260  11.08930  11.21934
 Alpha virt. eigenvalues --   11.33499  11.40992  11.46292  11.65531  11.78309
 Alpha virt. eigenvalues --   11.90270  12.03738  12.17894  12.28003  12.34686
 Alpha virt. eigenvalues --   12.37400  12.47878  12.67423  12.79765  13.10672
 Alpha virt. eigenvalues --   25.71839
          Condensed to atoms (all electrons):
               1          2          3          4          5          6
     1  C    5.012006   0.394379  -0.033915   0.002664   0.000909  -0.000040
     2  C    0.394379   4.733277   0.411660  -0.029284  -0.013172   0.000384
     3  C   -0.033915   0.411660   5.011550   0.371499  -0.038343   0.002971
     4  C    0.002664  -0.029284   0.371499   4.809364   0.368562  -0.005908
     5  C    0.000909  -0.013172  -0.038343   0.368562   5.113988   0.322556
     6  C   -0.000040   0.000384   0.002971  -0.005908   0.322556   4.773286
     7  C    0.000001   0.000058  -0.000199  -0.008886  -0.067239   0.511598
     8  C   -0.000000   0.000001  -0.000019   0.002805   0.001737  -0.019765
     9  C    0.000000   0.000002   0.000017  -0.004761   0.002530  -0.022738
    10  C    0.000001   0.000082  -0.000574  -0.038375  -0.009734  -0.007369
    11  C   -0.000044   0.001780  -0.024737   0.366989  -0.041682   0.039685
    12  C    0.000001   0.000005   0.001883  -0.053282   0.006576  -0.004420
    13  C   -0.000000  -0.000000  -0.000405  -0.002716   0.003222  -0.003589
    14  C   -0.000000  -0.000003   0.000316  -0.002875   0.004815  -0.046778
    15  N    0.000000   0.000097   0.000708  -0.017875  -0.052752   0.401584
    16  C    0.000003  -0.000237  -0.000046  -0.001321  -0.000936  -0.070138
    17  C   -0.000000   0.000001   0.000016  -0.000037   0.000349   0.000910
    18  C    0.000000   0.000000  -0.000000   0.000000   0.000007   0.000031
    19  H    0.372771  -0.020476   0.003572  -0.000112   0.000024  -0.000000
    20  H    0.374517  -0.025988  -0.004441   0.000097  -0.000030  -0.000000
    21  H    0.370987  -0.024293  -0.003308   0.000025   0.000014   0.000001
    22  H   -0.046304   0.381954  -0.033360  -0.007243  -0.001456   0.000513
    23  H   -0.043768   0.375360  -0.033785  -0.002511  -0.005298  -0.000274
    24  H   -0.001537  -0.036934   0.353004  -0.016394   0.004192  -0.000021
    25  H   -0.002532  -0.028327   0.341256  -0.025473  -0.000474  -0.000229
    26  H   -0.000069   0.001351  -0.041011   0.321547  -0.032320  -0.020297
    27  H   -0.000143  -0.000536   0.000198  -0.038950   0.353889  -0.023736
    28  H    0.000525   0.002391  -0.011686  -0.014079   0.337708  -0.032073
    29  H    0.000000   0.000019  -0.000041  -0.000461  -0.012593  -0.045344
    30  H    0.000000   0.000000  -0.000000  -0.000115   0.000053  -0.005110
    31  H    0.000000   0.000000   0.000000  -0.000195   0.000092   0.000524
    32  H   -0.000000  -0.000003  -0.000057   0.006862  -0.000386   0.001170
    33  H   -0.000000  -0.000001  -0.000042   0.003654  -0.000236   0.000268
    34  H   -0.000000   0.000001  -0.000034   0.002035   0.000055  -0.001200
    35  H   -0.000000  -0.000002   0.000358  -0.003598   0.000345  -0.000691
    36  H   -0.000000   0.000000  -0.000023   0.000361  -0.000080   0.000142
    37  H    0.000000   0.000000   0.000001  -0.000044  -0.000282   0.003011
    38  H    0.000000   0.000000  -0.000000  -0.000377  -0.000435  -0.007042
    39  H   -0.000000   0.000006  -0.000000   0.000193  -0.002984   0.002982
    40  H   -0.000021  -0.000319  -0.000411   0.001037   0.008031  -0.001129
    41  H    0.000000   0.000001  -0.000000  -0.000003  -0.000045   0.000202
    42  H   -0.000000  -0.000000  -0.000000  -0.000004   0.000015   0.000269
    43  H   -0.000000  -0.000001   0.000000   0.000001  -0.000004   0.000016
    44  H   -0.000000   0.000000   0.000000  -0.000000   0.000000  -0.000002
    45  H    0.000000   0.000000   0.000000  -0.000000  -0.000001  -0.000008
               7          8          9         10         11         12
     1  C    0.000001  -0.000000   0.000000   0.000001  -0.000044   0.000001
     2  C    0.000058   0.000001   0.000002   0.000082   0.001780   0.000005
     3  C   -0.000199  -0.000019   0.000017  -0.000574  -0.024737   0.001883
     4  C   -0.008886   0.002805  -0.004761  -0.038375   0.366989  -0.053282
     5  C   -0.067239   0.001737   0.002530  -0.009734  -0.041682   0.006576
     6  C    0.511598  -0.019765  -0.022738  -0.007369   0.039685  -0.004420
     7  C    5.124055   0.394930  -0.035320  -0.019904   0.012073   0.000513
     8  C    0.394930   4.998163   0.546866  -0.015559  -0.029458  -0.002243
     9  C   -0.035320   0.546866   4.973855   0.429068  -0.038932  -0.008897
    10  C   -0.019904  -0.015559   0.429068   5.168623   0.463937  -0.085631
    11  C    0.012073  -0.029458  -0.038932   0.463937   4.974164   0.426333
    12  C    0.000513  -0.002243  -0.008897  -0.085631   0.426333   4.921894
    13  C    0.000499   0.000377   0.001515  -0.001379  -0.020059   0.407299
    14  C   -0.007851  -0.007995  -0.003741   0.005403  -0.004410  -0.028244
    15  N   -0.022356  -0.012111  -0.000231  -0.000471  -0.001088   0.000317
    16  C    0.000900   0.000249  -0.000041  -0.000023   0.000264  -0.000140
    17  C   -0.000210  -0.000010   0.000004   0.000001  -0.000037   0.000069
    18  C    0.000004   0.000000   0.000000  -0.000000   0.000000   0.000000
    19  H   -0.000000   0.000000  -0.000000   0.000000   0.000001  -0.000000
    20  H   -0.000000  -0.000000   0.000000   0.000000   0.000001  -0.000000
    21  H   -0.000000   0.000000   0.000000   0.000000   0.000000   0.000000
    22  H   -0.000024   0.000001  -0.000000  -0.000002   0.000059   0.000001
    23  H   -0.000009   0.000000   0.000000   0.000009  -0.000022   0.000001
    24  H   -0.000003   0.000001  -0.000000  -0.000055   0.001990   0.000253
    25  H   -0.000003   0.000000   0.000023   0.001566  -0.000516   0.000206
    26  H    0.000488   0.000273   0.000600   0.004571  -0.037911  -0.007970
    27  H   -0.017652   0.000026   0.004183   0.026532  -0.016499   0.000676
    28  H    0.009553  -0.000513  -0.000117  -0.000537   0.005725  -0.000239
    29  H    0.376522  -0.068690  -0.014095   0.008286  -0.000387   0.000083
    30  H   -0.032948   0.339631  -0.047526   0.003219   0.000813   0.000126
    31  H    0.009693  -0.056658   0.364719  -0.043614   0.003315  -0.000247
    32  H    0.000869   0.008184  -0.066292   0.348840  -0.075594  -0.005237
    33  H   -0.000025   0.000042  -0.000635   0.016466  -0.042516   0.325394
    34  H    0.000231   0.003806   0.017992  -0.041324  -0.024847   0.370459
    35  H   -0.000004  -0.000012  -0.000049  -0.000349  -0.006411  -0.032386
    36  H   -0.000008  -0.000093  -0.000185   0.000061   0.003889  -0.027965
    37  H    0.000282   0.000131   0.000102  -0.000024   0.000291   0.003968
    38  H    0.000160   0.012128   0.001767  -0.001780  -0.002891  -0.005321
    39  H    0.004611   0.000192   0.000008   0.000003  -0.000024   0.000005
    40  H   -0.000418   0.000019   0.000003  -0.000002  -0.000047  -0.000011
    41  H    0.000005   0.000001  -0.000000  -0.000000  -0.000005   0.000015
    42  H   -0.000005   0.000001   0.000000   0.000000  -0.000000  -0.000011
    43  H   -0.000000  -0.000000  -0.000000   0.000000  -0.000000  -0.000000
    44  H   -0.000000   0.000000   0.000000  -0.000000  -0.000000  -0.000000
    45  H    0.000000   0.000000  -0.000000   0.000000   0.000000   0.000000
              13         14         15         16         17         18
     1  C   -0.000000  -0.000000   0.000000   0.000003  -0.000000   0.000000
     2  C   -0.000000  -0.000003   0.000097  -0.000237   0.000001   0.000000
     3  C   -0.000405   0.000316   0.000708  -0.000046   0.000016  -0.000000
     4  C   -0.002716  -0.002875  -0.017875  -0.001321  -0.000037   0.000000
     5  C    0.003222   0.004815  -0.052752  -0.000936   0.000349   0.000007
     6  C   -0.003589  -0.046778   0.401584  -0.070138   0.000910   0.000031
     7  C    0.000499  -0.007851  -0.022356   0.000900  -0.000210   0.000004
     8  C    0.000377  -0.007995  -0.012111   0.000249  -0.000010   0.000000
     9  C    0.001515  -0.003741  -0.000231  -0.000041   0.000004   0.000000
    10  C   -0.001379   0.005403  -0.000471  -0.000023   0.000001  -0.000000
    11  C   -0.020059  -0.004410  -0.001088   0.000264  -0.000037   0.000000
    12  C    0.407299  -0.028244   0.000317  -0.000140   0.000069   0.000000
    13  C    4.969422   0.355344  -0.051951   0.001798  -0.000567   0.000032
    14  C    0.355344   4.923466   0.418003  -0.066607  -0.001499   0.000203
    15  N   -0.051951   0.418003   6.167361   0.425351  -0.035665   0.002444
    16  C    0.001798  -0.066607   0.425351   4.812787   0.423830  -0.038200
    17  C   -0.000567  -0.001499  -0.035665   0.423830   4.804354   0.398511
    18  C    0.000032   0.000203   0.002444  -0.038200   0.398511   4.973146
    19  H    0.000000  -0.000000  -0.000000   0.000000   0.000000   0.000000
    20  H    0.000000  -0.000000   0.000000  -0.000000   0.000000  -0.000000
    21  H   -0.000000   0.000000  -0.000000   0.000000  -0.000000  -0.000000
    22  H   -0.000001   0.000000   0.000010   0.000005  -0.000000  -0.000000
    23  H    0.000002   0.000003  -0.000123  -0.000381  -0.000008  -0.000004
    24  H   -0.000031   0.000011   0.000002   0.000013  -0.000002   0.000000
    25  H   -0.000003  -0.000007  -0.000005  -0.000002   0.000000   0.000000
    26  H    0.002214  -0.004478   0.013094   0.000397   0.000071  -0.000006
    27  H   -0.000026  -0.000181   0.002919  -0.000126   0.000001  -0.000000
    28  H    0.000027  -0.000280  -0.001670  -0.000287  -0.000113  -0.000001
    29  H    0.000016  -0.000119   0.004279  -0.000106   0.000001  -0.000000
    30  H    0.000122  -0.002597   0.003346   0.000107  -0.000016   0.000000
    31  H    0.000118  -0.000107   0.000044   0.000001  -0.000000   0.000000
    32  H    0.000071   0.000100  -0.000044  -0.000000  -0.000000  -0.000000
    33  H   -0.024290   0.006046  -0.000076   0.000004  -0.000000  -0.000000
    34  H   -0.034927  -0.017278   0.000071  -0.000005  -0.000001   0.000000
    35  H    0.364277  -0.031341  -0.004361   0.000721  -0.000525  -0.000049
    36  H    0.341489  -0.024183   0.003505  -0.000042  -0.000097  -0.000001
    37  H   -0.049210   0.355469  -0.017443  -0.014673   0.006876   0.000047
    38  H   -0.054455   0.352664  -0.027701   0.005075  -0.000282  -0.000034
    39  H   -0.000423   0.002095  -0.037880   0.352959  -0.029231  -0.004788
    40  H    0.001228   0.004858  -0.045460   0.343566  -0.033709  -0.003914
    41  H   -0.001014  -0.000446  -0.001148  -0.029399   0.370829  -0.035491
    42  H    0.000420  -0.002617  -0.000975  -0.028705   0.371154  -0.034732
    43  H    0.000003   0.000000   0.000100  -0.004428  -0.027373   0.376520
    44  H   -0.000002   0.000028  -0.000104   0.003003  -0.021816   0.374298
    45  H   -0.000001   0.000005   0.000104  -0.004562  -0.027542   0.378139
              19         20         21         22         23         24
     1  C    0.372771   0.374517   0.370987  -0.046304  -0.043768  -0.001537
     2  C   -0.020476  -0.025988  -0.024293   0.381954   0.375360  -0.036934
     3  C    0.003572  -0.004441  -0.003308  -0.033360  -0.033785   0.353004
     4  C   -0.000112   0.000097   0.000025  -0.007243  -0.002511  -0.016394
     5  C    0.000024  -0.000030   0.000014  -0.001456  -0.005298   0.004192
     6  C   -0.000000  -0.000000   0.000001   0.000513  -0.000274  -0.000021
     7  C   -0.000000  -0.000000  -0.000000  -0.000024  -0.000009  -0.000003
     8  C    0.000000  -0.000000   0.000000   0.000001   0.000000   0.000001
     9  C   -0.000000   0.000000   0.000000  -0.000000   0.000000  -0.000000
    10  C    0.000000   0.000000   0.000000  -0.000002   0.000009  -0.000055
    11  C    0.000001   0.000001   0.000000   0.000059  -0.000022   0.001990
    12  C   -0.000000  -0.000000   0.000000   0.000001   0.000001   0.000253
    13  C    0.000000   0.000000  -0.000000  -0.000001   0.000002  -0.000031
    14  C   -0.000000  -0.000000   0.000000   0.000000   0.000003   0.000011
    15  N   -0.000000   0.000000  -0.000000   0.000010  -0.000123   0.000002
    16  C    0.000000  -0.000000   0.000000   0.000005  -0.000381   0.000013
    17  C    0.000000   0.000000  -0.000000  -0.000000  -0.000008  -0.000002
    18  C    0.000000  -0.000000  -0.000000  -0.000000  -0.000004   0.000000
    19  H    0.606852  -0.032058  -0.033112  -0.005057  -0.002395  -0.000146
    20  H   -0.032058   0.601198  -0.031232  -0.004426   0.006151  -0.000350
    21  H   -0.033112  -0.031232   0.608915   0.006364  -0.004906   0.004057
    22  H   -0.005057  -0.004426   0.006364   0.637861  -0.040484   0.006136
    23  H   -0.002395   0.006151  -0.004906  -0.040484   0.647142  -0.005704
    24  H   -0.000146  -0.000350   0.004057   0.006136  -0.005704   0.656739
    25  H   -0.000055   0.004324  -0.000250  -0.004328   0.005910  -0.042353
    26  H    0.000007   0.000009  -0.000010   0.000070   0.002760  -0.015445
    27  H    0.000004   0.000018  -0.000001   0.002495   0.000611  -0.000164
    28  H    0.000028   0.000008  -0.000011  -0.001647  -0.000114   0.000161
    29  H    0.000000  -0.000000  -0.000000  -0.000018   0.000002   0.000000
    30  H   -0.000000  -0.000000  -0.000000  -0.000000  -0.000000  -0.000000
[...]
 402454,-0.00855491,-0.02993453,-0.07323983,-0.01647457,-0.07426405,-0.
 00047969,0.00004098,0.00005834,0.00000085,-0.00000028,-0.00000020,0.00
 000033,0.00000004,0.00000350,-0.00000019,0.00000108,0.00000035,-0.0000
 0048,-0.00000022,-0.00000315,0.00000462,0.00000277,0.00000247,-0.00000
 283,-0.00000229,0.00000903,-0.00000104,-0.00000302,0.00001350,0.000020
 03,0.00002322,0.,0.00003843,-0.00000506,0.00003504,0.00010881,0.000025
 28,0.00008641,-0.00001097,0.00001373,0.00000113,-0.00000655,-0.0000142
 9,0.00000903,-0.00000664,0.00000982,0.00000598,-0.00000283,0.00000877,
 0.00000974,0.00000458,0.00001660,-0.00000154,-0.00001243,-0.00002444,0
 .00002432,0.00013959,-0.00000203,0.00003927,0.00001682,0.00000702,0.00
 003264,-0.00005130,0.00002145,-0.00006220,0.00001677,-0.00000901,0.000
 02109,0.00142788,0.00067839,-0.00015120,-0.00555562,-0.00306653,0.0003
 4734,0.00663600,0.00463733,0.01958103,0.08190753,-0.00000054,0.0000012
 4,-0.00000034,0.00000127,0.00000199,-0.00000119,-0.00000088,-0.0000135
 1,-0.00000091,-0.00000148,-0.00000300,0.00003640,0.00003700,-0.0000515
 0,-0.00013303,-0.00043319,-0.00007330,0.00009493,-0.00003097,0.0001258
 1,-0.00001518,0.00007547,-0.00002216,-0.00000566,0.00001022,-0.0000240
 0,-0.00002713,-0.00000821,-0.00002721,0.00001503,-0.00000842,-0.000008
 13,-0.00004433,-0.00002433,-0.00006812,-0.00002657,-0.00008110,0.00003
 907,0.00027928,0.00019250,-0.00045199,-0.00070819,0.00154303,0.0015579
 4,-0.00013714,-0.00613687,-0.00442169,-0.01332650,-0.01604777,-0.05875
 476,-0.05218651,0.00940076,0.00514766,0.02783263,0.00000035,-0.0000000
 1,0.00000018,-0.00000019,0.00000045,0.00000074,0.00000005,-0.00000089,
 -0.00000006,0.00000055,-0.00000108,-0.00000036,0.00000263,-0.00000014,
 0.00000098,-0.00000253,-0.00000206,0.00000437,-0.00000184,0.00000079,0
 .00000566,0.00001372,0.00001117,-0.00000037,0.00005084,-0.00000061,0.0
 0001333,0.00006030,0.00000977,0.00005079,0.00001200,-0.00000072,-0.000
 01592,-0.00001631,-0.00000823,0.00003815,0.00000440,-0.00000422,0.0000
 0754,-0.00000709,0.00000536,0.00000704,-0.00001089,-0.00001541,0.00001
 895,-0.00000553,-0.00001490,0.00001325,0.00006753,0.00001206,0.0000148
 8,0.00002514,0.00003234,0.00003642,-0.00019228,0.00019699,0.00017733,-
 0.00007229,-0.00005931,0.00005648,0.00045757,0.00061337,0.00072433,-0.
 00292145,-0.00068410,0.00069717,-0.00663840,-0.00503766,-0.01942126,0.
 02041356,0.06413145,-0.00000173,0.00000073,-0.00000341,0.,-0.00000170,
 -0.00000172,0.00000042,-0.00000806,-0.00000010,0.00001468,0.00001961,0
 .00002477,0.00002920,0.00002366,-0.00007271,-0.00003562,-0.00034064,0.
 00021000,-0.00010990,0.00002718,-0.00001996,-0.00000918,0.00001669,-0.
 00004864,0.00002398,-0.00001564,-0.00000887,-0.00001143,-0.00001541,0.
 00001553,0.00000041,0.00000143,-0.00001133,-0.00001509,0.00000486,0.00
 000484,0.00001761,0.00009280,0.00004393,0.00011067,-0.00001958,-0.0001
 9568,0.00075048,-0.00028416,0.00166970,0.00065503,0.00109718,0.0008047
 8,-0.07606830,-0.05238163,-0.26632646,-0.00515680,-0.00317264,-0.01626
 927,-0.00000144,-0.00000044,0.00000118,0.00000118,0.00000015,0.0000024
 5,-0.00000021,-0.00000105,0.00000068,0.00000046,-0.00000195,-0.0000011
 1,0.00000066,0.00000218,0.00000221,-0.00000386,-0.00000342,0.00000184,
 0.00000126,0.00000296,-0.00000248,0.00000517,0.00000484,-0.00000217,-0
 .00000002,0.00000393,-0.00001501,-0.00001270,-0.00000128,0.00000730,0.
 00000261,-0.00000280,0.00000843,0.00001431,-0.00000797,0.00004344,0.00
 001075,-0.00001412,0.00000362,-0.00000319,0.00000076,0.00000230,-0.000
 00328,-0.00000379,0.00000671,0.00000232,-0.00000237,0.00000123,-0.0000
 1179,-0.00000015,-0.00001480,-0.00001374,0.00002117,0.00001031,-0.0000
 7751,0.00006743,0.00006332,-0.00006695,-0.00008021,0.00005035,-0.00044
 084,0.00005117,0.00071143,0.00044400,0.00086840,0.00114640,-0.00408374
 ,-0.00317252,-0.01263851,0.08365627,0.05367575,0.28986396,0.00000047,-
 0.00000113,0.00000296,-0.00000309,-0.00000102,-0.00000150,-0.00000262,
 0.00000522,0.00000213,-0.00000964,-0.00001767,-0.00000633,0.00001509,-
 0.00000742,0.00001282,-0.00005933,0.00005185,0.00010225,-0.00000125,-0
 .00002392,-0.00001332,0.00002755,0.00000819,0.00000812,-0.00000316,-0.
 00000381,-0.00001099,0.00000116,-0.00000172,-0.00000226,0.00000402,0.0
 0000462,-0.00000577,-0.00001344,-0.00000707,0.00000280,0.00001342,-0.0
 0001077,0.00002116,0.00006598,-0.00009919,-0.00011494,-0.00013568,0.00
 013754,-0.00025400,0.00049239,0.00012058,0.00130386,-0.00126361,0.0002
 2444,-0.00148288,-0.07253369,-0.01669171,-0.07429421,0.00000329,-0.000
 00046,-0.00000154,-0.00000081,0.00000026,-0.00000033,-0.00000016,0.000
 00179,-0.00000133,-0.00000157,0.00000320,0.00000062,0.00000143,0.00000
 011,0.00000027,0.00000284,0.00000397,-0.00000283,-0.00000074,-0.000001
 99,0.00000333,0.00000295,0.00000387,0.00000157,0.00000747,0.00000098,-
 0.00000159,-0.00001024,-0.00000600,-0.00000915,0.00000279,0.00000152,-
 0.00001029,-0.00000585,0.00000089,-0.00000037,-0.00000599,0.00000369,0
 .00000204,-0.00000168,0.00000180,0.00000334,0.00000448,0.00000050,0.00
 000212,-0.00000208,0.00000577,-0.00000454,-0.00001421,-0.00000359,-0.0
 0000741,0.00000220,0.00002054,0.00001436,-0.00001348,-0.00001190,0.000
 01174,-0.00001145,0.00002009,0.00000835,0.00002780,0.00000847,0.000057
 45,0.00032451,-0.00005123,-0.00017968,-0.00007013,-0.00010986,-0.00022
 514,0.00076702,0.00037911,0.00004558,0.07430939,-0.00000001,-0.0000001
 0,0.,-0.00000053,-0.00000022,-0.00000030,-0.00000060,0.00000034,-0.000
 00039,-0.00000352,-0.00000049,-0.00000400,-0.00000925,0.00000942,0.000
 02280,0.00004371,0.00009021,-0.00004384,0.00002677,-0.00004324,-0.0000
 1085,-0.00000581,0.00001083,0.00000826,-0.00000473,0.00000604,0.000003
 92,0.00000587,0.00000601,-0.00000650,-0.00000096,0.00000514,0.00000375
 ,-0.00000208,0.00000383,-0.00000272,0.00000031,-0.00003149,-0.00002235
 ,-0.00005298,0.00003963,0.00006576,-0.00019814,-0.00017702,-0.00055419
 ,0.00114635,0.00129507,0.00068915,0.00915916,0.00648343,0.02793826,-0.
 01661083,-0.05826916,-0.05062179,0.00000028,-0.00000019,-0.00000048,0.
 00000027,-0.00000007,0.00000031,0.00000003,0.00000024,0.00000016,-0.00
 000035,-0.00000042,-0.00000063,0.00000014,0.00000060,0.00000046,0.0000
 0037,0.00000031,0.00000008,0.00000066,-0.00000028,-0.00000001,-0.00000
 231,-0.00000156,0.00000065,-0.00001164,-0.00000217,-0.00000202,-0.0000
 0337,0.00000308,-0.00000224,-0.00000766,-0.00001083,-0.00000220,0.0000
 0171,0.00000199,-0.00001130,-0.00000240,0.00000197,-0.00000079,0.00000
 170,-0.00000107,-0.00000128,0.00000152,0.00000109,-0.00000146,0.000001
 51,0.00000266,-0.00000272,-0.00001462,-0.00000111,0.00000315,0.0000005
 0,-0.00001741,-0.00001058,0.00003840,-0.00002599,0.00000100,0.00002171
 ,0.00001646,-0.00002092,-0.00014003,-0.00006910,-0.00008541,-0.0004290
 6,-0.00016103,-0.00051276,0.00017539,0.00138340,-0.00076309,-0.0002713
 0,-0.00464112,0.00348301,0.01812139,0.06260635,0.00000093,-0.00000154,
 0.00000020,-0.00000412,0.00000017,-0.00000466,-0.00000162,-0.00000281,
 -0.00000021,-0.00001100,-0.00001177,0.00001341,0.00000547,-0.00001960,
 -0.00007721,-0.00002749,-0.00003904,0.00009938,-0.00001075,0.00006054,
 0.00002883,0.00003046,-0.00000837,-0.00000704,0.00000260,-0.00000404,-
 0.00001727,0.00000268,-0.00001229,0.00000975,0.00000563,0.00001603,-0.
 00001299,0.00001179,-0.00001651,0.00000319,-0.00001521,0.00003896,-0.0
 0000654,-0.00002496,-0.00002411,-0.00008886,0.00033606,0.00025468,0.00
 059044,-0.00112851,-0.00130285,-0.00013998,-0.00549770,-0.00346826,-0.
 01787465,-0.07432627,-0.05011222,-0.26832346,0.00000305,-0.00000055,-0
 .00000183,0.00000005,0.00000072,0.00000268,-0.00000061,0.00000078,-0.0
 0000025,-0.00000199,-0.00000050,-0.00000172,0.00000390,0.00000342,0.00
 000307,0.00000115,0.00000049,0.00000112,0.00000128,-0.00000075,0.00000
 779,0.00001108,0.00001274,0.00000260,0.00001510,-0.00000322,0.00000162
 ,0.00000198,0.00000106,0.00001807,-0.00000103,0.00000264,0.00000116,-0
 .00000342,-0.00000799,0.00001919,-0.00000267,0.00000013,0.00000424,-0.
 00000305,0.00000192,0.00000615,0.00000800,0.00000809,0.00000191,-0.000
 00393,-0.00000425,0.00000424,0.00003340,-0.00000236,-0.00000399,-0.000
 00281,0.00002401,0.00002043,-0.00003042,-0.00000026,-0.00005911,-0.000
 00711,-0.00000324,0.00002211,0.00000116,0.00002237,-0.00001350,0.00101
 447,0.00067294,0.00048490,-0.00011025,0.00014348,0.00100738,-0.0000277
 2,0.00383325,-0.00038524,0.08320454,0.05229930,0.29422057,-0.00000165,
 0.00000124,-0.00000650,0.00000632,0.00000304,0.00000257,0.00000500,-0.
 00000649,-0.00000426,0.00001474,0.00002526,0.00000287,-0.00002624,0.00
 000808,-0.00000896,0.00013043,-0.00005311,-0.00009415,-0.00002311,0.00
 004197,-0.00001551,-0.00003646,-0.00001134,-0.00002764,0.00000356,0.00
 000576,0.00001621,-0.00000812,-0.00000482,0.00000899,-0.00000589,-0.00
 001600,0.00000213,-0.00000026,0.00000860,-0.00000865,0.00000680,-0.000
 00479,0.00000071,-0.00004967,0.00003385,0.00010896,0.00002813,0.000105
 33,-0.00025666,0.00094325,0.00032797,0.00002496,0.00311183,0.00229567,
 -0.00038934,-0.26379512,-0.10049009,0.01430536,-0.00000644,0.00000115,
 0.00000319,0.00000195,0.00000017,0.00000109,0.00000023,-0.00000372,0.0
 0000264,0.00000321,-0.00000578,-0.00000093,-0.00000247,-0.00000047,-0.
 00000023,-0.00000431,-0.00000748,0.00000402,0.00000086,0.00000467,-0.0
 0000548,-0.00000300,-0.00000668,-0.00000211,-0.00000070,0.00000243,0.0
 0000192,0.00001422,0.00000355,0.00002025,-0.00000542,-0.00000635,0.000
 01617,0.00001148,-0.00000314,0.00001504,0.00001364,-0.00000972,-0.0000
 0158,0.00000158,0.00000007,-0.00000531,-0.00001171,-0.00000723,0.00000
 283,0.00000435,-0.00000658,0.00000566,0.00001319,0.00000291,0.00000608
 ,-0.00000601,-0.00001714,-0.00001080,-0.00002040,0.00002426,0.00001612
 ,0.00001250,-0.00005284,-0.00001212,0.00031637,0.00008731,-0.00019743,
 0.00015263,0.00015828,0.00006136,0.00062829,-0.00054880,0.00011751,0.0
 0030185,-0.00025045,0.00052821,-0.00871767,-0.00305023,0.00082865,0.28
 499778,-0.00000373,0.00000271,-0.00000926,0.00000864,-0.00000396,0.000
 00776,0.00000595,-0.00000481,-0.00000235,0.00005466,0.00005793,0.00001
 412,-0.00005273,0.00009497,0.00007386,0.00029064,-0.00063800,-0.000301
 36,-0.00010755,0.00015239,0.00008381,-0.00013421,-0.00005930,-0.000073
 02,0.00003572,-0.00000831,0.00004330,-0.00002071,0.00000182,0.00002681
 ,0.00000442,-0.00001207,0.00000822,0.00000800,0.00003066,-0.00000827,0
 .00005676,-0.00004573,-0.00005735,-0.00024247,0.00025390,0.00031461,-0
 .00161726,-0.00117117,0.00117005,0.00333669,-0.00306348,0.00272734,-0.
 02655152,-0.01234436,0.00069806,-0.09966699,-0.09164764,0.00574984,-0.
 00001060,0.00000104,0.00000560,0.00000298,-0.00000057,0.00000018,0.000
 00059,-0.00000361,0.00000309,0.00000536,-0.00000574,-0.00000011,-0.000
 00696,-0.00000198,-0.00000177,-0.00000962,-0.00000967,0.00000224,0.000
 00228,0.00000728,-0.00001720,-0.00000847,-0.00001284,-0.00000874,-0.00
 005305,-0.00000355,0.00000686,0.00002353,0.00000269,-0.00001430,0.0000
 0818,0.00002451,0.00004689,0.00002058,-0.00000703,0.00003147,0.0000318
 6,-0.00002479,-0.00001022,-0.00000007,-0.00000781,-0.00000938,-0.00001
 798,-0.00001196,0.00000078,0.00000589,-0.00001027,0.00000650,0.0000141
 5,0.00001248,0.00001312,-0.00002403,-0.00004655,-0.00004189,-0.0000080
 7,0.00006557,-0.00005031,0.00000777,-0.00008066,0.00000192,-0.00017242
 ,0.00022209,0.00023364,0.00028014,0.00013629,-0.00016711,0.00014135,0.
 00076455,-0.00094284,0.00042704,0.00117728,-0.00004389,-0.00607384,-0.
 00363604,0.00033244,0.10988774,0.10023059,0.00000208,-0.00000009,0.000
 00526,-0.00000345,0.00000070,-0.00000416,-0.00000120,0.00000294,0.0000
 0147,-0.00003382,-0.00003202,-0.00000801,0.00003260,-0.00006616,-0.000
 06729,-0.00011934,0.00031296,0.00028438,0.00003970,-0.00008217,-0.0000
 6093,0.00007258,0.00002915,0.00004397,-0.00002297,0.00000761,-0.000019
 99,0.00001022,0.00000443,-0.00001346,-0.00000416,0.00000238,-0.0000033
 4,-0.00000021,-0.00001752,0.00000539,-0.00005287,0.00004379,0.00003822
 ,0.00014661,-0.00002871,-0.00023680,0.00083269,0.00120394,-0.00029096,
 -0.00205734,0.00199156,-0.00174879,0.01849989,0.00783960,-0.00191762,0
 .01384264,0.00557150,-0.04687659,0.00000518,-0.00000056,-0.00000300,-0
 .00000154,0.00000010,-0.00000048,-0.00000004,0.00000166,-0.00000153,-0
 .00000305,0.00000328,-0.00000019,0.00000349,0.00000111,0.00000056,0.00
 000482,0.00000498,-0.00000084,-0.00000119,-0.00000380,0.00000877,0.000
 00489,0.00000678,0.00000494,0.00003250,0.00000045,0.00000350,-0.000014
 63,-0.00000519,0.00000970,-0.00000067,-0.00000468,-0.00001877,-0.00000
 890,0.00000625,-0.00002214,-0.00001679,0.00001333,0.00000566,0.0000004
 1,0.00000277,0.00000310,0.00001056,0.00000702,-0.00000205,-0.00000310,
 0.00000173,-0.00000027,0.00000948,-0.00001065,-0.00000760,0.00001553,0
 .00003060,0.00002537,-0.00001347,-0.00002564,0.00001937,-0.00001060,0.
 00005565,0.00001884,-0.00043061,-0.00012682,0.00003724,0.00042321,0.00
 021147,0.00041724,-0.00048078,-0.00057922,0.00060089,0.00023806,-0.000
 79779,0.00034527,-0.02822299,-0.01245459,0.00243826,-0.01527753,-0.009
 27745,0.04847984,0.00000308,-0.00000101,0.00000477,-0.00000430,0.00000
 401,-0.00000395,-0.00000194,0.00000393,0.00000345,-0.00001647,-0.00002
 235,-0.00000970,0.00001938,-0.00001530,-0.00000163,-0.00008836,0.00009
 128,0.00014833,-0.00000090,-0.00005919,-0.00003536,0.00003198,0.000021
 44,0.00001758,-0.00000388,-0.00000166,-0.00001232,0.00000775,0.0000031
 1,-0.00000806,-0.00000277,0.00000970,0.00000150,0.00000187,-0.00000535
 ,0.00000508,0.00001131,-0.00001266,-0.00000967,-0.00004299,-0.00012697
 ,-0.00000732,0.00012396,0.00021201,-0.00029339,0.00071717,-0.00098268,
 -0.00028049,-0.00125835,0.00096060,-0.00020453,-0.14928664,0.10721577,
 0.06586980,0.00000506,-0.00000006,-0.00000273,-0.00000198,0.00000069,-
 0.00000145,-0.00000052,0.00000029,-0.00000127,-0.00000170,0.00000029,0
 .00000143,0.00000173,-0.00000004,-0.00000002,0.00000329,0.00000250,-0.
 00000153,-0.00000056,-0.00000166,0.00000397,0.00000125,0.00000241,0.00
 000186,0.00001406,-0.00000030,-0.00000375,-0.00001358,-0.00000409,-0.0
 0000819,0.00001361,0.00000790,-0.00001420,-0.00000937,0.00000526,-0.00
 000965,-0.00000959,0.00000485,0.00000324,-0.00000040,-0.00000312,0.000
 00192,0.00000783,0.00000661,-0.00000253,-0.00000119,0.00000135,-0.0000
 0272,0.00000378,0.00000113,-0.00000074,0.00000043,0.00000738,0.0000020
 2,-0.00001123,-0.00001872,-0.00002259,-0.00001794,-0.00000076,0.000023
 17,0.00046203,0.00030832,0.00007865,0.00005401,0.00000251,-0.00003203,
 0.00103057,-0.00015635,-0.00050900,-0.00003940,0.00014498,-0.00018795,
 0.00680533,-0.00792534,-0.00428082,-0.01799960,0.02012139,0.01255409,0
 .15949420,-0.00000310,0.00000239,-0.00000184,0.00000257,-0.00001146,0.
 00000513,-0.00000218,0.00000956,-0.00000507,0.00000269,-0.00000250,-0.
 00000186,-0.00004910,0.00001003,0.00003736,0.00006159,-0.00001966,-0.0
 0010356,-0.00000724,0.00001552,0.00004953,0.00000074,-0.00001292,0.000
 00996,-0.00001296,0.00000892,-0.00001068,-0.00001483,-0.00000081,0.000
 01427,0.00001672,-0.00001948,-0.00001232,-0.00003636,-0.00000424,-0.00
 001845,-0.00001022,0.00002719,0.00011064,0.00015412,0.00011694,-0.0003
 1201,-0.00041146,0.00034137,0.00041303,0.00179594,0.00076532,-0.001337
 23,0.01758698,-0.01987592,-0.01171940,0.10707942,-0.16008930,-0.069804
 74,-0.00000395,-0.00000066,0.00000206,0.00000142,-0.00000119,0.0000012
 1,0.00000085,0.00000231,-0.00000080,-0.00000094,0.00000574,-0.00000056
 ,-0.00000047,0.00000040,0.00000036,0.00000127,0.00000400,-0.00000367,0
 .00000087,-0.00000132,0.00000085,0.00000093,0.00000068,-0.00000112,-0.
 00003400,-0.00000433,0.00001900,0.00000528,-0.00001526,-0.00001333,-0.
 00001979,-0.00000968,0.00001185,0.00000012,-0.00000012,-0.00000791,0.0
 0000086,0.00000406,-0.00000048,-0.00000377,0.00001031,0.00000124,-0.00
 001266,-0.00001899,0.00000984,-0.00000056,0.00000304,0.00000250,-0.000
 02396,-0.00000993,-0.00001677,0.00000369,0.00000872,0.00000958,-0.0000
 3984,0.00007912,0.00019466,-0.00001909,0.00005993,0.00003593,-0.001108
 94,-0.00002741,0.00055702,-0.00012816,-0.00004508,-0.00000904,-0.00030
 926,-0.00405623,0.00393541,-0.00018900,0.00132510,0.00010954,0.0039939
 0,-0.00487798,-0.00268362,-0.00846608,0.00962315,0.00615531,-0.1198020
 8,0.17668065,0.00000080,0.00000112,0.00000038,0.00000089,-0.00000219,0
 .00000042,0.00000077,0.00000183,-0.00000005,-0.00000183,0.00000273,-0.
 00000535,0.00001279,0.00000436,0.00000937,0.00004754,-0.00003185,0.000
 03092,-0.00001481,-0.00001439,-0.00001665,-0.00000708,0.00000354,-0.00
 000082,0.00000264,0.00000126,0.00000392,0.00000106,0.00000169,0.000000
 56,0.00000090,-0.00000032,0.00000431,0.00001716,0.00000810,0.00000866,
 0.00001920,-0.00002245,-0.00006033,-0.00009462,0.00001644,0.00008576,-
 0.00009294,-0.00027941,0.00006610,-0.00068603,-0.00017895,0.00051327,-
 0.01278489,0.01349091,0.00822419,0.06601723,-0.07036079,-0.09015512,-0
 .00000150,-0.00000006,0.00000029,0.00000014,-0.00000017,-0.00000088,0.
 00000015,0.00000028,-0.00000038,0.00000055,0.00000076,0.00000078,-0.00
 000063,-0.00000105,-0.00000017,-0.00000074,0.00000037,-0.00000054,0.00
 000007,0.00000060,-0.00000156,-0.00000217,-0.00000400,-0.00000069,-0.0
 0000048,0.00000133,0.00000479,-0.00000270,-0.00000646,-0.00001181,0.00
 000794,0.00000825,0.00000036,-0.00000047,0.00000258,-0.00000469,0.0000
 0074,-0.00000102,-0.00000086,-0.00000094,-0.00000289,-0.00000110,0.000
 00179,0.00000410,-0.00000480,-0.00000119,-0.00000095,-0.00000031,0.000
 01250,0.00000485,0.00000180,-0.00000727,0.00000611,-0.00000170,0.00002
 126,-0.00001925,-0.00012591,0.00000527,0.00000242,-0.00000838,0.000231
 87,-0.00028570,0.00005130,0.00014953,-0.00006159,-0.00003241,-0.000012
 69,0.00406440,-0.00129964,-0.00033025,-0.00078641,0.00097149,0.0200419
 9,-0.01938065,-0.01199417,0.00022168,-0.00056568,-0.00149244,-0.072773
 25,0.07437819,0.09524208\\-0.00000025,0.00000102,0.00000100,0.00000051
 ,-0.00000122,0.00000121,-0.00000232,0.00000106,-0.00000051,0.00000118,
 0.00000244,0.00000191,0.00000825,0.00000034,-0.00000428,-0.00000830,-0
 .00000114,0.00000353,0.00000239,-0.00000140,0.00000216,-0.00000101,-0.
 00000390,0.00000089,0.00000381,0.00000308,-0.00000218,-0.00000570,0.00
 000192,-0.00000401,0.00000519,-0.00000146,-0.00000326,-0.00000093,0.00
 000156,-0.00000018,-0.00000273,-0.00000168,0.00000314,-0.00000013,0.00
 000005,-0.00000198,0.00000231,0.00000212,-0.00000298,-0.00000296,-0.00
 000342,0.00000233,0.00000336,0.00000076,0.00000207,-0.00000029,-0.0000
 0098,0.00000047,-0.00000032,-0.00000010,0.00000067,-0.00000029,0.00000
 137,0.00000022,0.00000107,0.00000081,0.00000058,0.00000137,0.00000089,
 0.00000204,-0.00000111,0.00000230,0.00000038,-0.00000044,0.00000111,0.
 00000072,0.00000182,0.00000105,0.00000092,-0.00000007,0.00000143,-0.00
 000130,-0.00000134,0.00000034,0.00000152,-0.00000077,0.00000185,0.0000
 0107,-0.00000234,-0.00000229,-0.00000010,0.00000115,-0.00000015,-0.000
 00071,-0.00000131,-0.00000195,0.00000011,0.00000020,-0.00000066,0.0000
 0023,-0.00000114,-0.00000004,-0.00000089,-0.00000072,0.00000049,-0.000
 00078,-0.00000089,0.00000076,-0.00000151,-0.00000013,0.00000018,-0.000
 00097,-0.00000046,-0.00000083,-0.00000128,-0.00000196,-0.00000147,-0.0
 0000003,0.00000134,-0.00000025,0.00000021,0.00000037,-0.00000102,-0.00
 000012,-0.00000025,-0.00000025,-0.00000162,0.00000152,-0.00000156,0.00
 000019,0.00000117,-0.00000009,0.00000003,0.00000062,-0.00000048,0.0000
 0094,0.00000052,-0.00000057,0.00000014\\\@


 ALL MY ATTEMPTS TO ADAPT THE THEORETICAL FOUNDATIONS OF PHYSICS
 TO THESE NEW NOTIONS FAILED COMPLETELY. IT WAS AS IF THE GROUND HAD
 BEEN PULLED OUT FROM UNDER ONE WITH NO FIRM FOUNDATION TO BE SEEN ANYWHERE,
 UPON WHICH ONE COULD HAVE BUILT.  -- A.EINSTEIN
 Job cpu time:       1 days  7 hours 52 minutes 47.8 seconds.
 Elapsed time:       0 days  7 hours 59 minutes  8.8 seconds.
 File lengths (MBytes):  RWF=   1244 Int=      0 D2E=      0 Chk=     34 Scr=      1
 Normal termination of Gaussian 16 at Sun May 28 22:21:32 2023.
### All Done ###
