### Starting Gaussian ###
 Entering Gaussian System, Link 0=g16
 Initial command:
 /cluster/software/gaussian/gaussian-16-A.03/avx2/g16/l1.exe "/local/scratch/cz9n3/Gau-15566.inp" -scrdir="/local/scratch/cz9n3/"
 Entering Link 1 = /cluster/software/gaussian/gaussian-16-A.03/avx2/g16/l1.exe PID=     15567.
  
 Copyright (c) 1988,1990,1992,1993,1995,1998,2003,2009,2016,
            Gaussian, Inc.  All Rights Reserved.
  
 This is part of the Gaussian(R) 16 program.  It is based on
 the Gaussian(R) 09 system (copyright 2009, Gaussian, Inc.),
 the Gaussian(R) 03 system (copyright 2003, Gaussian, Inc.),
 the Gaussian(R) 98 system (copyright 1998, Gaussian, Inc.),
 the Gaussian(R) 94 system (copyright 1995, Gaussian, Inc.),
 the Gaussian 92(TM) system (copyright 1992, Gaussian, Inc.),
 the Gaussian 90(TM) system (copyright 1990, Gaussian, Inc.),
 the Gaussian 88(TM) system (copyright 1988, Gaussian, Inc.),
 the Gaussian 86(TM) system (copyright 1986, Carnegie Mellon
 University), and the Gaussian 82(TM) system (copyright 1983,
 Carnegie Mellon University). Gaussian is a federally registered
 trademark of Gaussian, Inc.
  
 This software contains proprietary and confidential information,
 including trade secrets, belonging to Gaussian, Inc.
  
 This software is provided under written license and may be
 used, copied, transmitted, or stored only in accord with that
 written license.
  
 The following legend is applicable only to US Government
 contracts under FAR:
  
                    RESTRICTED RIGHTS LEGEND
  
 Use, reproduction and disclosure by the US Government is
 subject to restrictions as set forth in subparagraphs (a)
 and (c) of the Commercial Computer Software - Restricted
 Rights clause in FAR 52.227-19.
  
 Gaussian, Inc.
 340 Quinnipiac St., Bldg. 40, Wallingford CT 06492
  
  
 ---------------------------------------------------------------
 Warning -- This program may not be used in any manner that
 competes with the business of Gaussian, Inc. or will provide
 assistance to any competitor of Gaussian, Inc.  The licensee
 of this program is prohibited from giving any competitor of
 Gaussian, Inc. access to this program.  By using this program,
 the user acknowledges that Gaussian, Inc. is engaged in the
 business of creating and licensing software in the field of
 computational chemistry and represents and warrants to the
 licensee that it is not a competitor of Gaussian, Inc. and that
 it will not use this program in any manner prohibited above.
 ---------------------------------------------------------------
  

 Cite this work as:
 Gaussian 16, Revision A.03,
 M. J. Frisch, G. W. Trucks, H. B. Schlegel, G. E. Scuseria, 
 M. A. Robb, J. R. Cheeseman, G. Scalmani, V. Barone, 
 G. A. Petersson, H. Nakatsuji, X. Li, M. Caricato, A. V. Marenich, 
 J. Bloino, B. G. Janesko, R. Gomperts, B. Mennucci, H. P. Hratchian, 
 J. V. Ortiz, A. F. Izmaylov, J. L. Sonnenberg, D. Williams-Young, 
 F. Ding, F. Lipparini, F. Egidi, J. Goings, B. Peng, A. Petrone, 
 T. Henderson, D. Ranasinghe, V. G. Zakrzewski, J. Gao, N. Rega, 
 G. Zheng, W. Liang, M. Hada, M. Ehara, K. Toyota, R. Fukuda, 
 J. Hasegawa, M. Ishida, T. Nakajima, Y. Honda, O. Kitao, H. Nakai, 
 T. Vreven, K. Throssell, J. A. Montgomery, Jr., J. E. Peralta, 
 F. Ogliaro, M. J. Bearpark, J. J. Heyd, E. N. Brothers, K. N. Kudin, 
 V. N. Staroverov, T. A. Keith, R. Kobayashi, J. Normand, 
 K. Raghavachari, A. P. Rendell, J. C. Burant, S. S. Iyengar, 
 J. Tomasi, M. Cossi, J. M. Millam, M. Klene, C. Adamo, R. Cammi, 
 J. W. Ochterski, R. L. Martin, K. Morokuma, O. Farkas, 
 J. B. Foresman, and D. J. Fox, Gaussian, Inc., Wallingford CT, 2016.
 
 ******************************************
 Gaussian 16:  ES64L-G16RevA.03 25-Dec-2016
                23-May-2023 
 ******************************************
 %chk=CCCCNCC1qCCOCrCCqCrC1.chk
 %NProcShared=20
 Will use up to   20 processors via shared memory.
 -----------------------------
 # opt freq b3lyp/6-31g(2df,p)
 -----------------------------
 1/18=20,19=15,26=3,38=1/1,3;
 2/9=110,12=2,17=6,18=5,40=1/2;
 3/5=1,6=6,7=104,11=2,25=1,30=1,71=1,74=-5/1,2,3;
 4//1;
 5/5=2,38=5/2;
 6/7=2,8=2,9=2,10=2,28=1/1;
 7//1,2,3,16;
 1/18=20,19=15,26=3/3(2);
 2/9=110/2;
 99//99;
 2/9=110/2;
 3/5=1,6=6,7=104,11=2,25=1,30=1,71=1,74=-5/1,2,3;
 4/5=5,16=3,69=1/1;
 5/5=2,38=5/2;
 7//1,2,3,16;
 1/18=20,19=15,26=3/3(-5);
 2/9=110/2;
 6/7=2,8=2,9=2,10=2,19=2,28=1/1;
 99/9=1/99;
 -------------------
 Title Card Required
 -------------------
 Symbolic Z-matrix:
 Charge =  0 Multiplicity = 1
 C                     0.88052  -0.06178   0.02694 
 C                     2.39421  -0.06698  -0.01896 
 C                     2.96888   1.31882   0.26191 
 C                     4.49216   1.24851   0.15889 
 N                     5.08732   2.57507   0.24594 
 C                     6.49224   2.62462   0.66084 
 C                     6.85912   1.98679   2.03093 
 C                     6.14789   2.66593   3.26962 
 C                     4.61729   2.63005   3.17223 
 O                     3.81041   3.07552   4.26399 
 C                     2.43748   3.10572   3.80399 
 C                     8.43259   1.98325   2.21284 
 C                     8.49578   0.53273   1.67714 
 C                     8.90764   0.29526   0.22316 
 C                     7.00064   0.41059   2.03581 
 H                     0.49786  -1.0512   -0.23936 
 H                     0.47487   0.66679  -0.68109 
 H                     0.51955   0.18889   1.02918 
 H                     2.72732  -0.40228  -1.00699 
 H                     2.77762  -0.78793   0.71412 
 H                     2.67493   1.62174   1.27388 
 H                     2.55984   2.06375  -0.42619 
 H                     4.80454   0.77066  -0.77085 
 H                     4.77685   0.60996   0.98686 
 H                     4.52197   3.22873   0.73001 
 H                     6.79525   3.68027   0.6778 
 H                     7.05882   2.19679  -0.15674 
 H                     6.46191   3.71753   3.32778 
 H                     6.4713    2.2025    4.20778 
 H                     4.29258   1.61959   2.91952 
 H                     4.3632    3.35561   2.4146 
 H                     1.80292   3.62408   4.52568 
 H                     2.06941   2.08235   3.66843 
 H                     2.34626   3.63621   2.844 
 H                     8.77212   2.04214   3.25574 
 H                     9.00344   2.71711   1.63597 
 H                     9.11382  -0.13205   2.29564 
 H                     8.38884   0.92178  -0.50025 
 H                     8.71003  -0.74069  -0.07189 
 H                     9.97583   0.49024   0.08879 
 H                     6.81824  -0.04349   3.01686 
 H                     6.4694   -0.18532   1.29339 
 

 GradGradGradGradGradGradGradGradGradGradGradGradGradGradGradGradGradGrad
 Berny optimization.
 Initialization pass.
                           ----------------------------
                           !    Initial Parameters    !
                           ! (Angstroms and Degrees)  !
 --------------------------                            --------------------------
 ! Name  Definition              Value          Derivative Info.                !
 --------------------------------------------------------------------------------
 ! R1    R(1,2)                  1.5144         estimate D2E/DX2                !
 ! R2    R(1,16)                 1.0938         estimate D2E/DX2                !
 ! R3    R(1,17)                 1.0939         estimate D2E/DX2                !
 ! R4    R(1,18)                 1.0944         estimate D2E/DX2                !
 ! R5    R(2,3)                  1.5263         estimate D2E/DX2                !
 ! R6    R(2,19)                 1.0953         estimate D2E/DX2                !
 ! R7    R(2,20)                 1.0974         estimate D2E/DX2                !
 ! R8    R(3,4)                  1.5284         estimate D2E/DX2                !
 ! R9    R(3,21)                 1.0965         estimate D2E/DX2                !
 ! R10   R(3,22)                 1.0935         estimate D2E/DX2                !
 ! R11   R(4,5)                  1.4566         estimate D2E/DX2                !
 ! R12   R(4,23)                 1.091          estimate D2E/DX2                !
 ! R13   R(4,24)                 1.0837         estimate D2E/DX2                !
 ! R14   R(5,6)                  1.4657         estimate D2E/DX2                !
 ! R15   R(5,25)                 0.9906         estimate D2E/DX2                !
 ! R16   R(6,7)                  1.5552         estimate D2E/DX2                !
 ! R17   R(6,26)                 1.0984         estimate D2E/DX2                !
 ! R18   R(6,27)                 1.0828         estimate D2E/DX2                !
 ! R19   R(7,8)                  1.5816         estimate D2E/DX2                !
 ! R20   R(7,12)                 1.584          estimate D2E/DX2                !
 ! R21   R(7,15)                 1.5825         estimate D2E/DX2                !
 ! R22   R(8,9)                  1.5341         estimate D2E/DX2                !
 ! R23   R(8,28)                 1.099          estimate D2E/DX2                !
 ! R24   R(8,29)                 1.0952         estimate D2E/DX2                !
 ! R25   R(9,10)                 1.4288         estimate D2E/DX2                !
 ! R26   R(9,30)                 1.091          estimate D2E/DX2                !
 ! R27   R(9,31)                 1.0794         estimate D2E/DX2                !
 ! R28   R(10,11)                1.4483         estimate D2E/DX2                !
 ! R29   R(11,32)                1.0919         estimate D2E/DX2                !
 ! R30   R(11,33)                1.096          estimate D2E/DX2                !
 ! R31   R(11,34)                1.1006         estimate D2E/DX2                !
 ! R32   R(12,13)                1.5476         estimate D2E/DX2                !
 ! R33   R(12,35)                1.0984         estimate D2E/DX2                !
 ! R34   R(12,36)                1.0942         estimate D2E/DX2                !
 ! R35   R(13,14)                1.5297         estimate D2E/DX2                !
 ! R36   R(13,15)                1.5424         estimate D2E/DX2                !
 ! R37   R(13,37)                1.0984         estimate D2E/DX2                !
 ! R38   R(14,38)                1.0886         estimate D2E/DX2                !
 ! R39   R(14,39)                1.0951         estimate D2E/DX2                !
 ! R40   R(14,40)                1.0941         estimate D2E/DX2                !
 ! R41   R(15,41)                1.0963         estimate D2E/DX2                !
 ! R42   R(15,42)                1.0902         estimate D2E/DX2                !
 ! A1    A(2,1,16)             109.8288         estimate D2E/DX2                !
 ! A2    A(2,1,17)             110.6904         estimate D2E/DX2                !
 ! A3    A(2,1,18)             110.992          estimate D2E/DX2                !
 ! A4    A(16,1,17)            108.3706         estimate D2E/DX2                !
 ! A5    A(16,1,18)            108.3479         estimate D2E/DX2                !
 ! A6    A(17,1,18)            108.5352         estimate D2E/DX2                !
 ! A7    A(1,2,3)              111.5703         estimate D2E/DX2                !
 ! A8    A(1,2,19)             109.4139         estimate D2E/DX2                !
 ! A9    A(1,2,20)             109.3441         estimate D2E/DX2                !
 ! A10   A(3,2,19)             109.2354         estimate D2E/DX2                !
 ! A11   A(3,2,20)             110.0006         estimate D2E/DX2                !
 ! A12   A(19,2,20)            107.1724         estimate D2E/DX2                !
 ! A13   A(2,3,4)              108.7286         estimate D2E/DX2                !
 ! A14   A(2,3,21)             108.6471         estimate D2E/DX2                !
 ! A15   A(2,3,22)             111.2165         estimate D2E/DX2                !
 ! A16   A(4,3,21)             110.0056         estimate D2E/DX2                !
 ! A17   A(4,3,22)             111.2074         estimate D2E/DX2                !
 ! A18   A(21,3,22)            106.9949         estimate D2E/DX2                !
 ! A19   A(3,4,5)              111.1812         estimate D2E/DX2                !
 ! A20   A(3,4,23)             111.2816         estimate D2E/DX2                !
 ! A21   A(3,4,24)             103.7356         estimate D2E/DX2                !
 ! A22   A(5,4,23)             109.4407         estimate D2E/DX2                !
 ! A23   A(5,4,24)             112.5601         estimate D2E/DX2                !
 ! A24   A(23,4,24)            108.5298         estimate D2E/DX2                !
 ! A25   A(4,5,6)              116.0629         estimate D2E/DX2                !
 ! A26   A(4,5,25)             113.3902         estimate D2E/DX2                !
 ! A27   A(6,5,25)             112.7317         estimate D2E/DX2                !
 ! A28   A(5,6,7)              117.4924         estimate D2E/DX2                !
 ! A29   A(5,6,26)             107.5343         estimate D2E/DX2                !
 ! A30   A(5,6,27)             105.9292         estimate D2E/DX2                !
 ! A31   A(7,6,26)             108.3902         estimate D2E/DX2                !
 ! A32   A(7,6,27)             112.3153         estimate D2E/DX2                !
 ! A33   A(26,6,27)            104.3026         estimate D2E/DX2                !
 ! A34   A(6,7,8)              114.0656         estimate D2E/DX2                !
 ! A35   A(6,7,12)             109.6602         estimate D2E/DX2                !
 ! A36   A(6,7,15)             115.6137         estimate D2E/DX2                !
 ! A37   A(8,7,12)             110.9608         estimate D2E/DX2                !
 ! A38   A(8,7,15)             117.7412         estimate D2E/DX2                !
 ! A39   A(12,7,15)             84.7551         estimate D2E/DX2                !
 ! A40   A(7,8,9)              112.8861         estimate D2E/DX2                !
 ! A41   A(7,8,28)             108.8948         estimate D2E/DX2                !
 ! A42   A(7,8,29)             110.8787         estimate D2E/DX2                !
 ! A43   A(9,8,28)             108.108          estimate D2E/DX2                !
 ! A44   A(9,8,29)             109.822          estimate D2E/DX2                !
 ! A45   A(28,8,29)            105.9725         estimate D2E/DX2                !
 ! A46   A(8,9,10)             120.5065         estimate D2E/DX2                !
 ! A47   A(8,9,30)             109.4694         estimate D2E/DX2                !
 ! A48   A(8,9,31)             105.2902         estimate D2E/DX2                !
 ! A49   A(10,9,30)            107.318          estimate D2E/DX2                !
 ! A50   A(10,9,31)            101.1762         estimate D2E/DX2                !
 ! A51   A(30,9,31)            112.9503         estimate D2E/DX2                !
 ! A52   A(9,10,11)            107.407          estimate D2E/DX2                !
 ! A53   A(10,11,32)           110.5423         estimate D2E/DX2                !
 ! A54   A(10,11,33)           109.7666         estimate D2E/DX2                !
 ! A55   A(10,11,34)           111.4486         estimate D2E/DX2                !
 ! A56   A(32,11,33)           109.261          estimate D2E/DX2                !
 ! A57   A(32,11,34)           107.4291         estimate D2E/DX2                !
 ! A58   A(33,11,34)           108.3216         estimate D2E/DX2                !
 ! A59   A(7,12,13)             90.1663         estimate D2E/DX2                !
 ! A60   A(7,12,35)            114.5827         estimate D2E/DX2                !
 ! A61   A(7,12,36)            117.1435         estimate D2E/DX2                !
 ! A62   A(13,12,35)           111.4882         estimate D2E/DX2                !
 ! A63   A(13,12,36)           115.1404         estimate D2E/DX2                !
 ! A64   A(35,12,36)           107.6598         estimate D2E/DX2                !
 ! A65   A(12,13,14)           119.0458         estimate D2E/DX2                !
 ! A66   A(12,13,15)            87.3719         estimate D2E/DX2                !
 ! A67   A(12,13,37)           113.2868         estimate D2E/DX2                !
 ! A68   A(14,13,15)           118.016          estimate D2E/DX2                !
 ! A69   A(14,13,37)           106.844          estimate D2E/DX2                !
 ! A70   A(15,13,37)           111.5042         estimate D2E/DX2                !
 ! A71   A(13,14,38)           114.455          estimate D2E/DX2                !
 ! A72   A(13,14,39)           110.7534         estimate D2E/DX2                !
 ! A73   A(13,14,40)           110.6048         estimate D2E/DX2                !
 ! A74   A(38,14,39)           106.2244         estimate D2E/DX2                !
 ! A75   A(38,14,40)           106.3265         estimate D2E/DX2                !
 ! A76   A(39,14,40)           108.1592         estimate D2E/DX2                !
 ! A77   A(7,15,13)             90.4067         estimate D2E/DX2                !
 ! A78   A(7,15,41)            113.6035         estimate D2E/DX2                !
 ! A79   A(7,15,42)            119.9169         estimate D2E/DX2                !
 ! A80   A(13,15,41)           113.7136         estimate D2E/DX2                !
 ! A81   A(13,15,42)           110.9336         estimate D2E/DX2                !
 ! A82   A(41,15,42)           107.5734         estimate D2E/DX2                !
 ! D1    D(16,1,2,3)           176.4632         estimate D2E/DX2                !
 ! D2    D(16,1,2,19)           55.4696         estimate D2E/DX2                !
 ! D3    D(16,1,2,20)          -61.6275         estimate D2E/DX2                !
 ! D4    D(17,1,2,3)            56.8389         estimate D2E/DX2                !
 ! D5    D(17,1,2,19)          -64.1547         estimate D2E/DX2                !
 ! D6    D(17,1,2,20)          178.7482         estimate D2E/DX2                !
 ! D7    D(18,1,2,3)           -63.75           estimate D2E/DX2                !
 ! D8    D(18,1,2,19)          175.2564         estimate D2E/DX2                !
 ! D9    D(18,1,2,20)           58.1593         estimate D2E/DX2                !
 ! D10   D(1,2,3,4)           -178.3425         estimate D2E/DX2                !
 ! D11   D(1,2,3,21)            61.9441         estimate D2E/DX2                !
 ! D12   D(1,2,3,22)           -55.5663         estimate D2E/DX2                !
 ! D13   D(19,2,3,4)           -57.245          estimate D2E/DX2                !
 ! D14   D(19,2,3,21)         -176.9584         estimate D2E/DX2                !
 ! D15   D(19,2,3,22)           65.5312         estimate D2E/DX2                !
 ! D16   D(20,2,3,4)            60.1279         estimate D2E/DX2                !
 ! D17   D(20,2,3,21)          -59.5855         estimate D2E/DX2                !
 ! D18   D(20,2,3,22)         -177.096          estimate D2E/DX2                !
 ! D19   D(2,3,4,5)            172.6163         estimate D2E/DX2                !
 ! D20   D(2,3,4,23)            50.34           estimate D2E/DX2                !
 ! D21   D(2,3,4,24)           -66.1669         estimate D2E/DX2                !
 ! D22   D(21,3,4,5)           -68.5198         estimate D2E/DX2                !
 ! D23   D(21,3,4,23)          169.204          estimate D2E/DX2                !
 ! D24   D(21,3,4,24)           52.6971         estimate D2E/DX2                !
 ! D25   D(22,3,4,5)            49.8346         estimate D2E/DX2                !
 ! D26   D(22,3,4,23)          -72.4417         estimate D2E/DX2                !
 ! D27   D(22,3,4,24)          171.0515         estimate D2E/DX2                !
 ! D28   D(3,4,5,6)            157.8712         estimate D2E/DX2                !
 ! D29   D(3,4,5,25)            25.0101         estimate D2E/DX2                !
 ! D30   D(23,4,5,6)           -78.7926         estimate D2E/DX2                !
 ! D31   D(23,4,5,25)          148.3463         estimate D2E/DX2                !
 ! D32   D(24,4,5,6)            41.9759         estimate D2E/DX2                !
 ! D33   D(24,4,5,25)          -90.8852         estimate D2E/DX2                !
 ! D34   D(4,5,6,7)            -57.5725         estimate D2E/DX2                !
 ! D35   D(4,5,6,26)           179.9205         estimate D2E/DX2                !
 ! D36   D(4,5,6,27)            68.8447         estimate D2E/DX2                !
 ! D37   D(25,5,6,7)            75.5891         estimate D2E/DX2                !
 ! D38   D(25,5,6,26)          -46.9179         estimate D2E/DX2                !
 ! D39   D(25,5,6,27)         -157.9937         estimate D2E/DX2                !
 ! D40   D(5,6,7,8)            -61.7745         estimate D2E/DX2                !
 ! D41   D(5,6,7,12)           173.0842         estimate D2E/DX2                !
 ! D42   D(5,6,7,15)            79.4362         estimate D2E/DX2                !
 ! D43   D(26,6,7,8)            60.2933         estimate D2E/DX2                !
 ! D44   D(26,6,7,12)          -64.8479         estimate D2E/DX2                !
 ! D45   D(26,6,7,15)         -158.496          estimate D2E/DX2                !
 ! D46   D(27,6,7,8)           174.9936         estimate D2E/DX2                !
 ! D47   D(27,6,7,12)           49.8524         estimate D2E/DX2                !
 ! D48   D(27,6,7,15)          -43.7957         estimate D2E/DX2                !
 ! D49   D(6,7,8,9)             58.439          estimate D2E/DX2                !
 ! D50   D(6,7,8,28)           -61.6316         estimate D2E/DX2                !
 ! D51   D(6,7,8,29)          -177.8533         estimate D2E/DX2                !
 ! D52   D(12,7,8,9)          -177.1126         estimate D2E/DX2                !
 ! D53   D(12,7,8,28)           62.8168         estimate D2E/DX2                !
 ! D54   D(12,7,8,29)          -53.4049         estimate D2E/DX2                !
 ! D55   D(15,7,8,9)           -81.899          estimate D2E/DX2                !
 ! D56   D(15,7,8,28)          158.0304         estimate D2E/DX2                !
 ! D57   D(15,7,8,29)           41.8087         estimate D2E/DX2                !
 ! D58   D(6,7,12,13)          -95.3688         estimate D2E/DX2                !
 ! D59   D(6,7,12,35)          150.7934         estimate D2E/DX2                !
 ! D60   D(6,7,12,36)           23.2452         estimate D2E/DX2                !
 ! D61   D(8,7,12,13)          137.7201         estimate D2E/DX2                !
 ! D62   D(8,7,12,35)           23.8823         estimate D2E/DX2                !
 ! D63   D(8,7,12,36)         -103.6658         estimate D2E/DX2                !
 ! D64   D(15,7,12,13)          19.9843         estimate D2E/DX2                !
 ! D65   D(15,7,12,35)         -93.8535         estimate D2E/DX2                !
 ! D66   D(15,7,12,36)         138.5984         estimate D2E/DX2                !
 ! D67   D(6,7,15,13)           89.2546         estimate D2E/DX2                !
 ! D68   D(6,7,15,41)         -154.5141         estimate D2E/DX2                !
 ! D69   D(6,7,15,42)          -25.347          estimate D2E/DX2                !
 ! D70   D(8,7,15,13)         -131.008          estimate D2E/DX2                !
 ! D71   D(8,7,15,41)          -14.7767         estimate D2E/DX2                !
 ! D72   D(8,7,15,42)          114.3904         estimate D2E/DX2                !
 ! D73   D(12,7,15,13)         -20.0546         estimate D2E/DX2                !
 ! D74   D(12,7,15,41)          96.1767         estimate D2E/DX2                !
 ! D75   D(12,7,15,42)        -134.6563         estimate D2E/DX2                !
 ! D76   D(7,8,9,10)           173.6404         estimate D2E/DX2                !
 ! D77   D(7,8,9,30)            48.5585         estimate D2E/DX2                !
 ! D78   D(7,8,9,31)           -73.137          estimate D2E/DX2                !
 ! D79   D(28,8,9,10)          -65.8384         estimate D2E/DX2                !
 ! D80   D(28,8,9,30)          169.0796         estimate D2E/DX2                !
 ! D81   D(28,8,9,31)           47.3841         estimate D2E/DX2                !
 ! D82   D(29,8,9,10)           49.3515         estimate D2E/DX2                !
 ! D83   D(29,8,9,30)          -75.7304         estimate D2E/DX2                !
 ! D84   D(29,8,9,31)          162.5741         estimate D2E/DX2                !
 ! D85   D(8,9,10,11)          171.7603         estimate D2E/DX2                !
 ! D86   D(30,9,10,11)         -62.1577         estimate D2E/DX2                !
 ! D87   D(31,9,10,11)          56.3939         estimate D2E/DX2                !
 ! D88   D(9,10,11,32)        -168.7278         estimate D2E/DX2                !
 ! D89   D(9,10,11,33)          70.6757         estimate D2E/DX2                !
 ! D90   D(9,10,11,34)         -49.3291         estimate D2E/DX2                !
 ! D91   D(7,12,13,14)         100.3613         estimate D2E/DX2                !
 ! D92   D(7,12,13,15)         -20.4603         estimate D2E/DX2                !
 ! D93   D(7,12,13,37)        -132.7781         estimate D2E/DX2                !
 ! D94   D(35,12,13,14)       -143.0088         estimate D2E/DX2                !
 ! D95   D(35,12,13,15)         96.1696         estimate D2E/DX2                !
 ! D96   D(35,12,13,37)        -16.1482         estimate D2E/DX2                !
 ! D97   D(36,12,13,14)        -19.9916         estimate D2E/DX2                !
 ! D98   D(36,12,13,15)       -140.8132         estimate D2E/DX2                !
 ! D99   D(36,12,13,37)        106.8691         estimate D2E/DX2                !
 ! D100  D(12,13,14,38)        -48.2547         estimate D2E/DX2                !
 ! D101  D(12,13,14,39)       -168.2921         estimate D2E/DX2                !
 ! D102  D(12,13,14,40)         71.8051         estimate D2E/DX2                !
 ! D103  D(15,13,14,38)         55.4002         estimate D2E/DX2                !
 ! D104  D(15,13,14,39)        -64.6372         estimate D2E/DX2                !
 ! D105  D(15,13,14,40)        175.4601         estimate D2E/DX2                !
 ! D106  D(37,13,14,38)       -178.0924         estimate D2E/DX2                !
 ! D107  D(37,13,14,39)         61.8702         estimate D2E/DX2                !
 ! D108  D(37,13,14,40)        -58.0325         estimate D2E/DX2                !
 ! D109  D(12,13,15,7)          20.4797         estimate D2E/DX2                !
 ! D110  D(12,13,15,41)        -95.6535         estimate D2E/DX2                !
 ! D111  D(12,13,15,42)        142.9402         estimate D2E/DX2                !
 ! D112  D(14,13,15,7)        -101.2633         estimate D2E/DX2                !
 ! D113  D(14,13,15,41)        142.6035         estimate D2E/DX2                !
 ! D114  D(14,13,15,42)         21.1971         estimate D2E/DX2                !
 ! D115  D(37,13,15,7)         134.5135         estimate D2E/DX2                !
 ! D116  D(37,13,15,41)         18.3803         estimate D2E/DX2                !
 ! D117  D(37,13,15,42)       -103.0261         estimate D2E/DX2                !
 --------------------------------------------------------------------------------
 Trust Radius=3.00D-01 FncErr=1.00D-07 GrdErr=1.00D-06 EigMax=2.50D+02 EigMin=1.00D-04
 Number of steps in this run=    251 maximum allowed number of steps=    252.
 GradGradGradGradGradGradGradGradGradGradGradGradGradGradGradGradGradGrad

                          Input orientation:                          
 ---------------------------------------------------------------------
 Center     Atomic      Atomic             Coordinates (Angstroms)
 Number     Number       Type             X           Y           Z
 ---------------------------------------------------------------------
      1          6           0        0.880520   -0.061780    0.026940
      2          6           0        2.394210   -0.066980   -0.018960
      3          6           0        2.968880    1.318820    0.261910
      4          6           0        4.492160    1.248510    0.158890
      5          7           0        5.087320    2.575070    0.245940
      6          6           0        6.492240    2.624620    0.660840
      7          6           0        6.859120    1.986790    2.030930
      8          6           0        6.147890    2.665930    3.269620
      9          6           0        4.617290    2.630050    3.172230
     10          8           0        3.810410    3.075520    4.263990
     11          6           0        2.437480    3.105720    3.803990
     12          6           0        8.432590    1.983250    2.212840
     13          6           0        8.495780    0.532730    1.677140
     14          6           0        8.907640    0.295260    0.223160
     15          6           0        7.000640    0.410590    2.035810
     16          1           0        0.497860   -1.051200   -0.239360
     17          1           0        0.474870    0.666790   -0.681090
     18          1           0        0.519550    0.188890    1.029180
     19          1           0        2.727320   -0.402280   -1.006990
     20          1           0        2.777620   -0.787930    0.714120
     21          1           0        2.674930    1.621740    1.273880
     22          1           0        2.559840    2.063750   -0.426190
     23          1           0        4.804540    0.770660   -0.770850
     24          1           0        4.776850    0.609960    0.986860
     25          1           0        4.521970    3.228730    0.730010
     26          1           0        6.795250    3.680270    0.677800
     27          1           0        7.058820    2.196790   -0.156740
     28          1           0        6.461910    3.717530    3.327780
     29          1           0        6.471300    2.202500    4.207780
     30          1           0        4.292580    1.619590    2.919520
     31          1           0        4.363200    3.355610    2.414600
     32          1           0        1.802920    3.624080    4.525680
     33          1           0        2.069410    2.082350    3.668430
     34          1           0        2.346260    3.636210    2.844000
     35          1           0        8.772120    2.042140    3.255740
     36          1           0        9.003440    2.717110    1.635970
     37          1           0        9.113820   -0.132050    2.295640
     38          1           0        8.388840    0.921780   -0.500250
     39          1           0        8.710030   -0.740690   -0.071890
     40          1           0        9.975830    0.490240    0.088790
     41          1           0        6.818240   -0.043490    3.016860
     42          1           0        6.469400   -0.185320    1.293390
 ---------------------------------------------------------------------
                    Distance matrix (angstroms):
                    1          2          3          4          5
     1  C    0.000000
     2  C    1.514395   0.000000
     3  C    2.514461   1.526295   0.000000
     4  C    3.844244   2.482648   1.528378   0.000000
     5  N    4.969719   3.781989   2.462967   1.456556   0.000000
     6  C    6.253797   4.949817   3.778667   2.479103   1.465741
     7  C    6.629953   5.324983   4.325458   3.106781   2.582932
     8  C    6.760219   5.689786   4.578988   3.798310   3.205574
     9  C    5.576939   4.732837   3.592568   3.317307   2.964308
    10  O    6.031542   5.497689   4.450934   4.544733   4.245665
    11  C    5.169457   4.968183   4.002715   4.577957   4.467993
    12  C    8.123673   6.756212   5.839497   4.503947   3.925529
    13  C    7.814652   6.361255   5.759118   4.341244   4.223397
    14  C    8.037452   6.527987   6.026446   4.517663   4.448921
    15  C    6.458681   5.066493   4.497409   3.243056   3.398441
    16  H    1.093753   2.147885   3.460377   4.626197   5.869284
    17  H    1.093925   2.158866   2.744900   4.145188   5.076969
    18  H    1.094358   2.162965   2.804401   4.202598   5.212662
    19  H    2.143740   1.095259   2.151893   2.683103   4.000506
    20  H    2.144411   1.097351   2.163208   2.719378   4.106541
    21  H    2.758443   2.145231   1.096472   2.164446   2.790184
    22  H    2.746511   2.175610   1.093488   2.177337   2.664838
    23  H    4.089909   2.660201   2.176401   1.091026   2.090388
    24  H    4.068669   2.673368   2.072870   1.083665   2.122972
    25  H    4.958016   3.993748   2.505786   2.061150   0.990563
    26  H    7.029267   5.822071   4.515586   3.389240   2.079662
    27  H    6.580750   5.186735   4.204011   2.754378   2.047452
    28  H    7.505374   6.486090   5.230165   4.474130   3.562647
    29  H    7.339156   6.295914   5.349554   4.606582   4.213121
    30  H    4.778721   3.883683   2.984214   2.792599   2.948319
    31  H    5.432176   4.638239   3.275167   3.089454   2.415922
    32  H    5.888552   5.884497   4.985321   5.651920   5.495806
    33  H    4.389898   4.280416   3.605052   4.345328   4.589552
    34  H    4.874356   4.681074   3.524931   4.185190   3.922925
    35  H    8.782311   7.473271   6.569917   5.342133   4.787553
    36  H    8.734589   7.360154   6.345011   4.968923   4.157927
    37  H    8.540443   7.107374   6.633353   5.275546   5.267112
    38  H    7.590796   6.094660   5.487668   3.965518   3.766988
    39  H    7.859511   6.351871   6.108503   4.669112   4.921312
    40  H    9.112256   7.602833   7.057894   5.536292   5.316836
    41  H    6.648043   5.365519   4.925770   3.904857   4.186996
    42  H    5.731905   4.282924   3.947154   2.693035   3.259916
                    6          7          8          9         10
     6  C    0.000000
     7  C    1.555177   0.000000
     8  C    2.631733   1.581592   0.000000
     9  C    3.134094   2.596565   1.534115   0.000000
    10  O    4.514223   3.932750   2.573004   1.428789   0.000000
    11  C    5.152856   4.893531   3.774402   2.318826   1.448257
    12  C    2.566129   1.583954   2.608197   3.986890   5.173473
    13  C    3.069697   2.217682   3.549524   4.655828   5.925392
    14  C    3.384027   3.213369   4.745231   5.705731   7.073889
    15  C    2.655361   1.582548   2.708510   3.449320   4.716376
    16  H    7.089048   7.406027   7.619241   6.493093   6.948595
    17  H    6.468587   7.060885   7.196376   5.988498   6.432855
    18  H    6.460765   6.665290   6.544731   5.229092   5.443013
    19  H    5.110617   5.657595   6.277229   5.498444   6.407137
    20  H    5.044476   5.108004   5.460627   4.594483   5.347380
    21  H    3.994176   4.267767   4.139416   2.897099   3.513339
    22  H    4.118250   4.952491   5.186110   4.183590   4.958366
    23  H    2.887081   3.681065   4.660690   4.363516   5.625859
    24  H    2.666028   2.705844   3.364187   2.980279   4.213380
    25  H    2.061964   2.949081   3.067569   2.516335   3.608158
    26  H    1.098408   2.168620   2.857532   3.473997   4.704865
    27  H    1.082815   2.206780   3.576287   4.151003   5.555825
    28  H    2.882350   2.198876   1.099024   2.146959   2.884288
    29  H    3.572031   2.221624   1.095219   2.166222   2.801010
    30  H    3.309112   2.740722   2.158604   1.091022   2.039564
    31  H    2.853565   2.872366   2.095671   1.079353   1.950454
    32  H    6.158379   5.871086   4.623257   3.277286   2.097478
    33  H    5.375972   5.062792   4.139277   2.652901   2.090971
    34  H    4.793605   4.873148   3.946516   2.505528   2.115297
    35  H    3.502948   2.272178   2.697386   4.197049   5.167495
    36  H    2.695470   2.299450   3.290228   4.648224   5.831167
    37  H    4.140590   3.105354   4.192144   5.349429   6.503004
    38  H    2.800872   3.143432   4.719728   5.534427   6.949719
    39  H    4.096437   3.909842   5.416208   6.215845   7.574272
    40  H    4.125314   3.965533   5.431798   6.542197   7.882155
    41  H    3.574342   2.257380   2.802537   3.466430   4.508946
    42  H    2.880348   2.326781   3.484032   3.858323   5.150512
                   11         12         13         14         15
    11  C    0.000000
    12  C    6.303415   0.000000
    13  C    6.917136   1.547571   0.000000
    14  C    7.911005   2.652133   1.529732   0.000000
    15  C    5.586825   2.134263   1.542403   2.633562   0.000000
    16  H    6.114801   8.842008   8.375472   8.529436   7.042682
    17  H    5.469567   8.569318   8.361472   8.489247   7.073391
    18  H    4.459364   8.199816   8.009889   8.427398   6.562544
    19  H    5.961174   6.971956   6.430702   6.340046   5.308545
    20  H    4.982319   6.473352   5.947176   6.244316   4.584453
    21  H    2.942794   5.844911   5.935559   6.458346   4.556225
    22  H    4.358336   6.438956   6.481003   6.621463   5.339952
    23  H    5.655496   4.851343   4.435597   4.248469   3.581877
    24  H    4.431443   4.093090   3.783238   4.212565   2.466837
    25  H    3.716125   4.363823   4.894552   5.300589   3.973768
    26  H    5.393823   2.813735   3.714497   4.015866   3.546433
    27  H    6.153887   2.747317   2.863052   2.679230   2.828634
    28  H    4.098429   2.852087   4.123614   5.228020   3.590998
    29  H    4.153379   2.806157   3.645654   5.044850   2.865065
    30  H    2.536191   4.215605   4.515713   5.506631   3.094546
    31  H    2.387728   4.299304   5.058727   5.900855   3.971488
    32  H    1.091879   7.210692   7.903480   8.948171   6.598656
    33  H    1.095965   6.528294   6.903969   7.862885   5.456854
    34  H    1.100601   6.338300   6.986397   7.815527   5.720232
    35  H    6.446661   1.098357   2.201513   3.502356   2.699690
    36  H    6.925544   1.094166   2.242973   2.805453   3.080765
    37  H    7.571776   2.223831   1.098384   2.126094   2.197157
    38  H    7.662556   2.913673   2.214458   1.088578   2.935986
    39  H    8.316381   3.566064   2.174076   1.095124   2.947857
    40  H    8.801714   3.020307   2.171453   1.094122   3.556541
    41  H    5.452353   2.712978   2.222840   3.505011   1.096320
    42  H    5.778446   3.066301   2.183821   2.705802   1.090189
                   16         17         18         19         20
    16  H    0.000000
    17  H    1.774019   0.000000
    18  H    1.774116   1.776347   0.000000
    19  H    2.445577   2.514489   3.061000   0.000000
    20  H    2.485104   3.060307   2.480387   1.764504   0.000000
    21  H    3.764856   3.094204   2.599731   3.049880   2.475962
    22  H    3.740265   2.522612   3.129854   2.539032   3.078931
    23  H    4.706288   4.331846   4.683984   2.397164   2.956813
    24  H    4.751087   4.614360   4.278282   3.033256   2.454670
    25  H    5.954069   4.993371   5.034828   4.407059   4.379106
    26  H    7.930013   7.132661   7.190105   6.004481   6.008950
    27  H    7.321370   6.779693   6.942631   5.122498   5.291089
    28  H    8.428236   7.824494   7.283303   7.050548   6.379999
    29  H    8.126845   7.887752   7.041410   6.927921   5.898441
    30  H    5.613514   5.333585   4.456012   4.685667   3.599312
    31  H    6.434620   5.650855   5.169250   5.339019   4.751276
    32  H    6.801987   6.133493   5.066861   6.904819   5.911333
    33  H    5.249736   4.844037   3.599013   5.335334   4.179476
    34  H    5.907242   4.974517   4.302843   5.593276   4.929044
    35  H    9.499887   9.286257   8.746257   7.790100   7.099518
    36  H    9.490096   9.072435   8.873358   7.490361   7.203884
    37  H    9.028058   9.172269   8.693009   7.194982   6.563445
    38  H    8.138076   7.920142   8.049970   5.836328   5.990292
    39  H    8.219744   8.376753   8.316275   6.064796   5.984441
    40  H    9.608103   9.533736   9.507701   7.385000   7.337505
    41  H    7.180923   7.376834   6.608961   5.749411   4.709927
    42  H    6.225621   6.368599   5.967458   4.397952   3.785226
                   21         22         23         24         25
    21  H    0.000000
    22  H    1.760357   0.000000
    23  H    3.072539   2.613341   0.000000
    24  H    2.350350   3.004222   1.765258   0.000000
    25  H    2.507941   2.558111   2.893879   2.643651   0.000000
    26  H    4.644340   4.665901   3.811475   3.687311   2.318279
    27  H    4.647133   4.509005   2.737290   3.005534   2.878686
    28  H    4.790831   5.661575   5.313162   4.239850   3.278826
    29  H    4.832957   6.065678   5.441968   3.972615   4.116785
    30  H    2.307580   3.793869   3.821206   2.233617   2.726886
    31  H    2.675407   3.604316   4.125996   3.122201   1.696806
    32  H    3.917138   5.246768   6.723463   5.518372   4.685792
    33  H    2.512506   4.123928   5.376679   4.085215   3.995441
    34  H    2.575149   3.634885   5.227012   4.302897   3.060834
    35  H    6.424969   7.221461   5.794116   4.812602   5.084396
    36  H    6.432805   6.797011   5.216533   4.767126   4.600662
    37  H    6.751228   7.428630   5.365458   4.590511   5.901790
    38  H    6.023807   5.940271   3.597675   3.918571   4.667788
    39  H    6.619260   6.768696   4.245654   4.291283   5.825735
    40  H    7.482504   7.598556   5.249748   5.277334   6.136373
    41  H    4.793536   5.867625   4.366300   2.952147   4.605428
    42  H    4.202838   4.827000   2.818997   1.895035   3.970594
                   26         27         28         29         30
    26  H    0.000000
    27  H    1.722393   0.000000
    28  H    2.671123   3.848484   0.000000
    29  H    3.840509   4.403890   1.752086   0.000000
    30  H    3.941455   4.177154   3.045328   2.597348   0.000000
    31  H    3.006118   3.901413   2.317211   2.998207   1.809336
    32  H    6.303388   7.182388   4.811433   4.890370   3.577169
    33  H    5.816423   6.288023   4.699352   4.436437   2.391129
    34  H    4.948523   5.769280   4.144784   4.575082   2.803680
    35  H    3.638304   3.821562   2.854679   2.495169   4.511970
    36  H    2.592657   2.695568   3.212855   3.645650   5.004423
    37  H    4.746257   3.957359   4.787192   4.011149   5.167381
    38  H    3.396557   1.874194   5.116942   5.242399   5.381553
    39  H    4.875788   3.370828   6.040490   5.655957   5.833808
    40  H    4.543051   3.388443   5.766636   5.672710   6.448860
    41  H    4.397513   3.892104   3.790635   2.565761   3.025602
    42  H    3.927839   2.850393   4.401254   3.767673   3.261985
                   31         32         33         34         35
    31  H    0.000000
    32  H    3.329229   0.000000
    33  H    2.907706   1.784048   0.000000
    34  H    2.081146   1.767318   1.780677   0.000000
    35  H    4.676676   7.258445   6.715523   6.633420   0.000000
    36  H    4.748239   7.811562   7.253591   6.828040   1.769957
    37  H    5.894600   8.516505   7.510781   7.765330   2.401177
    38  H    5.534045   8.714169   7.658982   7.420574   3.938219
    39  H    6.469717   9.375342   8.127569   8.255740   4.338331
    40  H    6.717243   9.813430   8.823838   8.700497   3.726511
    41  H    4.236015   6.393828   5.243579   5.793848   2.867850
    42  H    4.269821   6.836319   5.490269   5.831704   3.756982
                   36         37         38         39         40
    36  H    0.000000
    37  H    2.926613   0.000000
    38  H    2.857338   3.074598   0.000000
    39  H    3.867720   2.477637   1.746557   0.000000
    40  H    2.880670   2.449590   1.746921   1.772923   0.000000
    41  H    3.781913   2.407839   3.970969   3.688541   4.339221
    42  H    3.868180   2.828480   2.850801   2.681949   3.768620
                   41         42
    41  H    0.000000
    42  H    1.764130   0.000000
 Stoichiometry    C13H27NO
 Framework group  C1[X(C13H27NO)]
 Deg. of freedom   120
 Full point group                 C1      NOp   1
 Largest Abelian subgroup         C1      NOp   1
 Largest concise Abelian subgroup C1      NOp   1
                         Standard orientation:                         
 ---------------------------------------------------------------------
 Center     Atomic      Atomic             Coordinates (Angstroms)
 Number     Number       Type             X           Y           Z
 ---------------------------------------------------------------------
      1          6           0        4.390492   -2.031052   -0.569594
      2          6           0        2.881442   -2.142379   -0.508247
      3          6           0        2.284120   -1.137814    0.473399
      4          6           0        0.768930   -1.333795    0.514995
      5          7           0        0.161813   -0.522221    1.561089
      6          6           0       -1.263450   -0.221785    1.397502
      7          6           0       -1.698682    0.506244    0.093998
      8          6           0       -1.058489    1.940992   -0.087896
      9          6           0        0.475316    1.912718   -0.100210
     10          8           0        1.220271    3.097001   -0.389955
     11          6           0        2.615495    2.804578   -0.134439
     12          6           0       -3.279544    0.578439    0.026362
     13          6           0       -3.305227   -0.700881   -0.844073
     14          6           0       -3.637762   -2.040852   -0.185305
     15          6           0       -1.830536   -0.409714   -1.189782
     16          1           0        4.792860   -2.803091   -1.231676
     17          1           0        4.828695   -2.165985    0.423605
     18          1           0        4.696136   -1.053387   -0.954785
     19          1           0        2.603385   -3.156213   -0.200973
     20          1           0        2.464069   -1.981606   -1.510310
     21          1           0        2.522000   -0.125099    0.126886
     22          1           0        2.724547   -1.246892    1.468307
     23          1           0        0.509355   -2.381825    0.671813
     24          1           0        0.444585   -1.043438   -0.477387
     25          1           0        0.696596    0.276908    1.799028
     26          1           0       -1.573439    0.389482    2.255848
     27          1           0       -1.783130   -1.161488    1.536710
     28          1           0       -1.381637    2.582919    0.743584
     29          1           0       -1.428435    2.420661   -1.000345
     30          1           0        0.819224    1.136829   -0.785813
     31          1           0        0.764830    1.728577    0.923155
     32          1           0        3.207595    3.721901   -0.146108
     33          1           0        2.996555    2.118563   -0.899498
     34          1           0        2.754330    2.335117    0.851285
     35          1           0       -3.674375    1.445224   -0.520613
     36          1           0       -3.823446    0.507511    0.973114
     37          1           0       -3.951151   -0.611791   -1.727981
     38          1           0       -3.085124   -2.242126    0.730711
     39          1           0       -3.418364   -2.871921   -0.863896
     40          1           0       -4.698484   -2.087289    0.078921
     41          1           0       -1.697733    0.133985   -2.132476
     42          1           0       -1.256926   -1.334183   -1.259363
 ---------------------------------------------------------------------
 Rotational constants (GHZ):           0.6456266           0.3617606           0.2644063
 Standard basis: 6-31G(2df,p) (6D, 7F)
 There are   600 symmetry adapted cartesian basis functions of A   symmetry.
 There are   555 symmetry adapted basis functions of A   symmetry.
   555 basis functions,   849 primitive gaussians,   600 cartesian basis functions
    60 alpha electrons       60 beta electrons
       nuclear repulsion energy      1105.4973123129 Hartrees.
 NAtoms=   42 NActive=   42 NUniq=   42 SFac= 1.00D+00 NAtFMM=   60 NAOKFM=F Big=F
 Integral buffers will be    131072 words long.
 Raffenetti 2 integral format.
 Two-electron integral symmetry is turned on.
 One-electron integrals computed using PRISM.
 PrsmSu:  requested number of processors reduced to:  12 ShMem   1 Linda.
 NBasis=   555 RedAO= T EigKep=  3.07D-04  NBF=   555
 NBsUse=   555 1.00D-06 EigRej= -1.00D+00 NBFU=   555
 ExpMin= 1.61D-01 ExpMax= 5.48D+03 ExpMxC= 8.25D+02 IAcc=3 IRadAn=         5 AccDes= 0.00D+00
 Harris functional with IExCor=  402 and IRadAn=       5 diagonalized for initial guess.
 HarFok:  IExCor=  402 AccDes= 0.00D+00 IRadAn=         5 IDoV= 1 UseB2=F ITyADJ=14
 ICtDFT=  3500011 ScaDFX=  1.000000  1.000000  1.000000  1.000000
 FoFCou: FMM=F IPFlag=           0 FMFlag=      100000 FMFlg1=           0
         NFxFlg=           0 DoJE=T BraDBF=F KetDBF=T FulRan=T
         wScrn=  0.000000 ICntrl=       500 IOpCl=  0 I1Cent=   200000004 NGrid=           0
         NMat0=    1 NMatS0=      1 NMatT0=    0 NMatD0=    1 NMtDS0=    0 NMtDT0=    0
 Petite list used in FoFCou.
 Requested convergence on RMS density matrix=1.00D-08 within 128 cycles.
 Requested convergence on MAX density matrix=1.00D-06.
 Requested convergence on             energy=1.00D-06.
 No special actions if energy rises.
 Integral accuracy reduced to 1.0D-05 until final iterations.
 Initial convergence to 1.0D-05 achieved.  Increase integral accuracy.
 SCF Done:  E(RB3LYP) =  -641.587524925     A.U. after   12 cycles
            NFock= 12  Conv=0.49D-08     -V/T= 2.0082

 **********************************************************************

            Population analysis using the SCF density.

 **********************************************************************

 Orbital symmetries:
       Occupied  (A) (A) (A) (A) (A) (A) (A) (A) (A) (A) (A) (A)
                 (A) (A) (A) (A) (A) (A) (A) (A) (A) (A) (A) (A)
                 (A) (A) (A) (A) (A) (A) (A) (A) (A) (A) (A) (A)
                 (A) (A) (A) (A) (A) (A) (A) (A) (A) (A) (A) (A)
                 (A) (A) (A) (A) (A) (A) (A) (A) (A) (A) (A) (A)
       Virtual   (A) (A) (A) (A) (A) (A) (A) (A) (A) (A) (A) (A)
                 (A) (A) (A) (A) (A) (A) (A) (A) (A) (A) (A) (A)
                 (A) (A) (A) (A) (A) (A) (A) (A) (A) (A) (A) (A)
                 (A) (A) (A) (A) (A) (A) (A) (A) (A) (A) (A) (A)
                 (A) (A) (A) (A) (A) (A) (A) (A) (A) (A) (A) (A)
                 (A) (A) (A) (A) (A) (A) (A) (A) (A) (A) (A) (A)
                 (A) (A) (A) (A) (A) (A) (A) (A) (A) (A) (A) (A)
                 (A) (A) (A) (A) (A) (A) (A) (A) (A) (A) (A) (A)
                 (A) (A) (A) (A) (A) (A) (A) (A) (A) (A) (A) (A)
                 (A) (A) (A) (A) (A) (A) (A) (A) (A) (A) (A) (A)
                 (A) (A) (A) (A) (A) (A) (A) (A) (A) (A) (A) (A)
                 (A) (A) (A) (A) (A) (A) (A) (A) (A) (A) (A) (A)
                 (A) (A) (A) (A) (A) (A) (A) (A) (A) (A) (A) (A)
                 (A) (A) (A) (A) (A) (A) (A) (A) (A) (A) (A) (A)
                 (A) (A) (A) (A) (A) (A) (A) (A) (A) (A) (A) (A)
                 (A) (A) (A) (A) (A) (A) (A) (A) (A) (A) (A) (A)
                 (A) (A) (A) (A) (A) (A) (A) (A) (A) (A) (A) (A)
                 (A) (A) (A) (A) (A) (A) (A) (A) (A) (A) (A) (A)
                 (A) (A) (A) (A) (A) (A) (A) (A) (A) (A) (A) (A)
                 (A) (A) (A) (A) (A) (A) (A) (A) (A) (A) (A) (A)
                 (A) (A) (A) (A) (A) (A) (A) (A) (A) (A) (A) (A)
                 (A) (A) (A) (A) (A) (A) (A) (A) (A) (A) (A) (A)
                 (A) (A) (A) (A) (A) (A) (A) (A) (A) (A) (A) (A)
                 (A) (A) (A) (A) (A) (A) (A) (A) (A) (A) (A) (A)
                 (A) (A) (A) (A) (A) (A) (A) (A) (A) (A) (A) (A)
                 (A) (A) (A) (A) (A) (A) (A) (A) (A) (A) (A) (A)
                 (A) (A) (A) (A) (A) (A) (A) (A) (A) (A) (A) (A)
                 (A) (A) (A) (A) (A) (A) (A) (A) (A) (A) (A) (A)
                 (A) (A) (A) (A) (A) (A) (A) (A) (A) (A) (A) (A)
                 (A) (A) (A) (A) (A) (A) (A) (A) (A) (A) (A) (A)
                 (A) (A) (A) (A) (A) (A) (A) (A) (A) (A) (A) (A)
                 (A) (A) (A) (A) (A) (A) (A) (A) (A) (A) (A) (A)
                 (A) (A) (A) (A) (A) (A) (A) (A) (A) (A) (A) (A)
                 (A) (A) (A) (A) (A) (A) (A) (A) (A) (A) (A) (A)
                 (A) (A) (A) (A) (A) (A) (A) (A) (A) (A) (A) (A)
                 (A) (A) (A) (A) (A) (A) (A) (A) (A) (A) (A) (A)
                 (A) (A) (A) (A) (A) (A) (A) (A) (A) (A) (A) (A)
                 (A) (A) (A) (A) (A) (A) (A) (A) (A) (A) (A) (A)
                 (A) (A) (A) (A) (A) (A) (A) (A) (A) (A) (A) (A)
                 (A) (A) (A) (A) (A) (A) (A) (A) (A) (A) (A) (A)
                 (A) (A) (A) (A) (A) (A) (A) (A) (A) (A) (A) (A)
                 (A) (A) (A)
 The electronic state is 1-A.
 Alpha  occ. eigenvalues --  -19.13378 -14.29578 -10.22450 -10.21798 -10.19960
 Alpha  occ. eigenvalues --  -10.19747 -10.19085 -10.18241 -10.18006 -10.17577
 Alpha  occ. eigenvalues --  -10.17486 -10.17476 -10.17320 -10.17181 -10.16937
 Alpha  occ. eigenvalues --   -1.01469  -0.89548  -0.84415  -0.79157  -0.76274
 Alpha  occ. eigenvalues --   -0.72453  -0.71070  -0.67750  -0.66496  -0.65353
 Alpha  occ. eigenvalues --   -0.62050  -0.60205  -0.58095  -0.56453  -0.52098
 Alpha  occ. eigenvalues --   -0.49466  -0.48932  -0.47279  -0.46444  -0.46303
 Alpha  occ. eigenvalues --   -0.45166  -0.44313  -0.43456  -0.42378  -0.41660
 Alpha  occ. eigenvalues --   -0.41327  -0.40327  -0.38481  -0.38240  -0.37634
 Alpha  occ. eigenvalues --   -0.36994  -0.36874  -0.35812  -0.35333  -0.34232
 Alpha  occ. eigenvalues --   -0.33622  -0.32788  -0.31972  -0.31458  -0.31017
 Alpha  occ. eigenvalues --   -0.29954  -0.28563  -0.27969  -0.25013  -0.20050
 Alpha virt. eigenvalues --    0.06649   0.07833   0.08323   0.09843   0.10192
 Alpha virt. eigenvalues --    0.11576   0.11777   0.12207   0.12615   0.13790
 Alpha virt. eigenvalues --    0.14754   0.15010   0.15490   0.15616   0.15990
 Alpha virt. eigenvalues --    0.16475   0.16884   0.17208   0.17746   0.17844
 Alpha virt. eigenvalues --    0.18142   0.18846   0.19451   0.19913   0.20095
 Alpha virt. eigenvalues --    0.21019   0.21539   0.21769   0.22678   0.23475
 Alpha virt. eigenvalues --    0.23880   0.25426   0.25489   0.26502   0.26868
 Alpha virt. eigenvalues --    0.27970   0.29897   0.30956   0.31264   0.32105
 Alpha virt. eigenvalues --    0.34243   0.36624   0.42204   0.44349   0.44577
 Alpha virt. eigenvalues --    0.45756   0.46306   0.47339   0.47603   0.48798
 Alpha virt. eigenvalues --    0.49244   0.50060   0.51067   0.52108   0.52802
 Alpha virt. eigenvalues --    0.52972   0.53535   0.54842   0.55338   0.56876
 Alpha virt. eigenvalues --    0.57523   0.58602   0.58946   0.59606   0.60664
 Alpha virt. eigenvalues --    0.60839   0.61889   0.63152   0.63351   0.63786
 Alpha virt. eigenvalues --    0.64696   0.65528   0.66557   0.67224   0.69270
 Alpha virt. eigenvalues --    0.70133   0.70920   0.71334   0.71978   0.72105
 Alpha virt. eigenvalues --    0.73274   0.73433   0.74053   0.74160   0.74461
 Alpha virt. eigenvalues --    0.74852   0.75778   0.76130   0.76633   0.76812
 Alpha virt. eigenvalues --    0.77549   0.78363   0.78953   0.79213   0.79909
 Alpha virt. eigenvalues --    0.80188   0.80725   0.81904   0.83046   0.83947
 Alpha virt. eigenvalues --    0.85000   0.85362   0.85747   0.86176   0.87288
 Alpha virt. eigenvalues --    0.88213   0.89007   0.89440   0.90476   0.91328
 Alpha virt. eigenvalues --    0.92641   0.93044   0.95249   0.95916   0.98567
 Alpha virt. eigenvalues --    0.99525   1.00466   1.01588   1.02370   1.03830
 Alpha virt. eigenvalues --    1.05255   1.07379   1.07706   1.09481   1.11527
 Alpha virt. eigenvalues --    1.11562   1.13004   1.15167   1.17981   1.19391
 Alpha virt. eigenvalues --    1.20923   1.22269   1.22947   1.23450   1.24731
 Alpha virt. eigenvalues --    1.26924   1.27862   1.29671   1.30762   1.32011
 Alpha virt. eigenvalues --    1.34219   1.36059   1.36289   1.37543   1.38095
 Alpha virt. eigenvalues --    1.38649   1.39214   1.39792   1.40547   1.42590
 Alpha virt. eigenvalues --    1.43014   1.43867   1.46117   1.47771   1.48425
 Alpha virt. eigenvalues --    1.49972   1.50397   1.51632   1.52349   1.53896
 Alpha virt. eigenvalues --    1.54715   1.56220   1.56546   1.56912   1.59304
 Alpha virt. eigenvalues --    1.59663   1.61087   1.61806   1.62858   1.63360
 Alpha virt. eigenvalues --    1.63690   1.65872   1.66578   1.67708   1.68100
 Alpha virt. eigenvalues --    1.70401   1.71921   1.74047   1.76375   1.77580
 Alpha virt. eigenvalues --    1.77843   1.79525   1.80247   1.81497   1.83626
 Alpha virt. eigenvalues --    1.84150   1.84834   1.86311   1.87188   1.87436
 Alpha virt. eigenvalues --    1.88510   1.89584   1.92359   1.93496   1.94222
 Alpha virt. eigenvalues --    1.94292   1.94827   1.96761   1.97210   1.99378
 Alpha virt. eigenvalues --    1.99684   2.01528   2.03539   2.07711   2.10588
 Alpha virt. eigenvalues --    2.13619   2.15927   2.17603   2.18252   2.20348
 Alpha virt. eigenvalues --    2.21877   2.22549   2.24309   2.24857   2.25198
 Alpha virt. eigenvalues --    2.27980   2.29076   2.31097   2.31583   2.32623
 Alpha virt. eigenvalues --    2.33881   2.34747   2.35824   2.36345   2.36460
 Alpha virt. eigenvalues --    2.37643   2.42714   2.43525   2.44130   2.45265
 Alpha virt. eigenvalues --    2.46849   2.47774   2.49368   2.51997   2.53269
 Alpha virt. eigenvalues --    2.56598   2.58123   2.61541   2.62250   2.64536
 Alpha virt. eigenvalues --    2.67030   2.68006   2.69364   2.70188   2.71424
 Alpha virt. eigenvalues --    2.73678   2.74206   2.74726   2.74869   2.75794
 Alpha virt. eigenvalues --    2.76539   2.77378   2.77930   2.78698   2.79782
 Alpha virt. eigenvalues --    2.80477   2.81415   2.81870   2.83566   2.83747
 Alpha virt. eigenvalues --    2.84829   2.85914   2.86578   2.87795   2.89348
 Alpha virt. eigenvalues --    2.90969   2.91126   2.91276   2.92774   2.93402
 Alpha virt. eigenvalues --    2.93943   2.95075   2.95122   2.95965   2.96918
 Alpha virt. eigenvalues --    2.97453   2.98066   2.98321   2.99378   3.00372
 Alpha virt. eigenvalues --    3.01250   3.01699   3.03060   3.04630   3.06180
 Alpha virt. eigenvalues --    3.06534   3.07399   3.09757   3.11085   3.13359
 Alpha virt. eigenvalues --    3.14807   3.16106   3.18402   3.19185   3.21050
 Alpha virt. eigenvalues --    3.21996   3.23192   3.26093   3.27548   3.27719
 Alpha virt. eigenvalues --    3.29559   3.30222   3.32083   3.33717   3.34757
 Alpha virt. eigenvalues --    3.35654   3.36332   3.37233   3.38539   3.39204
 Alpha virt. eigenvalues --    3.40588   3.41674   3.42294   3.44009   3.45335
 Alpha virt. eigenvalues --    3.45991   3.48503   3.49505   3.50091   3.52040
 Alpha virt. eigenvalues --    3.53548   3.54824   3.55590   3.55795   3.57667
 Alpha virt. eigenvalues --    3.58352   3.60130   3.60610   3.61927   3.63387
 Alpha virt. eigenvalues --    3.63445   3.64564   3.65887   3.66634   3.68860
 Alpha virt. eigenvalues --    3.69991   3.72556   3.73142   3.75039   3.76662
 Alpha virt. eigenvalues --    3.78205   3.80284   3.80998   3.82496   3.84056
 Alpha virt. eigenvalues --    3.84604   3.85083   3.86524   3.88201   3.89998
 Alpha virt. eigenvalues --    3.90391   3.93118   3.95789   3.96655   3.97636
 Alpha virt. eigenvalues --    3.99543   4.01189   4.03003   4.06563   4.08574
 Alpha virt. eigenvalues --    4.12091   4.15415   4.17833   4.19021   4.22129
 Alpha virt. eigenvalues --    4.23414   4.25276   4.27127   4.31250   4.34505
 Alpha virt. eigenvalues --    4.37415   4.37620   4.38379   4.40386   4.41128
 Alpha virt. eigenvalues --    4.42612   4.42932   4.44034   4.44147   4.44275
 Alpha virt. eigenvalues --    4.46633   4.46938   4.47479   4.48797   4.49197
 Alpha virt. eigenvalues --    4.50600   4.51326   4.52952   4.53996   4.54827
 Alpha virt. eigenvalues --    4.56324   4.56832   4.58049   4.59798   4.60075
 Alpha virt. eigenvalues --    4.61030   4.61883   4.62763   4.63986   4.65000
 Alpha virt. eigenvalues --    4.65525   4.65871   4.66489   4.67470   4.68174
 Alpha virt. eigenvalues --    4.69384   4.70307   4.70886   4.71423   4.71847
 Alpha virt. eigenvalues --    4.72475   4.73891   4.74079   4.74735   4.76102
 Alpha virt. eigenvalues --    4.76902   4.77638   4.78313   4.79247   4.80250
 Alpha virt. eigenvalues --    4.82155   4.82313   4.83711   4.83859   4.84362
 Alpha virt. eigenvalues --    4.85269   4.86871   4.88073   4.89486   4.89857
 Alpha virt. eigenvalues --    4.91565   4.91769   4.92262   4.93950   4.94938
 Alpha virt. eigenvalues --    4.95886   4.96818   4.97553   4.98974   4.99252
 Alpha virt. eigenvalues --    5.01989   5.03950   5.08316   5.09108   5.09488
 Alpha virt. eigenvalues --    5.13642   5.16755   5.20350   5.22430   5.25843
 Alpha virt. eigenvalues --    5.29567   5.31384   5.32811   5.35285   5.38866
 Alpha virt. eigenvalues --    5.40042   5.41265   5.43382   5.46485   5.48634
 Alpha virt. eigenvalues --    5.50054   5.51903   5.54979   5.56883   5.58828
 Alpha virt. eigenvalues --    5.61807   5.64627   5.69847   5.73392   5.82438
 Alpha virt. eigenvalues --    5.87595   5.94432   5.99994   6.04162   6.19123
 Alpha virt. eigenvalues --    6.28794   6.62939   6.74636   7.02316  11.16143
 Alpha virt. eigenvalues --   11.21246  11.28190  11.33821  11.59338  11.78194
 Alpha virt. eigenvalues --   11.89755  12.01669  12.09468  12.22717  12.36375
 Alpha virt. eigenvalues --   12.63806  12.68186  13.11175  13.39535  17.19043
          Condensed to atoms (all electrons):
               1          2          3          4          5          6
     1  C    4.953477   0.409533  -0.036200   0.001938  -0.000080   0.000001
     2  C    0.409533   4.760227   0.423345  -0.037162   0.002173  -0.000192
     3  C   -0.036200   0.423345   4.849681   0.419733  -0.030890   0.003293
     4  C    0.001938  -0.037162   0.419733   4.798850   0.419509  -0.071151
     5  N   -0.000080   0.002173  -0.030890   0.419509   6.325192   0.409482
     6  C    0.000001  -0.000192   0.003293  -0.071151   0.409482   5.029635
     7  C    0.000000   0.000006   0.000007  -0.000224  -0.063230   0.367885
     8  C    0.000000  -0.000004   0.000273  -0.000398  -0.004821  -0.052534
     9  C    0.000000   0.000007  -0.001293  -0.000589  -0.005018  -0.003267
    10  O    0.000000  -0.000001   0.000136  -0.000026   0.000394   0.000016
    11  C   -0.000021   0.000030  -0.001472   0.000056   0.000069  -0.000003
    12  C   -0.000000  -0.000000  -0.000003  -0.000113   0.003185  -0.028188
    13  C    0.000000  -0.000000  -0.000005   0.000430  -0.000121   0.004369
    14  C    0.000000  -0.000000  -0.000001  -0.000022   0.000031  -0.003694
    15  C    0.000000   0.000003   0.000154  -0.004759  -0.001139  -0.041099
    16  H    0.371412  -0.022514   0.003613  -0.000170   0.000001  -0.000000
    17  H    0.379506  -0.029179  -0.005145   0.000195   0.000002   0.000000
    18  H    0.377872  -0.028589  -0.003892   0.000218   0.000001   0.000000
    19  H   -0.036335   0.374018  -0.036377  -0.002564   0.000143   0.000006
    20  H   -0.037138   0.371721  -0.033619  -0.002022   0.000112   0.000012
    21  H   -0.001830  -0.032436   0.358974  -0.028102  -0.001168   0.000232
    22  H   -0.003337  -0.031668   0.356990  -0.029340   0.001449   0.000204
    23  H    0.000046  -0.006473  -0.027602   0.363531  -0.029000   0.001121
    24  H    0.000047  -0.002608  -0.033597   0.352580  -0.050557  -0.006921
    25  H    0.000013  -0.000112  -0.003861  -0.059667   0.366201  -0.047608
    26  H   -0.000000   0.000002  -0.000221   0.005291  -0.018071   0.339635
    27  H   -0.000000   0.000007   0.000182  -0.003441  -0.022664   0.347902
    28  H   -0.000000   0.000000  -0.000007   0.000043   0.000044  -0.003670
    29  H    0.000000   0.000000  -0.000002   0.000006  -0.000213   0.004094
    30  H   -0.000011   0.000091  -0.002309  -0.001211  -0.002970  -0.000980
    31  H   -0.000000   0.000038  -0.000688   0.000514  -0.001850   0.002371
    32  H    0.000000  -0.000001   0.000052  -0.000001  -0.000001   0.000000
    33  H   -0.000020   0.000046  -0.001227  -0.000003   0.000012   0.000000
    34  H    0.000005  -0.000018  -0.000107   0.000066  -0.000408  -0.000012
    35  H   -0.000000   0.000000  -0.000000   0.000001  -0.000094   0.003297
    36  H   -0.000000   0.000000  -0.000000   0.000037   0.000171  -0.009328
    37  H    0.000000   0.000000   0.000000  -0.000002   0.000003  -0.000168
    38  H    0.000000  -0.000000   0.000003   0.000127  -0.000018  -0.003416
    39  H    0.000000   0.000000   0.000000  -0.000013  -0.000005   0.000219
    40  H    0.000000  -0.000000   0.000000   0.000002  -0.000001   0.000174
    41  H   -0.000000  -0.000001  -0.000027  -0.000169  -0.000057   0.004196
    42  H   -0.000000   0.000012   0.000077  -0.003423   0.001114  -0.007075
               7          8          9         10         11         12
     1  C    0.000000   0.000000   0.000000   0.000000  -0.000021  -0.000000
     2  C    0.000006  -0.000004   0.000007  -0.000001   0.000030  -0.000000
     3  C    0.000007   0.000273  -0.001293   0.000136  -0.001472  -0.000003
     4  C   -0.000224  -0.000398  -0.000589  -0.000026   0.000056  -0.000113
     5  N   -0.063230  -0.004821  -0.005018   0.000394   0.000069   0.003185
     6  C    0.367885  -0.052534  -0.003267   0.000016  -0.000003  -0.028188
     7  C    4.531238   0.359233  -0.023510   0.000015  -0.000121   0.354116
     8  C    0.359233   5.119219   0.410288  -0.012277   0.003592  -0.032146
     9  C   -0.023510   0.410288   4.693874   0.343758  -0.089162   0.002549
    10  O    0.000015  -0.012277   0.343758   7.728644   0.371865  -0.000013
    11  C   -0.000121   0.003592  -0.089162   0.371865   4.848527   0.000001
    12  C    0.354116  -0.032146   0.002549  -0.000013   0.000001   5.103665
    13  C   -0.043828   0.000153  -0.000016  -0.000000  -0.000000   0.373045
    14  C    0.001157   0.000099   0.000003   0.000000   0.000000  -0.029968
    15  C    0.373231  -0.036029  -0.002589   0.000016   0.000001  -0.124234
    16  H    0.000000  -0.000000  -0.000000  -0.000000   0.000000   0.000000
    17  H   -0.000000   0.000000   0.000000  -0.000000   0.000000   0.000000
    18  H    0.000000  -0.000000  -0.000002  -0.000000  -0.000013   0.000000
    19  H   -0.000000   0.000000  -0.000000   0.000000  -0.000001   0.000000
    20  H   -0.000004  -0.000001  -0.000005  -0.000001  -0.000000   0.000000
    21  H   -0.000008  -0.000047   0.000397  -0.000424   0.001060  -0.000000
    22  H    0.000044  -0.000010   0.000054  -0.000004  -0.000011   0.000000
    23  H   -0.001931  -0.000028   0.000094   0.000000  -0.000001   0.000008
    24  H    0.010434   0.000005  -0.003788  -0.000120  -0.000009  -0.000152
    25  H    0.000345   0.000080  -0.002453  -0.000496  -0.000236  -0.000177
    26  H   -0.028449  -0.005916  -0.000224   0.000001   0.000000  -0.004548
    27  H   -0.030900   0.004895   0.000177   0.000001  -0.000000  -0.003258
    28  H   -0.015628   0.339996  -0.025698   0.001339   0.000089  -0.004121
    29  H   -0.011182   0.341368  -0.028249  -0.000094   0.000029  -0.006209
    30  H    0.003475  -0.052812   0.369336  -0.039030  -0.002556  -0.000048
    31  H   -0.004182  -0.032999   0.355298  -0.036112  -0.011346   0.000037
    32  H   -0.000001  -0.000177   0.004233  -0.016481   0.379486  -0.000000
    33  H    0.000044  -0.000209  -0.003485  -0.032901   0.373280   0.000000
    34  H    0.000027   0.000232  -0.004201  -0.033783   0.360767   0.000000
    35  H   -0.013166  -0.008757   0.000216  -0.000001   0.000000   0.340915
    36  H   -0.024889   0.001535  -0.000077   0.000000  -0.000000   0.348760
    37  H    0.003626  -0.000727   0.000002  -0.000000   0.000000  -0.035931
    38  H   -0.001130  -0.000084   0.000001  -0.000000   0.000000  -0.004349
    39  H   -0.000183   0.000004  -0.000000   0.000000  -0.000000   0.004265
    40  H   -0.000037   0.000008   0.000000   0.000000  -0.000000  -0.003021
    41  H   -0.014693  -0.007589  -0.000129  -0.000024   0.000001   0.001548
    42  H   -0.022130   0.002630   0.000235   0.000001  -0.000000   0.012094
              13         14         15         16         17         18
     1  C    0.000000   0.000000   0.000000   0.371412   0.379506   0.377872
     2  C   -0.000000  -0.000000   0.000003  -0.022514  -0.029179  -0.028589
     3  C   -0.000005  -0.000001   0.000154   0.003613  -0.005145  -0.003892
     4  C    0.000430  -0.000022  -0.004759  -0.000170   0.000195   0.000218
     5  N   -0.000121   0.000031  -0.001139   0.000001   0.000002   0.000001
     6  C    0.004369  -0.003694  -0.041099  -0.000000   0.000000   0.000000
     7  C   -0.043828   0.001157   0.373231   0.000000  -0.000000   0.000000
     8  C    0.000153   0.000099  -0.036029  -0.000000   0.000000  -0.000000
     9  C   -0.000016   0.000003  -0.002589  -0.000000   0.000000  -0.000002
    10  O   -0.000000   0.000000   0.000016  -0.000000  -0.000000  -0.000000
    11  C   -0.000000   0.000000   0.000001   0.000000   0.000000  -0.000013
    12  C    0.373045  -0.029968  -0.124234   0.000000   0.000000   0.000000
    13  C    4.621981   0.424417   0.383624  -0.000000  -0.000000   0.000000
    14  C    0.424417   5.013674  -0.032073   0.000000  -0.000000   0.000000
    15  C    0.383624  -0.032073   5.091631  -0.000000  -0.000000   0.000000
    16  H   -0.000000   0.000000  -0.000000   0.608790  -0.031413  -0.031938
    17  H   -0.000000  -0.000000  -0.000000  -0.031413   0.600096  -0.033495
    18  H    0.000000   0.000000   0.000000  -0.031938  -0.033495   0.605259
    19  H   -0.000000  -0.000000   0.000001  -0.003357  -0.003918   0.005750
    20  H    0.000000  -0.000000  -0.000039  -0.001712   0.005775  -0.005155
    21  H   -0.000000  -0.000000   0.000023  -0.000082  -0.000449   0.004235
    22  H    0.000000   0.000000  -0.000011  -0.000015   0.004991  -0.000297
    23  H   -0.000062  -0.000058   0.000392   0.000002   0.000011   0.000009
    24  H    0.000244   0.000074  -0.006630   0.000008   0.000005   0.000014
    25  H    0.000003  -0.000004  -0.000160   0.000000   0.000001   0.000000
    26  H   -0.000401   0.000089   0.005614   0.000000   0.000000   0.000000
    27  H   -0.001356  -0.001980  -0.004849   0.000000   0.000000  -0.000000
    28  H    0.000146   0.000001   0.004347   0.000000   0.000000  -0.000000
    29  H    0.000492   0.000006  -0.006547  -0.000000  -0.000000  -0.000000
    30  H    0.000098   0.000001   0.002509   0.000000   0.000000   0.000005
    31  H   -0.000026  -0.000000   0.000136   0.000000   0.000000  -0.000002
    32  H   -0.000000   0.000000  -0.000000  -0.000000   0.000000  -0.000001
    33  H    0.000000  -0.000000  -0.000001  -0.000001  -0.000002   0.000363
    34  H    0.000000   0.000000  -0.000000  -0.000000   0.000001  -0.000008
    35  H   -0.014752   0.004481   0.002341   0.000000  -0.000000   0.000000
    36  H   -0.030672  -0.008883   0.012534   0.000000   0.000000  -0.000000
    37  H    0.363194  -0.055262  -0.035748  -0.000000   0.000000  -0.000000
    38  H   -0.025471   0.368283  -0.002738  -0.000000   0.000000  -0.000000
    39  H   -0.021734   0.367239  -0.005091   0.000000  -0.000000  -0.000000
    40  H   -0.021650   0.369219   0.004178   0.000000   0.000000  -0.000000
    41  H   -0.014322   0.004429   0.338806   0.000000  -0.000000   0.000000
    42  H   -0.035180  -0.009434   0.352144   0.000000   0.000000   0.000000
              19         20         21         22         23         24
     1  C   -0.036335  -0.037138  -0.001830  -0.003337   0.000046   0.000047
     2  C    0.374018   0.371721  -0.032436  -0.031668  -0.006473  -0.002608
     3  C   -0.036377  -0.033619   0.358974   0.356990  -0.027602  -0.033597
     4  C   -0.002564  -0.002022  -0.028102  -0.029340   0.363531   0.352580
     5  N    0.000143   0.000112  -0.001168   0.001449  -0.029000  -0.050557
     6  C    0.000006   0.000012   0.000232   0.000204   0.001121  -0.006921
     7  C   -0.000000  -0.000004  -0.000008   0.000044  -0.001931   0.010434
     8  C    0.000000  -0.000001  -0.000047  -0.000010  -0.000028   0.000005
     9  C   -0.000000  -0.000005   0.000397   0.000054   0.000094  -0.003788
    10  O    0.000000  -0.000001  -0.000424  -0.000004   0.000000  -0.000120
    11  C   -0.000001  -0.000000   0.001060  -0.000011  -0.000001  -0.000009
    12  C    0.000000   0.000000  -0.000000   0.000000   0.000008  -0.000152
    13  C   -0.000000   0.000000  -0.000000   0.000000  -0.000062   0.000244
    14  C   -0.000000  -0.000000  -0.000000   0.000000  -0.000058   0.000074
    15  C    0.000001  -0.000039   0.000023  -0.000011   0.000392  -0.006630
    16  H   -0.003357  -0.001712  -0.000082  -0.000015   0.000002   0.000008
    17  H   -0.003918   0.005775  -0.000449   0.004991   0.000011   0.000005
    18  H    0.005750  -0.005155   0.004235  -0.000297   0.000009   0.000014
    19  H    0.641067  -0.041225   0.006127  -0.004954   0.006248  -0.000886
    20  H   -0.041225   0.645452  -0.006575   0.006021  -0.000445   0.004750
    21  H    0.006127  -0.006575   0.642104  -0.045780   0.006170  -0.011561
    22  H   -0.004954   0.006021  -0.045780   0.645219  -0.005260   0.007719
    23  H    0.006248  -0.000445   0.006170  -0.005260   0.663089  -0.066508
    24  H   -0.000886   0.004750  -0.011561   0.007719  -0.066508   0.699945
    25  H    0.000024   0.000027   0.002992   0.003119   0.004859   0.003786
    26  H    0.000000  -0.000000   0.000006  -0.000006  -0.000044  -0.000048
    27  H   -0.000001  -0.000000   0.000001  -0.000024   0.003518  -0.002072
    28  H   -0.000000   0.000000   0.000008   0.000000   0.000001   0.000020
    29  H   -0.000000   0.000000   0.000002   0.000000  -0.000002   0.000093
    30  H   -0.000004   0.000201   0.003702   0.000099  -0.000015   0.007327
    31  H   -0.000002  -0.000006  -0.000054  -0.000207   0.000082  -0.001508
    32  H    0.000000  -0.000000  -0.000125  -0.000001   0.000000  -0.000000
    33  H    0.000001   0.000019   0.004504   0.000003   0.000001   0.000037
    34  H    0.000000   0.000002   0.001674   0.000190  -0.000001   0.000025
    35  H    0.000000  -0.000000   0.000000   0.000000  -0.000000   0.000015
    36  H    0.000000  -0.000000   0.000000   0.000000   0.000000  -0.000013
    37  H   -0.000000  -0.000000   0.000000  -0.000000   0.000001   0.000001
    38  H    0.000000   0.000000   0.000000  -0.000000   0.000289  -0.000102
    39  H   -0.000000   0.000000   0.000000  -0.000000   0.000030  -0.000022
    40  H    0.000000  -0.000000   0.000000   0.000000  -0.000000  -0.000001
    41  H    0.000000   0.000004  -0.000002   0.000000  -0.000014   0.001614
    42  H    0.000008   0.000106   0.000043  -0.000003   0.002299  -0.000426
              25         26         27         28         29         30
     1  C    0.000013  -0.000000  -0.000000  -0.000000   0.000000  -0.000011
     2  C   -0.000112   0.000002   0.000007   0.000000   0.000000   0.000091
     3  C   -0.003861  -0.000221   0.000182  -0.000007  -0.000002  -0.002309
     4  C   -0.059667   0.005291  -0.003441   0.000043   0.000006  -0.001211
     5  N    0.366201  -0.018071  -0.022664   0.000044  -0.000213  -0.002970
     6  C   -0.047608   0.339635   0.347902  -0.003670   0.004094  -0.000980
     7  C    0.000345  -0.028449  -0.030900  -0.015628  -0.011182   0.003475
     8  C    0.000080  -0.005916   0.004895   0.339996   0.341368  -0.052812
     9  C   -0.002453  -0.000224   0.000177  -0.025698  -0.028249   0.369336
    10  O   -0.000496   0.000001   0.000001   0.001339  -0.000094  -0.039030
    11  C   -0.000236   0.000000  -0.000000   0.000089   0.000029  -0.002556
    12  C   -0.000177  -0.004548  -0.003258  -0.004121  -0.006209  -0.000048
    13  C    0.000003  -0.000401  -0.001356   0.000146   0.000492   0.000098
    14  C   -0.000004   0.000089  -0.001980   0.000001   0.000006   0.000001
    15  C   -0.000160   0.005614  -0.004849   0.004347  -0.006547   0.002509
    16  H    0.000000   0.000000   0.000000   0.000000  -0.000000   0.000000
    17  H    0.000001   0.000000   0.000000   0.000000  -0.000000   0.000000
    18  H    0.000000   0.000000  -0.000000  -0.000000  -0.000000   0.000005
    19  H    0.000024   0.000000  -0.000001  -0.000000  -0.000000  -0.000004
    20  H    0.000027  -0.000000  -0.000000   0.000000   0.000000   0.000201
    21  H    0.002992   0.000006   0.000001   0.000008   0.000002   0.003702
    22  H    0.003119  -0.000006  -0.000024   0.000000   0.000000   0.000099
    23  H    0.004859  -0.000044   0.003518   0.000001  -0.000002  -0.000015
    24  H    0.003786  -0.000048  -0.002072   0.000020   0.000093   0.007327
    25  H    0.507598  -0.006184   0.005537  -0.000165   0.000069  -0.000941
    26  H   -0.006184   0.641307  -0.035663   0.004052  -0.000086   0.000052
    27  H    0.005537  -0.035663   0.618357  -0.000078  -0.000172  -0.000071
    28  H   -0.000165   0.004052  -0.000078   0.639101  -0.040871   0.006786
    29  H    0.000069  -0.000086  -0.000172  -0.040871   0.631178  -0.003716
    30  H   -0.000941   0.000052  -0.000071   0.006786  -0.003716   0.673473
    31  H    0.013102   0.000690  -0.000006  -0.010415   0.006779  -0.056544
    32  H    0.000003  -0.000000   0.000000   0.000005   0.000008  -0.000109
    33  H   -0.000091  -0.000000  -0.000000   0.000019  -0.000023   0.011175
    34  H    0.001565  -0.000001  -0.000000  -0.000063   0.000046  -0.003386
    35  H    0.000005  -0.000024  -0.000154   0.001058   0.005032   0.000016
    36  H   -0.000001   0.005028   0.001163   0.000843  -0.000185  -0.000002
    37  H   -0.000000   0.000019  -0.000140   0.000022  -0.000075   0.000001
    38  H   -0.000003   0.000216   0.009749   0.000003  -0.000001   0.000000
    39  H    0.000000  -0.000006   0.000100  -0.000000  -0.000000   0.000000
    40  H    0.000000  -0.000025   0.000148  -0.000001  -0.000000  -0.000000
    41  H    0.000020  -0.000152  -0.000042  -0.000049   0.005116   0.000806
    42  H    0.000002  -0.000033   0.001274  -0.000136  -0.000099  -0.000867
              31         32         33         34         35         36
     1  C   -0.000000   0.000000  -0.000020   0.000005  -0.000000  -0.000000
     2  C    0.000038  -0.000001   0.000046  -0.000018   0.000000   0.000000
     3  C   -0.000688   0.000052  -0.001227  -0.000107  -0.000000  -0.000000
     4  C    0.000514  -0.000001  -0.000003   0.000066   0.000001   0.000037
     5  N   -0.001850  -0.000001   0.000012  -0.000408  -0.000094   0.000171
     6  C    0.002371   0.000000   0.000000  -0.000012   0.003297  -0.009328
     7  C   -0.004182  -0.000001   0.000044   0.000027  -0.013166  -0.024889
     8  C   -0.032999  -0.000177  -0.000209   0.000232  -0.008757   0.001535
     9  C    0.355298   0.004233  -0.003485  -0.004201   0.000216  -0.000077
    10  O   -0.036112  -0.016481  -0.032901  -0.033783  -0.000001   0.000000
    11  C   -0.011346   0.379486   0.373280   0.360767   0.000000  -0.000000
    12  C    0.000037  -0.000000   0.000000   0.000000   0.340915   0.348760
    13  C   -0.000026  -0.000000   0.000000   0.000000  -0.014752  -0.030672
    14  C   -0.000000   0.000000  -0.000000   0.000000   0.004481  -0.008883
    15  C    0.000136  -0.000000  -0.000001  -0.000000   0.002341   0.012534
    16  H    0.000000  -0.000000  -0.000001  -0.000000   0.000000   0.000000
    17  H    0.000000   0.000000  -0.000002   0.000001  -0.000000   0.000000
    18  H   -0.000002  -0.000001   0.000363  -0.000008   0.000000  -0.000000
    19  H   -0.000002   0.000000   0.000001   0.000000   0.000000   0.000000
    20  H   -0.000006  -0.000000   0.000019   0.000002  -0.000000  -0.000000
    21  H   -0.000054  -0.000125   0.004504   0.001674   0.000000   0.000000
    22  H   -0.000207  -0.000001   0.000003   0.000190   0.000000   0.000000
    23  H    0.000082   0.000000   0.000001  -0.000001  -0.000000   0.000000
    24  H   -0.001508  -0.000000   0.000037   0.000025   0.000015  -0.000013
    25  H    0.013102   0.000003  -0.000091   0.001565   0.000005  -0.000001
    26  H    0.000690  -0.000000  -0.000000  -0.000001  -0.000024   0.005028
    27  H   -0.000006   0.000000  -0.000000  -0.000000  -0.000154   0.001163
[...]
 .00000175,0.00001326,-0.00032697,0.00072604,0.00057482,-0.00082359,-0.
 00116158,-0.01536287,-0.02754008,-0.01033714,-0.30027496,-0.00081350,0
 .00026098,0.00044872,0.00000203,0.00000053,-0.00000063,0.00000064,-0.0
 0000152,0.00000081,-0.00000386,0.00000200,0.00000114,-0.00000206,0.000
 00637,0.00000841,0.00000014,-0.00000213,0.00000166,-0.00000907,0.00000
 589,0.00000245,0.00000575,-0.00000335,0.00000345,-0.00000386,0.0000110
 7,0.00002314,-0.00000521,-0.00000719,0.00002339,-0.00002562,0.00000877
 ,-0.00001099,-0.00000921,0.00001206,0.00003004,-0.00001738,0.00002882,
 0.00011037,0.00002456,0.00000925,0.00004787,0.00000956,0.00003630,0.00
 009794,-0.00000760,-0.00000586,-0.00000603,0.00003997,-0.00001254,-0.0
 0000416,-0.00000072,0.00000062,-0.00000210,-0.00000032,0.00000051,-0.0
 0000148,0.00001061,-0.00000440,0.00000517,-0.00020201,0.00007264,0.000
 19904,0.00017940,-0.00084885,0.00069237,0.00237221,-0.00202745,0.00046
 297,0.02851225,0.01340974,0.32914089,-0.00000159,-0.00000571,0.0000006
 6,-0.00000790,0.00001102,-0.00000328,-0.00000499,-0.00002459,0.0000060
 6,0.00001560,0.00011643,-0.00001823,-0.00014029,-0.00002454,-0.0001282
 0,-0.00019410,-0.00019000,0.00011501,0.00044277,0.00080372,-0.00039004
 ,-0.00006006,-0.00012462,-0.00002003,0.00003510,0.00004279,0.00000923,
 -0.00003970,-0.00002821,0.00002345,0.00001745,0.00001822,-0.00000190,-
 0.00210664,0.00239976,0.00281685,0.00264984,0.02269997,-0.00986518,-0.
 04949355,-0.02568627,0.01009976,0.00107959,-0.00103520,-0.00053632,-0.
 00000308,-0.00000093,-0.00000096,0.00000155,-0.00000010,0.00000161,0.0
 0000235,-0.00000044,-0.00000076,0.00000058,-0.00000245,-0.00000551,-0.
 00000302,-0.00000194,0.00000534,0.00000440,-0.00000222,-0.00000203,0.0
 0000507,-0.00000176,0.00000425,0.00000488,-0.00000518,-0.00001280,-0.0
 0001082,-0.00002067,0.00003069,0.00000053,-0.00001212,0.00000248,0.000
 03426,-0.00004645,0.00006966,0.00000431,0.00000597,-0.00000018,0.00002
 022,-0.00006218,-0.00004501,0.00002178,0.00001355,-0.00000603,-0.00003
 094,-0.00002884,0.00001322,-0.00000480,-0.00001009,0.00000182,-0.00000
 402,-0.00000074,0.00000369,-0.00000401,-0.00000647,0.00000136,-0.00000
 235,-0.00000227,0.00000027,-0.00050801,0.00080788,-0.00021715,0.000028
 35,-0.00027080,0.00010954,0.00075701,-0.00087435,-0.00013207,-0.000610
 07,0.00391393,-0.00156250,0.05088456,-0.00000281,0.00001685,-0.0000025
 8,0.00001452,-0.00003075,0.00000280,-0.00000689,0.00003108,-0.00000368
 ,-0.00003952,-0.00018275,-0.00001419,0.00028090,0.00002653,0.00024656,
 0.00014873,0.00018446,-0.00030060,0.00015140,-0.00075601,0.00040513,0.
 00018739,0.00017289,0.00010772,-0.00011696,-0.00008228,0.00004992,0.00
 015384,0.00002005,-0.00015428,-0.00009809,-0.00004876,0.00003264,0.002
 24872,0.00059260,-0.00303080,-0.00300026,-0.01983678,0.00808931,-0.025
 47813,-0.26652709,0.08860909,0.00018402,0.00072058,0.00009211,0.000012
 57,0.00000695,0.00000385,-0.00000053,-0.00000241,-0.00000018,-0.000001
 20,-0.00000238,0.00000050,-0.00000195,0.00000485,0.00000760,0.00000197
 ,0.00000253,-0.00000611,0.00000064,0.00000213,0.00000192,0.00000114,0.
 00000002,-0.00000037,-0.00000690,0.00000616,0.00000630,-0.00000336,0.0
 0003103,-0.00002583,-0.00000505,0.00003167,-0.00001981,-0.00003251,0.0
 0001925,-0.00003900,-0.00000857,-0.00000816,-0.00000121,-0.00001521,0.
 00002381,0.00003243,-0.00004856,0.00000615,0.00002536,0.00001777,0.000
 02425,-0.00001182,0.00001961,0.00000423,-0.00000563,0.00001513,-0.0000
 0338,-0.00001900,0.00001693,0.00002112,0.00000031,0.00001404,0.0000068
 8,0.00000014,0.00032772,-0.00061560,0.00017462,-0.00016467,0.00039614,
 -0.00020220,-0.00037155,0.00064117,-0.00046682,0.00007377,0.00199541,-
 0.00081375,0.02560918,0.29215497,-0.00000146,-0.00000068,-0.00000087,-
 0.00000055,0.00000460,0.00000183,0.00000014,0.00000773,0.00000126,0.00
 000191,-0.00002139,0.00000698,0.00004225,0.00000054,0.00011817,0.00022
 152,0.00005793,-0.00017621,-0.00000961,-0.00041939,0.00031700,-0.00005
 039,-0.00003169,0.00009791,-0.00001094,0.00001124,-0.00000047,-0.00000
 047,0.00000250,-0.00001548,0.00000261,-0.00000292,0.00000012,0.0021510
 7,-0.00070274,-0.00098603,-0.00244832,-0.01433394,0.00499632,0.0101584
 7,0.08876263,-0.08298324,-0.00013764,0.00042695,0.00036963,-0.00000108
 ,-0.00000025,0.00000004,0.00000108,-0.00000035,0.00000132,0.00000221,-
 0.00000120,-0.00000073,0.00000120,-0.00000093,-0.00000565,-0.00000174,
 0.00000018,0.00000381,0.00000071,-0.00000300,-0.00000114,0.00000085,-0
 .00000156,0.00000066,0.00000488,0.00000872,-0.00000645,-0.00000864,0.0
 0000454,0.00000042,-0.00001823,-0.00000144,0.00000090,-0.00001128,0.00
 001241,-0.00002866,0.00000363,0.00002410,0.00004883,0.00000592,0.00001
 031,-0.00000651,-0.00002705,-0.00000241,-0.00002332,0.00000761,0.00000
 534,0.00000138,-0.00000858,0.00000333,-0.00000039,0.00000162,-0.000001
 10,-0.00000138,0.00000189,0.00000061,0.00000097,-0.00000127,0.00000203
 ,-0.00000159,-0.00013773,-0.00009691,0.00022132,-0.00003348,-0.0002421
 4,0.00039153,-0.00076039,0.00028960,0.00067998,0.00411355,0.03005954,-
 0.01127226,-0.01247351,-0.09675738,0.08633154,0.00000849,-0.00001146,0
 .00000263,-0.00000477,0.00002109,0.00000311,0.00003055,0.00001034,-0.0
 0001118,-0.00001601,-0.00008663,0.00010785,-0.00007920,0.00000826,-0.0
 0006164,0.00023073,0.00038102,0.00018009,-0.00076442,-0.00022804,-0.00
 028899,0.00006766,0.00018625,-0.00015501,0.00006688,-0.00013718,-0.000
 13482,-0.00009923,0.00006843,0.00017045,0.00010091,0.00000696,-0.00004
 603,0.00080017,0.00016168,-0.00028259,-0.02197423,-0.00821584,-0.00519
 564,-0.26722671,-0.07691165,-0.04999371,0.00024392,0.00280889,0.003000
 11,-0.00001172,-0.00000874,-0.00000259,-0.00000296,0.00000438,-0.00000
 452,-0.00000261,0.00000349,0.00000110,0.00000075,-0.00000156,0.0000027
 4,0.00000438,0.00000222,-0.00000552,-0.00001369,0.00000305,0.00000262,
 -0.00001731,0.00000788,-0.00001510,0.00000052,0.00000626,0.00002383,0.
 00001557,0.00002021,-0.00008025,0.00001044,-0.00002102,0.00003304,-0.0
 0007320,0.00010375,-0.00013855,-0.00000402,-0.00003424,0.00000998,-0.0
 0003845,0.00009830,0.00008034,-0.00001245,-0.00004058,0.00000408,0.000
 04933,0.00005867,-0.00001693,-0.00000660,0.00003425,0.00000231,-0.0000
 1108,0.00000645,0.00001935,-0.00001239,-0.00000774,-0.00000343,-0.0000
 1618,-0.00000145,-0.00000364,-0.00006272,0.00044020,-0.00007304,0.0000
 1873,0.00035788,-0.00026545,0.00087048,-0.00018910,0.00043650,-0.00262
 923,-0.00093171,-0.00047069,-0.00258432,-0.00090789,-0.00060883,0.2934
 3623,0.00000009,0.00000283,0.00000103,0.00000197,-0.00000932,-0.000002
 25,-0.00001240,-0.00001499,0.00001456,0.00003862,0.00007054,-0.0000659
 8,-0.00005648,0.00001392,-0.00004593,-0.00013944,-0.00025266,-0.000022
 71,0.00060351,0.00065174,0.00019400,-0.00009257,-0.00001295,0.00002804
 ,0.00001316,0.00007730,0.00002284,-0.00000237,-0.00003340,-0.00002275,
 -0.00001526,-0.00000143,0.00000880,-0.00109456,0.00097808,0.00057248,0
 .02106155,0.00735109,0.00526908,-0.07711840,-0.07330615,-0.01727304,0.
 00255530,-0.00185321,-0.00244985,0.00000237,0.00000087,0.00000038,-0.0
 0000020,0.00000010,-0.00000080,-0.00000156,0.00000065,0.00000045,-0.00
 000113,0.00000205,0.00000439,-0.00000028,-0.00000087,-0.00000235,0.000
 00166,0.00000168,0.00000028,0.00000946,-0.00000174,0.00000458,-0.00000
 402,-0.00000402,0.00000388,-0.00001091,-0.00002359,0.00004781,-0.00000
 206,0.00000195,-0.00000593,0.00002968,-0.00006562,0.00008362,0.0000004
 4,0.00001190,0.00000134,-0.00000901,-0.00004516,-0.00002233,0.00001778
 ,-0.00000148,-0.00001805,-0.00003083,-0.00004041,0.00001675,-0.0000009
 6,-0.00001626,0.00000195,0.00000060,-0.00000034,-0.00000091,0.00000118
 ,0.00000139,0.00000152,0.00000184,0.00000009,0.00000056,-0.00007185,0.
 00000837,-0.00015819,-0.00014784,-0.00007907,0.00019912,-0.00087562,0.
 00066521,0.00032030,-0.00023287,-0.00126870,0.00015577,-0.02778544,-0.
 00918343,-0.00735728,0.08274897,0.07663601,-0.00000029,0.00000356,0.00
 000159,0.00000456,-0.00000841,-0.00000506,-0.00000788,-0.00000091,0.00
 001485,0.00003063,0.00000940,-0.00007826,0.00000774,0.00003773,0.00001
 949,-0.00009380,-0.00026333,-0.00015752,0.00044995,0.00007612,0.000292
 80,0.00003295,0.00004742,0.00006781,-0.00001729,0.00001750,0.00000787,
 0.00002263,-0.00001174,-0.00003740,-0.00001605,-0.00000534,0.00000578,
 -0.00036497,-0.00005939,0.00037494,0.01400777,0.00565550,0.00229383,-0
 .05005850,-0.01739707,-0.05848299,0.00055815,-0.00221530,-0.00082141,0
 .00000212,0.00000084,0.00000028,0.00000024,-0.00000050,-0.00000034,-0.
 00000146,0.00000024,0.00000037,-0.00000060,0.00000307,0.00000404,-0.00
 000080,-0.00000032,-0.00000022,-0.00000269,0.00000192,0.00000023,0.000
 00579,-0.00000257,0.00000216,-0.00000352,0.00000496,0.00001464,-0.0000
 0215,-0.00000665,0.00003584,-0.00000588,0.00000303,-0.00000138,0.00002
 321,-0.00002115,0.00009688,-0.00001221,0.00000396,0.00004592,-0.000010
 70,-0.00001106,-0.00002251,0.00000174,-0.00000217,-0.00002094,-0.00000
 856,-0.00001115,0.00000527,-0.00000084,-0.00000623,0.00000156,0.000003
 61,-0.00000140,-0.00000374,0.00000250,0.00000269,0.00000100,0.00000159
 ,0.00000087,-0.00000054,-0.00009391,-0.00010541,0.00005264,-0.00016092
 ,-0.00006804,-0.00003486,-0.00033104,0.00072425,0.00051127,-0.03010292
 ,-0.01087794,-0.00597760,0.01215088,0.00379268,0.00198085,0.05367713,0
 .02034784,0.05931801,0.00000089,0.00000123,0.00000075,-0.00000365,-0.0
 0000799,0.00000432,0.00000247,-0.00002241,-0.00001720,-0.00002456,0.00
 012327,-0.00015520,0.00014593,-0.00006769,0.00012605,-0.00000714,0.001
 61297,-0.00041708,0.00342297,-0.00004997,-0.00816940,0.00042291,-0.001
 03492,0.00063728,-0.00032109,0.00046849,0.00002265,0.00010799,0.000019
 75,0.00000435,0.00000446,-0.00009239,-0.00001345,-0.00299702,-0.002279
 94,-0.00149207,-0.00955331,-0.01067336,0.02148715,-0.00173887,-0.00210
 557,-0.00069943,-0.13082022,-0.06476084,0.10192237,0.00000144,0.000000
 54,0.00000127,-0.00000101,0.00000138,-0.00000265,-0.00000096,-0.000000
 31,0.00000043,-0.00000033,0.00000006,0.00000421,-0.00000048,-0.0000002
 5,-0.00000801,0.00000225,0.00000170,0.00000419,-0.00000595,-0.00000589
 ,0.00000163,-0.00000425,0.00000957,0.00000195,-0.00005943,0.00001197,-
 0.00002059,-0.00002954,0.00001237,0.00000824,-0.00038038,0.00040112,-0
 .00039290,-0.00002613,0.00004543,0.00016581,0.00005165,-0.00009207,-0.
 00034189,-0.00020744,-0.00009763,0.00006357,-0.00047996,0.00088655,0.0
 0039818,-0.00000288,0.00012884,-0.00002853,0.00001394,0.00000328,-0.00
 000562,0.00000690,0.00002003,0.00000469,0.00000178,0.00001297,-0.00001
 016,0.00016853,-0.00126992,0.00069513,-0.00000302,-0.00012815,0.000257
 42,0.00237363,0.00085364,-0.00016987,0.00003933,-0.00003048,-0.0000897
 7,-0.00004803,0.00047059,0.00002682,-0.00080885,0.00077404,0.00006717,
 0.13870778,0.00000185,0.00001300,-0.00000086,0.00003659,-0.00000516,0.
 00002041,0.00006035,0.00016703,-0.00009054,-0.00011628,-0.00085263,0.0
 0026937,0.00064787,0.00050328,0.00020009,-0.00212267,-0.00281146,-0.00
 120908,-0.01448006,-0.00588676,0.01890860,-0.00019306,0.00242105,0.001
 10981,-0.00031283,-0.00169465,-0.00047647,-0.00003682,0.00069088,0.000
 43130,0.00037910,-0.00003119,-0.00019022,-0.00210831,-0.00394082,-0.00
 115460,-0.00080395,-0.00225455,-0.00235818,0.00058162,0.00002726,-0.00
 008228,-0.06507642,-0.10274885,0.08400430,0.00000167,-0.00000231,0.000
 00133,-0.00000208,0.00000031,-0.00000350,0.00000413,-0.00000298,-0.000
 00005,0.00000124,-0.00000243,-0.00000813,0.00000429,0.00001774,-0.0000
 0365,0.00000216,-0.00001481,0.00000748,-0.00006428,0.00000386,-0.00004
 407,-0.00002573,0.00006050,-0.00008904,0.00011923,0.00037453,-0.000233
 68,0.00005906,-0.00004315,0.00012233,0.00061448,-0.00056690,0.00095992
 ,-0.00001614,-0.00001111,0.00005353,-0.00012173,0.00033606,0.00011456,
 -0.00012234,-0.00015001,-0.00040889,0.00131869,0.00031456,-0.00059035,
 -0.00011637,0.00046202,-0.00003124,-0.00000970,0.00001680,0.00003083,-
 0.00002165,-0.00001527,-0.00002942,-0.00005476,0.00001406,-0.00002020,
 -0.00144246,-0.00050188,0.00031919,-0.00024068,-0.00009408,0.00025711,
 -0.00053549,0.00080482,-0.00017631,-0.00011560,0.00010126,0.00021010,-
 0.00001759,0.00003408,0.00011365,0.00021948,-0.00022598,0.00020156,0.0
 7548362,0.10794517,-0.00001770,-0.00001415,0.00001443,-0.00001370,0.00
 002341,-0.00006467,-0.00011516,-0.00014818,0.00025677,0.00048234,0.000
 74187,-0.00086015,-0.00041893,-0.00040586,0.00014729,0.00100158,0.0009
 1649,-0.00016467,0.00006409,-0.00215488,-0.00190957,0.00042407,-0.0004
 7880,0.00012687,0.00067032,0.00019606,0.00010917,-0.00017992,-0.000300
 29,-0.00023179,-0.00006504,0.00007183,0.00004201,-0.00103660,-0.000395
 93,0.00069018,-0.00638273,-0.00459788,0.00683628,-0.00011236,-0.000422
 60,-0.00021732,0.10140995,0.08415924,-0.17165446,-0.00000053,0.0000037
 3,-0.00000370,0.00001307,-0.00000607,0.00001064,0.00000537,-0.00000133
 ,-0.00000270,0.00000099,0.00000180,-0.00000901,-0.00002884,-0.00002131
 ,0.00003935,-0.00000770,0.00000054,-0.00002171,0.00010720,-0.00003055,
 0.00005578,-0.00001025,0.00005492,0.00011850,-0.00035342,-0.00021522,0
 .00045483,-0.00008099,-0.00001414,-0.00003574,-0.00038372,0.00032021,-
 0.00007554,-0.00007911,-0.00000580,0.00048437,-0.00003310,0.00009904,0
 .00004684,-0.00013993,0.00007829,0.00014846,0.00018603,-0.00079369,0.0
 0015584,-0.00006512,-0.00016549,0.00003577,-0.00000841,-0.00001162,-0.
 00000256,0.00001212,-0.00000900,0.00001786,-0.00000505,0.00000079,0.00
 000621,0.00003642,-0.00050568,0.00003455,-0.00022252,-0.00033874,0.000
 15156,0.00070728,0.00024708,0.00124809,-0.00023780,0.00006572,0.000210
 73,0.00016189,0.00003229,0.00000174,-0.00009158,0.00013066,0.00017423,
 -0.11143664,-0.08962412,0.18241703,-0.00001502,0.00001579,-0.00000518,
 -0.00000596,-0.00003947,0.00000523,-0.00011025,-0.00010758,-0.00003936
 ,-0.00042464,0.00044815,0.00017189,0.00011722,-0.00019063,0.00003984,0
 .00091318,-0.00062575,0.00022002,-0.00030215,0.00397241,0.00889023,-0.
 00034499,0.00243160,-0.00044825,0.00029887,-0.00003850,-0.00018915,-0.
 00020515,0.00006988,0.00020843,0.00016930,-0.00000903,-0.00004181,-0.0
 0032575,0.00080853,0.00045574,-0.00396849,-0.01311949,-0.02934310,0.00
 307204,-0.00001836,-0.00132289,-0.04738166,-0.01375339,-0.02043143,0.0
 0001823,0.00001239,0.00000453,0.00000534,-0.00000578,0.00000409,0.0000
 1123,-0.00000731,-0.00000072,-0.00000563,-0.00000862,-0.00002161,-0.00
 001245,0.00000405,0.00000866,0.00009665,-0.00002214,0.00000998,0.00005
 562,-0.00001047,0.00003186,-0.00015719,0.00000735,-0.00047225,-0.00046
 811,0.00005775,0.00017556,-0.00002000,-0.00008786,0.00005127,0.0000704
 5,-0.00019873,0.00012017,0.00000330,-0.00006729,-0.00010785,-0.0003202
 1,0.00047716,0.00056750,0.00001613,-0.00008590,-0.00009494,0.00026784,
 0.00002645,-0.00005071,-0.00010077,0.00019871,-0.00001391,-0.00001736,
 0.00000611,0.00001876,-0.00001949,-0.00001295,-0.00000038,-0.00002950,
 0.00001156,-0.00001100,0.00002199,-0.00010202,0.00032568,0.00001309,-0
 .00053177,0.00018582,-0.00541829,-0.00220175,-0.00097243,-0.00022482,0
 .00015677,0.00098915,-0.00014791,0.00036005,0.00000125,0.00051662,-0.0
 0015616,0.00024660,0.00204965,0.00862158,0.01624416,0.05230905,0.00000
 741,-0.00002832,0.00000525,0.00001141,0.00006462,-0.00001517,0.0000689
 2,0.00018881,0.00009731,-0.00001408,-0.00039130,-0.00037979,0.00037973
 ,-0.00013274,0.00065744,0.00063221,0.00191260,-0.00265972,-0.00117647,
 -0.01364268,-0.02653262,-0.00131961,-0.00506526,0.00232927,-0.00078891
 ,-0.00033218,0.00023168,0.00034752,0.00016049,-0.00011622,-0.00015748,
 -0.00005201,0.00002451,0.00032284,-0.00033248,0.00065151,0.00055091,0.
 00028304,0.00120193,0.00016483,0.00069951,0.00000203,-0.01363522,-0.10
 105461,-0.10552026,-0.00002018,-0.00001233,-0.00000559,0.00000100,0.00
 000329,0.00000070,-0.00000424,0.00000554,0.00000061,0.00000419,0.00000
 562,0.00000081,-0.00000009,-0.00000665,0.00001297,-0.00011850,0.000021
 61,-0.00000895,-0.00004475,0.00000325,-0.00002848,0.00001516,0.0001343
 9,0.00038832,0.00000395,0.00002385,-0.00012808,-0.00014243,0.00002993,
 -0.00002398,-0.00039803,0.00051770,-0.00004874,-0.00024931,-0.00000383
 ,0.00133872,0.00070133,-0.00091078,-0.00156654,-0.00015423,0.00015241,
 0.00008930,0.00021282,0.00021069,-0.00010729,0.00015747,0.00003448,-0.
 00001684,0.00002595,-0.00000001,-0.00002527,0.00003706,0.00003289,-0.0
 0001391,0.00003385,0.00000081,0.00000442,-0.00024583,-0.00006270,0.000
 34902,-0.00061301,-0.00020546,0.00011055,0.00088663,-0.00011749,0.0005
 2053,-0.00037004,0.00018041,0.00010300,-0.00017023,0.00010192,0.000170
 18,-0.00003356,-0.00003497,0.00014094,0.00137637,0.00754871,0.01351737
 ,0.01371466,0.11006921,0.00001417,-0.00000062,0.00000415,0.00002923,0.
 00000825,-0.00000972,0.00006516,0.00027507,0.00000741,-0.00076026,-0.0
 0041208,-0.00004611,0.00077750,0.00015456,0.00036542,-0.00124808,0.001
 01923,0.00010663,0.00121579,0.00182448,0.00366998,-0.00013878,0.001062
 09,0.00042647,-0.00012120,0.00019652,0.00015601,0.00023995,-0.00012288
 ,-0.00023892,-0.00021688,-0.00000381,0.00006175,-0.00001973,0.00014250
 ,-0.00067722,-0.00134848,-0.00270271,-0.00885889,0.00154983,-0.0000681
 1,0.00102591,-0.01913073,-0.10564074,-0.24886758,-0.00000530,-0.000007
 38,-0.00000196,-0.00000652,0.00000386,-0.00000474,-0.00001428,0.000008
 30,0.00000213,-0.00000002,0.00001133,0.00003526,0.00002022,-0.00000194
 ,-0.00001718,-0.00010784,0.00004341,0.00000846,-0.00007810,0.00001664,
 -0.00004253,-0.00017880,0.00001929,0.00035143,0.00017373,0.00007422,-0
 .00051162,-0.00011711,0.00018407,-0.00016279,-0.00012477,0.00010332,0.
 00030032,0.00010226,-0.00020414,0.00063141,-0.00005440,0.00005137,0.00
 029821,0.00005875,0.00019843,0.00013746,-0.00027435,-0.00016156,0.0000
 5426,0.00009488,-0.00019895,-0.00002115,0.00001710,-0.00000450,-0.0000
 2206,0.00001512,0.00001588,0.00000055,0.00003904,-0.00001383,0.0000159
 0,-0.00014012,-0.00025879,0.00011384,0.00005728,-0.00009375,0.00028493
 ,-0.00181072,-0.00083345,0.00089610,-0.00071532,0.00039961,0.00059589,
 -0.00020605,0.00016200,-0.00006413,0.00019245,0.00001633,0.00032066,-0
 .00243517,-0.01051059,-0.01878180,0.02459057,0.11524908,0.26845787\\0.
 00000102,-0.00000055,-0.00000015,0.00000016,0.00000153,-0.00000045,0.0
 0000201,-0.00000319,0.00000154,-0.00000278,-0.00000244,-0.00000183,0.0
 0000745,0.00000360,0.00000195,-0.00001058,0.00000208,0.00000371,0.0000
 0244,-0.00000452,-0.00001599,-0.00000210,0.00000005,0.00000353,0.00000
 122,0.00000304,-0.00000008,0.00000142,-0.00000006,-0.00000076,0.000000
 91,0.00000106,-0.00000277,-0.00000421,0.00000392,0.00001089,0.00000623
 ,-0.00000397,0.00000012,0.00000004,0.00000118,-0.00000074,-0.00000124,
 0.00000290,0.00000388,0.00000056,-0.00000007,-0.00000003,0.00000001,-0
 .00000045,-0.00000067,-0.00000006,-0.00000014,-0.00000035,0.00000070,-
 0.00000111,-0.00000037,0.00000073,-0.00000075,-0.00000004,-0.00000068,
 0.00000052,-0.00000039,-0.00000007,0.00000006,-0.00000047,0.00000017,-
 0.00000096,0.00000021,0.00000004,0.00000013,0.00000047,-0.00000157,-0.
 00000035,0.00000090,0.00000363,0.00000040,0.00000016,0.00000218,-0.000
 00048,-0.00000106,0.00000021,0.00000250,0.00000129,-0.00000144,0.00000
 120,-0.00000109,-0.00000134,-0.00000243,0.00000049,-0.00000121,-0.0000
 0135,-0.00000067,0.00000005,-0.00000020,-0.00000032,-0.00000092,-0.000
 00016,0.00000017,-0.00000135,0.00000045,0.,0.00000165,0.00000135,-0.00
 000108,-0.00000208,-0.00000271,-0.00000153,-0.00000142,0.00000042,-0.0
 0000023,0.00000072,-0.00000050,-0.00000025,-0.00000006,0.00000024,0.00
 000071,0.00000019,0.00000044,0.00000057,-0.00000102,0.00000013,0.00000
 007,0.00000038,-0.00000079,0.00000066\\\@


 A successful marriage requires falling in love
 many times, always with the same person.
                           -- Mignon McLaughlin
 Job cpu time:       0 days 14 hours 13 minutes 10.1 seconds.
 Elapsed time:       0 days  3 hours 33 minutes 20.0 seconds.
 File lengths (MBytes):  RWF=    897 Int=      0 D2E=      0 Chk=     26 Scr=      1
 Normal termination of Gaussian 16 at Wed May 24 06:48:38 2023.
### All Done ###
