### Starting Gaussian ###
 Entering Gaussian System, Link 0=g16
 Initial command:
 /cluster/software/gaussian/gaussian-16-A.03/avx2/g16/l1.exe "/local/scratch/linjian/Gau-30112.inp" -scrdir="/local/scratch/linjian/"
 Entering Link 1 = /cluster/software/gaussian/gaussian-16-A.03/avx2/g16/l1.exe PID=     30113.
  
 Copyright (c) 1988,1990,1992,1993,1995,1998,2003,2009,2016,
            Gaussian, Inc.  All Rights Reserved.
  
 This is part of the Gaussian(R) 16 program.  It is based on
 the Gaussian(R) 09 system (copyright 2009, Gaussian, Inc.),
 the Gaussian(R) 03 system (copyright 2003, Gaussian, Inc.),
 the Gaussian(R) 98 system (copyright 1998, Gaussian, Inc.),
 the Gaussian(R) 94 system (copyright 1995, Gaussian, Inc.),
 the Gaussian 92(TM) system (copyright 1992, Gaussian, Inc.),
 the Gaussian 90(TM) system (copyright 1990, Gaussian, Inc.),
 the Gaussian 88(TM) system (copyright 1988, Gaussian, Inc.),
 the Gaussian 86(TM) system (copyright 1986, Carnegie Mellon
 University), and the Gaussian 82(TM) system (copyright 1983,
 Carnegie Mellon University). Gaussian is a federally registered
 trademark of Gaussian, Inc.
  
 This software contains proprietary and confidential information,
 including trade secrets, belonging to Gaussian, Inc.
  
 This software is provided under written license and may be
 used, copied, transmitted, or stored only in accord with that
 written license.
  
 The following legend is applicable only to US Government
 contracts under FAR:
  
                    RESTRICTED RIGHTS LEGEND
  
 Use, reproduction and disclosure by the US Government is
 subject to restrictions as set forth in subparagraphs (a)
 and (c) of the Commercial Computer Software - Restricted
 Rights clause in FAR 52.227-19.
  
 Gaussian, Inc.
 340 Quinnipiac St., Bldg. 40, Wallingford CT 06492
  
  
 ---------------------------------------------------------------
 Warning -- This program may not be used in any manner that
 competes with the business of Gaussian, Inc. or will provide
 assistance to any competitor of Gaussian, Inc.  The licensee
 of this program is prohibited from giving any competitor of
 Gaussian, Inc. access to this program.  By using this program,
 the user acknowledges that Gaussian, Inc. is engaged in the
 business of creating and licensing software in the field of
 computational chemistry and represents and warrants to the
 licensee that it is not a competitor of Gaussian, Inc. and that
 it will not use this program in any manner prohibited above.
 ---------------------------------------------------------------
  

 Cite this work as:
 Gaussian 16, Revision A.03,
 M. J. Frisch, G. W. Trucks, H. B. Schlegel, G. E. Scuseria, 
 M. A. Robb, J. R. Cheeseman, G. Scalmani, V. Barone, 
 G. A. Petersson, H. Nakatsuji, X. Li, M. Caricato, A. V. Marenich, 
 J. Bloino, B. G. Janesko, R. Gomperts, B. Mennucci, H. P. Hratchian, 
 J. V. Ortiz, A. F. Izmaylov, J. L. Sonnenberg, D. Williams-Young, 
 F. Ding, F. Lipparini, F. Egidi, J. Goings, B. Peng, A. Petrone, 
 T. Henderson, D. Ranasinghe, V. G. Zakrzewski, J. Gao, N. Rega, 
 G. Zheng, W. Liang, M. Hada, M. Ehara, K. Toyota, R. Fukuda, 
 J. Hasegawa, M. Ishida, T. Nakajima, Y. Honda, O. Kitao, H. Nakai, 
 T. Vreven, K. Throssell, J. A. Montgomery, Jr., J. E. Peralta, 
 F. Ogliaro, M. J. Bearpark, J. J. Heyd, E. N. Brothers, K. N. Kudin, 
 V. N. Staroverov, T. A. Keith, R. Kobayashi, J. Normand, 
 K. Raghavachari, A. P. Rendell, J. C. Burant, S. S. Iyengar, 
 J. Tomasi, M. Cossi, J. M. Millam, M. Klene, C. Adamo, R. Cammi, 
 J. W. Ochterski, R. L. Martin, K. Morokuma, O. Farkas, 
 J. B. Foresman, and D. J. Fox, Gaussian, Inc., Wallingford CT, 2016.
 
 ******************************************
 Gaussian 16:  ES64L-G16RevA.03 25-Dec-2016
                27-May-2023 
 ******************************************
 %chk=CCCCCCC.chk
 %NProcShared=20
 Will use up to   20 processors via shared memory.
 -----------------------------
 # opt freq b3lyp/6-31g(2df,p)
 -----------------------------
 1/18=20,19=15,26=3,38=1/1,3;
 2/9=110,12=2,17=6,18=5,40=1/2;
 3/5=1,6=6,7=104,11=2,25=1,30=1,71=1,74=-5/1,2,3;
 4//1;
 5/5=2,38=5/2;
 6/7=2,8=2,9=2,10=2,28=1/1;
 7//1,2,3,16;
 1/18=20,19=15,26=3/3(2);
 2/9=110/2;
 99//99;
 2/9=110/2;
 3/5=1,6=6,7=104,11=2,25=1,30=1,71=1,74=-5/1,2,3;
 4/5=5,16=3,69=1/1;
 5/5=2,38=5/2;
 7//1,2,3,16;
 1/18=20,19=15,26=3/3(-5);
 2/9=110/2;
 6/7=2,8=2,9=2,10=2,19=2,28=1/1;
 99/9=1/99;
 -------------------
 Title Card Required
 -------------------
 Symbolic Z-matrix:
 Charge =  0 Multiplicity = 1
 C                     1.03102  -0.04743  -0.08917 
 C                     2.55018  -0.04003  -0.07993 
 C                     3.08455   0.85364   1.03621 
 C                     4.61148   0.86394   1.04907 
 C                     5.13598   1.76028   2.16855 
 C                     6.66216   1.77728   2.18979 
 C                     7.1797    2.67002   3.30476 
 H                     0.6597   -0.6908   -0.8927 
 H                     0.63709   0.96112  -0.24884 
 H                     0.63709  -0.4238    0.86004 
 H                     2.91762   0.31415  -1.04975 
 H                     2.91762  -1.06383   0.05356 
 H                     2.71092   0.49834   2.00403 
 H                     2.71092   1.87573   0.90118 
 H                     4.98692   1.22116   0.08288 
 H                     4.98692  -0.15699   1.18633 
 H                     4.75761   1.40288   3.13375 
 H                     4.75761   2.78028   2.03091 
 H                     7.04474   2.13815   1.22832 
 H                     7.04474   0.76017   2.33164 
 H                     6.83421   3.69997   3.17183 
 H                     8.27397   2.67437   3.3102 
 H                     6.83421   2.31504   4.28071 
 

 GradGradGradGradGradGradGradGradGradGradGradGradGradGradGradGradGradGrad
 Berny optimization.
 Initialization pass.
                           ----------------------------
                           !    Initial Parameters    !
                           ! (Angstroms and Degrees)  !
 --------------------------                            --------------------------
 ! Name  Definition              Value          Derivative Info.                !
 --------------------------------------------------------------------------------
 ! R1    R(1,2)                  1.5192         estimate D2E/DX2                !
 ! R2    R(1,8)                  1.0943         estimate D2E/DX2                !
 ! R3    R(1,9)                  1.0945         estimate D2E/DX2                !
 ! R4    R(1,10)                 1.0945         estimate D2E/DX2                !
 ! R5    R(2,3)                  1.5264         estimate D2E/DX2                !
 ! R6    R(2,11)                 1.0959         estimate D2E/DX2                !
 ! R7    R(2,12)                 1.0959         estimate D2E/DX2                !
 ! R8    R(3,4)                  1.527          estimate D2E/DX2                !
 ! R9    R(3,13)                 1.0966         estimate D2E/DX2                !
 ! R10   R(3,14)                 1.0966         estimate D2E/DX2                !
 ! R11   R(4,5)                  1.527          estimate D2E/DX2                !
 ! R12   R(4,15)                 1.0964         estimate D2E/DX2                !
 ! R13   R(4,16)                 1.0964         estimate D2E/DX2                !
 ! R14   R(5,6)                  1.5264         estimate D2E/DX2                !
 ! R15   R(5,17)                 1.0966         estimate D2E/DX2                !
 ! R16   R(5,18)                 1.0966         estimate D2E/DX2                !
 ! R17   R(6,7)                  1.5192         estimate D2E/DX2                !
 ! R18   R(6,19)                 1.0959         estimate D2E/DX2                !
 ! R19   R(6,20)                 1.0959         estimate D2E/DX2                !
 ! R20   R(7,21)                 1.0945         estimate D2E/DX2                !
 ! R21   R(7,22)                 1.0943         estimate D2E/DX2                !
 ! R22   R(7,23)                 1.0945         estimate D2E/DX2                !
 ! A1    A(2,1,8)              110.2823         estimate D2E/DX2                !
 ! A2    A(2,1,9)              110.8742         estimate D2E/DX2                !
 ! A3    A(2,1,10)             110.8744         estimate D2E/DX2                !
 ! A4    A(8,1,9)              108.2114         estimate D2E/DX2                !
 ! A5    A(8,1,10)             108.2117         estimate D2E/DX2                !
 ! A6    A(9,1,10)             108.2927         estimate D2E/DX2                !
 ! A7    A(1,2,3)              110.9387         estimate D2E/DX2                !
 ! A8    A(1,2,11)             109.3578         estimate D2E/DX2                !
 ! A9    A(1,2,12)             109.3578         estimate D2E/DX2                !
 ! A10   A(3,2,11)             109.9071         estimate D2E/DX2                !
 ! A11   A(3,2,12)             109.9076         estimate D2E/DX2                !
 ! A12   A(11,2,12)            107.2955         estimate D2E/DX2                !
 ! A13   A(2,3,4)              111.1104         estimate D2E/DX2                !
 ! A14   A(2,3,13)             109.6562         estimate D2E/DX2                !
 ! A15   A(2,3,14)             109.6562         estimate D2E/DX2                !
 ! A16   A(4,3,13)             109.6            estimate D2E/DX2                !
 ! A17   A(4,3,14)             109.6            estimate D2E/DX2                !
 ! A18   A(13,3,14)            107.1323         estimate D2E/DX2                !
 ! A19   A(3,4,5)              110.7074         estimate D2E/DX2                !
 ! A20   A(3,4,15)             109.7056         estimate D2E/DX2                !
 ! A21   A(3,4,16)             109.7054         estimate D2E/DX2                !
 ! A22   A(5,4,15)             109.7056         estimate D2E/DX2                !
 ! A23   A(5,4,16)             109.7055         estimate D2E/DX2                !
 ! A24   A(15,4,16)            107.2446         estimate D2E/DX2                !
 ! A25   A(4,5,6)              111.1104         estimate D2E/DX2                !
 ! A26   A(4,5,17)             109.6            estimate D2E/DX2                !
 ! A27   A(4,5,18)             109.6004         estimate D2E/DX2                !
 ! A28   A(6,5,17)             109.6559         estimate D2E/DX2                !
 ! A29   A(6,5,18)             109.6562         estimate D2E/DX2                !
 ! A30   A(17,5,18)            107.1323         estimate D2E/DX2                !
 ! A31   A(5,6,7)              110.9386         estimate D2E/DX2                !
 ! A32   A(5,6,19)             109.9075         estimate D2E/DX2                !
 ! A33   A(5,6,20)             109.9079         estimate D2E/DX2                !
 ! A34   A(7,6,19)             109.3572         estimate D2E/DX2                !
 ! A35   A(7,6,20)             109.3577         estimate D2E/DX2                !
 ! A36   A(19,6,20)            107.2956         estimate D2E/DX2                !
 ! A37   A(6,7,21)             110.8746         estimate D2E/DX2                !
 ! A38   A(6,7,22)             110.2821         estimate D2E/DX2                !
 ! A39   A(6,7,23)             110.8738         estimate D2E/DX2                !
 ! A40   A(21,7,22)            108.2118         estimate D2E/DX2                !
 ! A41   A(21,7,23)            108.2934         estimate D2E/DX2                !
 ! A42   A(22,7,23)            108.2112         estimate D2E/DX2                !
 ! D1    D(8,1,2,3)           -180.0            estimate D2E/DX2                !
 ! D2    D(8,1,2,11)            58.6109         estimate D2E/DX2                !
 ! D3    D(8,1,2,12)           -58.6103         estimate D2E/DX2                !
 ! D4    D(9,1,2,3)             60.164          estimate D2E/DX2                !
 ! D5    D(9,1,2,11)           -61.225          estimate D2E/DX2                !
 ! D6    D(9,1,2,12)          -178.4463         estimate D2E/DX2                !
 ! D7    D(10,1,2,3)           -60.1636         estimate D2E/DX2                !
 ! D8    D(10,1,2,11)          178.4473         estimate D2E/DX2                !
 ! D9    D(10,1,2,12)           61.2261         estimate D2E/DX2                !
 ! D10   D(1,2,3,4)           -180.0            estimate D2E/DX2                !
 ! D11   D(1,2,3,13)            58.6854         estimate D2E/DX2                !
 ! D12   D(1,2,3,14)           -58.6854         estimate D2E/DX2                !
 ! D13   D(11,2,3,4)           -58.9341         estimate D2E/DX2                !
 ! D14   D(11,2,3,13)          179.7513         estimate D2E/DX2                !
 ! D15   D(11,2,3,14)           62.3805         estimate D2E/DX2                !
 ! D16   D(12,2,3,4)            58.9339         estimate D2E/DX2                !
 ! D17   D(12,2,3,13)          -62.3808         estimate D2E/DX2                !
 ! D18   D(12,2,3,14)         -179.7516         estimate D2E/DX2                !
 ! D19   D(2,3,4,5)           -179.9999         estimate D2E/DX2                !
 ! D20   D(2,3,4,15)            58.7826         estimate D2E/DX2                !
 ! D21   D(2,3,4,16)           -58.7826         estimate D2E/DX2                !
 ! D22   D(13,3,4,5)           -58.6524         estimate D2E/DX2                !
 ! D23   D(13,3,4,15)         -179.8699         estimate D2E/DX2                !
 ! D24   D(13,3,4,16)           62.5649         estimate D2E/DX2                !
 ! D25   D(14,3,4,5)            58.6527         estimate D2E/DX2                !
 ! D26   D(14,3,4,15)          -62.5649         estimate D2E/DX2                !
 ! D27   D(14,3,4,16)          179.8699         estimate D2E/DX2                !
 ! D28   D(3,4,5,6)            179.9997         estimate D2E/DX2                !
 ! D29   D(3,4,5,17)            58.6526         estimate D2E/DX2                !
 ! D30   D(3,4,5,18)           -58.6526         estimate D2E/DX2                !
 ! D31   D(15,4,5,6)           -58.7828         estimate D2E/DX2                !
 ! D32   D(15,4,5,17)          179.8702         estimate D2E/DX2                !
 ! D33   D(15,4,5,18)           62.5649         estimate D2E/DX2                !
 ! D34   D(16,4,5,6)            58.7825         estimate D2E/DX2                !
 ! D35   D(16,4,5,17)          -62.5645         estimate D2E/DX2                !
 ! D36   D(16,4,5,18)         -179.8697         estimate D2E/DX2                !
 ! D37   D(4,5,6,7)            179.9997         estimate D2E/DX2                !
 ! D38   D(4,5,6,19)            58.9343         estimate D2E/DX2                !
 ! D39   D(4,5,6,20)           -58.9341         estimate D2E/DX2                !
 ! D40   D(17,5,6,7)           -58.686          estimate D2E/DX2                !
 ! D41   D(17,5,6,19)         -179.7514         estimate D2E/DX2                !
 ! D42   D(17,5,6,20)           62.3802         estimate D2E/DX2                !
 ! D43   D(18,5,6,7)            58.6846         estimate D2E/DX2                !
 ! D44   D(18,5,6,19)          -62.3808         estimate D2E/DX2                !
 ! D45   D(18,5,6,20)          179.7508         estimate D2E/DX2                !
 ! D46   D(5,6,7,21)           -60.1636         estimate D2E/DX2                !
 ! D47   D(5,6,7,22)           180.0            estimate D2E/DX2                !
 ! D48   D(5,6,7,23)            60.1647         estimate D2E/DX2                !
 ! D49   D(19,6,7,21)           61.2255         estimate D2E/DX2                !
 ! D50   D(19,6,7,22)          -58.6109         estimate D2E/DX2                !
 ! D51   D(19,6,7,23)         -178.4462         estimate D2E/DX2                !
 ! D52   D(20,6,7,21)          178.4464         estimate D2E/DX2                !
 ! D53   D(20,6,7,22)           58.6099         estimate D2E/DX2                !
 ! D54   D(20,6,7,23)          -61.2253         estimate D2E/DX2                !
 --------------------------------------------------------------------------------
 Trust Radius=3.00D-01 FncErr=1.00D-07 GrdErr=1.00D-06 EigMax=2.50D+02 EigMin=1.00D-04
 Number of steps in this run=    128 maximum allowed number of steps=    138.
 GradGradGradGradGradGradGradGradGradGradGradGradGradGradGradGradGradGrad

                          Input orientation:                          
 ---------------------------------------------------------------------
 Center     Atomic      Atomic             Coordinates (Angstroms)
 Number     Number       Type             X           Y           Z
 ---------------------------------------------------------------------
      1          6           0        1.031020   -0.047430   -0.089170
      2          6           0        2.550180   -0.040030   -0.079930
      3          6           0        3.084550    0.853640    1.036210
      4          6           0        4.611480    0.863940    1.049070
      5          6           0        5.135980    1.760280    2.168550
      6          6           0        6.662160    1.777280    2.189790
      7          6           0        7.179700    2.670020    3.304760
      8          1           0        0.659700   -0.690800   -0.892700
      9          1           0        0.637090    0.961120   -0.248840
     10          1           0        0.637090   -0.423800    0.860040
     11          1           0        2.917620    0.314150   -1.049750
     12          1           0        2.917620   -1.063830    0.053560
     13          1           0        2.710920    0.498340    2.004030
     14          1           0        2.710920    1.875730    0.901180
     15          1           0        4.986920    1.221160    0.082880
     16          1           0        4.986920   -0.156990    1.186330
     17          1           0        4.757610    1.402880    3.133750
     18          1           0        4.757610    2.780280    2.030910
     19          1           0        7.044740    2.138150    1.228320
     20          1           0        7.044740    0.760170    2.331640
     21          1           0        6.834210    3.699970    3.171830
     22          1           0        8.273970    2.674370    3.310200
     23          1           0        6.834210    2.315040    4.280710
 ---------------------------------------------------------------------
                    Distance matrix (angstroms):
                    1          2          3          4          5
     1  C    0.000000
     2  C    1.519206   0.000000
     3  C    2.509062   1.526423   0.000000
     4  C    3.865990   2.518087   1.527019   0.000000
     5  C    5.021535   3.870806   2.512480   1.527011   0.000000
     6  C    6.342946   5.036132   3.870808   2.518079   1.526422
     7  C    7.530575   6.342945   5.021535   3.865982   2.509062
     8  H    1.094287   2.158243   3.462064   4.669502   5.951145
     9  H    1.094463   2.165813   2.766399   4.182080   5.169375
    10  H    1.094456   2.165811   2.766396   4.182079   5.169373
    11  H    2.147723   1.095904   2.161052   2.752540   4.167717
    12  H    2.147720   1.095901   2.161055   2.752544   4.167721
    13  H    2.738871   2.158372   1.096592   2.158180   2.738700
    14  H    2.738869   2.158368   1.096586   2.158175   2.738699
    15  H    4.157892   2.748601   2.159380   1.096396   2.159372
    16  H    4.157890   2.748599   2.159380   1.096400   2.159375
    17  H    5.135960   4.157220   2.738698   2.158171   1.096590
    18  H    5.135967   4.157228   2.738704   2.158176   1.096590
    19  H    6.532792   5.163047   4.167730   2.752544   2.161061
    20  H    6.532792   5.163048   4.167731   2.752546   2.161061
    21  H    7.638988   6.550913   5.169373   4.182069   2.766397
    22  H    8.451286   7.184895   5.951148   4.669497   3.462067
    23  H    7.638987   6.550912   5.169373   4.182071   2.766399
                    6          7          8          9         10
     6  C    0.000000
     7  C    1.519207   0.000000
     8  H    7.184893   8.451283   0.000000
     9  H    6.550916   7.638989   1.773106   0.000000
    10  H    6.550913   7.638987   1.773104   1.774153   0.000000
    11  H    5.163037   6.532779   2.476447   2.502168   3.064749
    12  H    5.163038   6.532784   2.476441   3.064749   2.502172
    13  H    4.157222   5.135960   3.743341   3.096831   2.541619
    14  H    4.157223   5.135960   3.743339   2.541619   3.096821
    15  H    2.748594   4.157883   4.830340   4.370204   4.714965
    16  H    2.748593   4.157886   4.830337   4.714966   4.370203
    17  H    2.158367   2.738870   6.114627   5.349369   5.048287
    18  H    2.158370   2.738863   6.114635   5.048296   5.349369
    19  H    1.095910   2.147720   7.298659   6.680223   6.910658
    20  H    1.095902   2.147721   7.298659   6.910661   6.680222
    21  H    2.165812   1.094455   8.597897   7.589900   7.794495
    22  H    2.158245   1.094292   9.325548   8.597903   8.597900
    23  H    2.165810   1.094465   8.597896   7.794499   7.589896
                   11         12         13         14         15
    11  H    0.000000
    12  H    1.765254   0.000000
    13  H    3.066304   2.507475   0.000000
    14  H    2.507466   3.066300   1.764506   0.000000
    15  H    2.527354   3.082863   3.064876   2.505644   0.000000
    16  H    3.082861   2.527356   2.505647   3.064871   1.765474
    17  H    4.698145   4.354055   2.506671   3.065436   3.064868
    18  H    4.354059   4.698155   3.065438   2.506679   2.505645
    19  H    5.054671   5.354050   4.698159   4.354065   2.527356
    20  H    5.354050   5.054675   4.354065   4.698158   3.082865
    21  H    6.680209   6.910649   5.349366   5.048289   4.370194
    22  H    7.298650   7.298653   6.114631   6.114632   4.830332
    23  H    6.910647   6.680212   5.048286   5.349368   4.714958
                   16         17         18         19         20
    16  H    0.000000
    17  H    2.505638   0.000000
    18  H    3.064874   1.764508   0.000000
    19  H    3.082865   3.066309   2.507478   0.000000
    20  H    2.527358   2.507473   3.066308   1.765260   0.000000
    21  H    4.714958   3.096827   2.541613   2.502166   3.064746
    22  H    4.830333   3.743342   3.743339   2.476442   2.476439
    23  H    4.370195   2.541618   3.096824   3.064751   2.502163
                   21         22         23
    21  H    0.000000
    22  H    1.773108   0.000000
    23  H    1.774161   1.773109   0.000000
 Stoichiometry    C7H16
 Framework group  C1[X(C7H16)]
 Deg. of freedom    63
 Full point group                 C1      NOp   1
 Largest Abelian subgroup         C1      NOp   1
 Largest concise Abelian subgroup C1      NOp   1
                         Standard orientation:                         
 ---------------------------------------------------------------------
 Center     Atomic      Atomic             Coordinates (Angstroms)
 Number     Number       Type             X           Y           Z
 ---------------------------------------------------------------------
      1          6           0       -3.765289   -0.362276   -0.000002
      2          6           0       -2.518067    0.505148   -0.000001
      3          6           0       -1.256241   -0.353783    0.000001
      4          6           0        0.000003    0.514339    0.000003
      5          6           0        1.256239   -0.353781    0.000001
      6          6           0        2.518065    0.505148   -0.000004
      7          6           0        3.765286   -0.362280    0.000003
      8          1           0       -4.662774    0.263811   -0.000003
      9          1           0       -3.794952   -1.002631    0.887080
     10          1           0       -3.794950   -1.002635   -0.887073
     11          1           0       -2.527331    1.154673    0.882630
     12          1           0       -2.527334    1.154678   -0.882624
     13          1           0       -1.253336   -1.005036   -0.882255
     14          1           0       -1.253338   -1.005032    0.882251
     15          1           0        0.000004    1.164619    0.882738
     16          1           0        0.000002    1.164621   -0.882736
     17          1           0        1.253335   -1.005029   -0.882256
     18          1           0        1.253341   -1.005037    0.882252
     19          1           0        2.527340    1.154678    0.882630
     20          1           0        2.527341    1.154676   -0.882630
     21          1           0        3.794948   -1.002632    0.887077
     22          1           0        4.662774    0.263812   -0.000002
     23          1           0        3.794947   -1.002631   -0.887084
 ---------------------------------------------------------------------
 Rotational constants (GHZ):          11.7957121           0.7483854           0.7260210
 Standard basis: 6-31G(2df,p) (6D, 7F)
 There are   297 symmetry adapted cartesian basis functions of A   symmetry.
 There are   276 symmetry adapted basis functions of A   symmetry.
   276 basis functions,   420 primitive gaussians,   297 cartesian basis functions
    29 alpha electrons       29 beta electrons
       nuclear repulsion energy       309.7275769741 Hartrees.
 NAtoms=   23 NActive=   23 NUniq=   23 SFac= 1.00D+00 NAtFMM=   60 NAOKFM=F Big=F
 Integral buffers will be    131072 words long.
 Raffenetti 2 integral format.
 Two-electron integral symmetry is turned on.
 One-electron integrals computed using PRISM.
 PrsmSu:  requested number of processors reduced to:  13 ShMem   1 Linda.
 NBasis=   276 RedAO= T EigKep=  5.59D-04  NBF=   276
 NBsUse=   276 1.00D-06 EigRej= -1.00D+00 NBFU=   276
 ExpMin= 1.61D-01 ExpMax= 3.05D+03 ExpMxC= 4.57D+02 IAcc=3 IRadAn=         5 AccDes= 0.00D+00
 Harris functional with IExCor=  402 and IRadAn=       5 diagonalized for initial guess.
 HarFok:  IExCor=  402 AccDes= 0.00D+00 IRadAn=         5 IDoV= 1 UseB2=F ITyADJ=14
 ICtDFT=  3500011 ScaDFX=  1.000000  1.000000  1.000000  1.000000
 FoFCou: FMM=F IPFlag=           0 FMFlag=      100000 FMFlg1=           0
         NFxFlg=           0 DoJE=T BraDBF=F KetDBF=T FulRan=T
         wScrn=  0.000000 ICntrl=       500 IOpCl=  0 I1Cent=   200000004 NGrid=           0
         NMat0=    1 NMatS0=      1 NMatT0=    0 NMatD0=    1 NMtDS0=    0 NMtDT0=    0
 Petite list used in FoFCou.
 Requested convergence on RMS density matrix=1.00D-08 within 128 cycles.
 Requested convergence on MAX density matrix=1.00D-06.
 Requested convergence on             energy=1.00D-06.
 No special actions if energy rises.
 Integral accuracy reduced to 1.0D-05 until final iterations.
 Initial convergence to 1.0D-05 achieved.  Increase integral accuracy.
 SCF Done:  E(RB3LYP) =  -276.420878967     A.U. after   11 cycles
            NFock= 11  Conv=0.44D-08     -V/T= 2.0089

 **********************************************************************

            Population analysis using the SCF density.

 **********************************************************************

 Orbital symmetries:
       Occupied  (A) (A) (A) (A) (A) (A) (A) (A) (A) (A) (A) (A)
                 (A) (A) (A) (A) (A) (A) (A) (A) (A) (A) (A) (A)
                 (A) (A) (A) (A) (A)
       Virtual   (A) (A) (A) (A) (A) (A) (A) (A) (A) (A) (A) (A)
                 (A) (A) (A) (A) (A) (A) (A) (A) (A) (A) (A) (A)
                 (A) (A) (A) (A) (A) (A) (A) (A) (A) (A) (A) (A)
                 (A) (A) (A) (A) (A) (A) (A) (A) (A) (A) (A) (A)
                 (A) (A) (A) (A) (A) (A) (A) (A) (A) (A) (A) (A)
                 (A) (A) (A) (A) (A) (A) (A) (A) (A) (A) (A) (A)
                 (A) (A) (A) (A) (A) (A) (A) (A) (A) (A) (A) (A)
                 (A) (A) (A) (A) (A) (A) (A) (A) (A) (A) (A) (A)
                 (A) (A) (A) (A) (A) (A) (A) (A) (A) (A) (A) (A)
                 (A) (A) (A) (A) (A) (A) (A) (A) (A) (A) (A) (A)
                 (A) (A) (A) (A) (A) (A) (A) (A) (A) (A) (A) (A)
                 (A) (A) (A) (A) (A) (A) (A) (A) (A) (A) (A) (A)
                 (A) (A) (A) (A) (A) (A) (A) (A) (A) (A) (A) (A)
                 (A) (A) (A) (A) (A) (A) (A) (A) (A) (A) (A) (A)
                 (A) (A) (A) (A) (A) (A) (A) (A) (A) (A) (A) (A)
                 (A) (A) (A) (A) (A) (A) (A) (A) (A) (A) (A) (A)
                 (A) (A) (A) (A) (A) (A) (A) (A) (A) (A) (A) (A)
                 (A) (A) (A) (A) (A) (A) (A) (A) (A) (A) (A) (A)
                 (A) (A) (A) (A) (A) (A) (A) (A) (A) (A) (A) (A)
                 (A) (A) (A) (A) (A) (A) (A) (A) (A) (A) (A) (A)
                 (A) (A) (A) (A) (A) (A) (A)
 The electronic state is 1-A.
 Alpha  occ. eigenvalues --  -10.17069 -10.17069 -10.16880 -10.16875 -10.16829
 Alpha  occ. eigenvalues --  -10.16552 -10.16552  -0.80626  -0.77609  -0.72756
 Alpha  occ. eigenvalues --   -0.66514  -0.60191  -0.57228  -0.56788  -0.47940
 Alpha  occ. eigenvalues --   -0.45237  -0.42876  -0.41762  -0.41259  -0.39558
 Alpha  occ. eigenvalues --   -0.36894  -0.36143  -0.35049  -0.33536  -0.33210
 Alpha  occ. eigenvalues --   -0.32280  -0.32005  -0.31938  -0.28787
 Alpha virt. eigenvalues --    0.08946   0.10027   0.11661   0.12073   0.12776
 Alpha virt. eigenvalues --    0.15191   0.15433   0.17064   0.17693   0.18734
 Alpha virt. eigenvalues --    0.18950   0.19646   0.19935   0.20238   0.20966
 Alpha virt. eigenvalues --    0.21621   0.22836   0.23859   0.24312   0.27811
 Alpha virt. eigenvalues --    0.28813   0.29569   0.42871   0.46762   0.47418
 Alpha virt. eigenvalues --    0.49965   0.51894   0.51910   0.53273   0.55110
 Alpha virt. eigenvalues --    0.55253   0.57155   0.58549   0.60532   0.60885
 Alpha virt. eigenvalues --    0.61378   0.65352   0.65813   0.68027   0.68064
 Alpha virt. eigenvalues --    0.71433   0.71821   0.73650   0.73948   0.74225
 Alpha virt. eigenvalues --    0.74711   0.75560   0.77060   0.77559   0.77651
 Alpha virt. eigenvalues --    0.80042   0.80364   0.81113   0.81685   0.81838
 Alpha virt. eigenvalues --    0.84706   0.85570   0.87440   0.89017   0.89228
 Alpha virt. eigenvalues --    0.90790   0.93108   1.03930   1.07568   1.12458
 Alpha virt. eigenvalues --    1.19434   1.20079   1.21318   1.21874   1.22502
 Alpha virt. eigenvalues --    1.23006   1.25374   1.25842   1.33733   1.34357
 Alpha virt. eigenvalues --    1.36554   1.38334   1.41011   1.44873   1.46083
 Alpha virt. eigenvalues --    1.51922   1.56025   1.56600   1.56950   1.56966
 Alpha virt. eigenvalues --    1.60714   1.61250   1.67101   1.69896   1.70219
 Alpha virt. eigenvalues --    1.77608   1.79703   1.81859   1.84580   1.84826
 Alpha virt. eigenvalues --    1.88895   1.89434   1.90797   1.93598   1.94600
 Alpha virt. eigenvalues --    1.95855   1.96860   1.98030   2.13505   2.15529
 Alpha virt. eigenvalues --    2.18565   2.19870   2.21089   2.21092   2.23546
 Alpha virt. eigenvalues --    2.23623   2.32985   2.34211   2.34583   2.35482
 Alpha virt. eigenvalues --    2.38739   2.40008   2.44280   2.53295   2.53385
 Alpha virt. eigenvalues --    2.53970   2.61093   2.71280   2.74263   2.74317
 Alpha virt. eigenvalues --    2.74453   2.74706   2.75419   2.77616   2.78416
 Alpha virt. eigenvalues --    2.80478   2.81631   2.81895   2.82768   2.83766
 Alpha virt. eigenvalues --    2.84000   2.87996   2.88009   2.88538   2.92894
 Alpha virt. eigenvalues --    2.93323   2.93736   2.94561   2.95934   2.96055
 Alpha virt. eigenvalues --    2.99268   2.99540   3.04429   3.07678   3.08804
 Alpha virt. eigenvalues --    3.09397   3.16710   3.20973   3.21451   3.24002
 Alpha virt. eigenvalues --    3.25325   3.29609   3.30791   3.37259   3.37736
 Alpha virt. eigenvalues --    3.40035   3.41588   3.48406   3.51892   3.52331
 Alpha virt. eigenvalues --    3.54326   3.56335   3.58418   3.60222   3.61150
 Alpha virt. eigenvalues --    3.61427   3.62818   3.65244   3.69387   3.74099
 Alpha virt. eigenvalues --    3.74541   3.75193   3.75983   3.80232   3.81834
 Alpha virt. eigenvalues --    3.82393   3.85773   3.88534   3.91107   3.97036
 Alpha virt. eigenvalues --    4.01245   4.04579   4.17190   4.23872   4.38175
 Alpha virt. eigenvalues --    4.39465   4.42170   4.43248   4.44715   4.45206
 Alpha virt. eigenvalues --    4.48963   4.51874   4.52055   4.53520   4.56017
 Alpha virt. eigenvalues --    4.56270   4.57660   4.58122   4.59763   4.61202
 Alpha virt. eigenvalues --    4.64277   4.64349   4.65498   4.66172   4.66730
 Alpha virt. eigenvalues --    4.67924   4.69737   4.69738   4.76535   4.77284
 Alpha virt. eigenvalues --    4.77301   4.77631   4.80041   4.82211   4.84235
 Alpha virt. eigenvalues --    4.84653   4.88440   4.91006   4.91737   4.93719
 Alpha virt. eigenvalues --    4.96013   4.98898   4.99021   5.08196   5.16416
 Alpha virt. eigenvalues --    5.21053   5.24012   5.35016   5.41731   5.47381
 Alpha virt. eigenvalues --    5.47704   5.54554   5.57203   5.65885   6.15561
 Alpha virt. eigenvalues --   11.09639  11.34962  11.65841  11.91139  12.12184
 Alpha virt. eigenvalues --   12.28436  12.49127
          Condensed to atoms (all electrons):
               1          2          3          4          5          6
     1  C    4.955113   0.403775  -0.036261   0.002344  -0.000170   0.000001
     2  C    0.403775   4.774210   0.429474  -0.033142   0.002250  -0.000158
     3  C   -0.036261   0.429474   4.775321   0.427787  -0.034148   0.002250
     4  C    0.002344  -0.033142   0.427787   4.791244   0.427790  -0.033142
     5  C   -0.000170   0.002250  -0.034148   0.427790   4.775316   0.429474
     6  C    0.000001  -0.000158   0.002250  -0.033142   0.429474   4.774215
     7  C   -0.000000   0.000001  -0.000170   0.002344  -0.036261   0.403773
     8  H    0.370169  -0.021857   0.003445  -0.000173   0.000001  -0.000000
     9  H    0.379043  -0.029112  -0.004539   0.000186   0.000005   0.000000
    10  H    0.379044  -0.029113  -0.004539   0.000186   0.000005   0.000000
    11  H   -0.036227   0.370576  -0.033101  -0.002449   0.000167   0.000007
    12  H   -0.036228   0.370577  -0.033100  -0.002449   0.000167   0.000007
    13  H   -0.002641  -0.035730   0.365215  -0.032312  -0.002773   0.000142
    14  H   -0.002641  -0.035729   0.365215  -0.032312  -0.002772   0.000142
    15  H    0.000109  -0.003109  -0.032241   0.363494  -0.032241  -0.003109
    16  H    0.000109  -0.003110  -0.032241   0.363493  -0.032241  -0.003110
    17  H    0.000007   0.000142  -0.002773  -0.032312   0.365215  -0.035730
    18  H    0.000007   0.000142  -0.002773  -0.032312   0.365215  -0.035729
    19  H    0.000000   0.000007   0.000167  -0.002449  -0.033100   0.370575
    20  H    0.000000   0.000007   0.000167  -0.002449  -0.033100   0.370577
    21  H    0.000000   0.000000   0.000005   0.000186  -0.004539  -0.029113
    22  H    0.000000  -0.000000   0.000001  -0.000173   0.003445  -0.021857
    23  H    0.000000   0.000000   0.000005   0.000186  -0.004539  -0.029113
               7          8          9         10         11         12
     1  C   -0.000000   0.370169   0.379043   0.379044  -0.036227  -0.036228
     2  C    0.000001  -0.021857  -0.029112  -0.029113   0.370576   0.370577
     3  C   -0.000170   0.003445  -0.004539  -0.004539  -0.033101  -0.033100
     4  C    0.002344  -0.000173   0.000186   0.000186  -0.002449  -0.002449
     5  C   -0.036261   0.000001   0.000005   0.000005   0.000167   0.000167
     6  C    0.403773  -0.000000   0.000000   0.000000   0.000007   0.000007
     7  C    4.955116   0.000000   0.000000   0.000000   0.000000   0.000000
     8  H    0.000000   0.612980  -0.032145  -0.032146  -0.002411  -0.002411
     9  H    0.000000  -0.032145   0.603736  -0.033603  -0.004510   0.005747
    10  H    0.000000  -0.032146  -0.033603   0.603734   0.005747  -0.004510
    11  H    0.000000  -0.002411  -0.004510   0.005747   0.647400  -0.041775
    12  H    0.000000  -0.002411   0.005747  -0.004510  -0.041775   0.647399
    13  H    0.000007  -0.000050  -0.000408   0.005081   0.006272  -0.005598
    14  H    0.000007  -0.000050   0.005081  -0.000408  -0.005598   0.006272
    15  H    0.000109   0.000004   0.000005   0.000010   0.005047  -0.000461
    16  H    0.000109   0.000004   0.000010   0.000005  -0.000461   0.005047
    17  H   -0.002641   0.000000   0.000001  -0.000002   0.000008   0.000005
    18  H   -0.002641   0.000000  -0.000002   0.000001   0.000005   0.000008
    19  H   -0.036228   0.000000   0.000000  -0.000000  -0.000002   0.000001
    20  H   -0.036228   0.000000  -0.000000   0.000000   0.000001  -0.000002
    21  H    0.379045   0.000000  -0.000000  -0.000000   0.000000  -0.000000
    22  H    0.370168  -0.000000   0.000000   0.000000   0.000000   0.000000
    23  H    0.379043   0.000000  -0.000000  -0.000000  -0.000000   0.000000
              13         14         15         16         17         18
     1  C   -0.002641  -0.002641   0.000109   0.000109   0.000007   0.000007
     2  C   -0.035730  -0.035729  -0.003109  -0.003110   0.000142   0.000142
     3  C    0.365215   0.365215  -0.032241  -0.032241  -0.002773  -0.002773
     4  C   -0.032312  -0.032312   0.363494   0.363493  -0.032312  -0.032312
     5  C   -0.002773  -0.002772  -0.032241  -0.032241   0.365215   0.365215
     6  C    0.000142   0.000142  -0.003109  -0.003110  -0.035730  -0.035729
     7  C    0.000007   0.000007   0.000109   0.000109  -0.002641  -0.002641
     8  H   -0.000050  -0.000050   0.000004   0.000004   0.000000   0.000000
     9  H   -0.000408   0.005081   0.000005   0.000010   0.000001  -0.000002
    10  H    0.005081  -0.000408   0.000010   0.000005  -0.000002   0.000001
    11  H    0.006272  -0.005598   0.005047  -0.000461   0.000008   0.000005
    12  H   -0.005598   0.006272  -0.000461   0.005047   0.000005   0.000008
    13  H    0.651332  -0.043001   0.006264  -0.005504   0.005149  -0.000454
    14  H   -0.043001   0.651331  -0.005504   0.006264  -0.000454   0.005149
    15  H    0.006264  -0.005504   0.649924  -0.043009   0.006264  -0.005504
    16  H   -0.005504   0.006264  -0.043009   0.649926  -0.005504   0.006264
    17  H    0.005149  -0.000454   0.006264  -0.005504   0.651333  -0.043001
    18  H   -0.000454   0.005149  -0.005504   0.006264  -0.043001   0.651332
    19  H    0.000008   0.000005   0.005047  -0.000461   0.006272  -0.005598
    20  H    0.000005   0.000008  -0.000461   0.005047  -0.005598   0.006272
    21  H    0.000001  -0.000002   0.000005   0.000010  -0.000408   0.005081
    22  H    0.000000   0.000000   0.000004   0.000004  -0.000050  -0.000050
    23  H   -0.000002   0.000001   0.000010   0.000005   0.005081  -0.000408
              19         20         21         22         23
     1  C    0.000000   0.000000   0.000000   0.000000   0.000000
     2  C    0.000007   0.000007   0.000000  -0.000000   0.000000
     3  C    0.000167   0.000167   0.000005   0.000001   0.000005
     4  C   -0.002449  -0.002449   0.000186  -0.000173   0.000186
     5  C   -0.033100  -0.033100  -0.004539   0.003445  -0.004539
     6  C    0.370575   0.370577  -0.029113  -0.021857  -0.029113
     7  C   -0.036228  -0.036228   0.379045   0.370168   0.379043
     8  H    0.000000   0.000000   0.000000  -0.000000   0.000000
     9  H    0.000000  -0.000000  -0.000000   0.000000  -0.000000
    10  H   -0.000000   0.000000  -0.000000   0.000000  -0.000000
    11  H   -0.000002   0.000001   0.000000   0.000000  -0.000000
    12  H    0.000001  -0.000002  -0.000000   0.000000   0.000000
    13  H    0.000008   0.000005   0.000001   0.000000  -0.000002
    14  H    0.000005   0.000008  -0.000002   0.000000   0.000001
    15  H    0.005047  -0.000461   0.000005   0.000004   0.000010
    16  H   -0.000461   0.005047   0.000010   0.000004   0.000005
    17  H    0.006272  -0.005598  -0.000408  -0.000050   0.005081
    18  H   -0.005598   0.006272   0.005081  -0.000050  -0.000408
    19  H    0.647402  -0.041775  -0.004510  -0.002411   0.005747
    20  H   -0.041775   0.647398   0.005747  -0.002411  -0.004510
    21  H   -0.004510   0.005747   0.603732  -0.032145  -0.033603
    22  H   -0.002411  -0.002411  -0.032145   0.612981  -0.032145
    23  H    0.005747  -0.004510  -0.033603  -0.032145   0.603736
 Mulliken charges:
               1
     1  C   -0.375554
     2  C   -0.160102
     3  C   -0.153168
     4  C   -0.173566
     5  C   -0.153165
     6  C   -0.160103
     7  C   -0.375554
     8  H    0.104639
     9  H    0.110508
    10  H    0.110509
    11  H    0.091305
    12  H    0.091305
    13  H    0.088996
    14  H    0.088997
    15  H    0.089347
    16  H    0.089346
    17  H    0.088997
    18  H    0.088997
    19  H    0.091304
    20  H    0.091306
    21  H    0.110510
    22  H    0.104638
    23  H    0.110508
 Sum of Mulliken charges =  -0.00000
 Mulliken charges with hydrogens summed into heavy atoms:
               1
     1  C   -0.049898
     2  C    0.022508
     3  C    0.024826
     4  C    0.005127
     5  C    0.024829
     6  C    0.022506
     7  C   -0.049898
 Electronic spatial extent (au):  <R**2>=           1654.2813
 Charge=             -0.0000 electrons
 Dipole moment (field-independent basis, Debye):
    X=             -0.0000    Y=              0.0757    Z=              0.0000  Tot=              0.0757
 Quadrupole moment (field-independent basis, Debye-Ang):
   XX=            -50.2031   YY=            -48.3478   ZZ=            -46.7976
   XY=              0.0000   XZ=              0.0000   YZ=             -0.0000
 Traceless Quadrupole moment (field-independent basis, Debye-Ang):
   XX=             -1.7536   YY=              0.1017   ZZ=              1.6519
   XY=              0.0000   XZ=              0.0000   YZ=             -0.0000
 Octapole moment (field-independent basis, Debye-Ang**2):
  XXX=             -0.0004  YYY=              0.1281  ZZZ=              0.0000  XYY=             -0.0001
  XXY=              4.1667  XXZ=             -0.0000  XZZ=              0.0000  YZZ=             -0.4410
  YYZ=             -0.0000  XYZ=             -0.0001
 Hexadecapole moment (field-independent basis, Debye-Ang**3):
 XXXX=          -2091.6704 YYYY=           -170.1078 ZZZZ=            -97.2846 XXXY=              0.0004
 XXXZ=              0.0006 YYYX=              0.0000 YYYZ=             -0.0001 ZZZX=              0.0000
 ZZZY=             -0.0001 XXYY=           -367.5781 XXZZ=           -350.3444 YYZZ=            -40.3002
 XXYZ=             -0.0004 YYXZ=              0.0001 ZZXY=             -0.0000
 N-N= 3.097275769741D+02 E-N=-1.257672576747D+03  KE= 2.739751636212D+02
 PrsmSu:  requested number of processors reduced to:  13 ShMem   1 Linda.
 Calling FoFJK, ICntrl=      2127 FMM=F ISym2X=0 I1Cent= 0 IOpClX= 0 NMat=1 NMatS=1 NMatT=0.
 ***** Axes restored to original set *****
 -------------------------------------------------------------------
 Center     Atomic                   Forces (Hartrees/Bohr)
 Number     Number              X              Y              Z
 -------------------------------------------------------------------
      1        6          -0.003838447   -0.004264339   -0.005331571
      2        6          -0.006162499    0.003190583    0.003981422
      3        6           0.007331109   -0.006974024   -0.008705703
      4        6          -0.007696977    0.006798107    0.008493796
      5        6           0.008074556   -0.006642890   -0.008294144
      6        6          -0.002753233    0.004698565    0.005858910
      7        6           0.007719697    0.000833679    0.001051750
      8        1          -0.003429930    0.000253308    0.000316545
      9        1          -0.001433300    0.000114624    0.000231577
     10        1          -0.001434522    0.000199400    0.000165795
     11        1           0.001960329   -0.000440300   -0.000470126
     12        1           0.001961438   -0.000364350   -0.000531666
     13        1          -0.000896969    0.000433158    0.000809634
     14        1          -0.000898392    0.000698493    0.000599304
     15        1           0.000732788   -0.000560781   -0.000879124
     16        1           0.000732263   -0.000732692   -0.000739759
     17        1          -0.000552655    0.000585581    0.001001028
     18        1          -0.000552441    0.000848768    0.000789793
     19        1          -0.000049977   -0.001329649   -0.001576193
     20        1          -0.000048649   -0.001251418   -0.001641033
     21        1           0.000238072    0.000858391    0.001154846
     22        1           0.000757857    0.002105997    0.002629642
     23        1           0.000239882    0.000941791    0.001085278
 -------------------------------------------------------------------
 Cartesian Forces:  Max     0.008705703 RMS     0.003497111

 GradGradGradGradGradGradGradGradGradGradGradGradGradGradGradGradGradGrad
 Berny optimization.
 FormGI is forming the generalized inverse of G from B-inverse, IUseBI=4.
 Internal  Forces:  Max     0.011646012 RMS     0.003256149
 Search for a local minimum.
 Step number   1 out of a maximum of  128
 All quantities printed in internal units (Hartrees-Bohrs-Radians)
 Mixed Optimization -- RFO/linear search
 Second derivative matrix not updated -- first step.
 ITU=  0
     Eigenvalues ---    0.00409   0.00409   0.00416   0.00416   0.00512
     Eigenvalues ---    0.00512   0.03728   0.03728   0.03765   0.03790
     Eigenvalues ---    0.03790   0.04915   0.04915   0.04923   0.04958
     Eigenvalues ---    0.04958   0.05644   0.05644   0.05715   0.05715
     Eigenvalues ---    0.08022   0.08087   0.08087   0.08092   0.08092
     Eigenvalues ---    0.11964   0.12005   0.12005   0.12017   0.12017
     Eigenvalues ---    0.16000   0.16000   0.16000   0.16000   0.16000
     Eigenvalues ---    0.16000   0.21887   0.21893   0.21893   0.21895
     Eigenvalues ---    0.21895   0.29700   0.29701   0.29756   0.29756
     Eigenvalues ---    0.30443   0.30443   0.34062   0.34062   0.34062
     Eigenvalues ---    0.34063   0.34083   0.34084   0.34138   0.34139
     Eigenvalues ---    0.34139   0.34140   0.34302   0.34302   0.34303
     Eigenvalues ---    0.34303   0.34321   0.34322
 RFO step:  Lambda=-6.05039314D-03 EMin= 4.08539392D-03
 Linear search not attempted -- first point.
 Iteration  1 RMS(Cart)=  0.06136605 RMS(Int)=  0.00031355
 Iteration  2 RMS(Cart)=  0.00061674 RMS(Int)=  0.00014710
 Iteration  3 RMS(Cart)=  0.00000022 RMS(Int)=  0.00014710
 Variable       Old X    -DE/DX   Delta X   Delta X   Delta X     New X
                                 (Linear)    (Quad)   (Total)
    R1        2.87088   0.01018   0.00000   0.03279   0.03279   2.90368
    R2        2.06790   0.00078   0.00000   0.00224   0.00224   2.07014
    R3        2.06823   0.00059   0.00000   0.00168   0.00168   2.06992
    R4        2.06822   0.00059   0.00000   0.00169   0.00169   2.06992
    R5        2.88452   0.00630   0.00000   0.02074   0.02074   2.90526
    R6        2.07096   0.00093   0.00000   0.00268   0.00268   2.07364
    R7        2.07095   0.00093   0.00000   0.00269   0.00269   2.07364
    R8        2.88565   0.00696   0.00000   0.02298   0.02298   2.90863
    R9        2.07226   0.00088   0.00000   0.00254   0.00254   2.07480
   R10        2.07225   0.00088   0.00000   0.00255   0.00255   2.07479
   R11        2.88563   0.00697   0.00000   0.02299   0.02299   2.90862
   R12        2.07189   0.00084   0.00000   0.00243   0.00243   2.07432
   R13        2.07190   0.00084   0.00000   0.00242   0.00242   2.07432
   R14        2.88452   0.00630   0.00000   0.02074   0.02074   2.90526
   R15        2.07225   0.00088   0.00000   0.00254   0.00254   2.07480
   R16        2.07225   0.00088   0.00000   0.00254   0.00254   2.07480
   R17        2.87089   0.01018   0.00000   0.03279   0.03279   2.90368
   R18        2.07097   0.00093   0.00000   0.00267   0.00267   2.07364
   R19        2.07096   0.00093   0.00000   0.00268   0.00268   2.07364
   R20        2.06822   0.00059   0.00000   0.00170   0.00170   2.06992
   R21        2.06791   0.00078   0.00000   0.00223   0.00223   2.07014
   R22        2.06824   0.00059   0.00000   0.00168   0.00168   2.06992
    A1        1.92479   0.00448   0.00000   0.02973   0.02959   1.95437
    A2        1.93512   0.00072   0.00000   0.00298   0.00292   1.93804
    A3        1.93512   0.00072   0.00000   0.00298   0.00291   1.93804
    A4        1.88865  -0.00237   0.00000  -0.01166  -0.01180   1.87685
    A5        1.88865  -0.00237   0.00000  -0.01167  -0.01180   1.87685
    A6        1.89006  -0.00143   0.00000  -0.01381  -0.01380   1.87627
    A7        1.93625   0.00911   0.00000   0.04718   0.04703   1.98328
    A8        1.90865  -0.00184   0.00000   0.00079   0.00086   1.90952
    A9        1.90865  -0.00184   0.00000   0.00079   0.00086   1.90952
   A10        1.91824  -0.00322   0.00000  -0.01609  -0.01653   1.90171
   A11        1.91825  -0.00322   0.00000  -0.01610  -0.01653   1.90172
   A12        1.87266   0.00070   0.00000  -0.01872  -0.01904   1.85362
   A13        1.93924   0.01067   0.00000   0.05379   0.05365   1.99289
   A14        1.91386  -0.00318   0.00000  -0.01160  -0.01182   1.90204
   A15        1.91386  -0.00318   0.00000  -0.01161  -0.01182   1.90204
   A16        1.91288  -0.00293   0.00000  -0.00871  -0.00883   1.90405
   A17        1.91288  -0.00293   0.00000  -0.00871  -0.00883   1.90405
   A18        1.86981   0.00118   0.00000  -0.01584  -0.01613   1.85369
   A19        1.93221   0.01165   0.00000   0.05874   0.05857   1.99078
   A20        1.91472  -0.00334   0.00000  -0.01110  -0.01129   1.90343
   A21        1.91472  -0.00334   0.00000  -0.01109  -0.01129   1.90343
   A22        1.91472  -0.00334   0.00000  -0.01109  -0.01129   1.90343
   A23        1.91472  -0.00334   0.00000  -0.01109  -0.01129   1.90343
   A24        1.87177   0.00131   0.00000  -0.01698  -0.01731   1.85446
   A25        1.93924   0.01067   0.00000   0.05379   0.05365   1.99290
   A26        1.91288  -0.00293   0.00000  -0.00871  -0.00883   1.90405
   A27        1.91289  -0.00293   0.00000  -0.00871  -0.00883   1.90405
   A28        1.91386  -0.00318   0.00000  -0.01160  -0.01182   1.90204
   A29        1.91386  -0.00318   0.00000  -0.01161  -0.01182   1.90204
   A30        1.86981   0.00118   0.00000  -0.01585  -0.01613   1.85368
   A31        1.93624   0.00911   0.00000   0.04718   0.04703   1.98328
   A32        1.91825  -0.00322   0.00000  -0.01610  -0.01653   1.90171
   A33        1.91826  -0.00322   0.00000  -0.01610  -0.01654   1.90172
   A34        1.90864  -0.00184   0.00000   0.00080   0.00087   1.90952
   A35        1.90865  -0.00184   0.00000   0.00079   0.00086   1.90952
   A36        1.87266   0.00070   0.00000  -0.01872  -0.01904   1.85362
   A37        1.93513   0.00072   0.00000   0.00298   0.00291   1.93804
   A38        1.92479   0.00448   0.00000   0.02973   0.02959   1.95437
   A39        1.93511   0.00073   0.00000   0.00299   0.00292   1.93804
   A40        1.88865  -0.00237   0.00000  -0.01167  -0.01180   1.87685
   A41        1.89008  -0.00143   0.00000  -0.01382  -0.01381   1.87627
   A42        1.88864  -0.00237   0.00000  -0.01166  -0.01179   1.87685
    D1       -3.14159   0.00000   0.00000   0.00000   0.00000  -3.14159
    D2        1.02295  -0.00063   0.00000  -0.01084  -0.01097   1.01199
    D3       -1.02294   0.00063   0.00000   0.01084   0.01096  -1.01198
    D4        1.05006  -0.00042   0.00000  -0.00672  -0.00676   1.04331
    D5       -1.06858  -0.00105   0.00000  -0.01756  -0.01772  -1.08630
    D6       -3.11448   0.00021   0.00000   0.00412   0.00421  -3.11027
    D7       -1.05005   0.00042   0.00000   0.00672   0.00676  -1.04330
    D8        3.11449  -0.00021   0.00000  -0.00412  -0.00421   3.11028
    D9        1.06860   0.00105   0.00000   0.01755   0.01772   1.08631
   D10       -3.14159  -0.00000   0.00000  -0.00000  -0.00000   3.14159
   D11        1.02425  -0.00115   0.00000  -0.01643  -0.01637   1.00788
   D12       -1.02425   0.00115   0.00000   0.01643   0.01637  -1.00788
   D13       -1.02859   0.00151   0.00000   0.02111   0.02093  -1.00766
   D14        3.13725   0.00035   0.00000   0.00469   0.00456  -3.14138
   D15        1.08875   0.00266   0.00000   0.03754   0.03730   1.12605
   D16        1.02859  -0.00151   0.00000  -0.02111  -0.02093   1.00766
   D17       -1.08875  -0.00266   0.00000  -0.03754  -0.03730  -1.12605
   D18       -3.13726  -0.00035   0.00000  -0.00468  -0.00455   3.14138
   D19       -3.14159  -0.00000   0.00000  -0.00000  -0.00000  -3.14159
   D20        1.02595  -0.00117   0.00000  -0.01688  -0.01685   1.00910
   D21       -1.02595   0.00117   0.00000   0.01688   0.01685  -1.00910
   D22       -1.02368   0.00100   0.00000   0.01469   0.01470  -1.00898
   D23       -3.13932  -0.00017   0.00000  -0.00218  -0.00215  -3.14147
   D24        1.09196   0.00218   0.00000   0.03157   0.03155   1.12351
   D25        1.02368  -0.00100   0.00000  -0.01469  -0.01470   1.00898
   D26       -1.09196  -0.00218   0.00000  -0.03157  -0.03155  -1.12351
   D27        3.13932   0.00017   0.00000   0.00218   0.00215   3.14147
   D28        3.14159   0.00000   0.00000   0.00001   0.00001   3.14159
   D29        1.02368  -0.00100   0.00000  -0.01469  -0.01470   1.00898
   D30       -1.02368   0.00100   0.00000   0.01469   0.01470  -1.00898
   D31       -1.02595   0.00117   0.00000   0.01688   0.01685  -1.00910
   D32        3.13933   0.00017   0.00000   0.00218   0.00215   3.14147
   D33        1.09196   0.00218   0.00000   0.03157   0.03155   1.12351
   D34        1.02595  -0.00117   0.00000  -0.01687  -0.01685   1.00910
   D35       -1.09196  -0.00218   0.00000  -0.03157  -0.03155  -1.12351
   D36       -3.13932  -0.00017   0.00000  -0.00218  -0.00215  -3.14147
   D37        3.14159   0.00000   0.00000   0.00000   0.00000   3.14159
   D38        1.02860  -0.00151   0.00000  -0.02112  -0.02094   1.00766
   D39       -1.02859   0.00151   0.00000   0.02111   0.02093  -1.00766
   D40       -1.02426   0.00115   0.00000   0.01643   0.01638  -1.00788
   D41       -3.13725  -0.00035   0.00000  -0.00469  -0.00456   3.14137
   D42        1.08874   0.00266   0.00000   0.03754   0.03731   1.12605
   D43        1.02424  -0.00115   0.00000  -0.01642  -0.01637   1.00787
   D44       -1.08875  -0.00266   0.00000  -0.03754  -0.03731  -1.12606
   D45        3.13724   0.00035   0.00000   0.00469   0.00456  -3.14138
   D46       -1.05005   0.00042   0.00000   0.00671   0.00675  -1.04330
   D47        3.14159   0.00000   0.00000  -0.00000  -0.00000   3.14159
   D48        1.05007  -0.00042   0.00000  -0.00673  -0.00677   1.04331
   D49        1.06859   0.00105   0.00000   0.01756   0.01772   1.08631
   D50       -1.02295   0.00063   0.00000   0.01084   0.01097  -1.01199
   D51       -3.11447   0.00021   0.00000   0.00411   0.00420  -3.11027
   D52        3.11448  -0.00021   0.00000  -0.00412  -0.00421   3.11027
   D53        1.02294  -0.00063   0.00000  -0.01083  -0.01096   1.01198
   D54       -1.06858  -0.00105   0.00000  -0.01756  -0.01772  -1.08631
         Item               Value     Threshold  Converged?
 Maximum Force            0.011646     0.000450     NO 
 RMS     Force            0.003256     0.000300     NO 
 Maximum Displacement     0.175211     0.001800     NO 
 RMS     Displacement     0.060827     0.001200     NO 
 Predicted change in Energy=-3.146342D-03
 GradGradGradGradGradGradGradGradGradGradGradGradGradGradGradGradGradGrad

                          Input orientation:                          
 ---------------------------------------------------------------------
 Center     Atomic      Atomic             Coordinates (Angstroms)
 Number     Number       Type             X           Y           Z
 ---------------------------------------------------------------------
      1          6           0        0.954526   -0.086626   -0.138127
      2          6           0        2.490373   -0.057380   -0.101602
      3          6           0        3.063514    0.834252    1.011996
      4          6           0        4.601458    0.872794    1.060132
      5          6           0        5.172239    1.766212    2.175964
      6          6           0        6.708271    1.806742    2.226582
      7          6           0        7.264329    2.702029    3.344741
      8          1           0        0.575680   -0.729070   -0.940499
      9          1           0        0.545760    0.916932   -0.298071
     10          1           0        0.545761   -0.462176    0.806157
     11          1           0        2.871530    0.291776   -1.069552
     12          1           0        2.871533   -1.078258    0.027398
     13          1           0        2.682503    0.485023    1.980670
     14          1           0        2.682501    1.855853    0.883079
     15          1           0        4.981738    1.222118    0.091491
     16          1           0        4.981738   -0.148797    1.189148
     17          1           0        4.792122    1.417376    3.145131
     18          1           0        4.792121    2.788209    2.047544
     19          1           0        7.087853    2.155198    1.257762
     20          1           0        7.087855    0.785168    2.354716
     21          1           0        6.926925    3.737125    3.224190
     22          1           0        8.359705    2.711125    3.356105
     23          1           0        6.926928    2.358012    4.328414
 ---------------------------------------------------------------------
                    Distance matrix (angstroms):
                    1          2          3          4          5
     1  C    0.000000
     2  C    1.536560   0.000000
     3  C    2.572670   1.537400   0.000000
     4  C    3.956820   2.582930   1.539180   0.000000
     5  C    5.155301   3.962978   2.582652   1.539178   0.000000
     6  C    6.502482   5.165854   3.962980   2.582930   1.537400
     7  C    7.727909   6.502482   5.155302   3.956820   2.572671
     8  H    1.095473   2.195670   3.527822   4.772356   6.088278
     9  H    1.095354   2.183897   2.839400   4.277306   5.314737
    10  H    1.095353   2.183897   2.839397   4.277304   5.314733
    11  H    2.164635   1.097322   2.159625   2.804600   4.242711
    12  H    2.164636   1.097322   2.159626   2.804600   4.242710
    13  H    2.793204   2.160318   1.097935   2.163364   2.806843
    14  H    2.793203   2.160317   1.097934   2.163365   2.806846
    15  H    4.240751   2.807365   2.162719   1.097682   2.162720
    16  H    4.240751   2.807364   2.162719   1.097682   2.162719
    17  H    5.269625   4.244317   2.806846   2.163365   1.097935
    18  H    5.269627   4.244319   2.806847   2.163365   1.097934
    19  H    6.677722   5.280169   4.242712   2.804599   2.159625
    20  H    6.677725   5.280172   4.242714   2.804603   2.159626
    21  H    7.848299   6.718791   5.314736   4.277305   2.839401
    22  H    8.652962   7.353191   6.088279   4.772356   3.527823
    23  H    7.848301   6.718793   5.314738   4.277307   2.839402
                    6          7          8          9         10
     6  C    0.000000
     7  C    1.536561   0.000000
     8  H    7.353191   8.652962   0.000000
     9  H    6.718792   7.848300   1.767182   0.000000
    10  H    6.718789   7.848297   1.767183   1.766708   0.000000
    11  H    5.280170   6.677723   2.515891   2.528876   3.081547
    12  H    5.280169   6.677723   2.515889   3.081547   2.528881
    13  H    4.244316   5.269624   3.800784   3.153550   2.615786
    14  H    4.244318   5.269625   3.800784   2.615788   3.153543
    15  H    2.807368   4.240755   4.928030   4.463496   4.798488
    16  H    2.807368   4.240756   4.928029   4.798490   4.463495
    17  H    2.160316   2.793204   6.251239   5.489779   5.199529
    18  H    2.160316   2.793199   6.251242   5.199535   5.489774
    19  H    1.097323   2.164637   7.453841   6.837609   7.060705
    20  H    1.097322   2.164636   7.453843   7.060711   6.837609
    21  H    2.183898   1.095353   8.810780   7.815310   8.012507
    22  H    2.195670   1.095473   9.533457   8.810781   8.810778
    23  H    2.183897   1.095354   8.810782   8.012514   7.815309
                   11         12         13         14         15
    11  H    0.000000
    12  H    1.755076   0.000000
    13  H    3.062177   2.508954   0.000000
    14  H    2.508951   3.062177   1.756099   0.000000
    15  H    2.581963   3.122307   3.065745   2.512911   0.000000
    16  H    3.122308   2.581962   2.512910   3.065745   1.756206
    17  H    4.766466   4.431378   2.583746   3.124043   3.065747
    18  H    4.431380   4.766467   3.124040   2.583750   2.512914
    19  H    5.163923   5.454024   4.766465   4.431379   2.581966
    20  H    5.454029   5.163926   4.431379   4.766469   3.122314
    21  H    6.837607   7.060707   5.489775   5.199531   4.463498
    22  H    7.453841   7.453841   6.251238   6.251239   4.928033
    23  H    7.060709   6.837610   5.199532   5.489778   4.798494
                   16         17         18         19         20
    16  H    0.000000
    17  H    2.512911   0.000000
    18  H    3.065746   1.756098   0.000000
    19  H    3.122310   3.062177   2.508953   0.000000
    20  H    2.581969   2.508951   3.062176   1.755076   0.000000
    21  H    4.798493   3.153549   2.615784   2.528879   3.081547
    22  H    4.928033   3.800783   3.800780   2.515891   2.515889
    23  H    4.463501   2.615789   3.153544   3.081548   2.528878
                   21         22         23
    21  H    0.000000
    22  H    1.767183   0.000000
    23  H    1.766710   1.767180   0.000000
 Stoichiometry    C7H16
 Framework group  C1[X(C7H16)]
 Deg. of freedom    63
 Full point group                 C1      NOp   1
 Largest Abelian subgroup         C1      NOp   1
 Largest concise Abelian subgroup C1      NOp   1
                         Standard orientation:                         
 ---------------------------------------------------------------------
 Center     Atomic      Atomic             Coordinates (Angstroms)
 Number     Number       Type             X           Y           Z
 ---------------------------------------------------------------------
      1          6           0       -3.863954   -0.355180   -0.000001
      2          6           0       -2.582927    0.493340    0.000000
      3          6           0       -1.291327   -0.340547    0.000000
      4          6           0       -0.000000    0.497039    0.000001
      5          6           0        1.291326   -0.340545   -0.000001
      6          6           0        2.582927    0.493340   -0.000001
      7          6           0        3.863955   -0.355181    0.000002
      8          1           0       -4.766728    0.265351   -0.000003
      9          1           0       -3.907656   -1.001378    0.883356
     10          1           0       -3.907652   -1.001384   -0.883352
     11          1           0       -2.581962    1.152157    0.877540
     12          1           0       -2.581962    1.152160   -0.877536
     13          1           0       -1.291872   -0.999704   -0.878049
     14          1           0       -1.291874   -0.999705    0.878049
     15          1           0       -0.000002    1.155704    0.878104
     16          1           0       -0.000002    1.155705   -0.878102
     17          1           0        1.291874   -0.999702   -0.878052
     18          1           0        1.291876   -0.999705    0.878046
     19          1           0        2.581961    1.152160    0.877537
     20          1           0        2.581964    1.152158   -0.877539
     21          1           0        3.907654   -1.001380    0.883356
     22          1           0        4.766728    0.265351   -0.000000
     23          1           0        3.907657   -1.001380   -0.883354
 ---------------------------------------------------------------------
 Rotational constants (GHZ):          12.0953324           0.7114693           0.6920253
 Standard basis: 6-31G(2df,p) (6D, 7F)
 There are   297 symmetry adapted cartesian basis functions of A   symmetry.
 There are   276 symmetry adapted basis functions of A   symmetry.
   276 basis functions,   420 primitive gaussians,   297 cartesian basis functions
    29 alpha electrons       29 beta electrons
       nuclear repulsion energy       305.5175591394 Hartrees.
 NAtoms=   23 NActive=   23 NUniq=   23 SFac= 1.00D+00 NAtFMM=   60 NAOKFM=F Big=F
 Integral buffers will be    131072 words long.
 Raffenetti 2 integral format.
 Two-electron integral symmetry is turned on.
 One-electron integrals computed using PRISM.
 PrsmSu:  requested number of processors reduced to:  13 ShMem   1 Linda.
 NBasis=   276 RedAO= T EigKep=  6.16D-04  NBF=   276
 NBsUse=   276 1.00D-06 EigRej= -1.00D+00 NBFU=   276
 Initial guess from the checkpoint file:  "CCCCCCC.chk"
 B after Tr=    -0.000000    0.000000    0.000000
         Rot=    1.000000    0.000000    0.000000   -0.000000 Ang=   0.00 deg.
 ExpMin= 1.61D-01 ExpMax= 3.05D+03 ExpMxC= 4.57D+02 IAcc=2 IRadAn=         4 AccDes= 0.00D+00
 Harris functional with IExCor=  402 and IRadAn=       4 diagonalized for initial guess.
 HarFok:  IExCor=  402 AccDes= 0.00D+00 IRadAn=         4 IDoV= 1 UseB2=F ITyADJ=14
 ICtDFT=  3500011 ScaDFX=  1.000000  1.000000  1.000000  1.000000
 FoFCou: FMM=F IPFlag=           0 FMFlag=      100000 FMFlg1=           0
         NFxFlg=           0 DoJE=T BraDBF=F KetDBF=T FulRan=T
         wScrn=  0.000000 ICntrl=       500 IOpCl=  0 I1Cent=   200000004 NGrid=           0
         NMat0=    1 NMatS0=      1 NMatT0=    0 NMatD0=    1 NMtDS0=    0 NMtDT0=    0
 Petite list used in FoFCou.
 Requested convergence on RMS density matrix=1.00D-08 within 128 cycles.
 Requested convergence on MAX density matrix=1.00D-06.
 Requested convergence on             energy=1.00D-06.
 No special actions if energy rises.
 Integral accuracy reduced to 1.0D-05 until final iterations.
 Initial convergence to 1.0D-05 achieved.  Increase integral accuracy.
 SCF Done:  E(RB3LYP) =  -276.423021040     A.U. after    9 cycles
            NFock=  9  Conv=0.67D-08     -V/T= 2.0097
 PrsmSu:  requested number of processors reduced to:  13 ShMem   1 Linda.
 Calling FoFJK, ICntrl=      2127 FMM=F ISym2X=0 I1Cent= 0 IOpClX= 0 NMat=1 NMatS=1 NMatT=0.
 ***** Axes restored to original set *****
 -------------------------------------------------------------------
 Center     Atomic                   Forces (Hartrees/Bohr)
 Number     Number              X              Y              Z
 -------------------------------------------------------------------
      1        6           0.002298005    0.000696556    0.000869391
      2        6           0.000123047    0.000600786    0.000749884
      3        6           0.001123076   -0.000034345   -0.000042418
      4        6          -0.000775657    0.000684710    0.000855406
      5        6          -0.000322406   -0.000672760   -0.000839808
      6        6          -0.000946370    0.000128400    0.000159077
      7        6          -0.001815888   -0.001123390   -0.001401391
      8        1           0.001271415    0.000157047    0.000196317
      9        1          -0.000166386    0.000299995    0.000118478
     10        1          -0.000166504    0.000049775    0.000318777
     11        1           0.000175795   -0.000319808   -0.000592683
     12        1           0.000175843   -0.000508556   -0.000441531
     13        1          -0.000468432    0.000323397    0.000771172
     14        1          -0.000468408    0.000682018    0.000484238
     15        1           0.000556995   -0.000244988   -0.000812481
     16        1           0.000556886   -0.000739102   -0.000416868
     17        1          -0.000602218    0.000264252    0.000697268
     18        1          -0.000602305    0.000622787    0.000410237
     19        1           0.000565878   -0.000147368   -0.000376986
     20        1           0.000566036   -0.000336268   -0.000226137
     21        1          -0.000208665    0.000281890    0.000095244
     22        1          -0.000661007   -0.000696634   -0.000870499
     23        1          -0.000208729    0.000031608    0.000295315
 -------------------------------------------------------------------
 Cartesian Forces:  Max     0.002298005 RMS     0.000668222

 GradGradGradGradGradGradGradGradGradGradGradGradGradGradGradGradGradGrad
 Berny optimization.
 Using GEDIIS/GDIIS optimizer.
 FormGI is forming the generalized inverse of G from B-inverse, IUseBI=4.
 Internal  Forces:  Max     0.004019117 RMS     0.001113048
 Search for a local minimum.
 Step number   2 out of a maximum of  128
 All quantities printed in internal units (Hartrees-Bohrs-Radians)
 Mixed Optimization -- RFO/linear search
 Update second derivatives using D2CorX and points    1    2
 DE= -2.14D-03 DEPred=-3.15D-03 R= 6.81D-01
 TightC=F SS=  1.41D+00  RLast= 2.02D-01 DXNew= 5.0454D-01 6.0729D-01
 Trust test= 6.81D-01 RLast= 2.02D-01 DXMaxT set to 5.05D-01
 ITU=  1  0
 Use linear search instead of GDIIS.
     Eigenvalues ---    0.00409   0.00409   0.00416   0.00416   0.00512
     Eigenvalues ---    0.00512   0.03423   0.03423   0.03432   0.03511
     Eigenvalues ---    0.03511   0.04814   0.04831   0.04831   0.04871
     Eigenvalues ---    0.04878   0.05503   0.05503   0.05610   0.05626
     Eigenvalues ---    0.08556   0.08558   0.08597   0.08620   0.08622
     Eigenvalues ---    0.12354   0.12354   0.12389   0.12406   0.12406
     Eigenvalues ---    0.15933   0.16000   0.16000   0.16000   0.16000
     Eigenvalues ---    0.16228   0.21915   0.21917   0.21923   0.21930
     Eigenvalues ---    0.24197   0.29701   0.29721   0.29756   0.30106
     Eigenvalues ---    0.30443   0.33474   0.34062   0.34062   0.34062
     Eigenvalues ---    0.34075   0.34084   0.34123   0.34139   0.34139
     Eigenvalues ---    0.34139   0.34262   0.34297   0.34302   0.34302
     Eigenvalues ---    0.34303   0.34322   0.36316
 RFO step:  Lambda=-8.68672003D-05 EMin= 4.08539392D-03
 Quartic linear search produced a step of -0.22018.
 Iteration  1 RMS(Cart)=  0.01438386 RMS(Int)=  0.00003405
 Iteration  2 RMS(Cart)=  0.00001817 RMS(Int)=  0.00003032
 Iteration  3 RMS(Cart)=  0.00000000 RMS(Int)=  0.00003032
 Variable       Old X    -DE/DX   Delta X   Delta X   Delta X     New X
                                 (Linear)    (Quad)   (Total)
    R1        2.90368  -0.00329  -0.00722  -0.00090  -0.00812   2.89556
    R2        2.07014  -0.00068  -0.00049  -0.00102  -0.00151   2.06863
    R3        2.06992   0.00032  -0.00037   0.00111   0.00074   2.07066
    R4        2.06992   0.00032  -0.00037   0.00112   0.00074   2.07066
    R5        2.90526  -0.00283  -0.00457  -0.00265  -0.00722   2.89805
    R6        2.07364   0.00048  -0.00059   0.00172   0.00113   2.07477
    R7        2.07364   0.00048  -0.00059   0.00172   0.00113   2.07477
    R8        2.90863  -0.00402  -0.00506  -0.00527  -0.01033   2.89830
    R9        2.07480   0.00074  -0.00056   0.00228   0.00172   2.07651
   R10        2.07479   0.00074  -0.00056   0.00228   0.00172   2.07651
   R11        2.90862  -0.00402  -0.00506  -0.00526  -0.01033   2.89830
   R12        2.07432   0.00083  -0.00054   0.00246   0.00193   2.07625
   R13        2.07432   0.00083  -0.00053   0.00246   0.00193   2.07625
   R14        2.90526  -0.00283  -0.00457  -0.00265  -0.00722   2.89805
   R15        2.07480   0.00074  -0.00056   0.00228   0.00172   2.07651
   R16        2.07480   0.00074  -0.00056   0.00228   0.00172   2.07651
   R17        2.90368  -0.00329  -0.00722  -0.00090  -0.00812   2.89556
   R18        2.07364   0.00048  -0.00059   0.00171   0.00113   2.07477
   R19        2.07364   0.00048  -0.00059   0.00172   0.00113   2.07477
   R20        2.06992   0.00032  -0.00037   0.00112   0.00074   2.07066
   R21        2.07014  -0.00068  -0.00049  -0.00102  -0.00151   2.06863
   R22        2.06992   0.00032  -0.00037   0.00111   0.00074   2.07066
    A1        1.95437  -0.00164  -0.00651  -0.00188  -0.00836   1.94601
    A2        1.93804   0.00033  -0.00064   0.00258   0.00195   1.93998
    A3        1.93804   0.00033  -0.00064   0.00258   0.00195   1.93998
    A4        1.87685   0.00061   0.00260  -0.00032   0.00231   1.87916
    A5        1.87685   0.00061   0.00260  -0.00032   0.00231   1.87916
    A6        1.87627  -0.00018   0.00304  -0.00286   0.00017   1.87644
    A7        1.98328  -0.00245  -0.01036   0.00183  -0.00849   1.97479
    A8        1.90952   0.00064  -0.00019   0.00138   0.00118   1.91069
    A9        1.90952   0.00064  -0.00019   0.00138   0.00118   1.91069
   A10        1.90171   0.00094   0.00364   0.00045   0.00418   1.90590
   A11        1.90172   0.00094   0.00364   0.00045   0.00418   1.90590
   A12        1.85362  -0.00061   0.00419  -0.00605  -0.00180   1.85182
   A13        1.99289  -0.00321  -0.01181   0.00069  -0.01109   1.98181
   A14        1.90204   0.00109   0.00260   0.00140   0.00406   1.90609
   A15        1.90204   0.00109   0.00260   0.00140   0.00406   1.90609
   A16        1.90405   0.00099   0.00194   0.00110   0.00308   1.90713
   A17        1.90405   0.00099   0.00194   0.00110   0.00308   1.90713
   A18        1.85369  -0.00081   0.00355  -0.00625  -0.00265   1.85103
   A19        1.99078  -0.00303  -0.01290   0.00249  -0.01036   1.98042
   A20        1.90343   0.00098   0.00249   0.00083   0.00336   1.90679
   A21        1.90343   0.00098   0.00249   0.00083   0.00336   1.90679
   A22        1.90343   0.00098   0.00249   0.00082   0.00336   1.90679
   A23        1.90343   0.00098   0.00249   0.00083   0.00336   1.90679
   A24        1.85446  -0.00077   0.00381  -0.00647  -0.00259   1.85187
   A25        1.99290  -0.00322  -0.01181   0.00069  -0.01109   1.98181
   A26        1.90405   0.00099   0.00194   0.00110   0.00308   1.90713
   A27        1.90405   0.00099   0.00195   0.00110   0.00308   1.90713
   A28        1.90204   0.00109   0.00260   0.00141   0.00406   1.90609
   A29        1.90204   0.00109   0.00260   0.00141   0.00406   1.90609
   A30        1.85368  -0.00081   0.00355  -0.00625  -0.00265   1.85103
   A31        1.98328  -0.00245  -0.01036   0.00183  -0.00849   1.97479
   A32        1.90171   0.00094   0.00364   0.00045   0.00418   1.90590
   A33        1.90172   0.00094   0.00364   0.00045   0.00418   1.90590
   A34        1.90952   0.00064  -0.00019   0.00138   0.00118   1.91069
   A35        1.90952   0.00064  -0.00019   0.00138   0.00118   1.91069
   A36        1.85362  -0.00061   0.00419  -0.00605  -0.00180   1.85182
   A37        1.93804   0.00033  -0.00064   0.00258   0.00195   1.93998
   A38        1.95437  -0.00164  -0.00651  -0.00188  -0.00836   1.94601
   A39        1.93804   0.00033  -0.00064   0.00258   0.00195   1.93998
   A40        1.87685   0.00061   0.00260  -0.00032   0.00231   1.87916
   A41        1.87627  -0.00018   0.00304  -0.00286   0.00017   1.87644
   A42        1.87685   0.00061   0.00260  -0.00031   0.00231   1.87916
    D1       -3.14159   0.00000  -0.00000   0.00000  -0.00000  -3.14159
    D2        1.01199  -0.00000   0.00241  -0.00286  -0.00042   1.01157
    D3       -1.01198   0.00000  -0.00241   0.00286   0.00042  -1.01156
    D4        1.04331   0.00010   0.00149  -0.00010   0.00140   1.04470
    D5       -1.08630   0.00010   0.00390  -0.00296   0.00098  -1.08533
    D6       -3.11027   0.00010  -0.00093   0.00276   0.00181  -3.10845
    D7       -1.04330  -0.00010  -0.00149   0.00010  -0.00140  -1.04470
    D8        3.11028  -0.00010   0.00093  -0.00276  -0.00182   3.10846
    D9        1.08631  -0.00010  -0.00390   0.00295  -0.00098   1.08533
   D10        3.14159   0.00000   0.00000  -0.00000   0.00000   3.14159
   D11        1.00788   0.00012   0.00361  -0.00295   0.00064   1.00852
   D12       -1.00788  -0.00012  -0.00361   0.00295  -0.00064  -1.00852
   D13       -1.00766  -0.00015  -0.00461   0.00335  -0.00122  -1.00888
   D14       -3.14138  -0.00004  -0.00100   0.00040  -0.00058   3.14123
   D15        1.12605  -0.00027  -0.00821   0.00631  -0.00187   1.12419
   D16        1.00766   0.00015   0.00461  -0.00335   0.00122   1.00888
   D17       -1.12605   0.00027   0.00821  -0.00631   0.00187  -1.12419
   D18        3.14138   0.00004   0.00100  -0.00040   0.00058  -3.14123
   D19       -3.14159  -0.00000   0.00000  -0.00000  -0.00000  -3.14159
   D20        1.00910   0.00008   0.00371  -0.00340   0.00031   1.00941
   D21       -1.00910  -0.00008  -0.00371   0.00340  -0.00031  -1.00941
   D22       -1.00898  -0.00006  -0.00324   0.00312  -0.00012  -1.00910
   D23       -3.14147   0.00002   0.00047  -0.00028   0.00019  -3.14128
   D24        1.12351  -0.00015  -0.00695   0.00652  -0.00042   1.12309
   D25        1.00898   0.00006   0.00324  -0.00312   0.00012   1.00910
   D26       -1.12351   0.00015   0.00695  -0.00652   0.00042  -1.12309
   D27        3.14147  -0.00002  -0.00047   0.00028  -0.00019   3.14128
   D28        3.14159   0.00000  -0.00000   0.00000   0.00000  -3.14159
   D29        1.00898   0.00006   0.00324  -0.00312   0.00012   1.00910
   D30       -1.00898  -0.00006  -0.00324   0.00312  -0.00012  -1.00910
   D31       -1.00910  -0.00008  -0.00371   0.00340  -0.00031  -1.00941
   D32        3.14147  -0.00002  -0.00047   0.00028  -0.00019   3.14128
   D33        1.12351  -0.00015  -0.00695   0.00652  -0.00042   1.12309
   D34        1.00910   0.00008   0.00371  -0.00340   0.00031   1.00941
   D35       -1.12351   0.00015   0.00695  -0.00652   0.00042  -1.12309
   D36       -3.14147   0.00002   0.00047  -0.00028   0.00019  -3.14128
   D37        3.14159   0.00000  -0.00000   0.00000   0.00000   3.14159
   D38        1.00766   0.00015   0.00461  -0.00335   0.00122   1.00888
   D39       -1.00766  -0.00015  -0.00461   0.00335  -0.00122  -1.00889
   D40       -1.00788  -0.00012  -0.00361   0.00296  -0.00064  -1.00852
   D41        3.14137   0.00004   0.00100  -0.00040   0.00058  -3.14123
   D42        1.12605  -0.00027  -0.00821   0.00631  -0.00187   1.12418
   D43        1.00787   0.00012   0.00360  -0.00295   0.00065   1.00852
   D44       -1.12606   0.00027   0.00821  -0.00631   0.00187  -1.12419
   D45       -3.14138  -0.00004  -0.00100   0.00040  -0.00058   3.14123
   D46       -1.04330  -0.00010  -0.00149   0.00010  -0.00140  -1.04470
   D47        3.14159   0.00000   0.00000   0.00000   0.00000   3.14159
   D48        1.04331   0.00010   0.00149  -0.00010   0.00140   1.04470
   D49        1.08631  -0.00010  -0.00390   0.00296  -0.00098   1.08533
   D50       -1.01199   0.00000  -0.00242   0.00286   0.00042  -1.01157
   D51       -3.11027   0.00010  -0.00093   0.00276   0.00181  -3.10846
   D52        3.11027  -0.00010   0.00093  -0.00276  -0.00182   3.10846
   D53        1.01198  -0.00000   0.00241  -0.00285  -0.00042   1.01156
   D54       -1.08631   0.00010   0.00390  -0.00296   0.00098  -1.08533
         Item               Value     Threshold  Converged?
 Maximum Force            0.004019     0.000450     NO 
 RMS     Force            0.001113     0.000300     NO 
 Maximum Displacement     0.047685     0.001800     NO 
 RMS     Displacement     0.014397     0.001200     NO 
 Predicted change in Energy=-2.173901D-04
 GradGradGradGradGradGradGradGradGradGradGradGradGradGradGradGradGradGrad

                          Input orientation:                          
 ---------------------------------------------------------------------
 Center     Atomic      Atomic             Coordinates (Angstroms)
 Number     Number       Type             X           Y           Z
 ---------------------------------------------------------------------
      1          6           0        0.973539   -0.078704   -0.128233
      2          6           0        2.505208   -0.052011   -0.094897
      3          6           0        3.068508    0.839500    1.018551
      4          6           0        4.601289    0.872943    1.060318
      5          6           0        5.162658    1.765019    2.174474
      6          6           0        6.695228    1.799790    2.217899
      7          6           0        7.246042    2.693464    3.334046
[...]
 03105251,0.00000851,-0.00027018,-0.00015107,-0.00035886,0.00049557,-0.
 00010456,-0.00007141,0.00049516,0.00006330,0.00009060,-0.00002848,0.00
 000127,-0.00011580,0.00055162,-0.00010957,-0.00113729,0.00043226,-0.00
 026794,-0.00006223,-0.00000977,-0.00000961,0.00014729,0.00107332,-0.00
 022058,-0.00159367,-0.00103536,-0.00366438,0.00350338,-0.01052137,0.00
 176039,-0.08600455,0.28778454,0.00120978,0.00024622,0.00074082,0.00749
 447,-0.02510440,0.00202256,-0.01019446,0.03153868,-0.05304362,0.000052
 64,0.00009763,-0.00056178,-0.00002637,0.00087691,0.00010051,-0.0000495
 4,-0.00014247,-0.00003814,-0.00002141,0.00001527,-0.00000540,0.0002618
 3,0.00021700,-0.00004990,-0.00038549,0.00045959,0.00014060,-0.00016960
 ,0.00008540,-0.00001489,0.00067467,0.00056856,0.00117818,-0.00196740,-
 0.00369151,-0.00304500,-0.00983487,0.02697035,-0.00408176,0.01345930,-
 0.03059883,0.05532716,-0.00002201,0.00018871,-0.00021115,0.00146506,0.
 00042769,0.00183934,-0.01445536,-0.01252853,0.03023248,-0.07512484,-0.
 02667020,0.07366737,0.00294869,0.00383199,-0.01084674,0.00118289,0.000
 68079,-0.00074535,0.00006660,-0.00003015,-0.00009706,0.00000523,0.0000
 1423,-0.00012635,-0.00001402,0.00000973,0.00003592,0.00029089,0.000106
 92,-0.00014887,-0.00000009,-0.00012214,-0.00121353,-0.00002626,-0.0000
 6222,-0.00015331,-0.00678785,-0.00007642,-0.00033380,0.00156127,0.0004
 5732,-0.00019832,0.08581721,-0.00002750,0.00000856,-0.00026440,0.00004
 806,-0.00004548,0.00075464,0.00005798,-0.00053595,0.00003746,-0.026937
 61,-0.07648801,0.07301360,0.00601333,0.00592722,-0.01907622,0.00090364
 ,0.00049966,0.00015346,0.00020540,-0.00000264,-0.00010715,-0.00005922,
 -0.00002012,-0.00000910,0.00003098,-0.00001499,0.00000350,0.00010748,-
 0.00001282,-0.00003487,-0.00025568,0.00011932,-0.00039328,-0.00004483,
 0.,0.00009964,-0.00007335,0.00119839,-0.00062299,-0.00029551,0.0005449
 8,-0.00065140,0.03195379,0.07955961,-0.00005873,-0.00005169,0.00043879
 ,-0.00036662,-0.00022370,0.00064780,0.00005767,-0.00018009,-0.00032962
 ,0.07388145,0.07252913,-0.23817031,0.00750394,0.00789589,-0.02419670,0
 .00158599,0.00084772,0.00038476,-0.00026468,-0.00028457,0.00036174,0.0
 0009167,0.00002852,0.00001018,0.00001201,-0.00000060,-0.00002579,-0.00
 017777,-0.00003989,-0.00010676,0.00022991,0.00032283,0.00056526,0.0000
 1205,-0.00003406,0.00000998,-0.00032648,-0.00062712,0.00101235,0.00040
 098,-0.00032383,0.00032941,-0.08091553,-0.07733315,0.26378685,-0.00002
 202,-0.00024720,0.00013799,0.00146504,0.00170121,0.00081948,-0.0144553
 3,0.03224064,-0.00561314,-0.07512487,0.07771709,-0.00991276,0.00294868
 ,-0.01142217,0.00136696,0.00118275,-0.00087615,0.00050131,0.00006668,-
 0.00008813,-0.00005069,0.00000533,-0.00012638,-0.00001373,0.00029089,-
 0.00016865,0.00007174,-0.00001398,0.00003286,0.00001736,-0.00002634,-0
 .00013608,-0.00009414,-0.00000015,-0.00115743,-0.00038464,0.00156125,-
 0.00029356,0.00040298,-0.00678788,-0.00030893,-0.00014757,0.00354936,-
 0.01039368,0.00126720,0.08581732,-0.00005135,0.00048567,0.00005532,-0.
 00036825,0.00050127,-0.00010117,0.00004360,-0.00030904,-0.00012924,0.0
 7798449,-0.26149721,0.03106199,0.00600711,-0.02036975,0.00200184,0.001
 34990,0.00017660,0.00077535,-0.00030315,0.00042785,-0.00018812,0.00010
 246,0.00000459,0.00003408,-0.00019694,-0.00008629,-0.00005640,0.000004
 94,-0.00002591,-0.00000305,0.00002153,-0.00000452,-0.00003508,0.000280
 22,0.00055903,0.00042133,0.00045589,0.00054784,-0.00032316,-0.00030254
 ,0.00128809,-0.00060702,0.00350971,-0.01049443,0.00176819,-0.08594533,
 0.28798246,-0.00003961,-0.00015741,-0.00003829,-0.00003334,0.00087712,
 0.00010086,0.00006929,0.00008827,-0.00055656,-0.01012683,0.03154647,-0
 .05316095,0.00750891,-0.02497022,0.00210030,0.00122848,0.00008106,0.00
 070784,0.00014262,-0.00001060,-0.00006878,-0.00003766,-0.00000354,-0.0
 0001450,0.00006599,-0.00005134,-0.00003329,0.00003286,0.00000102,-0.00
 001488,-0.00004119,0.00009857,0.00001455,-0.00019928,-0.00029468,0.000
 12557,-0.00020069,-0.00065077,0.00032663,-0.00014301,-0.00060281,0.000
 92269,-0.00986493,0.02695653,-0.00405619,0.01348323,-0.03061816,0.0553
 6387,0.00000136,0.00000927,0.00006149,0.00007448,-0.00003537,-0.000143
 67,0.00119685,0.00069094,-0.00073261,0.00293478,0.00382326,-0.01087498
 ,-0.07501565,-0.02668115,0.07354689,-0.01457543,-0.01253490,0.03037751
 ,0.00161455,0.00045238,0.00152228,0.00001811,0.,0.00000719,-0.00000187
 ,0.00000097,-0.00000249,-0.00002628,-0.00000791,0.00000625,-0.00011250
 ,-0.00003997,0.00011010,-0.00000192,0.00001786,0.00001726,-0.00000305,
 -0.00025696,0.00022813,-0.00002623,0.00002080,-0.00004194,-0.00052326,
 -0.00158290,-0.00196495,0.00019975,0.00013588,0.00067575,0.08571844,-0
 .00000153,-0.00000192,0.00011275,0.00020553,-0.00000739,-0.00014574,0.
 00092661,0.00050644,0.00016015,0.00599908,0.00590868,-0.01905749,-0.02
 694165,-0.07635967,0.07289308,0.00011509,-0.00051909,0.00005853,0.0000
 3138,-0.00007989,0.00064248,0.00002441,-0.00000052,-0.00000599,-0.0000
 0226,-0.00000210,0.00000417,-0.00002972,0.00000892,-0.00000106,-0.0000
 4058,-0.00006261,0.00010945,0.00001350,-0.00002630,-0.00001916,-0.0001
 1956,0.00011655,0.00031744,-0.00013860,-0.00000331,0.00009506,-0.00157
 569,-0.00135501,-0.00370705,0.00062570,0.00107862,0.00057613,0.0318939
 7,0.07949671,-0.00002196,-0.00005270,0.00000719,-0.00026463,-0.0002740
 1,0.00032033,0.00162000,0.00085418,0.00038587,0.00748795,0.00785577,-0
 .02412360,0.07375545,0.07237795,-0.23823617,-0.00002478,-0.00021530,-0
 .00049498,-0.00039631,-0.00019185,0.00088904,-0.00002167,-0.00000615,-
 0.00000572,-0.00000638,0.00000560,-0.00000399,-0.00006753,-0.00002500,
 0.00000914,0.00010526,0.00010695,0.00034897,0.00002198,0.00001014,-0.0
 0003001,-0.00120332,-0.00039107,0.00055748,-0.00009215,-0.00003658,0.0
 0001566,-0.00196089,-0.00370359,-0.00269885,0.00028004,-0.00022199,0.0
 0115725,-0.08086142,-0.07721498,0.26378653,0.00000135,0.00005779,0.000
 02265,0.00007449,-0.00013258,-0.00006584,0.00119685,-0.00086604,0.0005
 1402,0.00293479,-0.01144786,0.00135224,-0.07501578,0.07760181,-0.00994
 978,-0.01457545,0.03238353,-0.00558757,0.00161455,0.00138638,0.0007744
 3,0.00001812,0.00000700,0.00000158,-0.00002623,0.00000791,-0.00000639,
 -0.00000192,-0.00000259,0.00000033,-0.00000188,0.00001300,0.00002105,-
 0.00011254,0.00011633,-0.00001495,-0.00002624,-0.00004549,0.00001107,-
 0.00000304,0.00027886,-0.00020082,0.00019971,0.00062964,0.00028036,-0.
 00052321,-0.00157116,-0.00197429,0.00353930,-0.01039686,0.00129210,0.0
 8571858,-0.00002103,-0.00000566,-0.00005380,-0.00030324,0.00039425,-0.
 00018432,0.00137826,0.00017522,0.00077979,0.00599480,-0.02029645,0.001
 98239,0.07786232,-0.26149553,0.03088226,-0.00004960,-0.00046251,-0.000
 20272,-0.00039345,0.00074663,-0.00000667,-0.00002635,-0.00000281,-0.00
 000667,-0.00005953,0.00001460,-0.00002370,-0.00000559,-0.00000612,0.00
 000481,0.00001832,-0.00002812,0.00001014,0.00011152,0.00028294,0.00018
 441,-0.00005963,0.00000226,-0.00003509,-0.00114812,0.00055216,-0.00029
 349,0.00013647,0.00107798,-0.00022208,-0.00156890,-0.00105306,-0.00363
 600,0.00353478,-0.01052364,0.00178712,-0.08587936,0.28792840,-0.000006
 34,0.00011176,0.00001134,0.00014270,-0.00005571,-0.00008120,0.00125843
 ,0.00008591,0.00071717,0.00749148,-0.02493099,0.00208150,-0.01015839,0
 .03139739,-0.05309994,0.00010697,0.00007116,-0.00055140,-0.00005610,0.
 00082765,0.00006264,0.00001903,-0.00000654,-0.00000337,-0.00004377,0.0
 0000026,0.00000337,-0.00000360,0.00000333,-0.00000012,0.00001803,-0.00
 001947,-0.00002847,-0.00001655,0.00018693,0.00000328,-0.00015538,0.000
 09632,0.00001002,-0.00037982,0.00041502,0.00012193,0.00067180,0.000575
 97,0.00115794,-0.00196639,-0.00363937,-0.00300081,-0.00986260,0.026937
 96,-0.00408529,0.01343667,-0.03049785,0.05535440,0.00001223,0.00000180
 ,0.00000299,0.00003698,0.00004804,-0.00007530,-0.00007705,0.00016345,-
 0.00017491,0.00150667,0.00045386,0.00186236,-0.01472782,-0.01261895,0.
 03041913,-0.07576453,-0.02678914,0.07476138,0.00373028,0.00395690,-0.0
 1196740,-0.00000559,-0.00000462,-0.00000271,-0.00000302,0.00000283,0.0
 0000390,0.00000863,0.00000736,0.00000083,-0.00002528,-0.00002883,-0.00
 006809,-0.00000220,-0.00000655,-0.00000377,0.00028561,0.00010492,-0.00
 018618,-0.00001373,0.00000693,0.00003128,0.00000149,-0.00012155,-0.001
 21469,-0.00002481,-0.00005952,-0.00015611,-0.00687617,-0.00009780,-0.0
 0040048,0.00156725,0.00045313,-0.00021251,0.08631147,-0.00000040,-0.00
 000364,-0.00001654,-0.00004082,-0.00000673,0.00002819,-0.00003636,0.00
 000205,-0.00025657,0.00004640,-0.00005262,0.00074901,0.00003491,-0.000
 51697,-0.00000850,-0.02712465,-0.07655743,0.07374920,0.00649349,0.0060
 3332,-0.01941346,-0.00000730,-0.00000180,-0.00000011,0.00000234,-0.000
 00050,0.00000111,0.00000671,0.00000021,-0.00000124,-0.00000810,0.00000
 865,-0.00002465,-0.00000218,-0.00000598,0.00000315,0.00010481,-0.00001
 208,-0.00003905,0.00003084,-0.00002286,-0.00000087,-0.00025833,0.00011
 813,-0.00039127,-0.00004714,-0.00000141,0.00009651,-0.00006891,0.00119
 321,-0.00064164,-0.00028148,0.00053791,-0.00066103,0.03216030,0.079799
 80,0.00000063,0.00002191,0.00002214,0.00008317,0.00000084,-0.00002965,
 -0.00007257,-0.00004175,0.00046428,-0.00035913,-0.00021491,0.00064916,
 0.00021094,-0.00012957,-0.00037818,0.07497828,0.07298134,-0.24030840,0
 .00741030,0.00753005,-0.02305433,0.00001628,0.00000493,0.00000331,0.00
 000177,-0.00000277,-0.00000377,-0.00000223,-0.00000388,0.00000248,0.00
 000824,-0.00000239,0.00001517,0.00000031,0.00000411,-0.00000106,-0.000
 19144,-0.00004064,-0.00009966,0.00001343,0.00000308,-0.00002176,0.0002
 3132,0.00031892,0.00056488,0.00001314,-0.00003281,0.00000973,-0.000299
 89,-0.00060924,0.00110341,0.00038880,-0.00034332,0.00032436,-0.0814385
 6,-0.07781562,0.26537163,0.00001210,0.00000270,0.00000242,0.00003700,-
 0.00008393,0.00003026,-0.00007705,-0.00020642,0.00012121,0.00150672,0.
 00171806,0.00085020,-0.01472786,0.03244256,-0.00566056,-0.07576474,0.0
 7881056,-0.00978966,0.00373036,-0.01254306,0.00124353,-0.00000549,-0.0
 0000160,-0.00000510,0.00000867,-0.00000087,0.00000732,-0.00000298,0.00
 000309,0.00000368,-0.00000228,-0.00000233,-0.00000711,-0.00002529,-0.0
 0006020,-0.00004306,-0.00001372,0.00002901,0.00001369,0.00028560,-0.00
 020458,0.00006165,-0.00002479,-0.00013931,-0.00009220,0.00000146,-0.00
 115871,-0.00038428,0.00156729,-0.00030646,0.00039567,-0.00687614,-0.00
 036947,-0.00018300,0.00353889,-0.01045538,0.00122608,0.08631154,0.0000
 0105,0.00002018,0.00002666,0.00008995,-0.00003454,-0.00000574,-0.00006
 271,0.00050596,0.00007103,-0.00036049,0.00050154,-0.00009062,0.0001981
 6,-0.00035499,-0.00009342,0.07909547,-0.26378955,0.03101601,0.00581074
 ,-0.01912652,0.00189096,0.00001743,0.00000210,0.00000574,-0.00000391,0
 .00000330,-0.00000299,0.00000131,-0.00000331,-0.00000324,0.00000065,-0
 .00000300,0.00000528,0.00000987,0.00002028,0.00000039,0.00000634,-0.00
 002228,0.00000338,-0.00020981,-0.00007855,-0.00005560,0.00002324,-0.00
 000429,-0.00003339,0.00028209,0.00055891,0.00041761,0.00044094,0.00054
 881,-0.00034074,-0.00027757,0.00137440,-0.00056851,0.00348319,-0.01050
 673,0.00191696,-0.08650084,0.28970852,-0.00000017,-0.00001132,-0.00000
 126,-0.00002167,0.00002186,-0.00000165,-0.00005131,-0.00014366,-0.0000
 3952,-0.00003323,0.00087323,0.00009494,0.00008020,0.00002774,-0.000539
 76,-0.01006973,0.03178407,-0.05307599,0.00795700,-0.02505268,0.0021059
 8,-0.00000356,0.00000075,-0.00000052,0.00000603,-0.00000050,-0.0000007
 7,0.00000266,0.00000050,-0.00000102,-0.00000207,0.00000384,-0.00000418
 ,-0.00000613,-0.00002192,0.00000319,0.00003301,-0.00000075,-0.00002232
 ,0.00006039,-0.00005390,-0.00003328,-0.00004313,0.00009585,0.00001272,
 -0.00020148,-0.00029246,0.00012405,-0.00018963,-0.00065856,0.00031333,
 -0.00013281,-0.00060100,0.00092196,-0.00993414,0.02698941,-0.00402785,
 0.01357051,-0.03076793,0.05546256,-0.00000293,0.00000876,0.00001176,0.
 00002397,-0.00000235,-0.00001818,-0.00000929,0.00006706,0.00003619,0.0
 0004573,-0.00010930,-0.00012423,0.00132918,-0.00101048,0.00069039,0.00
 306876,-0.01179391,0.00192999,-0.07294010,0.07673544,-0.00969967,0.000
 00935,0.00000361,0.00000427,0.00000039,-0.00000214,-0.00000240,0.00000
 018,-0.00000160,-0.00000148,-0.00000082,-0.00000008,0.00000527,0.00000
 259,0.00000602,0.00000459,-0.00000128,-0.00000249,0.,-0.00002862,0.000
 01207,-0.00000869,0.00000026,0.00000818,0.00003073,-0.00010044,0.00013
 595,0.00000512,-0.00004355,-0.00002462,-0.00000600,0.00002153,0.000371
 07,-0.00018400,0.00019653,0.00063279,0.00042924,-0.00021182,-0.0018278
 3,-0.00188217,0.07518269,0.00000556,-0.00001511,-0.00001037,-0.0000155
 2,0.00001277,0.00001799,-0.00000673,-0.00000250,-0.00005327,-0.0002602
 7,0.00036066,-0.00016214,0.00126968,0.00036533,0.00083661,0.00595597,-
 0.01935934,0.00211134,0.07621589,-0.27599696,0.03052312,-0.00000935,-0
 .00000229,-0.00000269,-0.00000529,0.00000691,-0.00000181,-0.00000039,-
 0.00000105,0.00000141,0.00000168,-0.00000259,-0.00000229,0.00000201,0.
 00001019,0.00000187,-0.00000670,-0.00000571,0.00000413,-0.00005767,0.0
 0001782,-0.00001985,0.00001607,-0.00002504,0.00000764,0.00011349,0.000
 26191,0.00017294,-0.00007213,-0.00001152,-0.00001990,-0.00111846,0.000
 44978,-0.00026195,0.00011911,0.00101069,-0.00020096,-0.00178501,-0.000
 84428,-0.00363851,-0.08358376,0.30278986,0.00000294,0.00000055,0.00000
 059,0.00002103,0.00000098,0.00000807,-0.00000975,0.00011277,0.00000788
 ,0.00013935,-0.00005240,-0.00007926,0.00130522,0.00018008,0.00079951,0
 .00801331,-0.02518438,0.00273831,-0.00986438,0.03120019,-0.05104057,-0
 .00000160,-0.00000211,-0.00000159,-0.00000187,0.00000037,0.00000205,-0
 .00000057,0.00000189,-0.00000006,0.00000132,-0.00000186,-0.00000396,0.
 00000408,0.00000262,-0.00000150,-0.00000305,0.00000367,-0.00000111,-0.
 00004413,-0.00000031,0.00000261,0.00001756,-0.00002063,-0.00003022,-0.
 00000525,0.00018852,0.00000982,-0.00015223,0.00011153,0.00000751,-0.00
 040172,0.00045961,0.00012049,0.00072365,0.00057326,0.00111081,-0.00235
 422,-0.00351091,-0.00328983,0.01240103,-0.03051823,0.05388236,0.000017
 28,-0.00005210,-0.00006480,-0.00015057,0.00007907,0.00009894,0.0000992
 6,-0.00024700,-0.00030843,-0.00067322,0.00043520,0.00054353,0.00084676
 ,-0.00211775,-0.00264486,-0.01012959,0.00085235,0.00106457,-0.30913656
 ,0.00128871,0.00160976,-0.00004779,-0.00001449,-0.00001806,-0.00000315
 ,0.00000887,0.00000577,-0.00000321,0.00000376,0.00000981,0.00000363,0.
 00000230,-0.00001246,0.00000357,-0.00001244,-0.00000052,-0.00000528,-0
 .00000073,0.00001830,-0.00000526,0.00001809,0.00000332,-0.00000978,-0.
 00000262,-0.00010610,-0.00000972,-0.00010292,-0.00002571,0.00031945,0.
 00010079,0.00004721,0.00031945,0.00002411,0.00010864,0.00053599,0.0002
 5530,-0.00045282,0.00053604,-0.00049770,0.00015009,-0.00939467,-0.0001
 5550,0.00052468,0.33628202,0.00000633,-0.00005127,-0.00005695,-0.00016
 162,0.00005772,0.00007152,0.00002725,-0.00031301,-0.00038874,-0.001300
 01,0.00065176,0.00007917,-0.00009338,-0.00246007,-0.00339035,-0.020919
 32,-0.00045827,0.00118476,0.00213350,-0.04677417,0.00042599,-0.0000368
 9,-0.00000700,-0.00000944,-0.00000130,0.00000610,0.00000153,-0.0000020
 9,0.00000090,0.00000627,0.00000318,0.00000413,-0.00000576,0.00000291,-
 0.00001086,0.00000238,0.00000449,-0.00000507,0.00001963,0.00000382,0.0
 0001996,-0.00000955,-0.00000301,0.00000022,-0.00006482,0.00005297,-0.0
 0000405,0.00010441,0.00040653,0.00000093,-0.00004205,-0.00033006,0.000
 35030,-0.00017946,0.00067206,0.00063185,0.00034651,0.00013209,0.000497
 62,0.00086914,0.03118199,0.00061455,-0.00086132,-0.00041129,0.04798892
 ,0.00000789,-0.00005716,-0.00007660,-0.00020186,0.00007133,0.00008990,
 0.00003404,-0.00038878,-0.00048723,-0.00162362,0.00007917,0.00068726,-
 0.00011663,-0.00339042,-0.00397979,-0.02612706,0.00118475,0.00007283,0
 .00266470,0.00042580,-0.04658309,-0.00004606,-0.00000946,-0.00001120,-
 0.00000239,0.00000756,0.00000260,-0.00000183,0.00000041,0.00000774,0.0
 0000374,0.00000580,-0.00001179,0.00000385,-0.00000892,0.00000333,0.000
 00490,-0.00001517,0.00002217,0.00000547,0.00002531,-0.00000278,0.00005
 356,0.00010533,0.00000479,0.00000884,-0.00006574,0.00000913,-0.0002471
 2,-0.00025772,0.00030057,0.00034264,0.00003631,-0.00004873,0.00028594,
 0.00089922,0.00077011,0.00071838,0.00031637,0.00090432,-0.00466129,0.0
 0007242,-0.00098616,-0.00051375,0.00212871,0.04894317,-0.00000302,0.00
 000971,0.00001108,0.00002400,-0.00001715,-0.00000637,-0.00000930,0.000
 02066,0.00007333,0.00004575,-0.00009730,-0.00013381,0.00132917,0.00089
 470,-0.00083507,0.00306873,0.00446271,-0.01108626,-0.07293998,-0.02624
 740,0.07275606,0.00000940,0.00000340,0.00000445,0.00000019,-0.00000115
 ,-0.00000191,0.00000044,-0.00000194,-0.00000256,0.00000254,0.00000310,
 0.00000698,-0.00000081,0.00000507,0.00000106,-0.00002861,-0.00001111,0
 .00000994,-0.00000129,0.00000054,-0.00000244,-0.00010041,-0.00002473,0
 .00013380,0.00000023,0.00002818,0.00001468,0.00002155,-0.00026071,0.00
 032187,-0.00004353,-0.00000052,-0.00002532,-0.00021181,-0.00143683,-0.
 00219528,0.00019648,0.00028044,0.00071136,0.00285235,0.00337730,-0.010
 31542,-0.00939464,-0.01136814,0.02940767,0.07518257,0.00000150,0.00000
 180,0.00000461,0.00002396,0.00000403,-0.00000080,-0.00000807,-0.000005
 34,0.00011215,0.00019292,-0.00001246,-0.00013597,0.00099593,0.00056172
 ,0.00022410,0.00651667,0.00660550,-0.01936484,-0.02629447,-0.07497380,
 0.07625640,0.00000055,-0.00000062,-0.00000169,-0.00000044,-0.00000066,
 0.00000186,-0.00000061,0.00000259,-0.00000074,0.00000359,-0.00000188,-
 0.00000025,0.00000083,-0.00000283,-0.00000201,-0.00003046,0.00000763,-
 0.00000261,-0.00000148,-0.00000291,0.00000431,-0.00003000,-0.00005527,
 0.00011740,0.00001366,-0.00002717,-0.00002110,-0.00014735,0.00009409,0
 .00037983,-0.00013274,-0.00001293,0.00011121,-0.00190693,-0.00164707,-
 0.00369078,0.00068012,0.00102643,0.00057681,-0.01080438,-0.00963408,0.
 02731611,0.00054602,-0.00074120,-0.00116512,0.03038117,0.07881444,0.00
 000641,-0.00000673,-0.00001670,-0.00001061,0.00001618,0.00001678,-0.00
 000870,-0.00005385,0.00001072,-0.00022361,-0.00024586,0.00029377,0.001
 52444,0.00088069,0.00060308,0.00756452,0.00793087,-0.02322658,0.072213
 05,0.07557948,-0.25206379,-0.00000972,-0.00000235,-0.00000333,-0.00000
 065,0.00000147,-0.00000012,-0.00000564,-0.00000261,0.00000635,0.000002
 98,-0.00000070,0.00001055,0.00000203,-0.00000246,-0.00000340,-0.000065
 92,-0.00002211,0.00001264,-0.00000719,0.00000459,-0.00000384,0.0001096
 2,0.00010188,0.00032698,0.00001954,0.00000714,-0.00002806,-0.00117933,
 -0.00034175,0.00047633,-0.00010377,-0.00002013,0.00000893,-0.00225660,
 -0.00381850,-0.00248680,0.00027460,-0.00019727,0.00109490,0.00103954,0
 .00114249,-0.00325575,-0.00003712,-0.00023159,0.00036944,-0.07884785,-
 0.08071887,0.27785793\\-0.00014102,0.00004043,0.00005049,0.00019844,-0
 .00012908,-0.00016121,-0.00023247,0.00016418,0.00020509,0.00022331,-0.
 00019730,-0.00024640,-0.00017024,0.00019166,0.00023936,0.00012856,-0.0
 0015998,-0.00019983,-0.00001398,0.00009663,0.00012067,0.00001785,-0.00
 000659,-0.00000823,0.00002491,-0.00000453,-0.00000815,0.00002491,-0.00
 000695,-0.00000618,-0.00003978,0.00002526,0.00003832,-0.00003977,0.000
 03186,0.00003301,0.00004318,-0.00003257,-0.00004098,0.00004317,-0.0000
 3285,-0.00004075,-0.00004102,0.00003529,0.00004604,-0.00004103,0.00003
 721,0.00004450,0.00003496,-0.00003620,-0.00004550,0.00003496,-0.000036
 47,-0.00004527,-0.00002983,0.00002964,0.00004384,-0.00002981,0.0000362
 7,0.00003852,0.00000035,-0.00001538,-0.00002170,0.00000399,-0.00001274
 ,-0.00001588,0.00000037,-0.00001781,-0.00001976\\\@


 WE DON'T KNOW ONE MILLIONTH OF ONE PERCENT ABOUT
 ANYTHING.
                                     T. A. EDISON.
 Job cpu time:       0 days  1 hours 46 minutes 36.6 seconds.
 Elapsed time:       0 days  0 hours 27 minutes 32.1 seconds.
 File lengths (MBytes):  RWF=    129 Int=      0 D2E=      0 Chk=      8 Scr=      1
 Normal termination of Gaussian 16 at Sat May 27 23:39:41 2023.
### All Done ###
