### Starting Gaussian ###
 Entering Gaussian System, Link 0=g16
 Initial command:
 /cluster/software/gaussian/gaussian-16-A.03/avx2/g16/l1.exe "/local/scratch/yxie/Gau-25500.inp" -scrdir="/local/scratch/yxie/"
 Entering Link 1 = /cluster/software/gaussian/gaussian-16-A.03/avx2/g16/l1.exe PID=     25502.
  
 Copyright (c) 1988,1990,1992,1993,1995,1998,2003,2009,2016,
            Gaussian, Inc.  All Rights Reserved.
  
 This is part of the Gaussian(R) 16 program.  It is based on
 the Gaussian(R) 09 system (copyright 2009, Gaussian, Inc.),
 the Gaussian(R) 03 system (copyright 2003, Gaussian, Inc.),
 the Gaussian(R) 98 system (copyright 1998, Gaussian, Inc.),
 the Gaussian(R) 94 system (copyright 1995, Gaussian, Inc.),
 the Gaussian 92(TM) system (copyright 1992, Gaussian, Inc.),
 the Gaussian 90(TM) system (copyright 1990, Gaussian, Inc.),
 the Gaussian 88(TM) system (copyright 1988, Gaussian, Inc.),
 the Gaussian 86(TM) system (copyright 1986, Carnegie Mellon
 University), and the Gaussian 82(TM) system (copyright 1983,
 Carnegie Mellon University). Gaussian is a federally registered
 trademark of Gaussian, Inc.
  
 This software contains proprietary and confidential information,
 including trade secrets, belonging to Gaussian, Inc.
  
 This software is provided under written license and may be
 used, copied, transmitted, or stored only in accord with that
 written license.
  
 The following legend is applicable only to US Government
 contracts under FAR:
  
                    RESTRICTED RIGHTS LEGEND
  
 Use, reproduction and disclosure by the US Government is
 subject to restrictions as set forth in subparagraphs (a)
 and (c) of the Commercial Computer Software - Restricted
 Rights clause in FAR 52.227-19.
  
 Gaussian, Inc.
 340 Quinnipiac St., Bldg. 40, Wallingford CT 06492
  
  
 ---------------------------------------------------------------
 Warning -- This program may not be used in any manner that
 competes with the business of Gaussian, Inc. or will provide
 assistance to any competitor of Gaussian, Inc.  The licensee
 of this program is prohibited from giving any competitor of
 Gaussian, Inc. access to this program.  By using this program,
 the user acknowledges that Gaussian, Inc. is engaged in the
 business of creating and licensing software in the field of
 computational chemistry and represents and warrants to the
 licensee that it is not a competitor of Gaussian, Inc. and that
 it will not use this program in any manner prohibited above.
 ---------------------------------------------------------------
  

 Cite this work as:
 Gaussian 16, Revision A.03,
 M. J. Frisch, G. W. Trucks, H. B. Schlegel, G. E. Scuseria, 
 M. A. Robb, J. R. Cheeseman, G. Scalmani, V. Barone, 
 G. A. Petersson, H. Nakatsuji, X. Li, M. Caricato, A. V. Marenich, 
 J. Bloino, B. G. Janesko, R. Gomperts, B. Mennucci, H. P. Hratchian, 
 J. V. Ortiz, A. F. Izmaylov, J. L. Sonnenberg, D. Williams-Young, 
 F. Ding, F. Lipparini, F. Egidi, J. Goings, B. Peng, A. Petrone, 
 T. Henderson, D. Ranasinghe, V. G. Zakrzewski, J. Gao, N. Rega, 
 G. Zheng, W. Liang, M. Hada, M. Ehara, K. Toyota, R. Fukuda, 
 J. Hasegawa, M. Ishida, T. Nakajima, Y. Honda, O. Kitao, H. Nakai, 
 T. Vreven, K. Throssell, J. A. Montgomery, Jr., J. E. Peralta, 
 F. Ogliaro, M. J. Bearpark, J. J. Heyd, E. N. Brothers, K. N. Kudin, 
 V. N. Staroverov, T. A. Keith, R. Kobayashi, J. Normand, 
 K. Raghavachari, A. P. Rendell, J. C. Burant, S. S. Iyengar, 
 J. Tomasi, M. Cossi, J. M. Millam, M. Klene, C. Adamo, R. Cammi, 
 J. W. Ochterski, R. L. Martin, K. Morokuma, O. Farkas, 
 J. B. Foresman, and D. J. Fox, Gaussian, Inc., Wallingford CT, 2016.
 
 ******************************************
 Gaussian 16:  ES64L-G16RevA.03 25-Dec-2016
                22-May-2023 
 ******************************************
 %chk=CCCCCqCrCCCqCrOC.chk
 %NProcShared=20
 Will use up to   20 processors via shared memory.
 -----------------------------
 # opt freq b3lyp/6-31g(2df,p)
 -----------------------------
 1/18=20,19=15,26=3,38=1/1,3;
 2/9=110,12=2,17=6,18=5,40=1/2;
 3/5=1,6=6,7=104,11=2,25=1,30=1,71=1,74=-5/1,2,3;
 4//1;
 5/5=2,38=5/2;
 6/7=2,8=2,9=2,10=2,28=1/1;
 7//1,2,3,16;
 1/18=20,19=15,26=3/3(2);
 2/9=110/2;
 99//99;
 2/9=110/2;
 3/5=1,6=6,7=104,11=2,25=1,30=1,71=1,74=-5/1,2,3;
 4/5=5,16=3,69=1/1;
 5/5=2,38=5/2;
 7//1,2,3,16;
 1/18=20,19=15,26=3/3(-5);
 2/9=110/2;
 6/7=2,8=2,9=2,10=2,19=2,28=1/1;
 99/9=1/99;
 -------------------
 Title Card Required
 -------------------
 Symbolic Z-matrix:
 Charge =  0 Multiplicity = 1
 C                     0.91673  -0.10577   0.04507 
 C                     2.43626  -0.1166    0.04072 
 C                     2.94006  -0.099    -1.39563 
 C                     4.46207  -0.05916  -1.47023 
 C                     4.96468  -0.01022  -2.92815 
 C                     4.45194   1.2305   -3.66477 
 C                     6.499    -0.05071  -2.91238 
 C                     7.12305  -0.09682  -4.30834 
 C                     8.65567  -0.14933  -4.26406 
 C                     9.14482  -1.39535  -3.52872 
 O                     9.10437  -0.14701  -5.62628 
 C                     10.5146  -0.02851  -5.75455 
 H                     0.53598  -0.10569   1.06942 
 H                     0.5215   -0.98463  -0.47349 
 H                     0.53516   0.78708  -0.46303 
 H                     2.80638  -1.00615   0.56308 
 H                     2.80934   0.76196   0.57763 
 H                     2.51776   0.78577  -1.88254 
 H                     2.57138  -0.97728  -1.93577 
 H                     4.86568  -0.95414  -0.97442 
 H                     4.84283   0.80429  -0.91393 
 H                     4.59989  -0.90225  -3.44928 
 H                     4.79476   2.14462  -3.17275 
 H                     3.36019   1.25122  -3.71349 
 H                     4.78869   1.24906  -4.70449 
 H                     6.79042  -0.94629  -2.35096 
 H                     6.89393   0.81068  -2.36367 
 H                     6.83926   0.79129  -4.88652 
 H                     6.7307   -0.95227  -4.8702 
 H                     9.0223    0.75694  -3.76867 
 H                     8.80437  -2.29916  -4.04313 
 H                     8.80162  -1.42355  -2.49216 
 H                     10.23587  -1.43379  -3.48779 
 H                     10.75832   0.07201  -6.81535 
 H                     11.01198  -0.92957  -5.38815 
 H                     10.88141   0.85247  -5.22041 
 

 GradGradGradGradGradGradGradGradGradGradGradGradGradGradGradGradGradGrad
 Berny optimization.
 Initialization pass.
                           ----------------------------
                           !    Initial Parameters    !
                           ! (Angstroms and Degrees)  !
 --------------------------                            --------------------------
 ! Name  Definition              Value          Derivative Info.                !
 --------------------------------------------------------------------------------
 ! R1    R(1,2)                  1.5196         estimate D2E/DX2                !
 ! R2    R(1,13)                 1.0928         estimate D2E/DX2                !
 ! R3    R(1,14)                 1.0943         estimate D2E/DX2                !
 ! R4    R(1,15)                 1.0959         estimate D2E/DX2                !
 ! R5    R(2,3)                  1.5222         estimate D2E/DX2                !
 ! R6    R(2,16)                 1.096          estimate D2E/DX2                !
 ! R7    R(2,17)                 1.0951         estimate D2E/DX2                !
 ! R8    R(3,4)                  1.5244         estimate D2E/DX2                !
 ! R9    R(3,18)                 1.0946         estimate D2E/DX2                !
 ! R10   R(3,19)                 1.095          estimate D2E/DX2                !
 ! R11   R(4,5)                  1.5429         estimate D2E/DX2                !
 ! R12   R(4,20)                 1.0999         estimate D2E/DX2                !
 ! R13   R(4,21)                 1.0954         estimate D2E/DX2                !
 ! R14   R(5,6)                  1.5313         estimate D2E/DX2                !
 ! R15   R(5,7)                  1.5349         estimate D2E/DX2                !
 ! R16   R(5,22)                 1.0956         estimate D2E/DX2                !
 ! R17   R(6,23)                 1.0933         estimate D2E/DX2                !
 ! R18   R(6,24)                 1.093          estimate D2E/DX2                !
 ! R19   R(6,25)                 1.0931         estimate D2E/DX2                !
 ! R20   R(7,8)                  1.5298         estimate D2E/DX2                !
 ! R21   R(7,26)                 1.0964         estimate D2E/DX2                !
 ! R22   R(7,27)                 1.095          estimate D2E/DX2                !
 ! R23   R(8,9)                  1.5342         estimate D2E/DX2                !
 ! R24   R(8,28)                 1.0971         estimate D2E/DX2                !
 ! R25   R(8,29)                 1.0961         estimate D2E/DX2                !
 ! R26   R(9,10)                 1.5273         estimate D2E/DX2                !
 ! R27   R(9,11)                 1.4342         estimate D2E/DX2                !
 ! R28   R(9,30)                 1.096          estimate D2E/DX2                !
 ! R29   R(10,31)                1.0943         estimate D2E/DX2                !
 ! R30   R(10,32)                1.0923         estimate D2E/DX2                !
 ! R31   R(10,33)                1.0925         estimate D2E/DX2                !
 ! R32   R(11,12)                1.421          estimate D2E/DX2                !
 ! R33   R(12,34)                1.0931         estimate D2E/DX2                !
 ! R34   R(12,35)                1.0925         estimate D2E/DX2                !
 ! R35   R(12,36)                1.0936         estimate D2E/DX2                !
 ! A1    A(2,1,13)             110.5536         estimate D2E/DX2                !
 ! A2    A(2,1,14)             110.737          estimate D2E/DX2                !
 ! A3    A(2,1,15)             110.6499         estimate D2E/DX2                !
 ! A4    A(13,1,14)            108.5664         estimate D2E/DX2                !
 ! A5    A(13,1,15)            108.2537         estimate D2E/DX2                !
 ! A6    A(14,1,15)            107.991          estimate D2E/DX2                !
 ! A7    A(1,2,3)              109.4855         estimate D2E/DX2                !
 ! A8    A(1,2,16)             110.0061         estimate D2E/DX2                !
 ! A9    A(1,2,17)             109.4837         estimate D2E/DX2                !
 ! A10   A(3,2,16)             110.3248         estimate D2E/DX2                !
 ! A11   A(3,2,17)             109.9122         estimate D2E/DX2                !
 ! A12   A(16,2,17)            107.6031         estimate D2E/DX2                !
 ! A13   A(2,3,4)              112.1436         estimate D2E/DX2                !
 ! A14   A(2,3,18)             107.5404         estimate D2E/DX2                !
 ! A15   A(2,3,19)             110.1657         estimate D2E/DX2                !
 ! A16   A(4,3,18)             110.0172         estimate D2E/DX2                !
 ! A17   A(4,3,19)             109.4506         estimate D2E/DX2                !
 ! A18   A(18,3,19)            107.397          estimate D2E/DX2                !
 ! A19   A(3,4,5)              111.8592         estimate D2E/DX2                !
 ! A20   A(3,4,20)             108.8486         estimate D2E/DX2                !
 ! A21   A(3,4,21)             110.0475         estimate D2E/DX2                !
 ! A22   A(5,4,20)             109.4042         estimate D2E/DX2                !
 ! A23   A(5,4,21)             109.9762         estimate D2E/DX2                !
 ! A24   A(20,4,21)            106.5535         estimate D2E/DX2                !
 ! A25   A(4,5,6)              111.7878         estimate D2E/DX2                !
 ! A26   A(4,5,7)              108.3657         estimate D2E/DX2                !
 ! A27   A(4,5,22)             108.3708         estimate D2E/DX2                !
 ! A28   A(6,5,7)              111.1628         estimate D2E/DX2                !
 ! A29   A(6,5,22)             108.6259         estimate D2E/DX2                !
 ! A30   A(7,5,22)             108.4352         estimate D2E/DX2                !
 ! A31   A(5,6,23)             110.8537         estimate D2E/DX2                !
 ! A32   A(5,6,24)             111.7925         estimate D2E/DX2                !
 ! A33   A(5,6,25)             111.6028         estimate D2E/DX2                !
 ! A34   A(23,6,24)            108.5068         estimate D2E/DX2                !
 ! A35   A(23,6,25)            108.4988         estimate D2E/DX2                !
 ! A36   A(24,6,25)            105.367          estimate D2E/DX2                !
 ! A37   A(5,7,8)              113.5274         estimate D2E/DX2                !
 ! A38   A(5,7,26)             107.007          estimate D2E/DX2                !
 ! A39   A(5,7,27)             110.1767         estimate D2E/DX2                !
 ! A40   A(8,7,26)             109.5239         estimate D2E/DX2                !
 ! A41   A(8,7,27)             109.5024         estimate D2E/DX2                !
 ! A42   A(26,7,27)            106.8639         estimate D2E/DX2                !
 ! A43   A(7,8,9)              112.471          estimate D2E/DX2                !
 ! A44   A(7,8,28)             110.5479         estimate D2E/DX2                !
 ! A45   A(7,8,29)             110.1977         estimate D2E/DX2                !
 ! A46   A(9,8,28)             107.538          estimate D2E/DX2                !
 ! A47   A(9,8,29)             110.2231         estimate D2E/DX2                !
 ! A48   A(28,8,29)            105.6078         estimate D2E/DX2                !
 ! A49   A(8,9,10)             111.2093         estimate D2E/DX2                !
 ! A50   A(8,9,11)             106.5631         estimate D2E/DX2                !
 ! A51   A(8,9,30)             108.5984         estimate D2E/DX2                !
 ! A52   A(10,9,11)            111.0034         estimate D2E/DX2                !
 ! A53   A(10,9,30)            110.4788         estimate D2E/DX2                !
 ! A54   A(11,9,30)            108.8641         estimate D2E/DX2                !
 ! A55   A(9,10,31)            110.357          estimate D2E/DX2                !
 ! A56   A(9,10,32)            112.1695         estimate D2E/DX2                !
 ! A57   A(9,10,33)            111.506          estimate D2E/DX2                !
 ! A58   A(31,10,32)           109.0894         estimate D2E/DX2                !
 ! A59   A(31,10,33)           107.4134         estimate D2E/DX2                !
 ! A60   A(32,10,33)           106.101          estimate D2E/DX2                !
 ! A61   A(9,11,12)            113.3504         estimate D2E/DX2                !
 ! A62   A(11,12,34)           108.4544         estimate D2E/DX2                !
 ! A63   A(11,12,35)           110.6566         estimate D2E/DX2                !
 ! A64   A(11,12,36)           110.8523         estimate D2E/DX2                !
 ! A65   A(34,12,35)           107.4465         estimate D2E/DX2                !
 ! A66   A(34,12,36)           108.9736         estimate D2E/DX2                !
 ! A67   A(35,12,36)           110.3592         estimate D2E/DX2                !
 ! D1    D(13,1,2,3)          -179.3014         estimate D2E/DX2                !
 ! D2    D(13,1,2,16)           59.3038         estimate D2E/DX2                !
 ! D3    D(13,1,2,17)          -58.744          estimate D2E/DX2                !
 ! D4    D(14,1,2,3)            60.3298         estimate D2E/DX2                !
 ! D5    D(14,1,2,16)          -61.065          estimate D2E/DX2                !
 ! D6    D(14,1,2,17)         -179.1128         estimate D2E/DX2                !
 ! D7    D(15,1,2,3)           -59.3811         estimate D2E/DX2                !
 ! D8    D(15,1,2,16)          179.224          estimate D2E/DX2                !
 ! D9    D(15,1,2,17)           61.1763         estimate D2E/DX2                !
 ! D10   D(1,2,3,4)            177.9851         estimate D2E/DX2                !
 ! D11   D(1,2,3,18)            56.907          estimate D2E/DX2                !
 ! D12   D(1,2,3,19)           -59.8447         estimate D2E/DX2                !
 ! D13   D(16,2,3,4)           -60.8126         estimate D2E/DX2                !
 ! D14   D(16,2,3,18)          178.1094         estimate D2E/DX2                !
 ! D15   D(16,2,3,19)           61.3577         estimate D2E/DX2                !
 ! D16   D(17,2,3,4)            57.6889         estimate D2E/DX2                !
 ! D17   D(17,2,3,18)          -63.3891         estimate D2E/DX2                !
 ! D18   D(17,2,3,19)          179.8592         estimate D2E/DX2                !
 ! D19   D(2,3,4,5)           -178.7478         estimate D2E/DX2                !
 ! D20   D(2,3,4,20)            60.2413         estimate D2E/DX2                !
 ! D21   D(2,3,4,21)           -56.1847         estimate D2E/DX2                !
 ! D22   D(18,3,4,5)           -59.1076         estimate D2E/DX2                !
 ! D23   D(18,3,4,20)          179.8815         estimate D2E/DX2                !
 ! D24   D(18,3,4,21)           63.4555         estimate D2E/DX2                !
 ! D25   D(19,3,4,5)            58.6756         estimate D2E/DX2                !
 ! D26   D(19,3,4,20)          -62.3352         estimate D2E/DX2                !
 ! D27   D(19,3,4,21)         -178.7612         estimate D2E/DX2                !
 ! D28   D(3,4,5,6)             60.2377         estimate D2E/DX2                !
 ! D29   D(3,4,5,7)           -176.9176         estimate D2E/DX2                !
 ! D30   D(3,4,5,22)           -59.4435         estimate D2E/DX2                !
 ! D31   D(20,4,5,6)          -179.0741         estimate D2E/DX2                !
 ! D32   D(20,4,5,7)           -56.2294         estimate D2E/DX2                !
 ! D33   D(20,4,5,22)           61.2447         estimate D2E/DX2                !
 ! D34   D(21,4,5,6)           -62.366          estimate D2E/DX2                !
 ! D35   D(21,4,5,7)            60.4787         estimate D2E/DX2                !
 ! D36   D(21,4,5,22)          177.9528         estimate D2E/DX2                !
 ! D37   D(4,5,6,23)            60.3919         estimate D2E/DX2                !
 ! D38   D(4,5,6,24)           -60.8141         estimate D2E/DX2                !
 ! D39   D(4,5,6,25)          -178.5424         estimate D2E/DX2                !
 ! D40   D(7,5,6,23)           -60.8468         estimate D2E/DX2                !
 ! D41   D(7,5,6,24)           177.9473         estimate D2E/DX2                !
 ! D42   D(7,5,6,25)            60.2189         estimate D2E/DX2                !
 ! D43   D(22,5,6,23)          179.9229         estimate D2E/DX2                !
 ! D44   D(22,5,6,24)           58.7169         estimate D2E/DX2                !
 ! D45   D(22,5,6,25)          -59.0114         estimate D2E/DX2                !
 ! D46   D(4,5,7,8)            176.3557         estimate D2E/DX2                !
 ! D47   D(4,5,7,26)            55.4025         estimate D2E/DX2                !
 ! D48   D(4,5,7,27)           -60.4206         estimate D2E/DX2                !
 ! D49   D(6,5,7,8)            -60.4215         estimate D2E/DX2                !
 ! D50   D(6,5,7,26)           178.6253         estimate D2E/DX2                !
 ! D51   D(6,5,7,27)            62.8022         estimate D2E/DX2                !
 ! D52   D(22,5,7,8)            58.9228         estimate D2E/DX2                !
 ! D53   D(22,5,7,26)          -62.0304         estimate D2E/DX2                !
 ! D54   D(22,5,7,27)         -177.8535         estimate D2E/DX2                !
 ! D55   D(5,7,8,9)           -179.4883         estimate D2E/DX2                !
 ! D56   D(5,7,8,28)            60.2934         estimate D2E/DX2                !
 ! D57   D(5,7,8,29)           -56.0695         estimate D2E/DX2                !
 ! D58   D(26,7,8,9)           -59.9603         estimate D2E/DX2                !
 ! D59   D(26,7,8,28)          179.8214         estimate D2E/DX2                !
 ! D60   D(26,7,8,29)           63.4585         estimate D2E/DX2                !
 ! D61   D(27,7,8,9)            56.9191         estimate D2E/DX2                !
 ! D62   D(27,7,8,28)          -63.2992         estimate D2E/DX2                !
 ! D63   D(27,7,8,29)         -179.6621         estimate D2E/DX2                !
 ! D64   D(7,8,9,10)            60.6395         estimate D2E/DX2                !
 ! D65   D(7,8,9,11)          -178.2612         estimate D2E/DX2                !
 ! D66   D(7,8,9,30)           -61.1327         estimate D2E/DX2                !
 ! D67   D(28,8,9,10)         -177.4183         estimate D2E/DX2                !
 ! D68   D(28,8,9,11)          -56.3191         estimate D2E/DX2                !
 ! D69   D(28,8,9,30)           60.8094         estimate D2E/DX2                !
 ! D70   D(29,8,9,10)          -62.7651         estimate D2E/DX2                !
 ! D71   D(29,8,9,11)           58.3341         estimate D2E/DX2                !
 ! D72   D(29,8,9,30)          175.4626         estimate D2E/DX2                !
 ! D73   D(8,9,10,31)           61.1334         estimate D2E/DX2                !
 ! D74   D(8,9,10,32)          -60.7281         estimate D2E/DX2                !
 ! D75   D(8,9,10,33)         -179.5728         estimate D2E/DX2                !
 ! D76   D(11,9,10,31)         -57.3259         estimate D2E/DX2                !
 ! D77   D(11,9,10,32)        -179.1874         estimate D2E/DX2                !
 ! D78   D(11,9,10,33)          61.9679         estimate D2E/DX2                !
 ! D79   D(30,9,10,31)        -178.1954         estimate D2E/DX2                !
 ! D80   D(30,9,10,32)          59.9432         estimate D2E/DX2                !
 ! D81   D(30,9,10,33)         -58.9016         estimate D2E/DX2                !
 ! D82   D(8,9,11,12)          172.7548         estimate D2E/DX2                !
 ! D83   D(10,9,11,12)         -66.0145         estimate D2E/DX2                !
 ! D84   D(30,9,11,12)          55.8027         estimate D2E/DX2                !
 ! D85   D(9,11,12,34)        -174.0538         estimate D2E/DX2                !
 ! D86   D(9,11,12,35)          68.327          estimate D2E/DX2                !
 ! D87   D(9,11,12,36)         -54.4568         estimate D2E/DX2                !
 --------------------------------------------------------------------------------
 Trust Radius=3.00D-01 FncErr=1.00D-07 GrdErr=1.00D-06 EigMax=2.50D+02 EigMin=1.00D-04
 Number of steps in this run=    199 maximum allowed number of steps=    216.
 GradGradGradGradGradGradGradGradGradGradGradGradGradGradGradGradGradGrad

                          Input orientation:                          
 ---------------------------------------------------------------------
 Center     Atomic      Atomic             Coordinates (Angstroms)
 Number     Number       Type             X           Y           Z
 ---------------------------------------------------------------------
      1          6           0        0.916730   -0.105770    0.045070
      2          6           0        2.436260   -0.116600    0.040720
      3          6           0        2.940060   -0.099000   -1.395630
      4          6           0        4.462070   -0.059160   -1.470230
      5          6           0        4.964680   -0.010220   -2.928150
      6          6           0        4.451940    1.230500   -3.664770
      7          6           0        6.499000   -0.050710   -2.912380
      8          6           0        7.123050   -0.096820   -4.308340
      9          6           0        8.655670   -0.149330   -4.264060
     10          6           0        9.144820   -1.395350   -3.528720
     11          8           0        9.104370   -0.147010   -5.626280
     12          6           0       10.514600   -0.028510   -5.754550
     13          1           0        0.535980   -0.105690    1.069420
     14          1           0        0.521500   -0.984630   -0.473490
     15          1           0        0.535160    0.787080   -0.463030
     16          1           0        2.806380   -1.006150    0.563080
     17          1           0        2.809340    0.761960    0.577630
     18          1           0        2.517760    0.785770   -1.882540
     19          1           0        2.571380   -0.977280   -1.935770
     20          1           0        4.865680   -0.954140   -0.974420
     21          1           0        4.842830    0.804290   -0.913930
     22          1           0        4.599890   -0.902250   -3.449280
     23          1           0        4.794760    2.144620   -3.172750
     24          1           0        3.360190    1.251220   -3.713490
     25          1           0        4.788690    1.249060   -4.704490
     26          1           0        6.790420   -0.946290   -2.350960
     27          1           0        6.893930    0.810680   -2.363670
     28          1           0        6.839260    0.791290   -4.886520
     29          1           0        6.730700   -0.952270   -4.870200
     30          1           0        9.022300    0.756940   -3.768670
     31          1           0        8.804370   -2.299160   -4.043130
     32          1           0        8.801620   -1.423550   -2.492160
     33          1           0       10.235870   -1.433790   -3.487790
     34          1           0       10.758320    0.072010   -6.815350
     35          1           0       11.011980   -0.929570   -5.388150
     36          1           0       10.881410    0.852470   -5.220410
 ---------------------------------------------------------------------
                    Distance matrix (angstroms):
                    1          2          3          4          5
     1  C    0.000000
     2  C    1.519575   0.000000
     3  C    2.483853   1.522244   0.000000
     4  C    3.855871   2.527880   1.524358   0.000000
     5  C    5.023452   3.901079   2.540784   1.542901   0.000000
     6  C    5.295870   4.428126   3.033537   2.545453   1.531306
     7  C    6.317538   5.023047   3.868968   2.495787   1.534935
     8  C    7.580941   6.393803   5.097184   3.890643   2.563393
     9  C    8.857860   7.563945   6.395203   5.039831   3.927775
    10  C    9.062917   7.705899   6.688022   5.286864   4.444417
    11  O    9.960088   8.750972   7.476592   6.231486   4.943243
    12  C   11.214306   9.942459   8.739497   7.415488   6.228201
    13  H    1.092824   2.160881   3.443271   4.676128   5.966830
    14  H    1.094306   2.164300   2.735711   4.168702   5.168818
    15  H    1.095875   2.164390   2.727348   4.141400   5.131584
    16  H    2.156338   1.095969   2.162715   2.787911   4.223603
    17  H    2.149081   1.095139   2.156872   2.756716   4.187152
    18  H    2.659666   2.125992   1.094640   2.159687   2.777466
    19  H    2.724174   2.159986   1.095012   2.152761   2.765485
    20  H    4.165729   2.762981   2.148649   1.099872   2.172061
    21  H    4.142723   2.747904   2.160672   1.095442   2.176087
    22  H    5.139118   4.180746   2.760023   2.155559   1.095612
    23  H    5.518853   4.582797   3.410557   2.804622   2.175325
    24  H    4.683876   4.101057   2.715157   2.821959   2.186865
    25  H    6.275823   5.469550   4.022841   3.504077   2.184523
    26  H    6.399036   5.036589   4.056578   2.642707   2.131362
    27  H    6.509134   5.148957   4.171056   2.732910   2.171295
    28  H    7.758973   6.669960   5.308737   4.247980   2.826956
    29  H    7.660202   6.577058   5.212452   4.183793   2.788878
    30  H    8.999397   7.658358   6.584648   5.171513   4.214177
    31  H    9.150913   7.873641   6.800007   5.522045   4.607130
    32  H    8.387227   6.974339   6.108576   4.662359   4.112140
    33  H   10.054407   8.661368   7.706338   6.268726   5.488642
    34  H   11.998077  10.784153   9.514610   8.260162   6.977345
    35  H   11.494024  10.182167   9.043559   7.681734   6.592924
    36  H   11.310984   9.996957   8.865623   7.490183   6.403623
                    6          7          8          9         10
     6  C    0.000000
     7  C    2.529436   0.000000
     8  C    3.051359   1.529794   0.000000
     9  C    4.464798   2.547153   1.534158   0.000000
    10  C    5.379286   3.031220   2.526171   1.527272   0.000000
    11  O    5.233561   3.763307   2.380150   1.434218   2.441259
    12  C    6.535146   4.919702   3.687655   2.385745   2.949384
    13  H    6.287504   7.170451   8.503521   9.714797   9.844706
    14  H    5.526249   6.523105   7.686010   9.012817   9.157771
    15  H    5.078280   6.501430   7.679061   9.014842   9.396154
    16  H    5.058180   5.160148   6.572005   7.632144   7.554477
    17  H    4.573360   5.143364   6.574063   7.645390   7.852032
    18  H    2.667430   4.196492   5.279410   6.649811   7.168341
    19  H    3.376424   4.151927   5.207878   6.566964   6.776606
    20  H    3.490246   2.690652   4.116520   5.082664   5.003014
    21  H    2.810973   2.732714   4.187293   5.164350   5.493875
    22  H    2.148708   2.149419   2.784428   4.204772   4.572291
    23  H    1.093263   2.791362   3.425573   4.621665   5.619709
    24  H    1.093033   3.491264   4.041061   5.505159   6.363994
    25  H    1.093052   2.797538   2.723521   4.135578   5.229838
    26  H    3.454417   1.096440   2.159532   2.788235   2.670575
    27  H    2.798647   1.095009   2.158192   2.763481   3.360121
    28  H    2.717513   2.173009   1.097073   2.138122   3.455521
    29  H    3.377913   2.167846   1.096093   2.172010   2.797117
    30  H    4.596003   2.784344   2.151116   1.095972   2.169087
    31  H    5.616521   3.413042   2.783429   2.166262   1.094256
    32  H    5.228643   2.713546   2.806478   2.187365   1.092263
    33  H    6.370527   4.025941   3.485748   2.179327   1.092494
    34  H    7.144136   5.778412   4.419139   3.313489   3.944422
    35  H    7.118291   5.221956   4.121073   2.724803   2.675952
    36  H    6.625783   5.034705   3.982247   2.621474   3.306094
                   11         12         13         14         15
    11  O    0.000000
    12  C    1.421001   0.000000
    13  H   10.874347  12.089060   0.000000
    14  H   10.045820  11.343095   1.775758   0.000000
    15  H   10.048036  11.324954   1.773539   1.771794   0.000000
    16  H    8.871921  10.014234   2.494379   2.509107   3.070345
    17  H    8.884938  10.004618   2.482507   3.064252   2.501100
    18  H    7.633420   8.922161   3.665545   3.017415   2.438383
    19  H    7.549117   8.864423   3.732786   2.518000   3.070525
    20  H    6.344900   7.457663   4.862453   4.373072   4.695399
    21  H    6.424324   7.502942   4.828115   4.697671   4.331239
    22  H    5.059650   6.407924   6.129317   5.049295   5.319169
    23  H    5.462977   6.641141   6.418497   5.944658   5.227781
    24  H    6.213648   7.549120   5.717831   4.853327   4.331479
    25  H    4.628585   5.959938   7.297871   6.410900   6.024610
    26  H    4.089124   5.127988   7.177996   6.544136   6.759965
    27  H    4.055594   5.031059   7.283500   6.885040   6.636787
    28  H    2.560932   3.864411   8.718322   7.908402   7.701231
    29  H    2.618093   3.994159   8.623824   7.608303   7.799564
    30  H    2.067505   2.605304   9.806573   9.281965   9.108222
    31  H    2.688515   3.318086   9.965729   9.114618   9.524801
    32  H    3.397634   3.940003   9.096286   8.533936   8.794238
    33  H    2.740298   2.681549  10.799068  10.181195  10.401212
    34  H    2.048758   1.093069  12.911135  12.088348  12.057209
    35  H    2.075592   1.092495  12.333919  11.584778  11.703309
    36  H    2.078837   1.093609  12.145285  11.542787  11.387793
                   16         17         18         19         20
    16  H    0.000000
    17  H    1.768172   0.000000
    18  H    3.045544   2.477503   0.000000
    19  H    2.510042   3.065740   1.764668   0.000000
    20  H    2.570472   3.095544   3.060179   2.487678   0.000000
    21  H    3.099416   2.522226   2.518829   3.062292   1.759618
    22  H    4.396192   4.710803   3.104730   2.532034   2.489632
    23  H    5.276119   4.463070   2.948872   4.027381   3.800000
    24  H    4.867389   4.353909   2.068504   2.957824   3.825260
    25  H    6.063235   5.661792   3.651734   4.187943   4.332833
    26  H    4.936374   5.229126   4.634120   4.239533   2.366336
    27  H    5.345540   5.033636   4.402610   4.697269   3.026285
    28  H    7.013776   6.789555   5.263011   5.481748   4.716574
    29  H    6.702516   6.927806   5.449382   5.090329   4.319190
    30  H    7.778831   7.582297   6.772544   6.926862   5.292742
    31  H    7.672348   8.164696   7.328466   6.711073   5.171009
    32  H    6.741781   7.078664   6.688769   6.270934   4.244467
    33  H    8.472883   8.746560   8.189780   7.833363   5.948616
    34  H   10.901239  10.877429   9.630623   9.588394   8.360183
    35  H   10.136808  10.282758   9.347912   9.119481   7.566943
    36  H   10.104916   9.939003   9.005358   9.121044   7.581641
                   21         22         23         24         25
    21  H    0.000000
    22  H    3.065827   0.000000
    23  H    2.626987   3.065593   0.000000
    24  H    3.199297   2.498819   1.774417   0.000000
    25  H    3.816949   2.497866   1.774343   1.738591   0.000000
    26  H    2.987088   2.450850   3.769844   4.295581   3.790196
    27  H    2.511732   3.061911   2.615439   3.808334   3.178624
    28  H    4.446051   3.154127   2.991403   3.700198   2.108916
    29  H    4.722460   2.561614   4.027397   4.189712   2.940190
    30  H    5.061596   4.734198   4.489195   5.683911   4.363645
    31  H    5.925968   4.470086   6.048282   6.507915   5.399347
    32  H    4.808960   4.340780   5.408324   6.185079   5.304796
    33  H    6.381116   5.661121   6.519965   7.384795   6.192723
    34  H    8.387849   7.085610   7.288916   8.108292   6.440315
    35  H    7.815582   6.698870   7.280966   8.130819   6.628964
    36  H    7.417044   6.758213   6.550563   7.681052   6.127373
                   26         27         28         29         30
    26  H    0.000000
    27  H    1.760062   0.000000
    28  H    3.074188   2.523517   0.000000
    29  H    2.519955   3.068767   1.747013   0.000000
    30  H    3.145184   2.550857   2.452842   3.063690   0.000000
    31  H    2.957988   4.017645   3.758170   2.607348   3.076129
    32  H    2.071869   2.940676   3.806486   3.188399   2.536280
    33  H    3.660760   4.179695   4.294693   3.798570   2.520108
    34  H    6.059038   5.941094   4.426825   4.588516   3.572836
    35  H    5.200613   5.397618   4.541430   4.312557   3.070156
    36  H    5.310883   4.905375   4.056378   4.539617   2.360713
                   31         32         33         34         35
    31  H    0.000000
    32  H    1.781069   0.000000
    33  H    1.762515   1.745983   0.000000
    34  H    4.138305   4.975474   3.689586   0.000000
    35  H    2.925474   3.676475   2.113753   1.761932   0.000000
    36  H    3.953841   4.116934   2.940354   1.779916   1.794673
                   36
    36  H    0.000000
 Stoichiometry    C11H24O
 Framework group  C1[X(C11H24O)]
 Deg. of freedom   102
 Full point group                 C1      NOp   1
 Largest Abelian subgroup         C1      NOp   1
 Largest concise Abelian subgroup C1      NOp   1
                         Standard orientation:                         
 ---------------------------------------------------------------------
 Center     Atomic      Atomic             Coordinates (Angstroms)
 Number     Number       Type             X           Y           Z
 ---------------------------------------------------------------------
      1          6           0       -5.850342   -0.142513   -0.207044
      2          6           0       -4.547558   -0.740128    0.297652
      3          6           0       -3.375839    0.070546   -0.238173
      4          6           0       -2.036666   -0.448650    0.272432
      5          6           0       -0.856063    0.396405   -0.249684
      6          6           0       -0.963322    1.858103    0.193971
      7          6           0        0.450156   -0.238886    0.246526
      8          6           0        1.706417    0.458230   -0.278931
      9          6           0        2.996939   -0.203450    0.221444
     10          6           0        3.084883   -1.658241   -0.235074
     11          8           0        4.083853    0.568075   -0.308034
     12          6           0        5.351997    0.177379    0.200307
     13          1           0       -6.704824   -0.704630    0.177857
     14          1           0       -5.886315   -0.159254   -1.300631
     15          1           0       -5.949649    0.899018    0.118982
     16          1           0       -4.465537   -1.785086   -0.022477
     17          1           0       -4.539996   -0.727645    1.392693
     18          1           0       -3.520615    1.108409    0.078239
     19          1           0       -3.377981    0.058755   -1.333120
     20          1           0       -1.912074   -1.491554   -0.053979
     21          1           0       -2.031946   -0.461762    1.367785
     22          1           0       -0.864148    0.361586   -1.344713
     23          1           0       -0.959878    1.935069    1.284517
     24          1           0       -1.873094    2.331285   -0.184362
     25          1           0       -0.139286    2.459358   -0.198737
     26          1           0        0.444917   -1.283832   -0.085501
     27          1           0        0.470997   -0.253515    1.341239
     28          1           0        1.727128    1.507312    0.041330
     29          1           0        1.694337    0.484568   -1.374641
     30          1           0        3.019324   -0.142877    1.315511
     31          1           0        3.094618   -1.714361   -1.327846
     32          1           0        2.257338   -2.260607    0.146191
     33          1           0        3.998772   -2.136452    0.125014
     34          1           0        6.104096    0.879177   -0.169325
     35          1           0        5.623852   -0.816035   -0.164067
     36          1           0        5.355530    0.195699    1.293757
 ---------------------------------------------------------------------
 Rotational constants (GHZ):           3.0310729           0.2403530           0.2285798
 Standard basis: 6-31G(2df,p) (6D, 7F)
 There are   492 symmetry adapted cartesian basis functions of A   symmetry.
 There are   456 symmetry adapted basis functions of A   symmetry.
   456 basis functions,   696 primitive gaussians,   492 cartesian basis functions
    49 alpha electrons       49 beta electrons
       nuclear repulsion energy       733.9636802132 Hartrees.
 NAtoms=   36 NActive=   36 NUniq=   36 SFac= 1.00D+00 NAtFMM=   60 NAOKFM=F Big=F
 Integral buffers will be    131072 words long.
 Raffenetti 2 integral format.
 Two-electron integral symmetry is turned on.
 One-electron integrals computed using PRISM.
 PrsmSu:  requested number of processors reduced to:  12 ShMem   1 Linda.
 NBasis=   456 RedAO= T EigKep=  4.74D-04  NBF=   456
 NBsUse=   456 1.00D-06 EigRej= -1.00D+00 NBFU=   456
 ExpMin= 1.61D-01 ExpMax= 5.48D+03 ExpMxC= 8.25D+02 IAcc=3 IRadAn=         5 AccDes= 0.00D+00
 Harris functional with IExCor=  402 and IRadAn=       5 diagonalized for initial guess.
 HarFok:  IExCor=  402 AccDes= 0.00D+00 IRadAn=         5 IDoV= 1 UseB2=F ITyADJ=14
 ICtDFT=  3500011 ScaDFX=  1.000000  1.000000  1.000000  1.000000
 FoFCou: FMM=F IPFlag=           0 FMFlag=      100000 FMFlg1=           0
         NFxFlg=           0 DoJE=T BraDBF=F KetDBF=T FulRan=T
         wScrn=  0.000000 ICntrl=       500 IOpCl=  0 I1Cent=   200000004 NGrid=           0
         NMat0=    1 NMatS0=      1 NMatT0=    0 NMatD0=    1 NMtDS0=    0 NMtDT0=    0
 Petite list used in FoFCou.
 Requested convergence on RMS density matrix=1.00D-08 within 128 cycles.
 Requested convergence on MAX density matrix=1.00D-06.
 Requested convergence on             energy=1.00D-06.
 No special actions if energy rises.
 Integral accuracy reduced to 1.0D-05 until final iterations.
 Initial convergence to 1.0D-05 achieved.  Increase integral accuracy.
 SCF Done:  E(RB3LYP) =  -508.890335957     A.U. after   12 cycles
            NFock= 12  Conv=0.39D-08     -V/T= 2.0083

 **********************************************************************

            Population analysis using the SCF density.

 **********************************************************************

 Orbital symmetries:
       Occupied  (A) (A) (A) (A) (A) (A) (A) (A) (A) (A) (A) (A)
                 (A) (A) (A) (A) (A) (A) (A) (A) (A) (A) (A) (A)
                 (A) (A) (A) (A) (A) (A) (A) (A) (A) (A) (A) (A)
                 (A) (A) (A) (A) (A) (A) (A) (A) (A) (A) (A) (A)
                 (A)
       Virtual   (A) (A) (A) (A) (A) (A) (A) (A) (A) (A) (A) (A)
                 (A) (A) (A) (A) (A) (A) (A) (A) (A) (A) (A) (A)
                 (A) (A) (A) (A) (A) (A) (A) (A) (A) (A) (A) (A)
                 (A) (A) (A) (A) (A) (A) (A) (A) (A) (A) (A) (A)
                 (A) (A) (A) (A) (A) (A) (A) (A) (A) (A) (A) (A)
                 (A) (A) (A) (A) (A) (A) (A) (A) (A) (A) (A) (A)
                 (A) (A) (A) (A) (A) (A) (A) (A) (A) (A) (A) (A)
                 (A) (A) (A) (A) (A) (A) (A) (A) (A) (A) (A) (A)
                 (A) (A) (A) (A) (A) (A) (A) (A) (A) (A) (A) (A)
                 (A) (A) (A) (A) (A) (A) (A) (A) (A) (A) (A) (A)
                 (A) (A) (A) (A) (A) (A) (A) (A) (A) (A) (A) (A)
                 (A) (A) (A) (A) (A) (A) (A) (A) (A) (A) (A) (A)
                 (A) (A) (A) (A) (A) (A) (A) (A) (A) (A) (A) (A)
                 (A) (A) (A) (A) (A) (A) (A) (A) (A) (A) (A) (A)
                 (A) (A) (A) (A) (A) (A) (A) (A) (A) (A) (A) (A)
                 (A) (A) (A) (A) (A) (A) (A) (A) (A) (A) (A) (A)
                 (A) (A) (A) (A) (A) (A) (A) (A) (A) (A) (A) (A)
                 (A) (A) (A) (A) (A) (A) (A) (A) (A) (A) (A) (A)
                 (A) (A) (A) (A) (A) (A) (A) (A) (A) (A) (A) (A)
                 (A) (A) (A) (A) (A) (A) (A) (A) (A) (A) (A) (A)
                 (A) (A) (A) (A) (A) (A) (A) (A) (A) (A) (A) (A)
                 (A) (A) (A) (A) (A) (A) (A) (A) (A) (A) (A) (A)
                 (A) (A) (A) (A) (A) (A) (A) (A) (A) (A) (A) (A)
                 (A) (A) (A) (A) (A) (A) (A) (A) (A) (A) (A) (A)
                 (A) (A) (A) (A) (A) (A) (A) (A) (A) (A) (A) (A)
                 (A) (A) (A) (A) (A) (A) (A) (A) (A) (A) (A) (A)
                 (A) (A) (A) (A) (A) (A) (A) (A) (A) (A) (A) (A)
                 (A) (A) (A) (A) (A) (A) (A) (A) (A) (A) (A) (A)
                 (A) (A) (A) (A) (A) (A) (A) (A) (A) (A) (A) (A)
                 (A) (A) (A) (A) (A) (A) (A) (A) (A) (A) (A) (A)
                 (A) (A) (A) (A) (A) (A) (A) (A) (A) (A) (A) (A)
                 (A) (A) (A) (A) (A) (A) (A) (A) (A) (A) (A) (A)
                 (A) (A) (A) (A) (A) (A) (A) (A) (A) (A) (A) (A)
                 (A) (A) (A) (A) (A) (A) (A) (A) (A) (A) (A)
 The electronic state is 1-A.
 Alpha  occ. eigenvalues --  -19.12789 -10.22424 -10.21581 -10.17835 -10.17127
 Alpha  occ. eigenvalues --  -10.17114 -10.16928 -10.16865 -10.16819 -10.16798
 Alpha  occ. eigenvalues --  -10.16617 -10.16491  -1.01512  -0.81911  -0.79028
 Alpha  occ. eigenvalues --   -0.76558  -0.71406  -0.69288  -0.68270  -0.64841
 Alpha  occ. eigenvalues --   -0.61093  -0.57471  -0.56212  -0.55326  -0.48080
 Alpha  occ. eigenvalues --   -0.47568  -0.46921  -0.45231  -0.44576  -0.43002
 Alpha  occ. eigenvalues --   -0.42549  -0.41369  -0.40300  -0.39782  -0.38646
 Alpha  occ. eigenvalues --   -0.37902  -0.37036  -0.35702  -0.35149  -0.34532
 Alpha  occ. eigenvalues --   -0.33925  -0.33245  -0.32910  -0.31884  -0.31721
 Alpha  occ. eigenvalues --   -0.31013  -0.29944  -0.28415  -0.24618
 Alpha virt. eigenvalues --    0.08404   0.09445   0.10381   0.10963   0.11511
 Alpha virt. eigenvalues --    0.12627   0.12992   0.13525   0.14206   0.15304
 Alpha virt. eigenvalues --    0.15525   0.15852   0.16740   0.16952   0.17382
 Alpha virt. eigenvalues --    0.17931   0.18755   0.19022   0.19566   0.19709
 Alpha virt. eigenvalues --    0.19803   0.21443   0.21633   0.22206   0.23009
 Alpha virt. eigenvalues --    0.23618   0.23815   0.24909   0.25210   0.26506
 Alpha virt. eigenvalues --    0.27208   0.27720   0.28478   0.32339   0.34809
 Alpha virt. eigenvalues --    0.42237   0.44116   0.46102   0.47005   0.48365
 Alpha virt. eigenvalues --    0.48779   0.50168   0.50578   0.51912   0.52363
 Alpha virt. eigenvalues --    0.52550   0.52936   0.54705   0.55481   0.56174
 Alpha virt. eigenvalues --    0.57681   0.58401   0.58880   0.59983   0.61117
 Alpha virt. eigenvalues --    0.62233   0.64071   0.65329   0.66075   0.66259
 Alpha virt. eigenvalues --    0.68503   0.69589   0.70047   0.71270   0.71658
 Alpha virt. eigenvalues --    0.72716   0.73155   0.73813   0.74119   0.74190
 Alpha virt. eigenvalues --    0.74369   0.74804   0.75533   0.76234   0.76605
 Alpha virt. eigenvalues --    0.76866   0.77487   0.78146   0.78818   0.79362
 Alpha virt. eigenvalues --    0.80303   0.80543   0.80874   0.81615   0.82475
 Alpha virt. eigenvalues --    0.83500   0.84533   0.86317   0.87454   0.87862
 Alpha virt. eigenvalues --    0.88293   0.89506   0.89700   0.91288   0.91813
 Alpha virt. eigenvalues --    0.94810   0.96046   0.97347   1.01410   1.04582
 Alpha virt. eigenvalues --    1.05485   1.08532   1.09386   1.10684   1.11919
 Alpha virt. eigenvalues --    1.13568   1.16042   1.16613   1.18824   1.20008
 Alpha virt. eigenvalues --    1.21478   1.22776   1.23942   1.25616   1.27639
 Alpha virt. eigenvalues --    1.30516   1.32265   1.34483   1.35491   1.36347
 Alpha virt. eigenvalues --    1.36758   1.38167   1.39183   1.41151   1.42696
 Alpha virt. eigenvalues --    1.43008   1.45036   1.46302   1.47859   1.49145
 Alpha virt. eigenvalues --    1.49398   1.49553   1.54172   1.54430   1.55922
 Alpha virt. eigenvalues --    1.57402   1.58011   1.58499   1.60198   1.61964
 Alpha virt. eigenvalues --    1.63632   1.66201   1.66633   1.70369   1.70584
 Alpha virt. eigenvalues --    1.72014   1.73586   1.76586   1.78978   1.80458
 Alpha virt. eigenvalues --    1.81113   1.82164   1.84090   1.85361   1.86028
 Alpha virt. eigenvalues --    1.87120   1.88216   1.88764   1.92082   1.93075
 Alpha virt. eigenvalues --    1.94146   1.94825   1.95723   1.95942   1.97035
 Alpha virt. eigenvalues --    1.98217   1.99267   1.99814   2.02419   2.06922
 Alpha virt. eigenvalues --    2.15067   2.15629   2.17000   2.19054   2.20867
 Alpha virt. eigenvalues --    2.23286   2.24341   2.25782   2.26433   2.28933
 Alpha virt. eigenvalues --    2.29793   2.30481   2.33033   2.33895   2.35162
 Alpha virt. eigenvalues --    2.36366   2.37191   2.40805   2.41127   2.43098
 Alpha virt. eigenvalues --    2.45726   2.47619   2.48782   2.51653   2.56222
 Alpha virt. eigenvalues --    2.57653   2.61114   2.62384   2.63994   2.68207
 Alpha virt. eigenvalues --    2.68824   2.73270   2.73882   2.74524   2.75132
 Alpha virt. eigenvalues --    2.76117   2.76553   2.77147   2.79307   2.79475
 Alpha virt. eigenvalues --    2.80081   2.80708   2.82034   2.82195   2.82969
 Alpha virt. eigenvalues --    2.83858   2.85011   2.86056   2.87512   2.88617
 Alpha virt. eigenvalues --    2.89601   2.89900   2.90129   2.91166   2.92126
 Alpha virt. eigenvalues --    2.92989   2.93692   2.93884   2.95560   2.96166
 Alpha virt. eigenvalues --    2.96453   2.98104   2.98235   2.99268   3.00079
 Alpha virt. eigenvalues --    3.00237   3.03543   3.06824   3.07601   3.08792
 Alpha virt. eigenvalues --    3.11202   3.13637   3.14903   3.15267   3.17231
 Alpha virt. eigenvalues --    3.18678   3.19852   3.22023   3.23231   3.25766
 Alpha virt. eigenvalues --    3.26300   3.28132   3.31698   3.34940   3.36980
 Alpha virt. eigenvalues --    3.38297   3.39374   3.40176   3.41770   3.43447
 Alpha virt. eigenvalues --    3.43860   3.46681   3.48241   3.49236   3.49481
 Alpha virt. eigenvalues --    3.52544   3.52586   3.54296   3.54982   3.57223
 Alpha virt. eigenvalues --    3.57875   3.61717   3.62219   3.63714   3.64154
 Alpha virt. eigenvalues --    3.65863   3.67953   3.68448   3.69712   3.70963
 Alpha virt. eigenvalues --    3.72333   3.74037   3.75650   3.76138   3.77153
 Alpha virt. eigenvalues --    3.78218   3.80063   3.81495   3.81782   3.83380
 Alpha virt. eigenvalues --    3.87034   3.89916   3.91197   3.93000   3.96476
 Alpha virt. eigenvalues --    3.97445   3.97641   4.00497   4.01699   4.06660
 Alpha virt. eigenvalues --    4.11925   4.15274   4.20311   4.25348   4.29168
 Alpha virt. eigenvalues --    4.32721   4.34988   4.35689   4.37520   4.38089
 Alpha virt. eigenvalues --    4.38866   4.40262   4.42447   4.44064   4.44765
 Alpha virt. eigenvalues --    4.46443   4.46880   4.48300   4.49341   4.51109
 Alpha virt. eigenvalues --    4.52243   4.53026   4.53737   4.55152   4.55716
 Alpha virt. eigenvalues --    4.57001   4.59460   4.60179   4.60864   4.61779
 Alpha virt. eigenvalues --    4.62987   4.63203   4.64491   4.65986   4.66241
 Alpha virt. eigenvalues --    4.66666   4.69262   4.70361   4.70643   4.71494
 Alpha virt. eigenvalues --    4.72966   4.73759   4.74601   4.75543   4.76206
 Alpha virt. eigenvalues --    4.77231   4.78046   4.79194   4.79973   4.80576
 Alpha virt. eigenvalues --    4.81113   4.82020   4.84214   4.84663   4.85356
 Alpha virt. eigenvalues --    4.86040   4.86621   4.88946   4.90436   4.92034
 Alpha virt. eigenvalues --    4.93490   4.94686   4.95138   4.98313   4.99338
 Alpha virt. eigenvalues --    5.00015   5.04428   5.05963   5.11160   5.18884
 Alpha virt. eigenvalues --    5.23980   5.26528   5.27027   5.31963   5.35996
 Alpha virt. eigenvalues --    5.39192   5.41597   5.43496   5.46517   5.47958
 Alpha virt. eigenvalues --    5.51313   5.51792   5.54221   5.57922   5.62865
 Alpha virt. eigenvalues --    5.67014   5.71684   5.87268   5.89572   5.99493
 Alpha virt. eigenvalues --    6.03044   6.15527   6.24305   6.39827   7.10210
 Alpha virt. eigenvalues --   11.15036  11.22064  11.34460  11.49602  11.79409
 Alpha virt. eigenvalues --   11.89966  12.15874  12.36124  12.39020  12.40849
 Alpha virt. eigenvalues --   12.72067  13.48565
          Condensed to atoms (all electrons):
               1          2          3          4          5          6
     1  C    4.951064   0.405768  -0.037487   0.002345  -0.000152   0.000008
     2  C    0.405768   4.782769   0.429940  -0.033711   0.002042   0.000529
     3  C   -0.037487   0.429940   4.780374   0.427623  -0.030978  -0.004805
     4  C    0.002345  -0.033711   0.427623   4.850867   0.422224  -0.033701
     5  C   -0.000152   0.002042  -0.030978   0.422224   4.604247   0.404393
     6  C    0.000008   0.000529  -0.004805  -0.033701   0.404393   5.006606
     7  C    0.000001  -0.000147   0.001852  -0.034099   0.426609  -0.034484
     8  C   -0.000000   0.000001  -0.000138   0.001410  -0.028853  -0.004016
     9  C    0.000000  -0.000000   0.000000  -0.000107   0.000835   0.000460
    10  C   -0.000000   0.000000   0.000000   0.000011   0.000425  -0.000012
    11  O   -0.000000   0.000000  -0.000000   0.000000  -0.000011  -0.000000
    12  C    0.000000  -0.000000   0.000000  -0.000000  -0.000000   0.000000
    13  H    0.370410  -0.022458   0.003455  -0.000179   0.000001   0.000000
    14  H    0.379284  -0.029592  -0.004227   0.000217   0.000005   0.000000
    15  H    0.378905  -0.029303  -0.005362   0.000225   0.000010  -0.000012
    16  H   -0.035197   0.369482  -0.032843  -0.001816   0.000078  -0.000004
    17  H   -0.035609   0.369905  -0.032036  -0.002466   0.000218  -0.000015
    18  H   -0.003352  -0.036308   0.366954  -0.031654  -0.005307   0.000226
    19  H   -0.002671  -0.036733   0.364346  -0.032019  -0.001612  -0.001045
    20  H    0.000088  -0.002896  -0.032030   0.352607  -0.025005   0.005251
    21  H    0.000108  -0.003783  -0.034110   0.356123  -0.025695  -0.008639
    22  H    0.000005   0.000081  -0.004332  -0.040696   0.359476  -0.051916
    23  H    0.000001  -0.000044  -0.000317  -0.005627  -0.026015   0.371439
    24  H    0.000013  -0.000125  -0.000466  -0.004581  -0.023473   0.371060
    25  H   -0.000000  -0.000006   0.000203   0.004027  -0.023164   0.372602
    26  H    0.000000   0.000007   0.000250  -0.004188  -0.025316   0.005487
    27  H    0.000000   0.000004   0.000149  -0.004740  -0.025801  -0.008946
    28  H    0.000000   0.000000   0.000007   0.000106  -0.004829   0.000417
    29  H    0.000000   0.000000   0.000006   0.000192  -0.001931  -0.001054
    30  H    0.000000   0.000000   0.000000   0.000012   0.000078  -0.000026
    31  H   -0.000000   0.000000   0.000000   0.000001  -0.000032  -0.000000
    32  H   -0.000000   0.000000   0.000000  -0.000016   0.000105   0.000001
    33  H    0.000000  -0.000000  -0.000000  -0.000000  -0.000006   0.000000
    34  H   -0.000000   0.000000  -0.000000   0.000000  -0.000000   0.000000
    35  H    0.000000   0.000000   0.000000   0.000000   0.000000  -0.000000
    36  H    0.000000  -0.000000   0.000000   0.000000   0.000000   0.000000
               7          8          9         10         11         12
     1  C    0.000001  -0.000000   0.000000  -0.000000  -0.000000   0.000000
     2  C   -0.000147   0.000001  -0.000000   0.000000   0.000000  -0.000000
     3  C    0.001852  -0.000138   0.000000   0.000000  -0.000000   0.000000
     4  C   -0.034099   0.001410  -0.000107   0.000011   0.000000  -0.000000
     5  C    0.426609  -0.028853   0.000835   0.000425  -0.000011  -0.000000
     6  C   -0.034484  -0.004016   0.000460  -0.000012  -0.000000   0.000000
     7  C    4.891504   0.375704  -0.035765  -0.001088   0.001716  -0.000265
     8  C    0.375704   4.923068   0.427737  -0.035230  -0.027685   0.004875
     9  C   -0.035765   0.427737   4.576175   0.361942   0.366562  -0.080556
    10  C   -0.001088  -0.035230   0.361942   5.102820  -0.040397  -0.004119
    11  O    0.001716  -0.027685   0.366562  -0.040397   7.710076   0.366832
    12  C   -0.000265   0.004875  -0.080556  -0.004119   0.366832   4.828661
    13  H   -0.000000   0.000000  -0.000000  -0.000000   0.000000  -0.000000
    14  H    0.000000   0.000000   0.000000   0.000000   0.000000   0.000000
    15  H    0.000000   0.000000   0.000000  -0.000000   0.000000   0.000000
    16  H    0.000003   0.000000   0.000000  -0.000000   0.000000   0.000000
    17  H    0.000009   0.000000   0.000000   0.000000   0.000000   0.000000
    18  H    0.000161   0.000006   0.000000  -0.000000   0.000000   0.000000
    19  H    0.000264   0.000005   0.000000   0.000000   0.000000   0.000000
    20  H   -0.004692   0.000174   0.000014  -0.000013   0.000000   0.000000
    21  H   -0.004250   0.000130   0.000006   0.000000   0.000000   0.000000
    22  H   -0.039745  -0.003906   0.000193  -0.000020   0.000000   0.000000
    23  H   -0.005592  -0.000342  -0.000026   0.000000   0.000000  -0.000000
    24  H    0.004177   0.000146  -0.000005   0.000000  -0.000000  -0.000000
    25  H   -0.005050   0.000216  -0.000045  -0.000004  -0.000001  -0.000000
    26  H    0.354286  -0.033311  -0.004865  -0.000263   0.000004   0.000006
    27  H    0.355589  -0.036962  -0.001911  -0.001091   0.000024   0.000005
    28  H   -0.027372   0.348961  -0.020829   0.006291   0.003699   0.000240
    29  H   -0.031514   0.353177  -0.022547  -0.010492   0.001295   0.000064
    30  H   -0.000812  -0.042130   0.350061  -0.073257  -0.034837  -0.007039
    31  H    0.000151  -0.007102  -0.018842   0.365075   0.000898   0.000223
    32  H   -0.002118  -0.003702  -0.013804   0.359137   0.002420   0.000005
    33  H    0.000193   0.004054  -0.023420   0.370053  -0.003011   0.000859
    34  H   -0.000000  -0.000273   0.004475   0.000189  -0.019109   0.383564
    35  H    0.000026  -0.000023  -0.003555   0.004173  -0.035143   0.371584
    36  H    0.000028   0.000295  -0.008468  -0.002595  -0.032197   0.367342
              13         14         15         16         17         18
     1  C    0.370410   0.379284   0.378905  -0.035197  -0.035609  -0.003352
     2  C   -0.022458  -0.029592  -0.029303   0.369482   0.369905  -0.036308
     3  C    0.003455  -0.004227  -0.005362  -0.032843  -0.032036   0.366954
     4  C   -0.000179   0.000217   0.000225  -0.001816  -0.002466  -0.031654
     5  C    0.000001   0.000005   0.000010   0.000078   0.000218  -0.005307
     6  C    0.000000   0.000000  -0.000012  -0.000004  -0.000015   0.000226
     7  C   -0.000000   0.000000   0.000000   0.000003   0.000009   0.000161
     8  C    0.000000   0.000000   0.000000   0.000000   0.000000   0.000006
     9  C   -0.000000   0.000000   0.000000   0.000000   0.000000   0.000000
    10  C   -0.000000   0.000000  -0.000000  -0.000000   0.000000  -0.000000
    11  O    0.000000   0.000000   0.000000   0.000000   0.000000   0.000000
    12  C   -0.000000   0.000000   0.000000   0.000000   0.000000   0.000000
    13  H    0.613084  -0.031882  -0.032058  -0.002082  -0.002357  -0.000019
    14  H   -0.031882   0.602818  -0.033650  -0.004448   0.005706  -0.000488
    15  H   -0.032058  -0.033650   0.603279   0.005692  -0.004493   0.006159
    16  H   -0.002082  -0.004448   0.005692   0.647985  -0.042006   0.006396
    17  H   -0.002357   0.005706  -0.004493  -0.042006   0.646127  -0.005884
    18  H   -0.000019  -0.000488   0.006159   0.006396  -0.005884   0.644513
    19  H   -0.000052   0.005092  -0.000416  -0.005862   0.006292  -0.043580
    20  H    0.000005   0.000005   0.000010   0.004807  -0.000426   0.006405
    21  H    0.000004   0.000011   0.000003  -0.000484   0.005282  -0.004906
    22  H    0.000000  -0.000002   0.000001   0.000002   0.000010  -0.000099
    23  H   -0.000000  -0.000000   0.000000   0.000001   0.000004   0.000941
    24  H   -0.000000   0.000002  -0.000006   0.000001   0.000024   0.004056
    25  H    0.000000  -0.000000   0.000000   0.000000  -0.000000  -0.000211
    26  H    0.000000   0.000000  -0.000000  -0.000001   0.000001   0.000005
    27  H    0.000000  -0.000000   0.000000   0.000001  -0.000002   0.000006
    28  H    0.000000  -0.000000   0.000000  -0.000000  -0.000000  -0.000001
    29  H    0.000000  -0.000000   0.000000   0.000000  -0.000000   0.000000
    30  H    0.000000   0.000000  -0.000000   0.000000  -0.000000  -0.000000
    31  H    0.000000   0.000000  -0.000000   0.000000   0.000000   0.000000
    32  H   -0.000000  -0.000000   0.000000   0.000000   0.000000  -0.000000
    33  H   -0.000000   0.000000   0.000000   0.000000   0.000000  -0.000000
    34  H    0.000000  -0.000000  -0.000000   0.000000   0.000000  -0.000000
    35  H    0.000000   0.000000  -0.000000  -0.000000  -0.000000   0.000000
    36  H    0.000000   0.000000   0.000000  -0.000000   0.000000  -0.000000
              19         20         21         22         23         24
     1  C   -0.002671   0.000088   0.000108   0.000005   0.000001   0.000013
     2  C   -0.036733  -0.002896  -0.003783   0.000081  -0.000044  -0.000125
     3  C    0.364346  -0.032030  -0.034110  -0.004332  -0.000317  -0.000466
     4  C   -0.032019   0.352607   0.356123  -0.040696  -0.005627  -0.004581
     5  C   -0.001612  -0.025005  -0.025695   0.359476  -0.026015  -0.023473
     6  C   -0.001045   0.005251  -0.008639  -0.051916   0.371439   0.371060
     7  C    0.000264  -0.004692  -0.004250  -0.039745  -0.005592   0.004177
     8  C    0.000005   0.000174   0.000130  -0.003906  -0.000342   0.000146
     9  C    0.000000   0.000014   0.000006   0.000193  -0.000026  -0.000005
    10  C    0.000000  -0.000013   0.000000  -0.000020   0.000000   0.000000
    11  O    0.000000   0.000000   0.000000   0.000000   0.000000  -0.000000
    12  C    0.000000   0.000000   0.000000   0.000000  -0.000000  -0.000000
    13  H   -0.000052   0.000005   0.000004   0.000000  -0.000000  -0.000000
    14  H    0.005092   0.000005   0.000011  -0.000002  -0.000000   0.000002
    15  H   -0.000416   0.000010   0.000003   0.000001   0.000000  -0.000006
    16  H   -0.005862   0.004807  -0.000484   0.000002   0.000001   0.000001
    17  H    0.006292  -0.000426   0.005282   0.000010   0.000004   0.000024
    18  H   -0.043580   0.006405  -0.004906  -0.000099   0.000941   0.004056
    19  H    0.652552  -0.005749   0.006413   0.005610   0.000100   0.001016
    20  H   -0.005749   0.656800  -0.042478  -0.004171  -0.000019  -0.000047
    21  H    0.006413  -0.042478   0.651922   0.006722   0.005105   0.000099
    22  H    0.005610  -0.004171   0.006722   0.697320   0.006350  -0.002980
    23  H    0.000100  -0.000019   0.005105   0.006350   0.607607  -0.033648
    24  H    0.001016  -0.000047   0.000099  -0.002980  -0.033648   0.602537
    25  H   -0.000042  -0.000182  -0.000073  -0.003028  -0.033334  -0.030413
    26  H   -0.000009   0.006375  -0.000385  -0.004467  -0.000001  -0.000197
    27  H    0.000011  -0.000281   0.005239   0.006881   0.005181  -0.000071
    28  H    0.000000   0.000002   0.000007  -0.000052   0.000871  -0.000191
    29  H   -0.000002  -0.000006   0.000009   0.005442   0.000097  -0.000044
    30  H   -0.000000   0.000000  -0.000002   0.000011   0.000006  -0.000000
    31  H   -0.000000   0.000000  -0.000000   0.000008   0.000000  -0.000000
    32  H    0.000000  -0.000003   0.000002   0.000021  -0.000000  -0.000000
    33  H    0.000000   0.000000   0.000000  -0.000000  -0.000000  -0.000000
    34  H   -0.000000   0.000000   0.000000   0.000000   0.000000  -0.000000
    35  H   -0.000000  -0.000000   0.000000   0.000000   0.000000  -0.000000
    36  H    0.000000   0.000000  -0.000000  -0.000000  -0.000000   0.000000
              25         26         27         28         29         30
     1  C   -0.000000   0.000000   0.000000   0.000000   0.000000   0.000000
     2  C   -0.000006   0.000007   0.000004   0.000000   0.000000   0.000000
     3  C    0.000203   0.000250   0.000149   0.000007   0.000006   0.000000
     4  C    0.004027  -0.004188  -0.004740   0.000106   0.000192   0.000012
     5  C   -0.023164  -0.025316  -0.025801  -0.004829  -0.001931   0.000078
     6  C    0.372602   0.005487  -0.008946   0.000417  -0.001054  -0.000026
     7  C   -0.005050   0.354286   0.355589  -0.027372  -0.031514  -0.000812
     8  C    0.000216  -0.033311  -0.036962   0.348961   0.353177  -0.042130
     9  C   -0.000045  -0.004865  -0.001911  -0.020829  -0.022547   0.350061
    10  C   -0.000004  -0.000263  -0.001091   0.006291  -0.010492  -0.073257
    11  O   -0.000001   0.000004   0.000024   0.003699   0.001295  -0.034837
    12  C   -0.000000   0.000006   0.000005   0.000240   0.000064  -0.007039
    13  H    0.000000   0.000000   0.000000   0.000000   0.000000   0.000000
    14  H   -0.000000   0.000000  -0.000000  -0.000000  -0.000000   0.000000
    15  H    0.000000  -0.000000   0.000000   0.000000   0.000000  -0.000000
    16  H    0.000000  -0.000001   0.000001  -0.000000   0.000000   0.000000
    17  H   -0.000000   0.000001  -0.000002  -0.000000  -0.000000  -0.000000
    18  H   -0.000211   0.000005   0.000006  -0.000001   0.000000  -0.000000
    19  H   -0.000042  -0.000009   0.000011   0.000000  -0.000002  -0.000000
    20  H   -0.000182   0.006375  -0.000281   0.000002  -0.000006   0.000000
    21  H   -0.000073  -0.000385   0.005239   0.000007   0.000009  -0.000002
    22  H   -0.003028  -0.004467   0.006881  -0.000052   0.005442   0.000011
    23  H   -0.033334  -0.000001   0.005181   0.000871   0.000097   0.000006
    24  H   -0.030413  -0.000197  -0.000071  -0.000191  -0.000044  -0.000000
    25  H    0.596689  -0.000011   0.000034   0.003486   0.000854   0.000025
    26  H   -0.000011   0.652292  -0.043156   0.006112  -0.004831   0.000093
    27  H    0.000034  -0.043156   0.653733  -0.004877   0.006297   0.005834
    28  H    0.003486   0.006112  -0.004877   0.634155  -0.042199  -0.006127
    29  H    0.000854  -0.004831   0.006297  -0.042199   0.636337   0.007026
    30  H    0.000025   0.000093   0.005834  -0.006127   0.007026   0.721806
    31  H    0.000000   0.001037   0.000113  -0.000034   0.005384   0.006532
    32  H   -0.000000   0.003940   0.001078  -0.000103   0.000347   0.001411
    33  H   -0.000000  -0.000215  -0.000044  -0.000191  -0.000071  -0.003715
    34  H    0.000000   0.000000   0.000000  -0.000007   0.000007  -0.000021
    35  H   -0.000000  -0.000001  -0.000000   0.000042  -0.000025  -0.001823
    36  H    0.000000   0.000000   0.000000  -0.000088   0.000042   0.015457
              31         32         33         34         35         36
     1  C   -0.000000  -0.000000   0.000000  -0.000000   0.000000   0.000000
     2  C    0.000000   0.000000  -0.000000   0.000000   0.000000  -0.000000
     3  C    0.000000   0.000000  -0.000000  -0.000000   0.000000   0.000000
     4  C    0.000001  -0.000016  -0.000000   0.000000   0.000000   0.000000
     5  C   -0.000032   0.000105  -0.000006  -0.000000   0.000000   0.000000
     6  C   -0.000000   0.000001   0.000000   0.000000  -0.000000   0.000000
     7  C    0.000151  -0.002118   0.000193  -0.000000   0.000026   0.000028
     8  C   -0.007102  -0.003702   0.004054  -0.000273  -0.000023   0.000295
     9  C   -0.018842  -0.013804  -0.023420   0.004475  -0.003555  -0.008468
    10  C    0.365075   0.359137   0.370053   0.000189   0.004173  -0.002595
    11  O    0.000898   0.002420  -0.003011  -0.019109  -0.035143  -0.032197
    12  C    0.000223   0.000005   0.000859   0.383564   0.371584   0.367342
    13  H    0.000000  -0.000000  -0.000000   0.000000   0.000000   0.000000
    14  H    0.000000  -0.000000   0.000000  -0.000000   0.000000   0.000000
    15  H   -0.000000   0.000000   0.000000  -0.000000  -0.000000   0.000000
    16  H    0.000000   0.000000   0.000000   0.000000  -0.000000  -0.000000
    17  H    0.000000   0.000000   0.000000   0.000000  -0.000000   0.000000
    18  H    0.000000  -0.000000  -0.000000  -0.000000   0.000000  -0.000000
    19  H   -0.000000   0.000000   0.000000  -0.000000  -0.000000   0.000000
    20  H    0.000000  -0.000003   0.000000   0.000000  -0.000000   0.000000
    21  H   -0.000000   0.000002   0.000000   0.000000   0.000000  -0.000000
    22  H    0.000008   0.000021  -0.000000   0.000000   0.000000  -0.000000
    23  H    0.000000  -0.000000  -0.000000   0.000000   0.000000  -0.000000
    24  H   -0.000000  -0.000000  -0.000000  -0.000000  -0.000000   0.000000
    25  H    0.000000  -0.000000  -0.000000   0.000000  -0.000000   0.000000
    26  H    0.001037   0.003940  -0.000215   0.000000  -0.000001   0.000000
    27  H    0.000113   0.001078  -0.000044   0.000000  -0.000000   0.000000
    28  H   -0.000034  -0.000103  -0.000191  -0.000007   0.000042  -0.000088
    29  H    0.005384   0.000347  -0.000071   0.000007  -0.000025   0.000042
    30  H    0.006532   0.001411  -0.003715  -0.000021  -0.001823   0.015457
    31  H    0.591002  -0.029941  -0.034772  -0.000044   0.000368   0.000243
    32  H   -0.029941   0.590607  -0.029258   0.000001  -0.000549   0.000055
    33  H   -0.034772  -0.029258   0.605281  -0.000112   0.003036   0.000518
    34  H   -0.000044   0.000001  -0.000112   0.581186  -0.038559  -0.034638
    35  H    0.000368  -0.000549   0.003036  -0.038559   0.641709  -0.050107
    36  H    0.000243   0.000055   0.000518  -0.034638  -0.050107   0.642899
 Mulliken charges:
               1
     1  C   -0.373532
     2  C   -0.165421
     3  C   -0.156027
     4  C   -0.188388
     5  C    0.027435
     6  C   -0.389805
     7  C   -0.185281
     8  C   -0.216283
     9  C    0.146282
    10  C   -0.401534
    11  O   -0.261135
    12  C   -0.232282
    13  H    0.104129
    14  H    0.111148
    15  H    0.111015
    16  H    0.090297
    17  H    0.091716
    18  H    0.095981
    19  H    0.088090
    20  H    0.085453
    21  H    0.087621
    22  H    0.067283
    23  H    0.107263
    24  H    0.113116
    25  H    0.117429
    26  H    0.091321
    27  H    0.087705
    28  H    0.102503
    29  H    0.098141
    30  H    0.061437
    31  H    0.119732
    32  H    0.120363
    33  H    0.110824
    34  H    0.123342
    35  H    0.108848
    36  H    0.101213
 Sum of Mulliken charges =  -0.00000
 Mulliken charges with hydrogens summed into heavy atoms:
               1
     1  C   -0.047240
     2  C    0.016592
     3  C    0.028044
     4  C   -0.015314
     5  C    0.094718
     6  C   -0.051996
     7  C   -0.006255
     8  C   -0.015640
     9  C    0.207719
    10  C   -0.050615
    11  O   -0.261135
    12  C    0.101121
 Electronic spatial extent (au):  <R**2>=           4882.5715
 Charge=             -0.0000 electrons
 Dipole moment (field-independent basis, Debye):
    X=              0.0045    Y=             -0.8621    Z=              0.6490  Tot=              1.0791
 Quadrupole moment (field-independent basis, Debye-Ang):
   XX=            -78.2832   YY=            -80.2034   ZZ=            -78.6906
   XY=             -3.0466   XZ=              2.7759   YZ=              0.8322
 Traceless Quadrupole moment (field-independent basis, Debye-Ang):
   XX=              0.7759   YY=             -1.1444   ZZ=              0.3685
   XY=             -3.0466   XZ=              2.7759   YZ=              0.8322
 Octapole moment (field-independent basis, Debye-Ang**2):
  XXX=             68.4340  YYY=              1.5986  ZZZ=             -1.3154  XYY=              3.9918
  XXY=             -9.9376  XXZ=             13.1210  XZZ=              4.8753  YZZ=              0.6836
  YYZ=             -1.0512  XYZ=              0.9687
 Hexadecapole moment (field-independent basis, Debye-Ang**3):
 XXXX=          -5728.1367 YYYY=           -524.3510 ZZZZ=           -187.3342 XXXY=             -3.7926
 XXXZ=             18.7211 YYYX=             11.8402 YYYZ=             -1.9207 ZZZX=             -2.9357
 ZZZY=              1.7132 XXYY=          -1068.5380 XXZZ=          -1011.3596 YYZZ=           -121.0789
 XXYZ=             10.3613 YYXZ=             -1.0813 ZZXY=              3.1388
 N-N= 7.339636802132D+02 E-N=-2.647591694507D+03  KE= 5.046811757414D+02
 PrsmSu:  requested number of processors reduced to:  13 ShMem   1 Linda.
 Calling FoFJK, ICntrl=      2127 FMM=F ISym2X=0 I1Cent= 0 IOpClX= 0 NMat=1 NMatS=1 NMatT=0.
 ***** Axes restored to original set *****
 -------------------------------------------------------------------
 Center     Atomic                   Forces (Hartrees/Bohr)
 Number     Number              X              Y              Z
 -------------------------------------------------------------------
      1        6          -0.003969831    0.000316047    0.006996822
      2        6          -0.005985855   -0.002118024   -0.004670546
      3        6           0.007329703    0.003730200    0.008817337
      4        6          -0.004819831   -0.004655574   -0.011043924
      5        6           0.007152126    0.008226792    0.008923854
      6        6          -0.004848737   -0.002428651   -0.005087033
      7        6          -0.002903699   -0.006598004   -0.007149829
      8        6           0.004749495    0.005872500   -0.001222448
      9        6          -0.006787324   -0.010440752   -0.009834185
     10        6           0.007811857   -0.001199939    0.002690473
     11        8           0.004211909    0.003087572    0.002881535
     12        6          -0.010997739   -0.003675328   -0.003049097
     13        1          -0.003870875   -0.000306841    0.000290374
     14        1          -0.001602484   -0.000228734    0.000277793
     15        1          -0.001026292   -0.000537570    0.000476395
     16        1           0.001291240    0.000176731    0.001278760
     17        1           0.002138740    0.000060228    0.001011617
     18        1          -0.000729389   -0.000849479   -0.001525930
     19        1          -0.001758407   -0.000988286   -0.001021319
     20        1           0.000737770    0.001218125   -0.000663639
     21        1           0.000749184    0.002016962    0.000061639
     22        1          -0.000498152   -0.002028662   -0.000820353
     23        1           0.000228611    0.002100657    0.000357923
     24        1          -0.000044510    0.001306780    0.001497608
     25        1           0.001775070    0.001028842    0.000556580
     26        1           0.000950316    0.001505984    0.000378594
     27        1          -0.000491151    0.002165324    0.001918195
     28        1           0.001476903   -0.000839652    0.001188000
     29        1           0.002550744   -0.002404692    0.000283059
     30        1           0.002774089    0.002850875    0.002927321
     31        1          -0.001743731    0.000072495    0.000024789
     32        1          -0.000897046    0.000307222   -0.000671646
     33        1           0.000982844   -0.000178956    0.000247766
     34        1          -0.003036856    0.001314372   -0.000708192
     35        1           0.005342521   -0.000072673    0.001919875
     36        1           0.003758785    0.002194109    0.002461834
 -------------------------------------------------------------------
 Cartesian Forces:  Max     0.011043924 RMS     0.003782015

 GradGradGradGradGradGradGradGradGradGradGradGradGradGradGradGradGradGrad
 Berny optimization.
 FormGI is forming the generalized inverse of G from B-inverse, IUseBI=4.
 Internal  Forces:  Max     0.017470492 RMS     0.003367603
 Search for a local minimum.
 Step number   1 out of a maximum of  199
 All quantities printed in internal units (Hartrees-Bohrs-Radians)
 Mixed Optimization -- RFO/linear search
 Second derivative matrix not updated -- first step.
 ITU=  0
     Eigenvalues ---    0.00230   0.00304   0.00314   0.00352   0.00372
     Eigenvalues ---    0.00405   0.00444   0.00472   0.00507   0.01239
     Eigenvalues ---    0.01414   0.03433   0.03484   0.03573   0.03646
     Eigenvalues ---    0.03677   0.03953   0.04400   0.04562   0.04794
     Eigenvalues ---    0.04816   0.04830   0.04901   0.04925   0.04936
     Eigenvalues ---    0.05018   0.05402   0.05409   0.05471   0.05561
     Eigenvalues ---    0.05671   0.05693   0.07265   0.07860   0.08198
     Eigenvalues ---    0.08270   0.08337   0.08452   0.10102   0.10473
     Eigenvalues ---    0.11826   0.12107   0.12145   0.12208   0.12298
     Eigenvalues ---    0.16000   0.16000   0.16000   0.16000   0.16000
     Eigenvalues ---    0.16000   0.16000   0.16000   0.16000   0.16000
     Eigenvalues ---    0.16000   0.16000   0.16197   0.16348   0.16836
     Eigenvalues ---    0.19636   0.21862   0.21871   0.21888   0.21927
     Eigenvalues ---    0.21938   0.25000   0.28264   0.28972   0.29043
     Eigenvalues ---    0.29303   0.29442   0.29677   0.29951   0.30151
     Eigenvalues ---    0.30408   0.33696   0.34008   0.34079   0.34118
     Eigenvalues ---    0.34132   0.34132   0.34142   0.34172   0.34191
     Eigenvalues ---    0.34225   0.34240   0.34240   0.34282   0.34320
     Eigenvalues ---    0.34325   0.34399   0.34438   0.34460   0.34462
     Eigenvalues ---    0.34464   0.34488   0.34526   0.34526   0.34552
     Eigenvalues ---    0.40389   0.42310
 RFO step:  Lambda=-1.15294227D-02 EMin= 2.30000000D-03
 Linear search not attempted -- first point.
 Iteration  1 RMS(Cart)=  0.11201752 RMS(Int)=  0.00250604
 Iteration  2 RMS(Cart)=  0.00588158 RMS(Int)=  0.00021847
 Iteration  3 RMS(Cart)=  0.00000829 RMS(Int)=  0.00021841
 Iteration  4 RMS(Cart)=  0.00000000 RMS(Int)=  0.00021841
 Variable       Old X    -DE/DX   Delta X   Delta X   Delta X     New X
                                 (Linear)    (Quad)   (Total)
    R1        2.87158   0.01049   0.00000   0.03323   0.03323   2.90481
    R2        2.06514   0.00162   0.00000   0.00455   0.00455   2.06968
    R3        2.06794   0.00063   0.00000   0.00178   0.00178   2.06972
    R4        2.07090  -0.00030   0.00000  -0.00085  -0.00085   2.07005
    R5        2.87662   0.00968   0.00000   0.03093   0.03093   2.90756
    R6        2.07108   0.00090   0.00000   0.00256   0.00256   2.07364
    R7        2.06951   0.00127   0.00000   0.00360   0.00360   2.07311
    R8        2.88062   0.00877   0.00000   0.02821   0.02821   2.90883
    R9        2.06857   0.00027   0.00000   0.00077   0.00077   2.06934
   R10        2.06927   0.00189   0.00000   0.00534   0.00534   2.07461
   R11        2.91566   0.00409   0.00000   0.01390   0.01390   2.92956
   R12        2.07846  -0.00102   0.00000  -0.00293  -0.00293   2.07553
   R13        2.07009   0.00188   0.00000   0.00532   0.00532   2.07541
   R14        2.89375   0.00388   0.00000   0.01274   0.01274   2.90649
   R15        2.90061   0.00785   0.00000   0.02606   0.02606   2.92666
   R16        2.07041   0.00221   0.00000   0.00625   0.00625   2.07666
   R17        2.06597   0.00199   0.00000   0.00559   0.00559   2.07156
   R18        2.06553   0.00000   0.00000   0.00001   0.00001   2.06554
   R19        2.06557   0.00004   0.00000   0.00010   0.00010   2.06567
   R20        2.89089   0.00504   0.00000   0.01647   0.01647   2.90736
   R21        2.07197  -0.00078   0.00000  -0.00222  -0.00222   2.06975
   R22        2.06927   0.00249   0.00000   0.00703   0.00703   2.07630
   R23        2.89914   0.00158   0.00000   0.00524   0.00524   2.90438
   R24        2.07317  -0.00169   0.00000  -0.00480  -0.00480   2.06837
   R25        2.07132   0.00082   0.00000   0.00232   0.00232   2.07364
   R26        2.88613   0.00389   0.00000   0.01262   0.01262   2.89874
   R27        2.71028  -0.00355   0.00000  -0.00855  -0.00855   2.70173
   R28        2.07109   0.00461   0.00000   0.01306   0.01306   2.08415
   R29        2.06784   0.00047   0.00000   0.00133   0.00133   2.06917
   R30        2.06408  -0.00036   0.00000  -0.00102  -0.00102   2.06306
   R31        2.06451   0.00100   0.00000   0.00279   0.00279   2.06731
   R32        2.68530  -0.00497   0.00000  -0.01144  -0.01144   2.67386
   R33        2.06560   0.00013   0.00000   0.00037   0.00037   2.06597
   R34        2.06452   0.00314   0.00000   0.00879   0.00879   2.07331
   R35        2.06662   0.00423   0.00000   0.01190   0.01190   2.07852
    A1        1.92952   0.00455   0.00000   0.02777   0.02765   1.95718
    A2        1.93272   0.00096   0.00000   0.00461   0.00456   1.93728
    A3        1.93120   0.00063   0.00000   0.00342   0.00336   1.93456
    A4        1.89484  -0.00282   0.00000  -0.01590  -0.01600   1.87884
    A5        1.88938  -0.00241   0.00000  -0.01215  -0.01227   1.87712
    A6        1.88480  -0.00118   0.00000  -0.00932  -0.00931   1.87548
    A7        1.91088   0.01321   0.00000   0.06540   0.06517   1.97606
    A8        1.91997  -0.00385   0.00000  -0.01207  -0.01211   1.90786
    A9        1.91085  -0.00276   0.00000  -0.00194  -0.00203   1.90882
   A10        1.92553  -0.00381   0.00000  -0.01509  -0.01540   1.91013
   A11        1.91833  -0.00436   0.00000  -0.01772  -0.01835   1.89998
   A12        1.87803   0.00125   0.00000  -0.02037  -0.02081   1.85722
   A13        1.95727   0.00603   0.00000   0.03064   0.03046   1.98773
   A14        1.87693  -0.00056   0.00000   0.00996   0.00956   1.88650
   A15        1.92275  -0.00303   0.00000  -0.02178  -0.02166   1.90109
   A16        1.92016  -0.00153   0.00000   0.00264   0.00215   1.92231
   A17        1.91027  -0.00130   0.00000  -0.00828  -0.00807   1.90220
   A18        1.87443   0.00016   0.00000  -0.01482  -0.01482   1.85962
   A19        1.95231   0.01747   0.00000   0.08227   0.08218   2.03449
   A20        1.89977  -0.00488   0.00000  -0.01879  -0.01835   1.88142
   A21        1.92069  -0.00470   0.00000  -0.00932  -0.00967   1.91102
   A22        1.90946  -0.00592   0.00000  -0.03051  -0.03059   1.87887
[...]
 0.00000199,-0.00001698,-0.00000503,0.00001997,0.00000375,0.00003159,0.
 00001755,0.00002623,-0.00000122,0.00000601,-0.00000364,0.00000290,-0.0
 0000676,0.00000247,-0.00000311,0.00000324,-0.00000477,-0.00007039,-0.0
 0011803,-0.00006478,-0.00003017,0.00010162,-0.00006092,0.00018691,-0.0
 0006608,0.00002000,-0.00000774,-0.00033365,0.00010214,-0.00114299,0.00
 311164,-0.00093381,0.04639195,0.10217165,0.09968102,-0.00000492,-0.000
 00035,-0.00001427,0.00001333,0.00000253,0.00002597,-0.00001814,-0.0000
 1613,-0.00001709,-0.00000530,0.00004441,0.00003170,-0.00019316,-0.0001
 0843,0.00012152,0.00010453,0.00005256,-0.00002234,-0.00105840,0.001043
 28,-0.00053265,0.00010145,-0.00067046,0.00047698,0.00255881,-0.0027792
 3,-0.00982450,-0.06660756,0.00169036,0.07392568,0.00024794,0.00256376,
 -0.00279741,-0.00104538,0.00039505,0.00005759,0.00001103,0.00000141,-0
 .00000835,0.00000009,0.00000032,0.00000263,0.00000109,-0.00000074,0.00
 000267,-0.00000114,0.00000162,-0.00000071,0.00000015,-0.00000413,-0.00
 000387,0.00001141,-0.00000236,0.00000181,0.00000078,0.00000150,-0.0000
 0155,-0.00001495,-0.00001491,0.00003276,0.00000239,-0.00001585,-0.0000
 0364,0.00002130,0.00000824,-0.00000237,-0.00000781,-0.00000625,-0.0000
 0501,0.00003112,-0.00004198,0.00002138,-0.00001336,0.00000424,-0.00000
 589,-0.00157365,0.00050159,0.00025702,0.00006435,-0.00012019,0.0000877
 1,0.00019065,-0.00001284,0.00014806,-0.00005130,0.00005662,-0.00003392
 ,0.00026165,-0.00030914,0.00036864,0.00296295,0.00052245,-0.01241277,0
 .07203759,0.00000301,-0.00000156,0.00000931,-0.00001122,0.00000963,-0.
 00001562,0.00001303,-0.00000076,0.00001528,-0.00000471,0.00002780,-0.0
 0003653,0.00016767,-0.00000121,-0.00016185,-0.00007755,-0.00001731,0.0
 0002117,0.00047734,-0.00010957,0.00012756,-0.00014128,0.00078359,-0.00
 050525,-0.01055243,0.00424435,0.02307573,0.00193442,-0.04790915,-0.006
 17023,0.00125590,-0.00507823,0.00637987,0.00211035,0.00023790,-0.00003
 984,-0.00000631,-0.00000012,0.00000447,-0.00000225,-0.00000084,-0.0000
 0273,0.00000088,-0.00000078,-0.00000093,0.00000164,-0.00000364,0.00000
 520,0.00000077,-0.00000286,0.,-0.00000110,-0.00000127,-0.00000111,-0.0
 0000863,-0.00000244,-0.00000367,0.00000893,0.00000336,0.00000619,0.000
 00717,-0.00001716,-0.00000230,-0.00007201,-0.00001768,-0.00002463,0.00
 001013,-0.00000335,0.00000152,-0.00002564,0.00002871,-0.00001072,0.000
 00411,-0.00000707,0.00000833,0.00065755,0.00010593,-0.00004333,-0.0000
 0694,-0.00017794,0.00000679,-0.00028783,-0.00003018,-0.00007691,0.0001
 1324,0.00001380,-0.00005454,-0.00057126,0.00057831,-0.00111727,0.00911
 925,0.00042128,-0.02534038,-0.00320158,0.04782815,-0.00000750,-0.00000
 091,-0.00001320,0.00000894,0.00000383,0.00002183,-0.00002441,-0.000013
 10,-0.00001130,-0.00004904,0.00004045,0.00003679,-0.00022088,-0.000413
 07,0.00039218,0.00027191,0.00005032,-0.00006842,0.00098224,0.00047369,
 -0.00067228,0.00013538,0.00000655,-0.00038445,0.00555022,-0.00464872,-
 0.01363317,0.07235266,-0.00463942,-0.28871892,-0.00003988,0.00463198,-
 0.00246837,-0.00213783,-0.00031438,0.00027306,0.00001052,0.00000172,-0
 .00000818,0.00000136,0.00000220,0.00000290,0.00000344,-0.00000301,0.00
 000328,-0.00000029,-0.00000328,0.00000162,-0.00000006,-0.00000102,-0.0
 0000268,0.00001716,-0.00000806,0.00000427,0.00000338,0.00000468,-0.000
 00063,-0.00001335,-0.00002601,0.00003677,0.00000056,-0.00000818,-0.000
 00296,0.00004792,0.00003114,0.00000167,-0.00001186,-0.00000325,-0.0000
 0347,0.00005339,-0.00008773,0.00005546,-0.00000459,-0.00000292,0.00003
 127,0.00010122,-0.00076424,0.00101373,-0.00006146,-0.00005658,0.000052
 36,-0.00000823,-0.00003119,0.00007795,-0.00003791,0.00009782,-0.000006
 70,0.00004795,0.00051976,0.00075089,0.00403110,0.00056004,-0.01177096,
 -0.08154325,0.00498867,0.31475039,0.00000736,-0.00000078,0.00002102,-0
 .00002061,-0.00000128,-0.00003468,0.00002228,0.00000843,0.00004592,-0.
 00005085,-0.00001009,-0.00005846,0.00011008,0.00007108,0.00001580,-0.0
 0009396,-0.00003020,-0.00002018,0.00020016,-0.00022071,-0.00029416,0.0
 0093734,0.00237047,-0.00103142,-0.01089276,-0.00053868,0.00086263,-0.3
 1006005,0.00848577,0.00403087,0.00073444,-0.00022929,-0.00029066,-0.00
 128907,0.00005334,0.00071922,-0.00001542,-0.00000190,0.00001205,-0.000
 00068,-0.00000113,-0.00000446,-0.00000152,0.00000174,-0.00000423,0.000
 00059,-0.00000284,0.00000319,0.,0.00000386,0.00000502,-0.00000636,0.00
 000228,-0.00000326,-0.00000097,-0.00000189,-0.00000002,0.00000530,0.00
 000221,-0.00001088,-0.00000345,0.00001365,0.00001013,0.00000361,0.0000
 0064,-0.00000124,0.00000802,0.00001392,0.00001022,-0.00004844,0.000034
 67,0.00001078,0.00002891,-0.00003059,0.00005895,0.00008119,0.00002658,
 -0.00014501,-0.00004026,0.00009936,0.00003202,-0.00080045,0.00017205,0
 .00014143,0.00035057,-0.00003651,0.00017374,0.00067710,0.00050417,-0.0
 0001287,-0.01050998,0.00068311,0.00098266,-0.00907161,-0.00013311,-0.0
 0005414,0.33848215,-0.00000304,0.00000021,-0.00001256,0.00001649,-0.00
 000031,0.00001928,-0.00001053,-0.00000756,-0.00004373,0.00007227,-0.00
 001271,0.00005089,-0.00006514,-0.00002995,-0.00010421,0.00005545,0.000
 00991,0.00006177,-0.00021897,0.00006749,0.00061845,-0.00005132,-0.0044
 5493,0.00314024,0.02994188,-0.00036185,-0.00260083,0.00750032,-0.04772
 306,-0.00032571,-0.00154900,0.00152909,-0.00145169,-0.00001543,-0.0001
 1738,0.00039596,0.00000749,0.00000096,-0.00000474,0.00000123,0.0000006
 3,0.00000216,-0.00000052,0.00000042,0.00000165,-0.00000070,0.00000362,
 -0.00000555,-0.00000032,-0.00000065,-0.00000130,-0.00000457,0.00000442
 ,0.00000253,0.00000413,0.00000219,0.00000321,-0.00000269,0.00001019,-0
 .00001596,0.00000028,-0.00000053,-0.00000452,0.00001085,0.00000825,0.0
 0002178,-0.00000261,-0.00000700,-0.00001425,0.00003569,-0.00001355,-0.
 00003752,-0.00003933,0.00004181,-0.00008930,-0.00005788,0.00004266,-0.
 00019552,0.00000168,-0.00001408,-0.00005351,0.00179024,-0.00000993,0.0
 0030090,0.00019790,0.00018122,0.00022751,-0.00053905,0.00113897,-0.000
 66147,-0.02694090,0.00130908,0.00192014,0.00075300,-0.00100621,-0.0002
 2410,-0.01019368,0.04960627,-0.00000099,-0.00000085,-0.00000094,-0.000
 00066,0.00000045,0.00000295,-0.00000573,-0.00000893,0.00001211,-0.0000
 4545,0.00002979,-0.00000335,-0.00011376,-0.00017734,0.00022371,0.00010
 823,0.00002315,-0.00005572,0.00037696,0.00030507,-0.00050182,-0.000323
 80,0.00310588,-0.00186978,-0.01766382,-0.00039867,-0.00006692,0.005050
 66,-0.00106558,-0.04534138,0.00111584,-0.00115839,0.00096881,-0.000682
 39,0.00111074,-0.00071315,0.00000142,0.00000026,-0.00000116,0.00000018
 ,0.00000013,0.00000031,0.00000068,-0.00000008,0.00000030,-0.00000102,-
 0.00000103,0.00000147,-0.00000018,-0.00000048,-0.00000031,0.00000919,-
 0.00000269,0.00000087,0.00000197,0.00000121,-0.00000077,-0.00000949,-0
 .00001823,0.00002013,-0.00000126,-0.00000102,0.00000239,0.00003715,0.0
 0001481,0.00000079,-0.00000599,0.00000579,0.00000570,0.00000963,-0.000
 03839,0.00004359,0.00002125,-0.00002157,0.00005565,-0.00018278,-0.0003
 5930,0.00045889,-0.00003077,-0.00004173,0.00007192,-0.00109183,0.00042
 471,0.00007785,0.00042762,0.00007856,0.00011350,0.00073955,-0.00044917
 ,0.00020954,-0.01471541,0.00101824,-0.00010894,0.03176049,-0.00072801,
 0.00001115,-0.00607416,-0.00173575,0.04743391,0.00000427,-0.00000090,0
 .00001335,-0.00001988,0.00000014,-0.00001936,0.00001579,0.00000250,0.0
 0005080,-0.00009973,0.00001127,-0.00005437,0.00005544,0.00001876,0.000
 24885,-0.00002340,-0.00002229,0.00001311,-0.00058765,0.00000041,-0.000
 38865,-0.00003442,-0.00006380,0.00181015,-0.00478826,-0.00218629,-0.00
 220974,-0.00064855,0.00036642,0.00026599,-0.01705619,-0.00394721,0.042
 39002,-0.04795608,-0.00077580,0.01820050,-0.00000842,-0.00000100,0.000
 00516,-0.00000088,-0.00000107,-0.00000191,-0.00000116,0.00000134,-0.00
 000182,0.00000046,-0.00000064,0.00000119,0.00000029,0.00000082,0.00000
 161,-0.00000500,0.00000366,-0.00000213,-0.00000175,-0.00000305,-0.0000
 0144,0.00000452,-0.00000021,-0.00000601,0.00000082,0.00000458,0.000004
 97,-0.00000217,-0.00000539,-0.00000733,0.00000350,0.00000658,0.0000020
 8,-0.00002255,0.00001672,-0.00000291,0.00001843,-0.00001035,0.00000890
 ,0.00002131,-0.00003101,0.00000880,0.00001559,0.00001572,-0.00000460,0
 .00006441,0.00006607,-0.00004145,-0.00003309,-0.00009511,-0.00002470,0
 .00007539,0.00033465,0.00003462,0.00008252,-0.00001408,-0.00002115,0.0
 0031337,-0.00022651,0.00017523,0.00044811,-0.00019132,0.00017401,0.064
 52243,0.00000121,0.00000033,0.00000363,-0.00000460,-0.00000071,-0.0000
 0544,0.00000434,0.00000287,0.00001267,-0.00002181,-0.00000395,-0.00001
 426,0.00002302,0.00002709,0.00005395,-0.00001021,-0.00000895,-0.000002
 45,-0.00018366,-0.00002190,-0.00008136,0.00007695,0.00036742,0.0004271
 4,-0.00067633,-0.00054765,-0.00090556,0.00020726,0.00022153,0.00020321
 ,-0.00484694,-0.00007327,0.00986624,-0.00064980,-0.05040815,0.01182630
 ,-0.00000238,-0.00000033,0.00000167,-0.00000033,-0.00000045,-0.0000007
 1,-0.00000026,0.00000021,-0.00000056,0.00000022,-0.00000012,0.00000058
 ,-0.00000005,0.00000030,0.00000042,-0.00000094,0.00000034,-0.00000071,
 -0.00000057,-0.00000123,-0.00000053,0.00000149,0.00000040,-0.00000083,
 -0.00000026,0.00000186,0.00000060,-0.00000116,-0.00000550,-0.00000230,
 0.00000033,0.00000172,-0.00000007,-0.00000624,0.00000608,-0.00000073,0
 .00000445,0.00000083,0.00000431,0.00001435,0.00000747,-0.00001801,-0.0
 0000038,0.00001154,0.00000368,-0.00002469,0.00000995,-0.00003008,0.000
 09985,-0.00003443,0.00000350,0.00004371,0.00045288,0.00054045,-0.00012
 416,0.00002428,-0.00000685,-0.00007528,-0.00000784,0.00002013,-0.00017
 702,0.00007882,-0.00024948,0.00478524,0.04797264,-0.00000558,0.0000007
 7,-0.00001142,0.00001241,0.00000091,0.00001808,-0.00001565,-0.00000264
 ,-0.00003205,0.00004594,-0.00000681,0.00003273,-0.00006949,-0.00001111
 ,-0.00008328,0.00002949,0.00001290,-0.00000593,0.00015010,0.00001182,0
 .00014199,-0.00016850,0.00021905,-0.00035095,0.00000462,0.00046560,0.0
 0271676,-0.00005439,-0.00014716,0.00004752,0.00730244,0.00101251,-0.00
 389741,0.02994325,0.01439284,-0.31007195,0.00000860,0.00000117,-0.0000
 0656,0.00000120,0.00000134,0.00000230,0.00000195,-0.00000204,0.0000024
 3,0.00000009,-0.00000096,-0.00000086,-0.00000019,-0.00000005,-0.000001
 70,0.00000595,-0.00000386,0.00000234,0.00000250,0.00000302,0.00000123,
 -0.00000365,-0.00000445,0.00000740,-0.00000005,-0.00000121,-0.00000420
 ,0.00000466,0.00000037,0.00000513,-0.00000543,-0.00000434,-0.00000310,
 0.00002588,-0.00001453,0.00000131,-0.00001889,0.00001338,-0.00001353,-
 0.00001357,-0.00000181,0.00000788,-0.00000910,-0.00000107,-0.00000731,
 -0.00000345,-0.00002967,0.00002748,0.00011271,0.00001791,-0.00000096,-
 0.00005790,0.00016200,0.00024489,0.00006181,0.00006213,-0.00001092,0.0
 0004055,0.00002952,-0.00005275,0.00011398,-0.00008962,0.00008675,-0.03
 752973,-0.01706866,0.33354263,0.00000585,-0.00000081,0.00001665,-0.000
 02050,0.00000150,-0.00002753,0.00001683,0.00000650,0.00004885,-0.00008
 366,0.00000912,-0.00005234,0.00006553,-0.00001734,0.00016412,-0.000005
 95,-0.00001601,-0.00002638,-0.00023117,-0.00014245,-0.00016659,-0.0002
 7275,0.00011320,0.00098906,0.00196748,0.00145345,-0.00706229,-0.000509
 70,-0.00020267,0.00039425,-0.04168101,0.01664056,-0.00684433,-0.129413
 47,0.09834555,-0.05149137,-0.00001195,-0.00000139,0.00000908,-0.000001
 18,-0.00000081,-0.00000346,-0.00000050,0.00000055,-0.00000285,0.000000
 90,-0.00000331,0.00000419,0.00000022,0.00000182,0.00000312,-0.00000215
 ,0.00000007,-0.00000232,-0.00000261,-0.00000219,-0.00000192,0.00000304
 ,-0.00000398,0.00000004,0.00000003,0.00000524,0.00000532,-0.00000435,-
 0.00000086,-0.00000898,0.00000631,0.00000531,0.00000528,-0.00003109,0.
 00001183,0.00000663,0.00002931,-0.00001876,0.00003428,-0.00004498,-0.0
 0004857,0.00015582,0.00000064,0.00001550,0.00001165,0.00041464,-0.0002
 4746,0.00006409,0.00004647,-0.00000497,-0.00006438,-0.00016008,0.00018
 323,0.00090246,0.00005698,-0.00004371,-0.00004682,0.00053328,-0.000328
 81,0.00017313,0.00069075,-0.00050594,0.00102405,0.00381783,-0.00150468
 ,0.00013165,0.15902109,-0.00000065,-0.00000041,-0.00000246,0.00000215,
 -0.00000166,0.00000545,-0.00000182,-0.00000158,-0.00000450,0.00000363,
 -0.00000356,0.00000704,0.00000497,-0.00000067,-0.00000942,-0.00000924,
 -0.00000500,0.00000563,0.00000993,-0.00008461,0.00007129,0.00001991,0.
 00009342,0.00004388,-0.00014377,0.00055135,0.00096410,0.00048609,-0.00
 043997,0.00019514,-0.00480719,0.01411591,-0.00608022,0.10125875,-0.175
 59292,0.06589957,0.00000228,0.00000015,-0.00000223,0.00000032,0.000000
 13,0.00000104,-0.00000089,0.00000084,0.00000030,-0.00000044,0.00000254
 ,-0.00000219,0.00000026,-0.00000056,-0.00000026,-0.00000356,0.00000253
 ,-0.00000024,0.00000084,0.00000025,0.00000052,0.00000027,0.00000662,-0
 .00000679,0.00000108,-0.00000052,0.00000107,0.00000142,0.00000404,0.00
 000034,-0.00000320,0.00000503,0.00000807,0.00000515,0.00000494,-0.0000
 0239,-0.00000339,-0.00000409,-0.00001287,-0.00001433,0.00004827,-0.000
 03219,0.00000271,0.00001303,0.00000495,-0.00005604,0.00001785,-0.00004
 860,0.00002634,0.00002394,-0.00000277,-0.00017804,-0.00034669,0.000112
 09,-0.00017328,-0.00013392,0.00007033,-0.00022379,0.00019434,-0.000335
 45,-0.00093695,-0.00008934,0.00051953,0.00025957,-0.00080721,-0.000344
 47,-0.11156086,0.18300371,0.00000205,0.00000016,0.00000465,-0.00000392
 ,-0.00000028,-0.00000781,0.00000583,0.00000231,0.00000951,-0.00000872,
 -0.00000161,-0.00001122,0.00001614,0.00001766,0.00001128,-0.00001055,-
 0.00000671,-0.00000658,-0.00000555,0.00001729,-0.00007516,0.00007264,0
 .00004395,-0.00013393,0.00070241,-0.00177617,0.00067276,0.00009740,0.0
 0070504,0.00017781,0.00290666,-0.00453484,0.00612410,-0.05444395,0.065
 55372,-0.08767218,-0.00000365,-0.00000047,0.00000319,-0.00000053,-0.00
 000047,-0.00000133,-0.00000044,0.00000031,-0.00000110,0.00000022,-0.00
 000030,0.00000112,-0.00000003,0.00000026,0.00000090,-0.00000109,0.0000
 0005,-0.00000095,-0.00000111,-0.00000083,-0.00000058,0.00000152,0.0000
 0060,-0.00000006,-0.00000063,0.00000096,0.00000181,-0.00000119,0.00000
 009,-0.00000211,0.00000150,0.00000220,0.00000234,-0.00000983,0.0000057
 8,0.00000059,0.00000633,-0.00000485,0.00000989,0.00003024,-0.00001589,
 -0.00000444,0.00000210,-0.00000210,0.00001216,-0.00002549,0.00001279,-
 0.00002803,-0.00004194,-0.00000267,0.00000782,0.00007557,-0.00005000,0
 .00008580,-0.00004878,-0.00008774,-0.00004563,-0.00013726,-0.00034573,
 0.00029739,0.00079156,0.00091411,-0.00120555,-0.01824603,0.02389102,-0
 .01094520,0.06032252,-0.07291199,0.08700955,0.00000345,-0.00000077,0.0
 0000783,-0.00000916,-0.00000056,-0.00001291,0.00000984,-0.00000011,0.0
 0002076,-0.00003158,0.00000031,-0.00002407,0.00005662,0.00000341,0.000
 04389,-0.00001768,-0.00001443,-0.00000729,-0.00001459,0.00008677,-0.00
 008054,0.00000300,0.00008002,0.00005790,0.00249164,-0.00187881,-0.0079
 6339,-0.00028472,0.00036804,0.00068219,-0.02700178,-0.03718289,-0.0085
 1921,-0.05564273,-0.03191597,-0.01472906,-0.00000580,-0.00000079,0.000
 00444,-0.00000033,-0.00000029,-0.00000139,-0.00000128,0.00000115,-0.00
 000171,0.00000012,0.00000015,0.00000055,0.00000033,0.00000092,0.000002
 17,-0.00000454,0.00000246,-0.00000171,-0.00000066,-0.00000037,-0.00000
 014,0.00000250,0.00000354,-0.00000555,0.00000048,0.00000291,0.00000468
 ,0.00000237,0.00000444,-0.00000803,0.00000057,0.00000961,0.00001230,-0
 .00001501,0.00001351,0.00000021,0.00001105,-0.00001727,0.00000936,0.00
 000979,-0.00000484,0.00001746,-0.00003216,0.00001751,0.00007741,0.0000
 1802,-0.00004535,-0.00007292,0.00018021,0.00015611,0.00005317,0.000800
 28,0.00150992,0.00137371,-0.00007731,0.00019292,-0.00012017,0.00019741
 ,-0.00022625,0.00024696,0.00011851,0.00000405,0.00009058,0.00182469,0.
 00304931,-0.00004420,0.00579992,0.01603178,0.00795600,0.07160852,0.000
 00213,-0.00000117,0.00000681,-0.00000884,-0.00000271,-0.00001195,0.000
 00615,-0.00000025,0.00002045,-0.00003903,-0.00000803,-0.00002654,0.000
 03997,0.00001092,0.00007194,-0.00001689,-0.00001825,-0.00001363,-0.000
 16248,-0.00006034,-0.00007274,0.00010540,0.00047013,0.00058529,0.00158
 203,0.00072947,-0.00335682,-0.00009404,-0.00006757,0.00049562,-0.01589
 008,-0.00474423,0.00026839,-0.03467826,-0.23743466,-0.08897453,-0.0000
 0497,-0.00000097,0.00000382,0.00000089,0.00000084,-0.00000048,-0.00000
 114,0.00000110,-0.00000183,-0.00000029,-0.00000013,-0.00000016,0.00000
 050,0.00000296,0.00000330,-0.00000402,0.00000214,-0.00000173,0.0000022
 8,0.00000193,0.00000163,0.00000137,0.00000245,-0.00000636,0.00000037,0
 .00000901,0.00000685,0.00000723,0.00000632,-0.00000233,0.00000011,0.00
 001210,0.00001289,-0.00001121,0.00001255,0.00000050,0.00001004,-0.0000
 1375,0.00000916,0.00000413,0.00000582,0.00000652,-0.00002217,0.0000387
 6,0.00003851,0.00007484,-0.00004959,-0.00004081,0.00030216,0.00002433,
 -0.00001909,-0.00056002,0.00029306,0.00175924,0.00010026,0.00014975,-0
 .00011129,-0.00003931,-0.00007995,0.00015163,-0.00000067,-0.00018715,-
 0.00018163,0.00168159,0.00273311,0.00132720,-0.00213787,-0.02057619,-0
 .01142565,0.04974985,0.25873821,0.00000194,-0.00000110,0.00000530,-0.0
 0000640,-0.00000081,-0.00000813,0.00000583,-0.00000113,0.00001500,-0.0
 0002619,-0.00000036,-0.00001845,0.00002459,-0.00001861,0.00004472,-0.0
 0001335,-0.00001064,0.00000026,-0.00012031,-0.00003569,-0.00005302,0.0
 0024191,0.00023227,0.00034710,0.00110371,0.00382235,0.00291382,-0.0002
 4395,-0.00023343,-0.00037455,0.00067982,0.00388225,0.00371665,-0.01808
 415,-0.08958598,-0.09544303,-0.00000368,-0.00000061,0.00000277,0.00000
 017,0.00000018,-0.00000066,-0.00000109,0.00000111,-0.00000139,-0.00000
 019,0.00000053,-0.00000024,0.00000040,0.00000104,0.00000184,-0.0000040
 0,0.00000244,-0.00000131,0.00000052,0.00000062,0.00000052,0.00000162,0
 .00000318,-0.00000531,0.00000133,0.00000312,0.00000422,-0.00000822,0.0
 0000616,-0.00000104,0.00000132,0.00000738,0.00000977,-0.00000891,0.000
 00951,-0.00000228,0.00000492,-0.00001072,0.00000139,0.00000430,0.00000
 188,-0.00000069,0.00000911,-0.00001569,-0.00002088,-0.00001781,-0.0000
 0756,-0.00003290,0.00009276,-0.00005235,-0.00012868,-0.00107197,-0.000
 81591,0.00078396,0.00001360,-0.00007231,-0.00002680,0.00000372,0.00000
 197,0.00000350,-0.00000137,-0.00000873,0.00006753,-0.00484600,-0.02847
 090,-0.01138879,0.00133532,0.01188870,0.00570919,0.02093071,0.09947782
 ,0.09388060\\0.00000044,0.00000161,0.00000037,-0.00000358,0.00000116,-
 0.00000210,0.00000727,-0.00000226,0.00000203,-0.00000595,-0.00000390,0
 .00000370,0.00000041,0.00000911,-0.00000355,0.00000208,-0.00001265,0.0
 0000061,0.00000856,-0.00000327,-0.00001151,-0.00000405,0.00000097,0.00
 000469,0.00000752,-0.00000163,0.00001575,0.00000361,0.00000352,-0.0000
 1123,-0.00000903,-0.00000008,-0.00000967,-0.00000059,-0.00000161,0.000
 01079,0.00000005,-0.00000056,0.00000080,0.00000108,0.00000009,0.000000
 15,0.00000034,-0.00000072,-0.00000019,0.00000075,0.00000072,-0.0000021
 1,0.,-0.00000018,0.00000061,-0.00000032,-0.00000045,-0.00000071,-0.000
 00271,-0.00000045,-0.00000105,-0.00000137,0.00000169,0.00000109,0.0000
 0052,0.00000188,-0.00000031,-0.00000136,-0.00000051,-0.00000146,-0.000
 00117,0.00000219,-0.00000117,-0.00000107,-0.00000157,0.00000269,0.0000
 0186,0.00000095,-0.00000048,-0.00000124,0.00000224,-0.00000076,0.00000
 055,0.00000244,0.00000177,0.00000121,-0.00000033,-0.00000015,-0.000000
 21,-0.00000226,-0.00000248,0.00000406,0.00000335,-0.00000186,0.0000004
 5,-0.00000291,0.00000139,-0.00000202,0.00000137,-0.00000040,-0.0000005
 6,0.00000146,0.00000048,-0.00000667,-0.00000244,0.00000290,-0.00000025
 ,0.00000080,0.00000224,0.00000140,0.00000221,-0.00000088\\\@


 IT IS NOT EASY TO DESCRIBE
     THE SEA WITH THE MOUTH

                   -- KOKYU
 Job cpu time:       0 days  5 hours 39 minutes 40.1 seconds.
 Elapsed time:       0 days  1 hours 24 minutes 56.9 seconds.
 File lengths (MBytes):  RWF=    535 Int=      0 D2E=      0 Chk=     18 Scr=      1
 Normal termination of Gaussian 16 at Mon May 22 23:11:13 2023.
### All Done ###
