### Starting Gaussian ###
 Entering Gaussian System, Link 0=g16
 Initial command:
 /cluster/software/gaussian/gaussian-16-A.03/avx2/g16/l1.exe "/local/scratch/ks29c/Gau-16970.inp" -scrdir="/local/scratch/ks29c/"
 Entering Link 1 = /cluster/software/gaussian/gaussian-16-A.03/avx2/g16/l1.exe PID=     16971.
  
 Copyright (c) 1988,1990,1992,1993,1995,1998,2003,2009,2016,
            Gaussian, Inc.  All Rights Reserved.
  
 This is part of the Gaussian(R) 16 program.  It is based on
 the Gaussian(R) 09 system (copyright 2009, Gaussian, Inc.),
 the Gaussian(R) 03 system (copyright 2003, Gaussian, Inc.),
 the Gaussian(R) 98 system (copyright 1998, Gaussian, Inc.),
 the Gaussian(R) 94 system (copyright 1995, Gaussian, Inc.),
 the Gaussian 92(TM) system (copyright 1992, Gaussian, Inc.),
 the Gaussian 90(TM) system (copyright 1990, Gaussian, Inc.),
 the Gaussian 88(TM) system (copyright 1988, Gaussian, Inc.),
 the Gaussian 86(TM) system (copyright 1986, Carnegie Mellon
 University), and the Gaussian 82(TM) system (copyright 1983,
 Carnegie Mellon University). Gaussian is a federally registered
 trademark of Gaussian, Inc.
  
 This software contains proprietary and confidential information,
 including trade secrets, belonging to Gaussian, Inc.
  
 This software is provided under written license and may be
 used, copied, transmitted, or stored only in accord with that
 written license.
  
 The following legend is applicable only to US Government
 contracts under FAR:
  
                    RESTRICTED RIGHTS LEGEND
  
 Use, reproduction and disclosure by the US Government is
 subject to restrictions as set forth in subparagraphs (a)
 and (c) of the Commercial Computer Software - Restricted
 Rights clause in FAR 52.227-19.
  
 Gaussian, Inc.
 340 Quinnipiac St., Bldg. 40, Wallingford CT 06492
  
  
 ---------------------------------------------------------------
 Warning -- This program may not be used in any manner that
 competes with the business of Gaussian, Inc. or will provide
 assistance to any competitor of Gaussian, Inc.  The licensee
 of this program is prohibited from giving any competitor of
 Gaussian, Inc. access to this program.  By using this program,
 the user acknowledges that Gaussian, Inc. is engaged in the
 business of creating and licensing software in the field of
 computational chemistry and represents and warrants to the
 licensee that it is not a competitor of Gaussian, Inc. and that
 it will not use this program in any manner prohibited above.
 ---------------------------------------------------------------
  

 Cite this work as:
 Gaussian 16, Revision A.03,
 M. J. Frisch, G. W. Trucks, H. B. Schlegel, G. E. Scuseria, 
 M. A. Robb, J. R. Cheeseman, G. Scalmani, V. Barone, 
 G. A. Petersson, H. Nakatsuji, X. Li, M. Caricato, A. V. Marenich, 
 J. Bloino, B. G. Janesko, R. Gomperts, B. Mennucci, H. P. Hratchian, 
 J. V. Ortiz, A. F. Izmaylov, J. L. Sonnenberg, D. Williams-Young, 
 F. Ding, F. Lipparini, F. Egidi, J. Goings, B. Peng, A. Petrone, 
 T. Henderson, D. Ranasinghe, V. G. Zakrzewski, J. Gao, N. Rega, 
 G. Zheng, W. Liang, M. Hada, M. Ehara, K. Toyota, R. Fukuda, 
 J. Hasegawa, M. Ishida, T. Nakajima, Y. Honda, O. Kitao, H. Nakai, 
 T. Vreven, K. Throssell, J. A. Montgomery, Jr., J. E. Peralta, 
 F. Ogliaro, M. J. Bearpark, J. J. Heyd, E. N. Brothers, K. N. Kudin, 
 V. N. Staroverov, T. A. Keith, R. Kobayashi, J. Normand, 
 K. Raghavachari, A. P. Rendell, J. C. Burant, S. S. Iyengar, 
 J. Tomasi, M. Cossi, J. M. Millam, M. Klene, C. Adamo, R. Cammi, 
 J. W. Ochterski, R. L. Martin, K. Morokuma, O. Farkas, 
 J. B. Foresman, and D. J. Fox, Gaussian, Inc., Wallingford CT, 2016.
 
 ******************************************
 Gaussian 16:  ES64L-G16RevA.03 25-Dec-2016
                28-May-2023 
 ******************************************
 %chk=CCCCqCrqCCrOC1CCqSCrCS1.chk
 %NProcShared=20
 Will use up to   20 processors via shared memory.
 -----------------------------
 # opt freq b3lyp/6-31g(2df,p)
 -----------------------------
 1/18=20,19=15,26=3,38=1/1,3;
 2/9=110,12=2,17=6,18=5,40=1/2;
 3/5=1,6=6,7=104,11=2,25=1,30=1,71=1,74=-5/1,2,3;
 4//1;
 5/5=2,38=5/2;
 6/7=2,8=2,9=2,10=2,28=1/1;
 7//1,2,3,16;
 1/18=20,19=15,26=3/3(2);
 2/9=110/2;
 99//99;
 2/9=110/2;
 3/5=1,6=6,7=104,11=2,25=1,30=1,71=1,74=-5/1,2,3;
 4/5=5,16=3,69=1/1;
 5/5=2,38=5/2;
 7//1,2,3,16;
 1/18=20,19=15,26=3/3(-5);
 2/9=110/2;
 6/7=2,8=2,9=2,10=2,19=2,28=1/1;
 99/9=1/99;
 -------------------
 Title Card Required
 -------------------
 Symbolic Z-matrix:
 Charge =  0 Multiplicity = 1
 C                     0.71674  -0.21082  -0.06963 
 C                     2.22065  -0.14984  -0.02689 
 C                     2.97785  -1.46489  -0.28646 
 C                     4.54237  -1.30175  -0.31745 
 C                     4.81476  -0.24108  -1.41154 
 C                     5.09881  -0.95494   1.10068 
 C                     4.85204   0.43196   1.66997 
 O                     5.08392  -2.60205  -0.74432 
 C                     6.50865  -2.79065  -0.66387 
 C                     7.27276  -1.79861  -1.51727 
 C                     8.72365  -2.17672  -1.62343 
 S                     9.63565  -1.77069  -0.06221 
 C                     9.32127   0.02706   0.10785 
 C                     8.70511  -3.66625  -1.96523 
 S                     7.11849  -4.3587   -1.33851 
 H                     0.33384   0.7903    0.1668 
 H                     0.33406  -0.90592   0.67363 
 H                     0.3604   -0.48117  -1.06914 
 H                     2.44864   0.20481   0.9765 
 H                     2.50862   0.635    -0.71876 
 H                     2.65152  -1.88052  -1.25396 
 H                     2.69605  -2.2189    0.45568 
 H                     4.28982   0.69716  -1.26009 
 H                     4.54826  -0.64586  -2.39568 
 H                     5.82976   0.12105  -1.48166 
 H                     6.18728  -1.05533   1.10687 
 H                     4.74814  -1.71204   1.81664 
 H                     5.00657   1.20883   0.91911 
 H                     5.54185   0.6206    2.49826 
 H                     3.86329   0.53516   2.11421 
 H                     6.82097  -2.80214   0.38344 
 H                     7.23469  -0.82139  -1.06821 
 H                     6.81366  -1.7275   -2.51387 
 H                     9.2028   -1.60405  -2.42629 
 H                     9.82815   0.38139   1.01017 
 H                     8.2625    0.26663   0.24495 
 H                     9.71352   0.58307  -0.74806 
 H                     9.56993  -4.2058   -1.57087 
 H                     8.69228  -3.79509  -3.05359 
 

 GradGradGradGradGradGradGradGradGradGradGradGradGradGradGradGradGradGrad
 Berny optimization.
 Initialization pass.
                           ----------------------------
                           !    Initial Parameters    !
                           ! (Angstroms and Degrees)  !
 --------------------------                            --------------------------
 ! Name  Definition              Value          Derivative Info.                !
 --------------------------------------------------------------------------------
 ! R1    R(1,2)                  1.5058         estimate D2E/DX2                !
 ! R2    R(1,16)                 1.0976         estimate D2E/DX2                !
 ! R3    R(1,17)                 1.0872         estimate D2E/DX2                !
 ! R4    R(1,18)                 1.095          estimate D2E/DX2                !
 ! R5    R(2,3)                  1.5395         estimate D2E/DX2                !
 ! R6    R(2,19)                 1.0884         estimate D2E/DX2                !
 ! R7    R(2,20)                 1.0852         estimate D2E/DX2                !
 ! R8    R(3,4)                  1.5733         estimate D2E/DX2                !
 ! R9    R(3,21)                 1.1024         estimate D2E/DX2                !
 ! R10   R(3,22)                 1.0949         estimate D2E/DX2                !
 ! R11   R(4,5)                  1.548          estimate D2E/DX2                !
 ! R12   R(4,6)                  1.5624         estimate D2E/DX2                !
 ! R13   R(4,8)                  1.4718         estimate D2E/DX2                !
 ! R14   R(5,23)                 1.0857         estimate D2E/DX2                !
 ! R15   R(5,24)                 1.097          estimate D2E/DX2                !
 ! R16   R(5,25)                 1.0799         estimate D2E/DX2                !
 ! R17   R(6,7)                  1.5194         estimate D2E/DX2                !
 ! R18   R(6,26)                 1.0931         estimate D2E/DX2                !
 ! R19   R(6,27)                 1.0994         estimate D2E/DX2                !
 ! R20   R(7,28)                 1.0914         estimate D2E/DX2                !
 ! R21   R(7,29)                 1.0943         estimate D2E/DX2                !
 ! R22   R(7,30)                 1.0889         estimate D2E/DX2                !
 ! R23   R(8,9)                  1.4394         estimate D2E/DX2                !
 ! R24   R(9,10)                 1.5154         estimate D2E/DX2                !
 ! R25   R(9,15)                 1.8127         estimate D2E/DX2                !
 ! R26   R(9,31)                 1.0929         estimate D2E/DX2                !
 ! R27   R(10,11)                1.5031         estimate D2E/DX2                !
 ! R28   R(10,32)                1.0761         estimate D2E/DX2                !
 ! R29   R(10,33)                1.0996         estimate D2E/DX2                !
 ! R30   R(11,12)                1.8531         estimate D2E/DX2                !
 ! R31   R(11,14)                1.5284         estimate D2E/DX2                !
 ! R32   R(11,34)                1.0964         estimate D2E/DX2                !
 ! R33   R(12,13)                1.8329         estimate D2E/DX2                !
 ! R34   R(13,35)                1.0939         estimate D2E/DX2                !
 ! R35   R(13,36)                1.0942         estimate D2E/DX2                !
 ! R36   R(13,37)                1.0934         estimate D2E/DX2                !
 ! R37   R(14,15)                1.8411         estimate D2E/DX2                !
 ! R38   R(14,38)                1.093          estimate D2E/DX2                !
 ! R39   R(14,39)                1.096          estimate D2E/DX2                !
 ! A1    A(2,1,16)             107.7804         estimate D2E/DX2                !
 ! A2    A(2,1,17)             110.9797         estimate D2E/DX2                !
 ! A3    A(2,1,18)             111.157          estimate D2E/DX2                !
 ! A4    A(16,1,17)            108.2454         estimate D2E/DX2                !
 ! A5    A(16,1,18)            107.9555         estimate D2E/DX2                !
 ! A6    A(17,1,18)            110.5862         estimate D2E/DX2                !
 ! A7    A(1,2,3)              116.8634         estimate D2E/DX2                !
 ! A8    A(1,2,19)             104.3939         estimate D2E/DX2                !
 ! A9    A(1,2,20)             106.0358         estimate D2E/DX2                !
 ! A10   A(3,2,19)             109.3146         estimate D2E/DX2                !
 ! A11   A(3,2,20)             112.3199         estimate D2E/DX2                !
 ! A12   A(19,2,20)            107.2492         estimate D2E/DX2                !
 ! A13   A(2,3,4)              113.8188         estimate D2E/DX2                !
 ! A14   A(2,3,21)             108.9311         estimate D2E/DX2                !
 ! A15   A(2,3,22)             110.3279         estimate D2E/DX2                !
 ! A16   A(4,3,21)             108.4315         estimate D2E/DX2                !
 ! A17   A(4,3,22)             109.9201         estimate D2E/DX2                !
 ! A18   A(21,3,22)            105.0139         estimate D2E/DX2                !
 ! A19   A(3,4,5)              105.0673         estimate D2E/DX2                !
 ! A20   A(3,4,6)              111.0573         estimate D2E/DX2                !
 ! A21   A(3,4,8)              106.2598         estimate D2E/DX2                !
 ! A22   A(5,4,6)              115.2625         estimate D2E/DX2                !
 ! A23   A(5,4,8)              109.6097         estimate D2E/DX2                !
 ! A24   A(6,4,8)              109.1666         estimate D2E/DX2                !
 ! A25   A(4,5,23)             114.1075         estimate D2E/DX2                !
 ! A26   A(4,5,24)             109.7852         estimate D2E/DX2                !
 ! A27   A(4,5,25)             116.1699         estimate D2E/DX2                !
 ! A28   A(23,5,24)            109.0595         estimate D2E/DX2                !
 ! A29   A(23,5,25)            100.0031         estimate D2E/DX2                !
 ! A30   A(24,5,25)            107.0861         estimate D2E/DX2                !
 ! A31   A(4,6,7)              119.0044         estimate D2E/DX2                !
 ! A32   A(4,6,26)             109.84           estimate D2E/DX2                !
 ! A33   A(4,6,27)             108.9432         estimate D2E/DX2                !
 ! A34   A(7,6,26)             104.0895         estimate D2E/DX2                !
 ! A35   A(7,6,27)             109.4378         estimate D2E/DX2                !
 ! A36   A(26,6,27)            104.5172         estimate D2E/DX2                !
 ! A37   A(6,7,28)             111.6521         estimate D2E/DX2                !
 ! A38   A(6,7,29)             109.7904         estimate D2E/DX2                !
 ! A39   A(6,7,30)             112.7595         estimate D2E/DX2                !
 ! A40   A(28,7,29)            107.9856         estimate D2E/DX2                !
 ! A41   A(28,7,30)            109.9857         estimate D2E/DX2                !
 ! A42   A(29,7,30)            104.3155         estimate D2E/DX2                !
 ! A43   A(4,8,9)              117.6286         estimate D2E/DX2                !
 ! A44   A(8,9,10)             112.4483         estimate D2E/DX2                !
 ! A45   A(8,9,15)             115.1849         estimate D2E/DX2                !
 ! A46   A(8,9,31)             109.7417         estimate D2E/DX2                !
 ! A47   A(10,9,15)            100.7816         estimate D2E/DX2                !
 ! A48   A(10,9,31)            113.7309         estimate D2E/DX2                !
 ! A49   A(15,9,31)            104.5606         estimate D2E/DX2                !
 ! A50   A(9,10,11)            111.2122         estimate D2E/DX2                !
 ! A51   A(9,10,32)            109.977          estimate D2E/DX2                !
 ! A52   A(9,10,33)            110.013          estimate D2E/DX2                !
 ! A53   A(11,10,32)           106.9808         estimate D2E/DX2                !
 ! A54   A(11,10,33)           110.8106         estimate D2E/DX2                !
 ! A55   A(32,10,33)           107.7412         estimate D2E/DX2                !
 ! A56   A(10,11,12)           111.1266         estimate D2E/DX2                !
 ! A57   A(10,11,14)           104.433          estimate D2E/DX2                !
 ! A58   A(10,11,34)           110.0088         estimate D2E/DX2                !
 ! A59   A(12,11,14)           114.0745         estimate D2E/DX2                !
 ! A60   A(12,11,34)           106.7025         estimate D2E/DX2                !
 ! A61   A(14,11,34)           110.523          estimate D2E/DX2                !
 ! A62   A(11,12,13)           102.0436         estimate D2E/DX2                !
 ! A63   A(12,13,35)           108.3455         estimate D2E/DX2                !
 ! A64   A(12,13,36)           113.1005         estimate D2E/DX2                !
 ! A65   A(12,13,37)           111.382          estimate D2E/DX2                !
 ! A66   A(35,13,36)           105.9083         estimate D2E/DX2                !
 ! A67   A(35,13,37)           108.3452         estimate D2E/DX2                !
 ! A68   A(36,13,37)           109.5042         estimate D2E/DX2                !
 ! A69   A(11,14,15)           107.5104         estimate D2E/DX2                !
 ! A70   A(11,14,38)           113.0061         estimate D2E/DX2                !
 ! A71   A(11,14,39)           109.6808         estimate D2E/DX2                !
 ! A72   A(15,14,38)           111.9257         estimate D2E/DX2                !
 ! A73   A(15,14,39)           106.4825         estimate D2E/DX2                !
 ! A74   A(38,14,39)           108.0307         estimate D2E/DX2                !
 ! A75   A(9,15,14)             95.2367         estimate D2E/DX2                !
 ! D1    D(16,1,2,3)           178.1238         estimate D2E/DX2                !
 ! D2    D(16,1,2,19)           57.2748         estimate D2E/DX2                !
 ! D3    D(16,1,2,20)          -55.8227         estimate D2E/DX2                !
 ! D4    D(17,1,2,3)            59.7575         estimate D2E/DX2                !
 ! D5    D(17,1,2,19)          -61.0915         estimate D2E/DX2                !
 ! D6    D(17,1,2,20)         -174.189          estimate D2E/DX2                !
 ! D7    D(18,1,2,3)           -63.7607         estimate D2E/DX2                !
 ! D8    D(18,1,2,19)          175.3903         estimate D2E/DX2                !
 ! D9    D(18,1,2,20)           62.2928         estimate D2E/DX2                !
 ! D10   D(1,2,3,4)            176.2464         estimate D2E/DX2                !
 ! D11   D(1,2,3,21)            55.1301         estimate D2E/DX2                !
 ! D12   D(1,2,3,22)           -59.649          estimate D2E/DX2                !
 ! D13   D(19,2,3,4)           -65.5371         estimate D2E/DX2                !
 ! D14   D(19,2,3,21)          173.3466         estimate D2E/DX2                !
 ! D15   D(19,2,3,22)           58.5676         estimate D2E/DX2                !
 ! D16   D(20,2,3,4)            53.3802         estimate D2E/DX2                !
 ! D17   D(20,2,3,21)          -67.7361         estimate D2E/DX2                !
 ! D18   D(20,2,3,22)          177.4848         estimate D2E/DX2                !
 ! D19   D(2,3,4,5)            -56.7337         estimate D2E/DX2                !
 ! D20   D(2,3,4,6)             68.5225         estimate D2E/DX2                !
 ! D21   D(2,3,4,8)           -172.8731         estimate D2E/DX2                !
 ! D22   D(21,3,4,5)            64.661          estimate D2E/DX2                !
 ! D23   D(21,3,4,6)          -170.0828         estimate D2E/DX2                !
 ! D24   D(21,3,4,8)           -51.4784         estimate D2E/DX2                !
 ! D25   D(22,3,4,5)           178.9419         estimate D2E/DX2                !
 ! D26   D(22,3,4,6)           -55.8019         estimate D2E/DX2                !
 ! D27   D(22,3,4,8)            62.8025         estimate D2E/DX2                !
 ! D28   D(3,4,5,23)            55.4305         estimate D2E/DX2                !
 ! D29   D(3,4,5,24)           -67.3328         estimate D2E/DX2                !
 ! D30   D(3,4,5,25)           171.0207         estimate D2E/DX2                !
 ! D31   D(6,4,5,23)           -67.1498         estimate D2E/DX2                !
 ! D32   D(6,4,5,24)           170.087          estimate D2E/DX2                !
 ! D33   D(6,4,5,25)            48.4404         estimate D2E/DX2                !
 ! D34   D(8,4,5,23)           169.2418         estimate D2E/DX2                !
 ! D35   D(8,4,5,24)            46.4786         estimate D2E/DX2                !
 ! D36   D(8,4,5,25)           -75.168          estimate D2E/DX2                !
 ! D37   D(3,4,6,7)            -72.2773         estimate D2E/DX2                !
 ! D38   D(3,4,6,26)           167.9905         estimate D2E/DX2                !
 ! D39   D(3,4,6,27)            54.0627         estimate D2E/DX2                !
 ! D40   D(5,4,6,7)             47.0434         estimate D2E/DX2                !
 ! D41   D(5,4,6,26)           -72.6888         estimate D2E/DX2                !
 ! D42   D(5,4,6,27)           173.3835         estimate D2E/DX2                !
 ! D43   D(8,4,6,7)            170.8854         estimate D2E/DX2                !
 ! D44   D(8,4,6,26)            51.1531         estimate D2E/DX2                !
 ! D45   D(8,4,6,27)           -62.7746         estimate D2E/DX2                !
 ! D46   D(3,4,8,9)           -170.8628         estimate D2E/DX2                !
 ! D47   D(5,4,8,9)             76.0977         estimate D2E/DX2                !
 ! D48   D(6,4,8,9)            -51.0207         estimate D2E/DX2                !
 ! D49   D(4,6,7,28)           -42.9555         estimate D2E/DX2                !
 ! D50   D(4,6,7,29)          -162.6858         estimate D2E/DX2                !
 ! D51   D(4,6,7,30)            81.4696         estimate D2E/DX2                !
 ! D52   D(26,6,7,28)           79.6772         estimate D2E/DX2                !
 ! D53   D(26,6,7,29)          -40.0531         estimate D2E/DX2                !
 ! D54   D(26,6,7,30)         -155.8978         estimate D2E/DX2                !
 ! D55   D(27,6,7,28)         -169.0605         estimate D2E/DX2                !
 ! D56   D(27,6,7,29)           71.2092         estimate D2E/DX2                !
 ! D57   D(27,6,7,30)          -44.6354         estimate D2E/DX2                !
 ! D58   D(4,8,9,10)           -60.2295         estimate D2E/DX2                !
 ! D59   D(4,8,9,15)          -174.9347         estimate D2E/DX2                !
 ! D60   D(4,8,9,31)            67.425          estimate D2E/DX2                !
 ! D61   D(8,9,10,11)         -169.1739         estimate D2E/DX2                !
 ! D62   D(8,9,10,32)           72.5045         estimate D2E/DX2                !
 ! D63   D(8,9,10,33)          -46.0154         estimate D2E/DX2                !
 ! D64   D(15,9,10,11)         -45.9864         estimate D2E/DX2                !
 ! D65   D(15,9,10,32)        -164.308          estimate D2E/DX2                !
 ! D66   D(15,9,10,33)          77.1721         estimate D2E/DX2                !
 ! D67   D(31,9,10,11)          65.3151         estimate D2E/DX2                !
 ! D68   D(31,9,10,32)         -53.0065         estimate D2E/DX2                !
 ! D69   D(31,9,10,33)        -171.5265         estimate D2E/DX2                !
 ! D70   D(8,9,15,14)          145.8582         estimate D2E/DX2                !
 ! D71   D(10,9,15,14)          24.5869         estimate D2E/DX2                !
 ! D72   D(31,9,15,14)         -93.6249         estimate D2E/DX2                !
 ! D73   D(9,10,11,12)         -75.803          estimate D2E/DX2                !
 ! D74   D(9,10,11,14)          47.6339         estimate D2E/DX2                !
 ! D75   D(9,10,11,34)         166.2529         estimate D2E/DX2                !
 ! D76   D(32,10,11,12)         44.3092         estimate D2E/DX2                !
 ! D77   D(32,10,11,14)        167.7461         estimate D2E/DX2                !
 ! D78   D(32,10,11,34)        -73.6349         estimate D2E/DX2                !
 ! D79   D(33,10,11,12)        161.4968         estimate D2E/DX2                !
 ! D80   D(33,10,11,14)        -75.0662         estimate D2E/DX2                !
 ! D81   D(33,10,11,34)         43.5527         estimate D2E/DX2                !
 ! D82   D(10,11,12,13)        -57.21           estimate D2E/DX2                !
 ! D83   D(14,11,12,13)       -174.94           estimate D2E/DX2                !
 ! D84   D(34,11,12,13)         62.7187         estimate D2E/DX2                !
 ! D85   D(10,11,14,15)        -25.1118         estimate D2E/DX2                !
 ! D86   D(10,11,14,38)       -149.1222         estimate D2E/DX2                !
 ! D87   D(10,11,14,39)         90.2804         estimate D2E/DX2                !
 ! D88   D(12,11,14,15)         96.3966         estimate D2E/DX2                !
 ! D89   D(12,11,14,38)        -27.6137         estimate D2E/DX2                !
 ! D90   D(12,11,14,39)       -148.2112         estimate D2E/DX2                !
 ! D91   D(34,11,14,15)       -143.3803         estimate D2E/DX2                !
 ! D92   D(34,11,14,38)         92.6093         estimate D2E/DX2                !
 ! D93   D(34,11,14,39)        -27.9881         estimate D2E/DX2                !
 ! D94   D(11,12,13,35)       -179.6355         estimate D2E/DX2                !
 ! D95   D(11,12,13,36)         63.2744         estimate D2E/DX2                !
 ! D96   D(11,12,13,37)        -60.5616         estimate D2E/DX2                !
 ! D97   D(11,14,15,9)          -0.0415         estimate D2E/DX2                !
 ! D98   D(38,14,15,9)         124.6228         estimate D2E/DX2                !
 ! D99   D(39,14,15,9)        -117.5337         estimate D2E/DX2                !
 --------------------------------------------------------------------------------
 Trust Radius=3.00D-01 FncErr=1.00D-07 GrdErr=1.00D-06 EigMax=2.50D+02 EigMin=1.00D-04
 Number of steps in this run=    223 maximum allowed number of steps=    234.
 GradGradGradGradGradGradGradGradGradGradGradGradGradGradGradGradGradGrad

                          Input orientation:                          
 ---------------------------------------------------------------------
 Center     Atomic      Atomic             Coordinates (Angstroms)
 Number     Number       Type             X           Y           Z
 ---------------------------------------------------------------------
      1          6           0        0.716740   -0.210820   -0.069630
      2          6           0        2.220650   -0.149840   -0.026890
      3          6           0        2.977850   -1.464890   -0.286460
      4          6           0        4.542370   -1.301750   -0.317450
      5          6           0        4.814760   -0.241080   -1.411540
      6          6           0        5.098810   -0.954940    1.100680
      7          6           0        4.852040    0.431960    1.669970
      8          8           0        5.083920   -2.602050   -0.744320
      9          6           0        6.508650   -2.790650   -0.663870
     10          6           0        7.272760   -1.798610   -1.517270
     11          6           0        8.723650   -2.176720   -1.623430
     12         16           0        9.635650   -1.770690   -0.062210
     13          6           0        9.321270    0.027060    0.107850
     14          6           0        8.705110   -3.666250   -1.965230
     15         16           0        7.118490   -4.358700   -1.338510
     16          1           0        0.333840    0.790300    0.166800
     17          1           0        0.334060   -0.905920    0.673630
     18          1           0        0.360400   -0.481170   -1.069140
     19          1           0        2.448640    0.204810    0.976500
     20          1           0        2.508620    0.635000   -0.718760
     21          1           0        2.651520   -1.880520   -1.253960
     22          1           0        2.696050   -2.218900    0.455680
     23          1           0        4.289820    0.697160   -1.260090
     24          1           0        4.548260   -0.645860   -2.395680
     25          1           0        5.829760    0.121050   -1.481660
     26          1           0        6.187280   -1.055330    1.106870
     27          1           0        4.748140   -1.712040    1.816640
     28          1           0        5.006570    1.208830    0.919110
     29          1           0        5.541850    0.620600    2.498260
     30          1           0        3.863290    0.535160    2.114210
     31          1           0        6.820970   -2.802140    0.383440
     32          1           0        7.234690   -0.821390   -1.068210
     33          1           0        6.813660   -1.727500   -2.513870
     34          1           0        9.202800   -1.604050   -2.426290
     35          1           0        9.828150    0.381390    1.010170
     36          1           0        8.262500    0.266630    0.244950
     37          1           0        9.713520    0.583070   -0.748060
     38          1           0        9.569930   -4.205800   -1.570870
     39          1           0        8.692280   -3.795090   -3.053590
 ---------------------------------------------------------------------
                    Distance matrix (angstroms):
                    1          2          3          4          5
     1  C    0.000000
     2  C    1.505752   0.000000
     3  C    2.594672   1.539508   0.000000
     4  C    3.985848   2.608008   1.573308   0.000000
     5  C    4.312239   2.941936   2.477449   1.547983   0.000000
     6  C    4.596290   3.194277   2.585088   1.562369   2.627076
     7  C    4.532117   3.184657   3.307302   2.655463   3.154374
     8  O    5.024485   3.837493   2.436863   1.471827   2.468159
     9  C    6.368270   5.076078   3.790333   2.490600   3.150965
    10  C    6.899140   5.519374   4.480236   3.023486   2.911845
    11  C    8.389855   6.996155   5.942088   4.467019   4.367038
    12  S    9.054292   7.590166   6.668591   5.121187   5.234633
    13  C    8.609647   7.104101   6.528428   4.978403   4.763305
    14  C    8.907713   7.626960   6.361270   5.063047   5.212791
    15  S    7.732876   6.589665   5.160024   4.126003   4.718824
    16  H    1.097612   2.116939   3.504585   4.724711   4.861435
    17  H    1.087218   2.149792   2.867725   4.341520   4.986644
    18  H    1.095029   2.157914   2.903677   4.327501   4.473947
    19  H    2.065578   1.088369   2.159405   2.885782   3.391176
    20  H    2.085094   1.085166   2.194675   2.836933   2.562370
    21  H    2.816720   2.164856   1.102405   2.187999   2.718860
    22  H    2.868101   2.177128   1.094858   2.201770   3.447784
    23  H    3.874084   2.553362   2.709923   2.224408   1.085723
    24  H    4.503367   3.357822   2.754234   2.179281   1.096996
    25  H    5.314785   3.900694   3.475212   2.244352   1.079944
    26  H    5.658989   4.223681   3.522719   2.189781   2.981477
    27  H    4.697219   3.496752   2.760080   2.182892   3.548141
    28  H    4.625544   3.240718   3.566214   2.836825   2.751538
    29  H    5.528744   4.242680   4.321809   3.552832   4.069114
    30  H    3.902105   2.784206   3.247679   3.122236   3.733464
    31  H    6.646942   5.325975   4.123903   2.816813   3.715624
    32  H    6.622207   5.164874   4.375604   2.836014   2.512110
    33  H    6.741444   5.456173   4.443395   3.188147   2.724000
    34  H    8.916734   7.524777   6.583938   5.124275   4.705561
    35  H    9.194263   7.696217   7.212254   5.703946   5.602341
    36  H    7.567391   6.062285   5.586420   4.076209   3.858580
    37  H    9.057184   7.563091   7.055244   5.520758   5.011714
    38  H    9.828151   8.535022   7.253814   5.939775   6.193225
    39  H    9.239061   8.020646   6.763250   5.561021   5.510216
                    6          7          8          9         10
     6  C    0.000000
     7  C    1.519368   0.000000
     8  O    2.473301   3.884299   0.000000
     9  C    2.910518   4.310033   1.439409   0.000000
    10  C    3.505924   4.581902   2.456418   1.515354   0.000000
    11  C    4.696061   5.713235   3.768471   2.490761   1.503103
    12  S    4.754017   5.543919   4.677037   3.343717   2.775109
    13  C    4.447382   4.751650   5.059007   4.055351   3.189119
    14  C    5.454943   6.697474   3.966883   2.699009   2.395908
    15  S    4.649122   6.094110   2.752881   1.812684   2.570956
    16  H    5.159742   4.775150   5.907744   7.186202   7.595206
    17  H    4.784100   4.816094   5.239142   6.592926   7.330927
    18  H    5.233078   5.339603   5.187994   6.580191   7.051042
    19  H    2.895486   2.511738   4.217154   5.305401   5.788326
    20  H    3.542225   3.352443   4.136583   5.266719   5.408984
    21  H    3.519980   4.328882   2.587839   4.006744   4.629460
    22  H    2.790497   3.626272   2.699764   4.014500   5.001545
    23  H    2.992847   2.995275   3.432404   4.176542   3.897812
    24  H    3.552910   4.217047   2.615454   3.382664   3.085990
    25  H    2.891457   3.314419   2.918085   3.099624   2.401793
    26  H    1.093107   2.076531   2.652669   2.500027   2.935446
    27  H    1.099440   2.151521   2.731919   3.227340   4.182841
    28  H    2.173333   1.091420   4.158821   4.556085   4.485115
    29  H    2.152171   1.094298   4.594507   4.750831   4.997310
    30  H    2.184983   1.088865   4.416245   5.077073   5.500783
    31  H    2.625341   3.998906   2.080678   1.092947   2.196334
    32  H    3.046950   3.839992   2.810955   2.137431   1.076133
    33  H    4.074620   5.100562   2.624528   2.155416   1.099564
    34  H    5.450100   6.312986   4.559627   3.431121   2.142248
    35  H    4.915346   5.019917   5.872552   4.887057   4.203614
    36  H    3.497634   3.699899   4.394468   3.639904   2.889675
    37  H    5.203735   5.431730   5.619448   4.654059   3.495911
    38  H    6.139722   7.366841   4.835234   3.492382   3.327826
    39  H    6.183643   7.411303   4.447059   3.389381   2.891582
                   11         12         13         14         15
    11  C    0.000000
    12  S    1.853109   0.000000
    13  C    2.865506   1.832938   0.000000
    14  C    1.528356   2.842629   4.279936   0.000000
    15  S    2.723739   3.829208   5.116550   1.841094   0.000000
    16  H    9.077282   9.650636   9.019973   9.720316   8.649256
    17  H    8.790713   9.370638   9.053204   9.200950   7.873937
    18  H    8.551379   9.418441   9.052115   8.976742   7.796126
    19  H    7.197713   7.525598   6.929588   7.923528   6.927654
    20  H    6.881191   7.550693   6.889490   7.645321   6.824370
    21  H    6.090567   7.085930   7.069579   6.351432   5.109045
    22  H    6.376240   6.973317   7.004203   6.638104   5.230281
    23  H    5.296230   6.008585   5.256975   6.247508   5.793897
    24  H    4.513733   5.708928   5.431584   5.156301   4.637766
    25  H    3.697897   4.480884   3.837449   4.779657   4.663633
    26  H    3.891687   3.710761   3.462875   4.753332   4.214177
    27  H    5.277754   5.236532   5.182466   5.811978   4.751667
    28  H    5.634105   5.591861   4.546577   6.764985   6.368237
    29  H    5.910768   5.388272   4.511138   6.950255   6.480743
    30  H    6.704278   6.585886   5.837225   7.598480   6.816705
    31  H    2.835290   3.030663   3.785739   3.132558   2.340194
    32  H    2.088586   2.770887   2.541024   3.325659   3.549525
    33  H    2.154703   3.738466   4.029889   2.763574   2.897862
    34  H    1.096412   2.409150   3.016027   2.170931   3.621562
    35  H    3.834018   2.412157   1.093919   5.147583   5.943653
    36  H    3.110219   2.475997   1.094159   4.533028   5.020934
    37  H    3.059829   2.452884   1.093430   4.533775   5.612834
    38  H    2.199118   2.865333   4.560377   1.092954   2.467170
    39  H    2.159968   3.733162   4.999916   1.096035   2.394989
                   16         17         18         19         20
    16  H    0.000000
    17  H    1.770322   0.000000
    18  H    1.773384   1.793977   0.000000
    19  H    2.338972   2.407675   3.002658   0.000000
    20  H    2.353296   3.006974   2.446109   1.750019   0.000000
    21  H    3.810968   3.167976   2.691016   3.060182   2.575791
    22  H    3.836505   2.711165   3.286342   2.491352   3.091793
    23  H    4.206479   4.685848   4.106734   2.938484   1.862680
    24  H    5.137139   5.219940   4.396021   4.062467   2.934756
    25  H    5.776716   5.991883   5.517857   4.181093   3.446176
    26  H    6.209093   5.871133   6.246376   3.947452   4.441022
    27  H    5.335703   4.630378   5.393981   3.109317   4.117317
    28  H    4.751373   5.134664   5.328802   2.748519   3.041653
    29  H    5.708579   5.725436   6.386522   3.472259   4.421528
    30  H    4.039124   4.075224   4.841165   1.845196   3.141786
    31  H    7.418586   6.764604   7.016827   5.339545   5.623623
    32  H    7.193367   7.117573   6.882704   5.304734   4.957714
    33  H    7.450730   7.267762   6.729424   5.913536   5.228498
    34  H    9.545443   9.420798   9.016138   7.776222   7.262303
    35  H    9.540461   9.586875   9.731692   7.381699   7.525227
    36  H    7.946319   8.026132   8.045447   5.860030   5.845645
    37  H    9.426469   9.602737   9.418946   7.476341   7.205147
    38  H   10.643584  10.061227   9.946861   8.755304   8.603577
    39  H   10.062814   9.596839   9.183699   8.439423   7.957058
                   21         22         23         24         25
    21  H    0.000000
    22  H    1.743374   0.000000
    23  H    3.054259   3.739970   0.000000
    24  H    2.534863   3.746384   1.777655   0.000000
    25  H    3.762890   4.364492   1.659039   1.750950   0.000000
    26  H    4.330826   3.737196   3.503438   3.888690   2.865690
    27  H    3.721933   2.513999   3.934535   4.349751   3.925418
    28  H    4.451132   4.159640   2.350415   3.825932   2.761268
    29  H    5.356189   4.509265   3.962150   5.151873   4.021468
    30  H    4.318387   3.420236   3.405007   4.712017   4.119317
    31  H    4.573267   4.166576   4.620932   4.187871   3.606402
    32  H    4.707622   4.987437   3.318896   3.001648   1.741540
    33  H    4.351344   5.100433   3.717621   2.513156   2.334664
    34  H    6.661086   7.142940   5.549141   4.752242   3.904574
    35  H    7.857897   7.611558   5.993904   6.366498   4.718487
    36  H    6.191937   6.099806   4.269975   4.647703   2.986737
    37  H    7.496469   7.651465   5.449010   5.559211   3.979350
    38  H    7.305598   7.436727   7.212154   6.210528   5.720005
    39  H    6.587490   7.124193   6.540536   5.246275   5.099131
                   26         27         28         29         30
    26  H    0.000000
    27  H    1.733830   0.000000
    28  H    2.560420   3.066566   0.000000
    29  H    2.271847   2.556519   1.768122   0.000000
    30  H    2.990873   2.433396   1.785829   1.724053   0.000000
    31  H    1.994056   2.745725   4.434734   4.221820   4.783410
    32  H    2.425442   3.911336   3.610506   4.202945   4.830565
    33  H    3.735495   4.797909   4.865487   5.679130   5.936618
    34  H    4.677358   6.152895   6.059071   6.527083   7.328214
    35  H    3.915284   5.553318   4.892911   4.543567   6.068122
    36  H    2.607110   4.328518   3.455910   3.550301   4.787410
    37  H    4.308072   6.041541   5.032535   5.286098   6.513070
    38  H    5.342104   6.398728   7.506162   7.488483   8.283855
    39  H    5.575907   6.604126   7.376044   7.761866   8.293152
                   31         32         33         34         35
    31  H    0.000000
    32  H    2.490346   0.000000
    33  H    3.090196   1.757337   0.000000
    34  H    3.873386   2.516028   2.393930   0.000000
    35  H    4.423888   3.534456   5.094450   4.017747   0.000000
    36  H    3.393308   1.991123   3.699565   3.393985   1.746422
    37  H    4.594212   2.866985   4.106824   2.803709   1.773468
    38  H    3.653268   4.142492   3.824689   2.763265   5.269797
    39  H    4.037441   3.861243   2.845249   2.335550   5.936946
                   36         37         38         39
    36  H    0.000000
    37  H    1.786522   0.000000
    38  H    5.000920   4.861163   0.000000
    39  H    5.250014   5.052394   1.771274   0.000000
 Stoichiometry    C12H24OS2
 Framework group  C1[X(C12H24OS2)]
 Deg. of freedom   111
 Full point group                 C1      NOp   1
 Largest Abelian subgroup         C1      NOp   1
 Largest concise Abelian subgroup C1      NOp   1
                         Standard orientation:                         
 ---------------------------------------------------------------------
 Center     Atomic      Atomic             Coordinates (Angstroms)
 Number     Number       Type             X           Y           Z
 ---------------------------------------------------------------------
      1          6           0        5.566171   -0.484411    0.234156
      2          6           0        4.177801    0.097911    0.259093
      3          6           0        3.024447   -0.835543   -0.151423
      4          6           0        1.599172   -0.184356   -0.010546
      5          6           0        1.501582    0.253773    1.470929
      6          6           0        1.397482    0.957105   -1.058106
      7          6           0        2.140069    2.269236   -0.870079
      8          8           0        0.627629   -1.258351   -0.273060
      9          6           0       -0.756945   -0.888067   -0.406260
     10          6           0       -1.301166   -0.224431    0.842624
     11          6           0       -2.796619   -0.087423    0.778051
     12         16           0       -3.292666    1.290952   -0.356864
     13          6           0       -2.421439    2.725394    0.380021
     14          6           0       -3.286715   -1.465932    0.336023
     15         16           0       -1.912180   -2.273466   -0.584939
     16          1           0        6.268180    0.310512    0.517059
     17          1           0        5.826010   -0.828716   -0.763833
     18          1           0        5.666707   -1.297771    0.960396
     19          1           0        4.224275    0.937880   -0.431442
     20          1           0        4.042229    0.507156    1.254946
     21          1           0        3.057194   -1.741641    0.475641
     22          1           0        3.171279   -1.193879   -1.175508
     23          1           0        2.304962    0.909030    1.793438
     24          1           0        1.478889   -0.630975    2.119085
     25          1           0        0.647729    0.860930    1.732798
     26          1           0        0.344669    1.249404   -1.090219
     27          1           0        1.604126    0.560418   -2.062449
     28          1           0        2.118526    2.598658    0.170216
     29          1           0        1.675128    3.048951   -1.481113
     30          1           0        3.168371    2.225990   -1.225538
     31          1           0       -0.895070   -0.296215   -1.314647
     32          1           0       -0.898302    0.769036    0.936364
     33          1           0       -0.999151   -0.793893    1.733433
     34          1           0       -3.193625    0.162093    1.769135
     35          1           0       -2.652526    3.612410   -0.217021
     36          1           0       -1.332220    2.624036    0.357349
     37          1           0       -2.749916    2.906690    1.407067
     38          1           0       -4.204754   -1.423448   -0.255541
     39          1           0       -3.479235   -2.089167    1.216822
 ---------------------------------------------------------------------
 Rotational constants (GHZ):           0.7799895           0.2542021           0.2117656
 Standard basis: 6-31G(2df,p) (6D, 7F)
 There are   593 symmetry adapted cartesian basis functions of A   symmetry.
 There are   548 symmetry adapted basis functions of A   symmetry.
   548 basis functions,   876 primitive gaussians,   593 cartesian basis functions
    68 alpha electrons       68 beta electrons
       nuclear repulsion energy      1352.8980706933 Hartrees.
 NAtoms=   39 NActive=   39 NUniq=   39 SFac= 1.00D+00 NAtFMM=   60 NAOKFM=F Big=F
 Integral buffers will be    131072 words long.
 Raffenetti 2 integral format.
 Two-electron integral symmetry is turned on.
 One-electron integrals computed using PRISM.
 PrsmSu:  requested number of processors reduced to:  12 ShMem   1 Linda.
 NBasis=   548 RedAO= T EigKep=  6.08D-04  NBF=   548
 NBsUse=   548 1.00D-06 EigRej= -1.00D+00 NBFU=   548
 ExpMin= 1.17D-01 ExpMax= 2.19D+04 ExpMxC= 3.30D+03 IAcc=3 IRadAn=         5 AccDes= 0.00D+00
 Harris functional with IExCor=  402 and IRadAn=       5 diagonalized for initial guess.
 HarFok:  IExCor=  402 AccDes= 0.00D+00 IRadAn=         5 IDoV= 1 UseB2=F ITyADJ=14
 ICtDFT=  3500011 ScaDFX=  1.000000  1.000000  1.000000  1.000000
 FoFCou: FMM=F IPFlag=           0 FMFlag=      100000 FMFlg1=           0
         NFxFlg=           0 DoJE=T BraDBF=F KetDBF=T FulRan=T
         wScrn=  0.000000 ICntrl=       500 IOpCl=  0 I1Cent=   200000004 NGrid=           0
         NMat0=    1 NMatS0=      1 NMatT0=    0 NMatD0=    1 NMtDS0=    0 NMtDT0=    0
 Petite list used in FoFCou.
 Requested convergence on RMS density matrix=1.00D-08 within 128 cycles.
 Requested convergence on MAX density matrix=1.00D-06.
 Requested convergence on             energy=1.00D-06.
 No special actions if energy rises.
 Integral accuracy reduced to 1.0D-05 until final iterations.
 Initial convergence to 1.0D-05 achieved.  Increase integral accuracy.
 SCF Done:  E(RB3LYP) =  -1343.34211430     A.U. after   12 cycles
            NFock= 12  Conv=0.99D-08     -V/T= 2.0051

 **********************************************************************

            Population analysis using the SCF density.

 **********************************************************************

 Orbital symmetries:
       Occupied  (A) (A) (A) (A) (A) (A) (A) (A) (A) (A) (A) (A)
                 (A) (A) (A) (A) (A) (A) (A) (A) (A) (A) (A) (A)
                 (A) (A) (A) (A) (A) (A) (A) (A) (A) (A) (A) (A)
                 (A) (A) (A) (A) (A) (A) (A) (A) (A) (A) (A) (A)
                 (A) (A) (A) (A) (A) (A) (A) (A) (A) (A) (A) (A)
                 (A) (A) (A) (A) (A) (A) (A) (A)
       Virtual   (A) (A) (A) (A) (A) (A) (A) (A) (A) (A) (A) (A)
                 (A) (A) (A) (A) (A) (A) (A) (A) (A) (A) (A) (A)
                 (A) (A) (A) (A) (A) (A) (A) (A) (A) (A) (A) (A)
                 (A) (A) (A) (A) (A) (A) (A) (A) (A) (A) (A) (A)
                 (A) (A) (A) (A) (A) (A) (A) (A) (A) (A) (A) (A)
                 (A) (A) (A) (A) (A) (A) (A) (A) (A) (A) (A) (A)
                 (A) (A) (A) (A) (A) (A) (A) (A) (A) (A) (A) (A)
                 (A) (A) (A) (A) (A) (A) (A) (A) (A) (A) (A) (A)
                 (A) (A) (A) (A) (A) (A) (A) (A) (A) (A) (A) (A)
                 (A) (A) (A) (A) (A) (A) (A) (A) (A) (A) (A) (A)
                 (A) (A) (A) (A) (A) (A) (A) (A) (A) (A) (A) (A)
                 (A) (A) (A) (A) (A) (A) (A) (A) (A) (A) (A) (A)
                 (A) (A) (A) (A) (A) (A) (A) (A) (A) (A) (A) (A)
                 (A) (A) (A) (A) (A) (A) (A) (A) (A) (A) (A) (A)
                 (A) (A) (A) (A) (A) (A) (A) (A) (A) (A) (A) (A)
                 (A) (A) (A) (A) (A) (A) (A) (A) (A) (A) (A) (A)
                 (A) (A) (A) (A) (A) (A) (A) (A) (A) (A) (A) (A)
                 (A) (A) (A) (A) (A) (A) (A) (A) (A) (A) (A) (A)
                 (A) (A) (A) (A) (A) (A) (A) (A) (A) (A) (A) (A)
                 (A) (A) (A) (A) (A) (A) (A) (A) (A) (A) (A) (A)
                 (A) (A) (A) (A) (A) (A) (A) (A) (A) (A) (A) (A)
                 (A) (A) (A) (A) (A) (A) (A) (A) (A) (A) (A) (A)
                 (A) (A) (A) (A) (A) (A) (A) (A) (A) (A) (A) (A)
                 (A) (A) (A) (A) (A) (A) (A) (A) (A) (A) (A) (A)
                 (A) (A) (A) (A) (A) (A) (A) (A) (A) (A) (A) (A)
                 (A) (A) (A) (A) (A) (A) (A) (A) (A) (A) (A) (A)
                 (A) (A) (A) (A) (A) (A) (A) (A) (A) (A) (A) (A)
                 (A) (A) (A) (A) (A) (A) (A) (A) (A) (A) (A) (A)
                 (A) (A) (A) (A) (A) (A) (A) (A) (A) (A) (A) (A)
                 (A) (A) (A) (A) (A) (A) (A) (A) (A) (A) (A) (A)
                 (A) (A) (A) (A) (A) (A) (A) (A) (A) (A) (A) (A)
                 (A) (A) (A) (A) (A) (A) (A) (A) (A) (A) (A) (A)
                 (A) (A) (A) (A) (A) (A) (A) (A) (A) (A) (A) (A)
                 (A) (A) (A) (A) (A) (A) (A) (A) (A) (A) (A) (A)
                 (A) (A) (A) (A) (A) (A) (A) (A) (A) (A) (A) (A)
                 (A) (A) (A) (A) (A) (A) (A) (A) (A) (A) (A) (A)
                 (A) (A) (A) (A) (A) (A) (A) (A) (A) (A) (A) (A)
                 (A) (A) (A) (A) (A) (A) (A) (A) (A) (A) (A) (A)
                 (A) (A) (A) (A) (A) (A) (A) (A) (A) (A) (A) (A)
                 (A) (A) (A) (A) (A) (A) (A) (A) (A) (A) (A) (A)
 The electronic state is 1-A.
 Alpha  occ. eigenvalues --  -88.87223 -88.85772 -19.13898 -10.25329 -10.24943
 Alpha  occ. eigenvalues --  -10.22771 -10.21933 -10.21838 -10.18535 -10.18442
 Alpha  occ. eigenvalues --  -10.17882 -10.17839 -10.17439 -10.17082 -10.17007
 Alpha  occ. eigenvalues --   -7.93512  -7.92190  -5.90004  -5.89658  -5.89021
 Alpha  occ. eigenvalues --   -5.88671  -5.88331  -5.87693  -1.01613  -0.86025
 Alpha  occ. eigenvalues --   -0.81273  -0.77842  -0.76948  -0.73982  -0.72764
 Alpha  occ. eigenvalues --   -0.71518  -0.67991  -0.64469  -0.63983  -0.59869
 Alpha  occ. eigenvalues --   -0.57036  -0.56240  -0.53956  -0.49776  -0.48949
 Alpha  occ. eigenvalues --   -0.47575  -0.46089  -0.45856  -0.45121  -0.43512
 Alpha  occ. eigenvalues --   -0.42933  -0.42356  -0.41888  -0.40381  -0.39838
 Alpha  occ. eigenvalues --   -0.39424  -0.38951  -0.38043  -0.37541  -0.36835
 Alpha  occ. eigenvalues --   -0.35897  -0.35466  -0.34276  -0.33987  -0.32972
 Alpha  occ. eigenvalues --   -0.32747  -0.31479  -0.30413  -0.29728  -0.28307
 Alpha  occ. eigenvalues --   -0.26032  -0.22568  -0.21424
 Alpha virt. eigenvalues --    0.02814   0.03719   0.04551   0.06276   0.07222
 Alpha virt. eigenvalues --    0.08851   0.09665   0.10321   0.11173   0.11635
 Alpha virt. eigenvalues --    0.12185   0.12455   0.13072   0.13956   0.15099
 Alpha virt. eigenvalues --    0.15263   0.15720   0.15935   0.16573   0.16742
 Alpha virt. eigenvalues --    0.17331   0.18251   0.18640   0.19145   0.19835
 Alpha virt. eigenvalues --    0.20651   0.21512   0.21823   0.21948   0.22426
 Alpha virt. eigenvalues --    0.23587   0.23927   0.25328   0.25931   0.26300
 Alpha virt. eigenvalues --    0.27594   0.28308   0.28760   0.29834   0.30742
 Alpha virt. eigenvalues --    0.31570   0.33467   0.35537   0.36512   0.37789
 Alpha virt. eigenvalues --    0.39304   0.39653   0.40128   0.40676   0.41446
 Alpha virt. eigenvalues --    0.43124   0.44150   0.45557   0.46481   0.47153
 Alpha virt. eigenvalues --    0.47561   0.48768   0.50141   0.50659   0.51276
 Alpha virt. eigenvalues --    0.51621   0.52444   0.53013   0.53361   0.54876
 Alpha virt. eigenvalues --    0.55147   0.56216   0.57720   0.58327   0.58644
 Alpha virt. eigenvalues --    0.59202   0.59862   0.60382   0.62282   0.63611
 Alpha virt. eigenvalues --    0.64773   0.65957   0.66339   0.67314   0.68127
 Alpha virt. eigenvalues --    0.69064   0.69985   0.70576   0.70998   0.71504
 Alpha virt. eigenvalues --    0.72192   0.72425   0.73176   0.73749   0.74513
 Alpha virt. eigenvalues --    0.74764   0.74931   0.75564   0.75912   0.76743
 Alpha virt. eigenvalues --    0.77540   0.78039   0.78763   0.79640   0.79791
 Alpha virt. eigenvalues --    0.80158   0.80664   0.81995   0.82934   0.83391
 Alpha virt. eigenvalues --    0.85047   0.85580   0.85706   0.87114   0.87711
 Alpha virt. eigenvalues --    0.87794   0.88860   0.89408   0.91218   0.92239
 Alpha virt. eigenvalues --    0.92726   0.93544   0.94318   0.96342   0.97007
 Alpha virt. eigenvalues --    0.97593   0.98322   1.00694   1.01354   1.02502
 Alpha virt. eigenvalues --    1.03954   1.05875   1.08041   1.10030   1.11450
 Alpha virt. eigenvalues --    1.13750   1.15665   1.16916   1.18366   1.18771
 Alpha virt. eigenvalues --    1.20668   1.22165   1.25104   1.25737   1.25773
 Alpha virt. eigenvalues --    1.26843   1.27916   1.30601   1.31273   1.32564
 Alpha virt. eigenvalues --    1.33108   1.34166   1.35742   1.36757   1.37891
 Alpha virt. eigenvalues --    1.39267   1.39440   1.41825   1.42825   1.44374
 Alpha virt. eigenvalues --    1.44971   1.45526   1.48007   1.49739   1.50101
 Alpha virt. eigenvalues --    1.50451   1.51924   1.52578   1.52699   1.54082
 Alpha virt. eigenvalues --    1.55107   1.56339   1.57550   1.58177   1.59062
 Alpha virt. eigenvalues --    1.59485   1.61142   1.62323   1.62851   1.63413
 Alpha virt. eigenvalues --    1.65389   1.65854   1.66927   1.69167   1.69978
 Alpha virt. eigenvalues --    1.71183   1.71546   1.73524   1.74915   1.75202
 Alpha virt. eigenvalues --    1.76452   1.77871   1.79078   1.79927   1.80896
 Alpha virt. eigenvalues --    1.83122   1.83388   1.84552   1.85701   1.86343
 Alpha virt. eigenvalues --    1.87934   1.88451   1.89167   1.89680   1.90517
 Alpha virt. eigenvalues --    1.91628   1.92168   1.94004   1.94870   1.95909
 Alpha virt. eigenvalues --    1.96062   1.96684   1.98389   1.98715   2.00088
 Alpha virt. eigenvalues --    2.00462   2.02106   2.02403   2.04428   2.06702
 Alpha virt. eigenvalues --    2.08120   2.12959   2.15233   2.15932   2.17823
 Alpha virt. eigenvalues --    2.19017   2.21511   2.23235   2.23427   2.25425
 Alpha virt. eigenvalues --    2.25968   2.28547   2.28968   2.29276   2.31899
 Alpha virt. eigenvalues --    2.32666   2.32920   2.33260   2.34763   2.35801
 Alpha virt. eigenvalues --    2.38045   2.38509   2.39946   2.41680   2.42895
 Alpha virt. eigenvalues --    2.44627   2.45689   2.46669   2.47452   2.48498
 Alpha virt. eigenvalues --    2.49376   2.49539   2.52213   2.53090   2.54868
 Alpha virt. eigenvalues --    2.56823   2.57810   2.58774   2.61586   2.62595
 Alpha virt. eigenvalues --    2.65049   2.66100   2.70462   2.72251   2.73198
 Alpha virt. eigenvalues --    2.74177   2.75538   2.76047   2.76221   2.77385
 Alpha virt. eigenvalues --    2.78463   2.79495   2.80558   2.81063   2.81684
 Alpha virt. eigenvalues --    2.82989   2.83226   2.84568   2.84920   2.86623
 Alpha virt. eigenvalues --    2.87510   2.88452   2.89204   2.90030   2.91315
 Alpha virt. eigenvalues --    2.91511   2.92870   2.94184   2.94406   2.95347
 Alpha virt. eigenvalues --    2.96303   2.97122   2.97739   2.98858   2.99945
 Alpha virt. eigenvalues --    3.00579   3.02437   3.04371   3.04499   3.05857
 Alpha virt. eigenvalues --    3.07469   3.09213   3.10921   3.11213   3.14781
 Alpha virt. eigenvalues --    3.16086   3.17991   3.18762   3.19918   3.20706
 Alpha virt. eigenvalues --    3.23570   3.24908   3.28880   3.30055   3.30335
 Alpha virt. eigenvalues --    3.31882   3.32406   3.33671   3.34618   3.35541
 Alpha virt. eigenvalues --    3.38188   3.39193   3.39634   3.41421   3.42076
 Alpha virt. eigenvalues --    3.43281   3.44164   3.45593   3.48317   3.48626
 Alpha virt. eigenvalues --    3.50115   3.51197   3.52067   3.52715   3.56018
 Alpha virt. eigenvalues --    3.57303   3.58111   3.59415   3.60389   3.60879
 Alpha virt. eigenvalues --    3.61027   3.62651   3.63701   3.64681   3.64783
 Alpha virt. eigenvalues --    3.65555   3.65866   3.66864   3.68854   3.69369
 Alpha virt. eigenvalues --    3.71555   3.75186   3.76356   3.78340   3.79574
 Alpha virt. eigenvalues --    3.81681   3.85188   3.88817   3.89856   3.90808
 Alpha virt. eigenvalues --    3.92749   3.93987   3.95513   3.96298   3.98403
 Alpha virt. eigenvalues --    4.00311   4.01581   4.02548   4.04107   4.09061
 Alpha virt. eigenvalues --    4.14974   4.16977   4.18030   4.19970   4.23364
 Alpha virt. eigenvalues --    4.24660   4.28899   4.30659   4.32116   4.33036
 Alpha virt. eigenvalues --    4.35403   4.37010   4.38365   4.39360   4.39911
 Alpha virt. eigenvalues --    4.42434   4.42806   4.43899   4.45089   4.46095
 Alpha virt. eigenvalues --    4.47102   4.47579   4.49987   4.50718   4.51964
 Alpha virt. eigenvalues --    4.53557   4.54064   4.56109   4.57797   4.58436
 Alpha virt. eigenvalues --    4.59020   4.61315   4.62653   4.63141   4.64535
 Alpha virt. eigenvalues --    4.65818   4.66443   4.67314   4.68681   4.69495
 Alpha virt. eigenvalues --    4.70057   4.70847   4.71241   4.72560   4.72721
 Alpha virt. eigenvalues --    4.74224   4.74853   4.75022   4.76028   4.77052
 Alpha virt. eigenvalues --    4.77907   4.78283   4.79435   4.80420   4.81846
 Alpha virt. eigenvalues --    4.84166   4.84953   4.85688   4.87000   4.87412
 Alpha virt. eigenvalues --    4.88533   4.88965   4.89874   4.91608   4.92201
 Alpha virt. eigenvalues --    4.94029   4.95474   4.96128   4.97810   4.98695
 Alpha virt. eigenvalues --    5.00568   5.02026   5.04959   5.07282   5.10578
 Alpha virt. eigenvalues --    5.13563   5.14730   5.23805   5.25307   5.30742
 Alpha virt. eigenvalues --    5.34749   5.36909   5.37595   5.40468   5.41890
 Alpha virt. eigenvalues --    5.45965   5.49158   5.51763   5.55178   5.56283
 Alpha virt. eigenvalues --    5.60981   5.64604   5.76867   5.81582   5.92922
 Alpha virt. eigenvalues --    6.02687   6.10045   6.12115   6.34538   6.41810
 Alpha virt. eigenvalues --    6.62220   7.27714  11.32068  11.33553  11.41369
 Alpha virt. eigenvalues --   11.59323  11.79587  11.86948  12.06263  12.27600
 Alpha virt. eigenvalues --   12.46962  12.69526  12.78700  12.84594  13.81437
          Condensed to atoms (all electrons):
               1          2          3          4          5          6
     1  C    4.967058   0.404582  -0.032094   0.001451   0.000558   0.000145
     2  C    0.404582   4.794042   0.404734  -0.030342  -0.006104  -0.002256
     3  C   -0.032094   0.404734   4.942828   0.406427  -0.058161  -0.034961
     4  C    0.001451  -0.030342   0.406427   4.412934   0.356347   0.388201
     5  C    0.000558  -0.006104  -0.058161   0.356347   5.174048  -0.063231
     6  C    0.000145  -0.002256  -0.034961   0.388201  -0.063231   4.943670
     7  C    0.000070  -0.006625   0.000230  -0.020999  -0.005853   0.373192
     8  O   -0.000020   0.001498  -0.020578   0.346853  -0.042203  -0.037936
     9  C    0.000000  -0.000105   0.001965  -0.069932  -0.001600   0.001275
    10  C    0.000000   0.000016   0.000140  -0.000413  -0.002196  -0.004814
    11  C   -0.000000  -0.000000  -0.000006  -0.000004   0.000604   0.000198
    12  S    0.000000   0.000000  -0.000001   0.000098   0.000122  -0.000490
    13  C    0.000000   0.000000  -0.000000  -0.000007  -0.000050  -0.000390
    14  C    0.000000  -0.000000   0.000001  -0.000080  -0.000019  -0.000007
    15  S   -0.000000   0.000003  -0.000266   0.002556  -0.000274   0.000601
    16  H    0.373919  -0.023037   0.003228  -0.000111   0.000016   0.000003
    17  H    0.378314  -0.027975  -0.003657   0.000106  -0.000009  -0.000017
    18  H    0.375836  -0.028780  -0.003336   0.000052   0.000012  -0.000002
    19  H   -0.039217   0.370067  -0.032786  -0.001503  -0.000161  -0.000554
    20  H   -0.038784   0.377651  -0.034122  -0.004862  -0.002899  -0.000219
    21  H   -0.004285  -0.036256   0.347548  -0.014670  -0.006881   0.004694
    22  H   -0.001384  -0.030551   0.345351  -0.016724   0.005788  -0.007732
    23  H   -0.000075  -0.004983  -0.005985  -0.013394   0.356590  -0.000117
    24  H   -0.000068   0.000387  -0.004857  -0.011223   0.361043   0.004759
    25  H   -0.000010   0.000455   0.005277  -0.020328   0.360386  -0.005061
    26  H    0.000002   0.000024   0.004387  -0.023479  -0.004160   0.363684
    27  H   -0.000028   0.000279  -0.009745  -0.018657   0.005931   0.359342
    28  H    0.000011  -0.000054  -0.000096  -0.008542   0.004277  -0.026880
    29  H   -0.000009   0.000333  -0.000046   0.002535   0.000001  -0.020609
    30  H    0.000246  -0.005860   0.000143  -0.000564  -0.000108  -0.025962
    31  H    0.000000   0.000007  -0.000087  -0.008311  -0.000519   0.002851
    32  H    0.000000  -0.000006  -0.000042   0.001575  -0.009974  -0.000280
    33  H   -0.000000   0.000003  -0.000062  -0.001304  -0.000884   0.000321
    34  H   -0.000000   0.000000   0.000000   0.000001   0.000014  -0.000006
    35  H    0.000000  -0.000000   0.000000   0.000001  -0.000001   0.000003
    36  H   -0.000000   0.000000   0.000002  -0.000113   0.000011   0.000210
    37  H   -0.000000   0.000000   0.000000   0.000001  -0.000004   0.000004
    38  H   -0.000000   0.000000  -0.000000   0.000000   0.000000   0.000000
    39  H    0.000000   0.000000  -0.000000   0.000002   0.000000   0.000000
               7          8          9         10         11         12
     1  C    0.000070  -0.000020   0.000000   0.000000  -0.000000   0.000000
     2  C   -0.006625   0.001498  -0.000105   0.000016  -0.000000   0.000000
     3  C    0.000230  -0.020578   0.001965   0.000140  -0.000006  -0.000001
     4  C   -0.020999   0.346853  -0.069932  -0.000413  -0.000004   0.000098
     5  C   -0.005853  -0.042203  -0.001600  -0.002196   0.000604   0.000122
     6  C    0.373192  -0.037936   0.001275  -0.004814   0.000198  -0.000490
     7  C    5.016857   0.002172  -0.000267   0.000202  -0.000007  -0.000036
     8  O    0.002172   7.807287   0.358806  -0.040438   0.001620   0.000056
     9  C   -0.000267   0.358806   4.661589   0.353032  -0.019021  -0.006749
    10  C    0.000202  -0.040438   0.353032   5.096094   0.374701  -0.043588
    11  C   -0.000007   0.001620  -0.019021   0.374701   4.792900   0.288581
    12  S   -0.000036   0.000056  -0.006749  -0.043588   0.288581  15.820407
    13  C   -0.000038   0.000007  -0.000223  -0.007270  -0.010027   0.296630
    14  C    0.000000   0.000224  -0.025400  -0.046547   0.389713  -0.034004
    15  S   -0.000029  -0.002119   0.285794  -0.077679  -0.040507   0.004257
    16  H    0.000019   0.000000  -0.000000   0.000000  -0.000000   0.000000
    17  H    0.000018   0.000000   0.000000   0.000000   0.000000  -0.000000
    18  H   -0.000004  -0.000000   0.000000   0.000000   0.000000   0.000000
    19  H   -0.001892  -0.000010   0.000006  -0.000001  -0.000000   0.000000
    20  H    0.000432   0.000027   0.000004   0.000001   0.000000   0.000000
    21  H   -0.000116   0.000964   0.000072  -0.000023   0.000001  -0.000000
    22  H    0.000034   0.001928   0.000231   0.000031  -0.000000   0.000000
    23  H   -0.001282   0.002133   0.000061   0.000030  -0.000021   0.000001
    24  H    0.000153   0.001200   0.000390  -0.000632   0.000071  -0.000001
    25  H    0.000724  -0.000093  -0.001435  -0.007796   0.000766  -0.000214
    26  H   -0.040109  -0.005698   0.002404  -0.001767  -0.000329   0.002005
    27  H   -0.039765   0.001484   0.000631   0.000302  -0.000003  -0.000011
    28  H    0.376868   0.000058   0.000035  -0.000018   0.000000  -0.000009
    29  H    0.367880  -0.000041   0.000014   0.000005   0.000000  -0.000004
    30  H    0.379952  -0.000018   0.000007  -0.000005   0.000000  -0.000000
    31  H   -0.000478  -0.036539   0.375991  -0.061546   0.000320   0.005806
    32  H   -0.000175  -0.000046  -0.029366   0.357204  -0.037509  -0.015971
    33  H   -0.000000   0.001408  -0.023377   0.358165  -0.026356   0.006145
    34  H   -0.000000  -0.000047   0.004004  -0.041266   0.360768  -0.055500
    35  H   -0.000001   0.000000  -0.000019   0.000358   0.001355  -0.029153
    36  H    0.000503  -0.000015   0.000175  -0.002544  -0.001945  -0.045559
    37  H   -0.000001  -0.000000   0.000066  -0.000537  -0.002300  -0.044894
    38  H    0.000000  -0.000012   0.001356   0.004971  -0.027990  -0.005073
    39  H   -0.000000   0.000018   0.001333   0.000317  -0.015338   0.003800
              13         14         15         16         17         18
     1  C    0.000000   0.000000  -0.000000   0.373919   0.378314   0.375836
     2  C    0.000000  -0.000000   0.000003  -0.023037  -0.027975  -0.028780
     3  C   -0.000000   0.000001  -0.000266   0.003228  -0.003657  -0.003336
     4  C   -0.000007  -0.000080   0.002556  -0.000111   0.000106   0.000052
     5  C   -0.000050  -0.000019  -0.000274   0.000016  -0.000009   0.000012
     6  C   -0.000390  -0.000007   0.000601   0.000003  -0.000017  -0.000002
     7  C   -0.000038   0.000000  -0.000029   0.000019   0.000018  -0.000004
     8  O    0.000007   0.000224  -0.002119   0.000000   0.000000  -0.000000
     9  C   -0.000223  -0.025400   0.285794  -0.000000   0.000000   0.000000
    10  C   -0.007270  -0.046547  -0.077679   0.000000   0.000000   0.000000
    11  C   -0.010027   0.389713  -0.040507  -0.000000   0.000000   0.000000
    12  S    0.296630  -0.034004   0.004257   0.000000  -0.000000   0.000000
    13  C    4.977037   0.001222  -0.000121   0.000000   0.000000  -0.000000
    14  C    0.001222   4.938567   0.297660  -0.000000  -0.000000  -0.000000
    15  S   -0.000121   0.297660  15.839676   0.000000   0.000000   0.000000
    16  H    0.000000  -0.000000   0.000000   0.607773  -0.031879  -0.031952
    17  H    0.000000  -0.000000   0.000000  -0.031879   0.600316  -0.031760
    18  H   -0.000000  -0.000000   0.000000  -0.031952  -0.031760   0.604041
    19  H   -0.000000   0.000000   0.000000  -0.003936  -0.005384   0.006203
    20  H    0.000000  -0.000000   0.000000  -0.003417   0.006124  -0.004828
    21  H    0.000000  -0.000000   0.000042  -0.000058  -0.000371   0.004666
    22  H    0.000000   0.000000   0.000015  -0.000088   0.003795  -0.000314
    23  H   -0.000000   0.000000   0.000016  -0.000004   0.000006   0.000037
    24  H    0.000002  -0.000001   0.000112   0.000001   0.000000   0.000009
    25  H   -0.000304   0.000007  -0.000082  -0.000000   0.000000  -0.000001
    26  H   -0.000139   0.000006  -0.000265  -0.000000  -0.000000  -0.000000
    27  H    0.000008   0.000001  -0.000062   0.000001   0.000002   0.000000
    28  H   -0.000022   0.000000  -0.000000  -0.000001  -0.000001  -0.000000
    29  H    0.000002  -0.000000   0.000000   0.000000  -0.000000   0.000000
    30  H    0.000001  -0.000000   0.000000  -0.000019  -0.000002  -0.000002
    31  H    0.000004   0.001757  -0.053777   0.000000   0.000000  -0.000000
    32  H    0.003487   0.006713   0.008413   0.000000   0.000000   0.000000
    33  H    0.000233  -0.001081   0.000134   0.000000  -0.000000  -0.000000
    34  H   -0.001973  -0.034805   0.005729   0.000000   0.000000  -0.000000
    35  H    0.376640  -0.000030   0.000008  -0.000000  -0.000000   0.000000
    36  H    0.376097   0.000002  -0.000058  -0.000000  -0.000000   0.000000
    37  H    0.379816   0.000034   0.000015  -0.000000  -0.000000   0.000000
    38  H    0.000056   0.374420  -0.041232   0.000000   0.000000  -0.000000
    39  H   -0.000047   0.367078  -0.054766   0.000000  -0.000000  -0.000000
              19         20         21         22         23         24
     1  C   -0.039217  -0.038784  -0.004285  -0.001384  -0.000075  -0.000068
     2  C    0.370067   0.377651  -0.036256  -0.030551  -0.004983   0.000387
     3  C   -0.032786  -0.034122   0.347548   0.345351  -0.005985  -0.004857
     4  C   -0.001503  -0.004862  -0.014670  -0.016724  -0.013394  -0.011223
     5  C   -0.000161  -0.002899  -0.006881   0.005788   0.356590   0.361043
     6  C   -0.000554  -0.000219   0.004694  -0.007732  -0.000117   0.004759
     7  C   -0.001892   0.000432  -0.000116   0.000034  -0.001282   0.000153
     8  O   -0.000010   0.000027   0.000964   0.001928   0.002133   0.001200
     9  C    0.000006   0.000004   0.000072   0.000231   0.000061   0.000390
    10  C   -0.000001   0.000001  -0.000023   0.000031   0.000030  -0.000632
    11  C   -0.000000   0.000000   0.000001  -0.000000  -0.000021   0.000071
    12  S    0.000000   0.000000  -0.000000   0.000000   0.000001  -0.000001
    13  C   -0.000000   0.000000   0.000000   0.000000  -0.000000   0.000002
    14  C    0.000000  -0.000000  -0.000000   0.000000   0.000000  -0.000001
    15  S    0.000000   0.000000   0.000042   0.000015   0.000016   0.000112
    16  H   -0.003936  -0.003417  -0.000058  -0.000088  -0.000004   0.000001
    17  H   -0.005384   0.006124  -0.000371   0.003795   0.000006   0.000000
    18  H    0.006203  -0.004828   0.004666  -0.000314   0.000037   0.000009
    19  H    0.641125  -0.043404   0.006141  -0.005714   0.001044   0.000061
    20  H   -0.043404   0.639072  -0.003675   0.005894   0.005324   0.000966
    21  H    0.006141  -0.003675   0.634513  -0.039366   0.000652   0.004135
    22  H   -0.005714   0.005894  -0.039366   0.635414   0.000024  -0.000037
    23  H    0.001044   0.005324   0.000652   0.000024   0.605808  -0.028888
    24  H    0.000061   0.000966   0.004135  -0.000037  -0.028888   0.580924
    25  H   -0.000053  -0.000386  -0.000106  -0.000209  -0.036236  -0.034533
    26  H   -0.000037  -0.000018  -0.000214  -0.000055   0.000080  -0.000080
    27  H    0.000079   0.000021   0.000004   0.005343  -0.000076  -0.000141
    28  H    0.000447  -0.000654  -0.000017   0.000027   0.002764  -0.000192
    29  H    0.000164   0.000001   0.000006  -0.000014   0.000035   0.000001
    30  H    0.007454   0.000122  -0.000046   0.000056   0.000037  -0.000012
    31  H   -0.000001   0.000000   0.000026  -0.000038   0.000030   0.000062
    32  H    0.000000   0.000003   0.000001   0.000005   0.000612  -0.000270
    33  H   -0.000000   0.000000   0.000012  -0.000002   0.000228   0.002068
    34  H   -0.000000  -0.000000   0.000000   0.000000  -0.000001  -0.000000
    35  H   -0.000000  -0.000000  -0.000000  -0.000000   0.000000  -0.000000
    36  H   -0.000000  -0.000000  -0.000000  -0.000000  -0.000017  -0.000001
    37  H    0.000000  -0.000000  -0.000000  -0.000000  -0.000000  -0.000000
    38  H   -0.000000  -0.000000  -0.000000  -0.000000  -0.000000  -0.000000
    39  H    0.000000  -0.000000  -0.000000  -0.000000   0.000000  -0.000001
              25         26         27         28         29         30
     1  C   -0.000010   0.000002  -0.000028   0.000011  -0.000009   0.000246
     2  C    0.000455   0.000024   0.000279  -0.000054   0.000333  -0.005860
     3  C    0.005277   0.004387  -0.009745  -0.000096  -0.000046   0.000143
     4  C   -0.020328  -0.023479  -0.018657  -0.008542   0.002535  -0.000564
     5  C    0.360386  -0.004160   0.005931   0.004277   0.000001  -0.000108
     6  C   -0.005061   0.363684   0.359342  -0.026880  -0.020609  -0.025962
     7  C    0.000724  -0.040109  -0.039765   0.376868   0.367880   0.379952
     8  O   -0.000093  -0.005698   0.001484   0.000058  -0.000041  -0.000018
     9  C   -0.001435   0.002404   0.000631   0.000035   0.000014   0.000007
    10  C   -0.007796  -0.001767   0.000302  -0.000018   0.000005  -0.000005
    11  C    0.000766  -0.000329  -0.000003   0.000000   0.000000   0.000000
    12  S   -0.000214   0.002005  -0.000011  -0.000009  -0.000004  -0.000000
    13  C   -0.000304  -0.000139   0.000008  -0.000022   0.000002   0.000001
    14  C    0.000007   0.000006   0.000001   0.000000  -0.000000  -0.000000
    15  S   -0.000082  -0.000265  -0.000062  -0.000000   0.000000   0.000000
    16  H   -0.000000  -0.000000   0.000001  -0.000001   0.000000  -0.000019
    17  H    0.000000  -0.000000   0.000002  -0.000001  -0.000000  -0.000002
    18  H   -0.000001  -0.000000   0.000000  -0.000000   0.000000  -0.000002
    19  H   -0.000053  -0.000037   0.000079   0.000447   0.000164   0.007454
    20  H   -0.000386  -0.000018   0.000021  -0.000654   0.000001   0.000122
    21  H   -0.000106  -0.000214   0.000004  -0.000017   0.000006  -0.000046
    22  H   -0.000209  -0.000055   0.005343   0.000027  -0.000014   0.000056
    23  H   -0.036236   0.000080  -0.000076   0.002764   0.000035   0.000037
    24  H   -0.034533  -0.000080  -0.000141  -0.000192   0.000001  -0.000012
    25  H    0.625594   0.001257  -0.000037   0.001346  -0.000053   0.000007
    26  H    0.001257   0.632655  -0.040397  -0.001235  -0.010177   0.005848
    27  H   -0.000037  -0.040397   0.628485   0.005530   0.000268  -0.007186
    28  H    0.001346  -0.001235   0.005530   0.594934  -0.031657  -0.033466
    29  H   -0.000053  -0.010177   0.000268  -0.031657   0.613707  -0.032817
    30  H    0.000007   0.005848  -0.007186  -0.033466  -0.032817   0.581714
    31  H    0.000085   0.003156   0.001164   0.000021   0.000052  -0.000005
    32  H   -0.000621   0.000993  -0.000038  -0.000077  -0.000034   0.000009
    33  H    0.000529  -0.000015  -0.000012  -0.000005   0.000000  -0.000000
    34  H   -0.000022   0.000011   0.000000  -0.000000   0.000000  -0.000000
    35  H    0.000005   0.000013  -0.000000  -0.000001   0.000002  -0.000000
    36  H    0.000986   0.001574  -0.000013   0.000314   0.000142  -0.000003
    37  H    0.000017   0.000007  -0.000000  -0.000001  -0.000000  -0.000000
    38  H    0.000000   0.000001  -0.000000   0.000000  -0.000000   0.000000
    39  H   -0.000001  -0.000001  -0.000000   0.000000  -0.000000   0.000000
              31         32         33         34         35         36
     1  C    0.000000   0.000000  -0.000000  -0.000000   0.000000  -0.000000
     2  C    0.000007  -0.000006   0.000003   0.000000  -0.000000   0.000000
     3  C   -0.000087  -0.000042  -0.000062   0.000000   0.000000   0.000002
     4  C   -0.008311   0.001575  -0.001304   0.000001   0.000001  -0.000113
     5  C   -0.000519  -0.009974  -0.000884   0.000014  -0.000001   0.000011
     6  C    0.002851  -0.000280   0.000321  -0.000006   0.000003   0.000210
     7  C   -0.000478  -0.000175  -0.000000  -0.000000  -0.000001   0.000503
     8  O   -0.036539  -0.000046   0.001408  -0.000047   0.000000  -0.000015
     9  C    0.375991  -0.029366  -0.023377   0.004004  -0.000019   0.000175
    10  C   -0.061546   0.357204   0.358165  -0.041266   0.000358  -0.002544
    11  C    0.000320  -0.037509  -0.026356   0.360768   0.001355  -0.001945
    12  S    0.005806  -0.015971   0.006145  -0.055500  -0.029153  -0.045559
    13  C    0.000004   0.003487   0.000233  -0.001973   0.376640   0.376097
    14  C    0.001757   0.006713  -0.001081  -0.034805  -0.000030   0.000002
    15  S   -0.053777   0.008413   0.000134   0.005729   0.000008  -0.000058
    16  H    0.000000   0.000000   0.000000   0.000000  -0.000000  -0.000000
    17  H    0.000000   0.000000  -0.000000   0.000000  -0.000000  -0.000000
    18  H   -0.000000   0.000000  -0.000000  -0.000000   0.000000   0.000000
    19  H   -0.000001   0.000000  -0.000000  -0.000000  -0.000000  -0.000000
    20  H    0.000000   0.000003   0.000000  -0.000000  -0.000000  -0.000000
    21  H    0.000026   0.000001   0.000012   0.000000  -0.000000  -0.000000
    22  H   -0.000038   0.000005  -0.000002   0.000000  -0.000000  -0.000000
    23  H    0.000030   0.000612   0.000228  -0.000001   0.000000  -0.000017
    24  H    0.000062  -0.000270   0.002068  -0.000000  -0.000000  -0.000001
    25  H    0.000085  -0.000621   0.000529  -0.000022   0.000005   0.000986
    26  H    0.003156   0.000993  -0.000015   0.000011   0.000013   0.001574
    27  H    0.001164  -0.000038  -0.000012   0.000000  -0.000000  -0.000013
    28  H    0.000021  -0.000077  -0.000005  -0.000000  -0.000001   0.000314
    29  H    0.000052  -0.000034   0.000000   0.000000   0.000002   0.000142
    30  H   -0.000005   0.000009  -0.000000  -0.000000  -0.000000  -0.000003
    31  H    0.640588  -0.005827   0.005829  -0.000131  -0.000013  -0.000173
    32  H   -0.005827   0.663638  -0.046968   0.001239  -0.000359   0.005787
    33  H    0.005829  -0.046968   0.610913  -0.006268   0.000001  -0.000235
    34  H   -0.000131   0.001239  -0.006268   0.662217  -0.000066  -0.000577
    35  H   -0.000013  -0.000359   0.000001  -0.000066   0.553039  -0.027545
    36  H   -0.000173   0.005787  -0.000235  -0.000577  -0.027545   0.581988
    37  H    0.000015   0.000823  -0.000024   0.004980  -0.027106  -0.038463
    38  H    0.000216  -0.000157  -0.000160   0.002025  -0.000002   0.000005
    39  H   -0.000213  -0.000294   0.000847  -0.008359   0.000001  -0.000001
              37         38         39
     1  C   -0.000000  -0.000000   0.000000
     2  C    0.000000   0.000000   0.000000
     3  C    0.000000  -0.000000  -0.000000
     4  C    0.000001   0.000000   0.000002
     5  C   -0.000004   0.000000   0.000000
     6  C    0.000004   0.000000   0.000000
     7  C   -0.000001   0.000000  -0.000000
     8  O   -0.000000  -0.000012   0.000018
     9  C    0.000066   0.001356   0.001333
    10  C   -0.000537   0.004971   0.000317
    11  C   -0.002300  -0.027990  -0.015338
    12  S   -0.044894  -0.005073   0.003800
    13  C    0.379816   0.000056  -0.000047
    14  C    0.000034   0.374420   0.367078
    15  S    0.000015  -0.041232  -0.054766
    16  H   -0.000000   0.000000   0.000000
    17  H   -0.000000   0.000000  -0.000000
    18  H    0.000000  -0.000000  -0.000000
    19  H    0.000000  -0.000000   0.000000
    20  H   -0.000000  -0.000000  -0.000000
    21  H   -0.000000  -0.000000  -0.000000
    22  H   -0.000000  -0.000000  -0.000000
    23  H   -0.000000  -0.000000   0.000000
    24  H   -0.000000  -0.000000  -0.000001
    25  H    0.000017   0.000000  -0.000001
    26  H    0.000007   0.000001  -0.000001
    27  H   -0.000000  -0.000000  -0.000000
    28  H   -0.000001   0.000000   0.000000
    29  H   -0.000000  -0.000000  -0.000000
    30  H   -0.000000   0.000000   0.000000
    31  H    0.000015   0.000216  -0.000213
    32  H    0.000823  -0.000157  -0.000294
    33  H   -0.000024  -0.000160   0.000847
    34  H    0.004980   0.002025  -0.008359
    35  H   -0.027106  -0.000002   0.000001
    36  H   -0.038463   0.000005  -0.000001
    37  H    0.585274   0.000003  -0.000001
    38  H    0.000003   0.589873  -0.041685
    39  H   -0.000001  -0.041685   0.608684
 Mulliken charges:
               1
     1  C   -0.386219
     2  C   -0.151147
     3  C   -0.221372
     4  C    0.346425
     5  C   -0.420460
     6  C   -0.211630
     7  C   -0.401629
     8  O   -0.341930
     9  C    0.128251
    10  C   -0.206489
    11  C   -0.030234
    12  S   -0.146651
    13  C   -0.390631
    14  C   -0.235433
    15  S   -0.173794
    16  H    0.109540
    17  H    0.112373
    18  H    0.110123
    19  H    0.101862
    20  H    0.101626
    21  H    0.102608
    22  H    0.098291
    23  H    0.115567
    24  H    0.124595
    25  H    0.110141
    26  H    0.110069
    27  H    0.107296
    28  H    0.116294
    29  H    0.110311
    30  H    0.130480
    31  H    0.129678
    32  H    0.097511
    33  H    0.119917
    34  H    0.108033
    35  H    0.152870
    36  H    0.149467
    37  H    0.142279
    38  H    0.143385
    39  H    0.138626
 Sum of Mulliken charges =  -0.00000
 Mulliken charges with hydrogens summed into heavy atoms:
               1
     1  C   -0.054183
     2  C    0.052341
     3  C   -0.020473
     4  C    0.346425
     5  C   -0.070158
     6  C    0.005736
     7  C   -0.044544
     8  O   -0.341930
     9  C    0.257929
    10  C    0.010939
    11  C    0.077799
    12  S   -0.146651
    13  C    0.053986
    14  C    0.046577
    15  S   -0.173794
 Electronic spatial extent (au):  <R**2>=           5360.9896
 Charge=             -0.0000 electrons
 Dipole moment (field-independent basis, Debye):
    X=              0.8864    Y=              3.1042    Z=              2.2636  Tot=              3.9428
 Quadrupole moment (field-independent basis, Debye-Ang):
   XX=           -109.8989   YY=           -112.5145   ZZ=           -108.2815
   XY=              1.3440   XZ=             -6.4243   YZ=             -1.8257
 Traceless Quadrupole moment (field-independent basis, Debye-Ang):
   XX=              0.3327   YY=             -2.2829   ZZ=              1.9502
   XY=              1.3440   XZ=             -6.4243   YZ=             -1.8257
 Octapole moment (field-independent basis, Debye-Ang**2):
  XXX=              7.3148  YYY=             31.2503  ZZZ=              4.2832  XYY=             -7.2727
  XXY=            -13.2267  XXZ=             14.9092  XZZ=              2.4519  YZZ=              0.5794
  YYZ=              6.0563  XYZ=              1.9845
 Hexadecapole moment (field-independent basis, Debye-Ang**3):
 XXXX=          -5418.8348 YYYY=          -1544.1989 ZZZZ=           -505.2431 XXXY=            122.3757
 XXXZ=            -50.3076 YYYX=            -70.0347 YYYZ=            -14.7281 ZZZX=            -25.6807
 ZZZY=             -4.4271 XXYY=          -1118.7287 XXZZ=           -948.1817 YYZZ=           -338.5571
 XXYZ=             -5.0020 YYXZ=            -12.4286 ZZXY=             -8.7732
 N-N= 1.352898070693D+03 E-N=-5.866725792912D+03  KE= 1.336523090581D+03
 PrsmSu:  requested number of processors reduced to:  12 ShMem   1 Linda.
 Calling FoFJK, ICntrl=      2127 FMM=F ISym2X=0 I1Cent= 0 IOpClX= 0 NMat=1 NMatS=1 NMatT=0.
 ***** Axes restored to original set *****
 -------------------------------------------------------------------
 Center     Atomic                   Forces (Hartrees/Bohr)
[...]
 00004846,-0.00002996,-0.00000300,0.00000499,0.00000848,-0.00000831,0.0
 0000540,0.00000993,0.00000289,0.00000080,-0.00000600,-0.00014870,0.000
 06243,0.00000094,0.00009339,0.00001190,0.00006764,0.00023865,-0.000138
 67,0.00022864,-0.00016990,-0.00173839,0.00313546,-0.00893471,-0.008253
 18,-0.00351762,-0.12087679,-0.14499692,-0.05838609,-0.00080280,-0.0003
 0873,-0.00068944,-0.00003053,0.00000894,-0.00000815,-0.00000424,0.0000
 0138,-0.00000090,0.00000019,-0.00000100,-0.00000023,0.00000032,-0.0000
 0111,-0.00000045,-0.00000076,0.00000075,0.00000085,-0.00000041,0.00000
 171,0.00000009,0.00000216,-0.00000107,0.00000078,0.00000052,0.00000039
 ,-0.00000034,-0.00000187,0.00000726,-0.00000013,-0.00000194,0.00000090
 ,-0.00000322,-0.00000154,-0.00000387,-0.00000147,-0.00000580,-0.000009
 68,-0.00000659,0.00001107,0.00000820,-0.00000347,-0.00000304,0.0000045
 8,0.00000156,-0.00000045,-0.00000077,0.00000350,-0.00000508,0.00000090
 ,0.00000164,-0.00000619,0.00001788,-0.00001390,-0.00020207,0.00014485,
 -0.00006344,0.00001430,0.00001947,-0.00003695,0.00029834,0.00042549,0.
 00044104,0.13157575,0.15454745,0.00000205,-0.00000484,-0.00000220,0.00
 000029,0.00000884,0.00000026,0.00000605,-0.00001197,-0.00000530,-0.000
 06083,0.00007722,0.00004201,0.00001360,-0.00001286,-0.00000631,0.00001
 605,-0.00000667,-0.00001226,-0.00000339,0.00000064,0.00000481,0.000177
 48,-0.00008738,-0.00002304,-0.00016644,0.00006556,0.00000732,-0.000272
 35,0.00044732,-0.00011799,0.00129886,0.00221823,-0.00636098,0.01649432
 ,0.01338374,0.00737044,-0.06565713,-0.05592082,-0.07184792,0.00124384,
 0.00119984,0.00152460,-0.00013287,-0.00007355,0.00012758,0.00000369,-0
 .00000068,0.00000081,-0.00000110,0.00000035,0.00000052,-0.00000075,0.0
 0000125,0.00000079,0.00000124,-0.00000106,-0.00000114,0.00000084,-0.00
 000352,0.00000152,-0.00000395,0.00000170,-0.00000170,-0.00000327,-0.00
 000191,0.00000048,0.00000242,-0.00000878,0.00000005,0.00000156,0.00000
 021,0.00000333,-0.00000124,0.00000707,-0.00000085,0.00000298,0.0000125
 9,0.00000726,-0.00001412,-0.00001151,0.00000436,0.00000482,-0.00000676
 ,-0.00000188,0.00000204,0.00000111,-0.00000446,0.00000314,-0.00000199,
 -0.00000201,0.00001802,-0.00003503,0.00002844,0.00008208,-0.00026803,0
 .00005464,0.00008496,-0.00009784,0.00009291,-0.00037402,0.00005471,0.0
 0003271,0.07156206,0.05902942,0.07955564,-0.00000037,-0.00000465,-0.00
 000188,0.00000006,0.00001050,0.00000178,0.00000037,-0.00000925,-0.0000
 0408,-0.00006584,0.00004538,0.00003604,0.00000584,-0.00001858,-0.00001
 212,0.00000755,-0.00001156,-0.00000332,-0.00000383,0.00000574,-0.00000
 226,0.00013085,-0.00003072,-0.00006105,-0.00004464,-0.00008441,0.00014
 972,0.00010859,-0.00007608,0.00067420,0.00080227,-0.00008757,-0.000610
 33,0.00807231,-0.00881722,0.00870516,-0.18886132,0.10830901,-0.0799657
 7,0.00007420,-0.00003859,0.00001274,0.00003266,0.00005672,0.00001189,0
 .00000506,-0.00000108,0.00000069,-0.00000028,0.00000041,0.00000054,-0.
 00000046,0.00000138,0.00000008,0.00000166,-0.00000167,-0.00000121,-0.0
 0000042,-0.00000168,0.00000008,-0.00000526,0.00000103,-0.00000294,0.00
 000187,0.00000067,0.00000003,0.00001065,-0.00000629,-0.00000428,-0.000
 00789,0.00000676,-0.00000185,-0.00000025,0.00001269,0.00001263,0.00000
 266,0.00000250,0.00000567,-0.00000141,0.00000015,0.00000106,0.00000101
 ,-0.00000256,0.00000074,0.00000239,-0.00000035,-0.00000506,0.00000325,
 -0.00000083,-0.00000076,-0.00004910,0.00000796,0.00000819,-0.00076908,
 0.00002452,-0.00023274,0.00021797,0.00034443,-0.00019436,-0.00015706,-
 0.00008501,0.00006647,-0.01596155,0.01383509,-0.00825291,0.20446440,-0
 .00000016,-0.00000352,0.00000183,-0.00000061,0.00000614,0.00000080,0.0
 0000281,-0.00001073,0.00000303,-0.00004160,0.00005865,0.00003510,0.000
 02087,-0.00001249,0.00001094,0.00001742,-0.00000793,0.00000145,-0.0000
 0514,0.00000575,-0.00000439,0.00002259,-0.00005911,-0.00012790,-0.0000
 6648,0.00023759,0.00027884,-0.00006078,-0.00061903,0.00000697,0.001682
 59,0.00045993,0.00016148,0.00274561,-0.00712762,0.01096338,0.11399262,
 -0.12790352,0.05416380,-0.00003755,-0.00025954,-0.00002365,-0.00001576
 ,0.00008664,-0.00027461,0.00000299,-0.00000105,0.00000039,0.00000033,0
 .00000139,-0.00000054,-0.00000162,-0.00000031,-0.00000166,0.00000350,-
 0.00000244,-0.00000323,-0.00000039,0.00000065,0.00000125,-0.00000791,-
 0.00000108,-0.00000669,0.00000113,0.00000118,-0.00000261,0.00000457,-0
 .00000457,-0.00000652,-0.00000973,0.00001006,-0.00000637,-0.00000210,0
 .00000710,0.00000186,-0.00000092,0.00000083,-0.00000005,-0.00000104,-0
 .00000015,-0.00000017,0.00000232,-0.00000188,0.00000175,0.00000300,0.0
 0000015,-0.00000738,-0.00000091,-0.00000166,0.00000062,0.00007135,-0.0
 0004767,-0.00007082,-0.00068562,0.00046977,-0.00014659,-0.00010648,0.0
 0017470,-0.00012043,0.00000569,-0.00037209,-0.00021380,-0.01446834,0.0
 1192214,-0.00860295,-0.11822478,0.13305460,0.00000200,-0.00000312,0.00
 000152,0.00000231,0.00000987,-0.00000442,0.00000615,-0.00001765,0.0000
 0435,-0.00005384,0.00012326,0.00001803,0.00002823,-0.00001789,0.000014
 08,0.00000482,-0.00001752,-0.00002139,-0.00000039,0.00000388,0.0000047
 3,0.00020262,-0.00017231,0.00002553,-0.00013604,0.00020244,-0.00015393
 ,0.00028680,0.00090453,0.00024239,-0.00044887,-0.00188876,0.00038350,-
 0.01000034,0.01451753,-0.01576967,-0.08445534,0.05739216,-0.08637756,-
 0.00013248,0.00011140,0.00005310,0.00003436,-0.00014241,0.00026012,0.0
 0000242,-0.00000023,-0.00000006,-0.00000304,-0.00000231,0.00000045,-0.
 00000028,0.00000102,-0.00000106,0.00000059,-0.00000029,-0.00000142,0.0
 0000314,-0.00000793,0.00000538,-0.00000169,0.00000318,-0.00000103,-0.0
 0001009,-0.00000861,-0.00000019,-0.00001180,-0.00001134,0.00000262,0.0
 0002103,-0.00000042,0.00001947,-0.00000674,0.00000757,-0.00003948,0.00
 000360,0.00001808,0.00000312,-0.00001544,-0.00001711,0.00000998,0.0000
 0573,-0.00001033,-0.00000577,-0.00000070,-0.00000089,0.00000256,0.0000
 0448,-0.00000228,-0.00000233,-0.00001109,-0.00002534,-0.00006008,0.000
 35981,-0.00014411,0.00038384,0.00026653,-0.00030412,0.00013180,0.00029
 513,0.00016026,0.00013258,-0.00716048,0.00548008,-0.00405618,0.0848736
 4,-0.06410652,0.09466104,0.00000033,0.00000025,0.00000268,0.00000058,0
 .00000082,-0.00000140,0.00000305,-0.00000496,0.00000264,0.00000829,0.0
 0003077,0.00000204,0.00000954,-0.00000006,0.00000905,0.00001188,-0.000
 00460,-0.00000016,-0.00000022,-0.00000002,-0.00000002,0.00001678,-0.00
 005846,-0.00005195,0.00005847,0.00006028,0.00006002,-0.00027257,0.0000
 2509,-0.00033134,0.00022812,0.00184220,0.00099362,-0.00272534,-0.00076
 706,0.00886895,-0.08638752,0.07051656,0.06507084,0.00020393,0.00005973
 ,0.00006732,-0.00006470,-0.00011445,-0.00013097,-0.00000069,-0.0000001
 4,-0.00000032,-0.00000046,-0.00000036,-0.00000001,-0.00000050,-0.00000
 041,-0.00000163,0.00000102,-0.00000083,-0.00000143,0.00000060,-0.00000
 104,0.00000158,-0.00000151,0.00000059,-0.00000235,-0.00000234,-0.00000
 161,-0.00000025,-0.00000466,-0.00000181,0.00000067,0.00000440,0.000001
 44,0.00000214,-0.00000399,-0.00000261,-0.00001107,-0.00000069,0.000002
 29,-0.00000225,-0.00000364,-0.00000399,0.00000051,0.00000173,-0.000001
 38,-0.00000065,0.00000051,0.00000019,-0.00000088,-0.00000213,-0.000000
 66,0.00000030,0.00003673,-0.00006125,-0.00003217,0.00006157,0.00005167
 ,0.00008771,-0.00008906,-0.00003901,0.00001178,-0.00011523,-0.00061410
 ,-0.00065255,0.00999212,-0.01472426,-0.01637239,-0.00789783,0.01536028
 ,0.01583318,0.08688615,-0.00000118,0.00000156,-0.00000054,-0.00000083,
 -0.00000358,0.00000286,-0.00000329,0.00000674,-0.00000299,0.00003406,-
 0.00004230,-0.00001299,-0.00000530,0.00001360,-0.00000071,0.00000817,0
 .00000208,0.00001021,-0.00000139,-0.00000262,-0.00000349,-0.00006031,0
 .00000135,-0.00006364,0.00009581,-0.00005349,0.00019750,-0.00000493,-0
 .00026418,-0.00017042,0.00099791,0.00218096,0.00112787,-0.00889586,0.0
 0614071,0.01585394,0.06541508,-0.15366642,-0.11574016,0.00016433,0.000
 42785,0.00045266,-0.00027358,-0.00020797,-0.00015078,-0.00000052,-0.00
 000005,-0.00000004,0.00000094,0.00000072,-0.00000023,0.00000041,-0.000
 00034,-0.00000008,-0.00000013,0.00000002,0.00000060,-0.00000095,0.0000
 0303,-0.00000240,0.00000027,-0.00000105,0.00000023,0.00000454,0.000003
 39,0.00000006,0.00000112,0.00000410,-0.00000240,-0.00001041,-0.0000005
 3,-0.00000890,0.00000294,-0.00000899,0.00001471,0.00000060,-0.00000569
 ,-0.00000432,0.00000451,0.00000499,-0.00000614,-0.00000212,0.00000399,
 0.00000226,0.00000085,0.00000017,-0.00000092,-0.00000191,0.00000133,0.
 00000132,0.00009103,-0.00006012,-0.00000128,-0.00002543,0.00000188,-0.
 00007937,-0.00004724,0.00006674,-0.00006595,0.00061886,-0.00004546,-0.
 00119959,0.00870572,-0.01153279,-0.01176212,0.00465405,-0.01024146,-0.
 01174407,-0.07160918,0.16720557,-0.00000079,-0.00001025,-0.00000456,-0
 .00000082,0.00001854,0.00000192,0.00000168,-0.00001778,-0.00000531,-0.
 00012098,0.00010094,0.00006280,-0.00000148,-0.00002655,-0.00002337,-0.
 00001624,-0.00002164,-0.00002430,-0.00000259,0.00000820,0.00000736,0.0
 0027583,-0.00003755,0.00006128,-0.00029922,-0.00002752,-0.00028753,0.0
 0001013,0.00020893,-0.00007313,-0.00207362,-0.00108711,0.00135536,0.00
 922108,-0.00435879,-0.02039760,0.06655906,-0.12150949,-0.16230168,-0.0
 0037342,-0.00012312,0.00000679,0.00027758,0.00010266,0.00024730,0.0000
 1001,-0.00000239,0.00000177,-0.00000073,0.00000155,0.00000027,-0.00000
 063,0.00000289,0.00000236,0.00000085,-0.00000094,-0.00000066,0.0000006
 7,-0.00000421,0.00000065,-0.00000458,0.00000212,0.00000008,-0.00000031
 ,-0.00000103,-0.00000043,0.00000839,-0.00001522,-0.00000030,0.00000861
 ,0.00000248,0.00001283,0.00000510,0.00002178,-0.00000181,0.00001236,0.
 00001520,0.00001836,-0.00000838,-0.00000517,0.00000913,0.00000224,-0.0
 0000769,-0.00000264,-0.00000059,-0.00000104,-0.00000453,0.00001407,-0.
 00000176,-0.00000349,-0.00009397,0.00011819,0.00001950,0.00008370,-0.0
 0007073,0.00003878,0.00008826,-0.00005999,0.00004814,0.00109003,0.0009
 7130,0.00072829,0.00376108,-0.00575909,-0.00604099,-0.00506703,0.00824
 042,0.01002507,-0.07333729,0.12338961,0.17662119,-0.00000057,0.0000215
 3,0.00000760,-0.00000105,-0.00003582,-0.00000476,-0.00001771,0.0000435
 6,0.00002239,0.00031502,-0.00023158,-0.00028171,-0.00005044,0.00002947
 ,0.00002851,-0.00006929,-0.00005451,0.00003957,0.00002323,0.00002929,-
 0.00004163,-0.00086141,0.00104027,-0.00096065,-0.00171595,-0.00134335,
 0.00226213,-0.00055864,-0.00159308,0.00125823,0.00890562,-0.00421047,0
 .00518087,0.00058359,-0.00015165,0.00090858,0.00022985,-0.00015867,-0.
 00016959,-0.21225774,0.06977296,-0.12058019,-0.01093918,0.00799019,-0.
 00297624,-0.00001635,0.00000269,-0.00000415,0.00000049,-0.00000437,0.0
 0000079,0.00000147,-0.00000357,-0.00000305,-0.00000425,0.00000387,0.00
 000397,-0.00000193,0.00000568,-0.00000118,0.00001626,0.00000084,0.0000
 0957,0.00000066,0.00000147,0.00000301,0.00000162,0.00003945,0.00000645
 ,-0.00000537,-0.00000153,-0.00001052,0.00000340,-0.00000833,0.00000235
 ,-0.00001644,-0.00002600,0.00000352,0.00007020,0.00006797,-0.00001464,
 -0.00002116,0.00002183,0.00001420,-0.00000519,-0.00000063,0.00001943,-
 0.00001872,0.00000468,0.00000499,0.00007887,0.00004633,-0.00002413,0.0
 0064477,-0.00037368,0.00001811,-0.00003967,-0.00015155,0.00006564,-0.0
 0013593,0.00034469,-0.00027709,-0.00000258,-0.00002327,0.00000083,-0.0
 0003406,-0.00007591,0.00002444,0.00002774,0.00004711,-0.00003523,0.224
 27444,0.00000168,-0.00001826,-0.00000758,0.00000565,0.00003313,0.00000
 829,0.00001804,-0.00004574,-0.00003010,-0.00024093,0.00017626,0.000273
 83,0.00004900,-0.00003952,-0.00002722,0.00005805,0.00001503,-0.0000104
 2,-0.00001961,-0.00000413,0.00000917,0.00077089,-0.00061121,-0.0000006
 1,0.00091756,-0.00046621,-0.00025494,-0.00192388,-0.00330087,0.0024992
 9,0.01850065,-0.00946634,0.01108778,0.00113613,0.00002416,0.00035820,-
 0.00052888,0.00038490,0.00013804,0.06746419,-0.07421017,0.04760270,0.0
 0633830,-0.00328820,0.00341838,0.00001307,-0.00000128,0.00000377,0.000
 00079,0.00000344,-0.00000087,-0.00000156,0.00000203,0.00000343,0.00000
 369,-0.00000266,-0.00000315,-0.00000092,-0.00000189,0.00000020,-0.0000
 1739,-0.00000469,-0.00000547,0.00000657,0.00000277,-0.00000643,0.00000
 767,-0.00002870,-0.00000752,-0.00000773,0.00000884,-0.00000025,0.00000
 215,0.00001811,0.00001309,0.00001265,0.00000383,0.00000656,-0.00002642
 ,-0.00003041,-0.00000100,0.00001073,-0.00001231,-0.00000290,0.00000830
 ,0.00000077,-0.00001786,0.00000885,-0.00000275,-0.00000284,0.00005618,
 -0.00027036,0.00007545,0.00128723,-0.00054199,0.00035320,0.00015017,0.
 00007391,0.00017138,-0.00034701,-0.00000363,0.00010194,0.00002146,0.00
 004803,-0.00007366,0.00015654,0.00020742,-0.00031148,0.00005353,0.0000
 0408,-0.00006012,-0.07491926,0.08254741,0.00000283,-0.00002129,-0.0000
 1006,0.00000644,0.00003866,0.00000453,0.00002897,-0.00004502,-0.000036
 06,-0.00042965,0.00029019,0.00044170,0.00007028,-0.00004702,-0.0000560
 5,0.00006517,0.00006268,-0.00005278,-0.00002631,-0.00002785,0.00003578
 ,0.00156488,-0.00156102,0.00152976,0.00296880,0.00104276,-0.00360083,0
 .00241653,0.00277172,-0.00228210,-0.01585752,0.00532662,-0.00853788,-0
 .00013399,-0.00025892,0.00121834,0.00018060,-0.00039374,-0.00024861,-0
 .11418907,0.04843785,-0.12096141,0.01403007,-0.00941635,0.00716862,0.0
 0001457,-0.00000072,0.00000463,-0.00000064,0.00000274,-0.00000063,-0.0
 0000039,0.00000311,0.00000466,0.00000293,-0.00000289,-0.00000244,0.000
 00180,-0.00000688,0.00000104,-0.00001628,-0.00000549,-0.00000939,0.000
 00165,-0.00000202,-0.00000486,-0.00000759,-0.00005114,-0.00000263,0.00
 001457,0.00000153,0.00001421,-0.00000270,0.00000853,-0.00000621,0.0000
 0683,0.00001301,-0.00000377,-0.00006592,-0.00006269,0.00001483,0.00002
 073,-0.00002152,-0.00001370,0.00000961,-0.00000029,-0.00001990,0.00001
 558,-0.00000394,-0.00000508,-0.00010525,-0.00029570,0.00024246,-0.0011
 3476,0.00063244,0.00021247,0.00038829,-0.00021327,0.00017215,0.0001216
 7,-0.00006640,-0.00013165,-0.00001187,-0.00006485,0.00005834,-0.000070
 12,-0.00014395,0.00009023,-0.00002405,0.00005714,-0.00008080,0.1231354
 7,-0.05190669,0.13299272,0.00000088,0.00001059,0.00000594,-0.00000470,
 -0.00001660,-0.00000259,0.00002137,0.00002406,-0.00001784,0.00004870,-
 0.00005725,0.00003827,-0.00000067,0.00003112,0.00000459,0.00015721,0.0
 0018136,0.00005122,-0.00004858,-0.00004461,-0.00005783,-0.00028353,-0.
 00016061,-0.00004090,0.00058052,0.00079111,0.00162156,-0.00001411,0.00
 029680,-0.00002838,-0.00447353,-0.00669683,-0.00395264,-0.00022566,-0.
 00070304,0.00173618,0.00006808,-0.00083523,-0.00077827,-0.08296435,-0.
 07632299,-0.06046124,0.00040883,0.01657843,0.01597451,-0.00000826,-0.0
 0000070,-0.00000222,-0.00000139,-0.00000133,0.00000231,-0.00000134,-0.
 00000134,-0.00000664,0.00000728,-0.00000626,-0.00000365,0.00000091,-0.
 00000021,-0.00000100,-0.00001475,0.00000487,-0.00002376,-0.00000648,0.
 00000054,0.00001337,-0.00001567,0.00000274,-0.00000298,-0.00000948,0.0
 0001156,-0.00001997,-0.00001874,-0.00004400,-0.00000486,-0.00007667,-0
 .00014723,-0.00008462,0.00003527,-0.00001252,0.00000574,-0.00000371,0.
 00001563,0.00000244,0.00000997,-0.00000288,-0.00000380,-0.00004308,0.0
 0001608,0.00002347,-0.00026510,0.00039534,-0.00051524,0.00002087,-0.00
 014790,-0.00001723,0.00027857,0.00011262,-0.00031950,0.00032895,-0.000
 02592,-0.00007259,-0.00008796,-0.00015978,0.00029353,-0.00008496,-0.00
 012587,0.00018764,0.00001951,0.00009624,0.00000715,-0.00840359,-0.0190
 2616,-0.01299216,0.09506938,-0.00000084,-0.00000657,-0.00000667,0.0000
 0203,0.00000561,0.00000491,-0.00000844,-0.00000613,-0.00000491,-0.0000
 0389,0.00000486,-0.00002856,-0.00000625,-0.00000357,-0.00000283,-0.000
 05171,-0.00002975,-0.00002492,0.00001362,0.00000426,0.00002877,0.00009
 889,0.00004165,0.00009232,-0.00024863,-0.00056406,-0.00036508,-0.00015
 516,0.00025504,-0.00072973,-0.01123285,-0.01784903,-0.01146866,0.00045
 811,-0.00092630,0.00305959,-0.00069640,-0.00075844,-0.00105370,-0.0814
 4818,-0.19599122,-0.10172827,0.00279791,-0.00285077,-0.00587589,0.0000
 0307,0.00000099,0.00000202,0.00000203,0.00000148,-0.00000155,0.0000009
 6,0.00000027,0.00000687,-0.00000564,0.00000589,0.00000415,-0.00000132,
 0.00000202,-0.00000136,0.00000733,-0.00000687,0.00001753,0.00000319,0.
 00000029,-0.00000801,0.00000706,0.00000212,-0.00000009,-0.00000061,-0.
 00000839,0.00000824,0.00001091,0.00001666,0.00000891,0.00003928,0.0000
 3938,0.00003226,-0.00003248,-0.00000415,-0.00000119,0.00000361,-0.0000
 0795,-0.00000399,-0.00000579,0.00000239,0.00000434,0.00001861,-0.00000
 405,-0.00000939,0.00001363,-0.00013952,0.00019096,0.00008352,0.0002671
 9,0.00040954,0.00067103,-0.00016201,0.00053514,-0.00009363,0.00135376,
 0.00013039,-0.00010039,-0.00021568,0.00048413,0.00002735,-0.00002682,0
 .00002178,0.00000656,0.00006215,0.00000437,0.00385334,0.00879720,0.005
 93066,0.08597016,0.20869808,-0.00000198,-0.00002282,-0.00000868,-0.000
 00239,0.00003202,0.00000350,-0.00001579,-0.00003350,0.00001868,-0.0001
 9198,0.00015360,0.00006280,0.00003212,-0.00005006,-0.00002187,-0.00011
 405,-0.00014508,-0.00007804,0.00003348,0.00003633,0.00006311,0.0003942
 1,-0.00026649,0.00008029,-0.00064447,0.00053916,-0.00116373,0.00046279
 ,-0.00051714,0.00037228,0.00832739,0.01635745,0.00936434,0.00067935,0.
 00262398,-0.00130345,0.00087419,0.00079853,0.00071149,-0.06583600,-0.1
 0423517,-0.11992598,0.00409064,-0.01172765,-0.01057174,0.00001854,-0.0
 0000277,0.00000398,0.00000089,0.00000496,-0.00000237,-0.00000107,0.000
 00418,0.00000750,-0.00000250,0.00000227,0.00000031,0.00000087,-0.00000
 403,0.00000195,0.00000464,0.00000177,0.00001358,0.00000012,-0.00000196
 ,-0.00001012,0.00001839,-0.00002801,-0.00000268,0.00000349,-0.00000643
 ,0.00002112,0.00001975,0.00004322,0.00000400,0.00008380,0.00014037,0.0
 0008619,-0.00006700,-0.00001505,0.00000976,0.00001204,-0.00002520,-0.0
 0000731,-0.00000825,0.00000270,-0.00000692,0.00005057,-0.00001677,-0.0
 0002297,0.00010437,-0.00025302,0.00038842,-0.00000374,-0.00017908,0.00
 002798,-0.00020891,0.00007069,-0.00003676,0.00007949,-0.00031330,0.001
 44990,0.00012813,0.00017849,-0.00043364,-0.00006731,-0.00000305,0.0000
 1909,-0.00005992,-0.00008746,-0.00001611,-0.00763592,-0.01339359,-0.00
 813963,0.05944201,0.11033792,0.12904174\\-0.00000297,0.00000122,-0.000
 00210,0.00000588,0.00000185,-0.00000597,-0.00000889,0.00000011,0.00000
 389,-0.00000973,0.00000306,0.00000825,0.00000872,-0.00001020,-0.000008
 18,0.00000664,0.00000593,0.00000624,-0.00000664,0.00000396,0.00000448,
 0.00000987,0.00000167,-0.00002456,0.00002959,-0.00004399,0.00002255,0.
 00000054,0.00001974,-0.00000348,-0.00000869,0.00000179,-0.00000655,-0.
 00000140,-0.00000329,0.00000356,0.00000402,0.00000232,-0.00000508,-0.0
 0000163,-0.00000833,0.00000701,-0.00000816,0.00001476,-0.00001949,0.00
 000014,0.00000252,-0.00000178,-0.00000097,0.00000302,0.00000016,0.0000
 0129,0.00000161,-0.00000031,0.00000059,-0.00000126,0.00000142,-0.00000
 276,0.00000069,0.00000247,0.00000044,0.00000105,0.00000064,-0.00000225
 ,0.00000164,-0.00000186,-0.00000396,0.00000846,0.00000490,0.00000276,0
 .00000076,0.00000556,-0.00000139,-0.00000263,-0.00000177,-0.00001167,0
 .00000125,0.00000177,-0.00000374,-0.00000065,0.00000233,-0.00000019,0.
 00000077,0.00000293,-0.00000098,-0.00000089,-0.00000107,0.00000390,0.0
 0000015,-0.00000323,0.00000104,0.00000785,-0.00000095,-0.00000572,-0.0
 0000560,-0.00000173,0.00000425,-0.00000820,0.00000081,0.00000175,0.000
 00493,0.00000024,0.00000142,-0.00000161,0.00000105,0.00000183,-0.00000
 200,0.00000336,0.00000056,-0.00000106,0.00000232,-0.00000098,-0.000001
 08,0.00000065,-0.00000250,-0.00000032,0.00000150\\\@


 ART, GLORY, FREEDOM FAIL, BUT NATURE STILL IS FAIR.

                                           -- BYRON
 Job cpu time:       0 days 13 hours 27 minutes 38.2 seconds.
 Elapsed time:       0 days  3 hours 21 minutes 57.2 seconds.
 File lengths (MBytes):  RWF=    892 Int=      0 D2E=      0 Chk=     26 Scr=      1
 Normal termination of Gaussian 16 at Sun May 28 13:58:34 2023.
### All Done ###
