### Starting Gaussian ###
 Entering Gaussian System, Link 0=g16
 Initial command:
 /cluster/software/gaussian/gaussian-16-A.03/avx2/g16/l1.exe "/local/scratch/linjian/Gau-5767.inp" -scrdir="/local/scratch/linjian/"
 Entering Link 1 = /cluster/software/gaussian/gaussian-16-A.03/avx2/g16/l1.exe PID=      5768.
  
 Copyright (c) 1988,1990,1992,1993,1995,1998,2003,2009,2016,
            Gaussian, Inc.  All Rights Reserved.
  
 This is part of the Gaussian(R) 16 program.  It is based on
 the Gaussian(R) 09 system (copyright 2009, Gaussian, Inc.),
 the Gaussian(R) 03 system (copyright 2003, Gaussian, Inc.),
 the Gaussian(R) 98 system (copyright 1998, Gaussian, Inc.),
 the Gaussian(R) 94 system (copyright 1995, Gaussian, Inc.),
 the Gaussian 92(TM) system (copyright 1992, Gaussian, Inc.),
 the Gaussian 90(TM) system (copyright 1990, Gaussian, Inc.),
 the Gaussian 88(TM) system (copyright 1988, Gaussian, Inc.),
 the Gaussian 86(TM) system (copyright 1986, Carnegie Mellon
 University), and the Gaussian 82(TM) system (copyright 1983,
 Carnegie Mellon University). Gaussian is a federally registered
 trademark of Gaussian, Inc.
  
 This software contains proprietary and confidential information,
 including trade secrets, belonging to Gaussian, Inc.
  
 This software is provided under written license and may be
 used, copied, transmitted, or stored only in accord with that
 written license.
  
 The following legend is applicable only to US Government
 contracts under FAR:
  
                    RESTRICTED RIGHTS LEGEND
  
 Use, reproduction and disclosure by the US Government is
 subject to restrictions as set forth in subparagraphs (a)
 and (c) of the Commercial Computer Software - Restricted
 Rights clause in FAR 52.227-19.
  
 Gaussian, Inc.
 340 Quinnipiac St., Bldg. 40, Wallingford CT 06492
  
  
 ---------------------------------------------------------------
 Warning -- This program may not be used in any manner that
 competes with the business of Gaussian, Inc. or will provide
 assistance to any competitor of Gaussian, Inc.  The licensee
 of this program is prohibited from giving any competitor of
 Gaussian, Inc. access to this program.  By using this program,
 the user acknowledges that Gaussian, Inc. is engaged in the
 business of creating and licensing software in the field of
 computational chemistry and represents and warrants to the
 licensee that it is not a competitor of Gaussian, Inc. and that
 it will not use this program in any manner prohibited above.
 ---------------------------------------------------------------
  

 Cite this work as:
 Gaussian 16, Revision A.03,
 M. J. Frisch, G. W. Trucks, H. B. Schlegel, G. E. Scuseria, 
 M. A. Robb, J. R. Cheeseman, G. Scalmani, V. Barone, 
 G. A. Petersson, H. Nakatsuji, X. Li, M. Caricato, A. V. Marenich, 
 J. Bloino, B. G. Janesko, R. Gomperts, B. Mennucci, H. P. Hratchian, 
 J. V. Ortiz, A. F. Izmaylov, J. L. Sonnenberg, D. Williams-Young, 
 F. Ding, F. Lipparini, F. Egidi, J. Goings, B. Peng, A. Petrone, 
 T. Henderson, D. Ranasinghe, V. G. Zakrzewski, J. Gao, N. Rega, 
 G. Zheng, W. Liang, M. Hada, M. Ehara, K. Toyota, R. Fukuda, 
 J. Hasegawa, M. Ishida, T. Nakajima, Y. Honda, O. Kitao, H. Nakai, 
 T. Vreven, K. Throssell, J. A. Montgomery, Jr., J. E. Peralta, 
 F. Ogliaro, M. J. Bearpark, J. J. Heyd, E. N. Brothers, K. N. Kudin, 
 V. N. Staroverov, T. A. Keith, R. Kobayashi, J. Normand, 
 K. Raghavachari, A. P. Rendell, J. C. Burant, S. S. Iyengar, 
 J. Tomasi, M. Cossi, J. M. Millam, M. Klene, C. Adamo, R. Cammi, 
 J. W. Ochterski, R. L. Martin, K. Morokuma, O. Farkas, 
 J. B. Foresman, and D. J. Fox, Gaussian, Inc., Wallingford CT, 2016.
 
 ******************************************
 Gaussian 16:  ES64L-G16RevA.03 25-Dec-2016
                23-May-2023 
 ******************************************
 %chk=CCCCCCCqCrCCCC1CCC1.chk
 %NProcShared=20
 Will use up to   20 processors via shared memory.
 -----------------------------
 # opt freq b3lyp/6-31g(2df,p)
 -----------------------------
 1/18=20,19=15,26=3,38=1/1,3;
 2/9=110,12=2,17=6,18=5,40=1/2;
 3/5=1,6=6,7=104,11=2,25=1,30=1,71=1,74=-5/1,2,3;
 4//1;
 5/5=2,38=5/2;
 6/7=2,8=2,9=2,10=2,28=1/1;
 7//1,2,3,16;
 1/18=20,19=15,26=3/3(2);
 2/9=110/2;
 99//99;
 2/9=110/2;
 3/5=1,6=6,7=104,11=2,25=1,30=1,71=1,74=-5/1,2,3;
 4/5=5,16=3,69=1/1;
 5/5=2,38=5/2;
 7//1,2,3,16;
 1/18=20,19=15,26=3/3(-5);
 2/9=110/2;
 6/7=2,8=2,9=2,10=2,19=2,28=1/1;
 99/9=1/99;
 -------------------
 Title Card Required
 -------------------
 Symbolic Z-matrix:
 Charge =  0 Multiplicity = 1
 C                     0.87934  -0.06321   0.07112 
 C                     2.39591  -0.06822   0.06846 
 C                     2.93286   1.28761  -0.36142 
 C                     4.45588   1.28118  -0.37374 
 C                     4.95301   2.65279  -0.79085 
 C                     6.47346   2.71823  -0.77852 
 C                     6.97519   4.11323  -1.17777 
 C                     6.45565   5.18991  -0.21097 
 C                     8.51036   4.08675  -1.22454 
 C                     9.0702    5.42577  -1.68372 
 C                     10.58461   5.43869  -1.64241 
 C                     11.12014   6.81485  -2.0216 
 C                     10.36927   8.13807  -1.66318 
 C                     11.74189   8.73673  -1.30864 
 C                     12.22378   7.30029  -1.04757 
 H                     0.50024  -1.04221   0.37624 
 H                     0.49005   0.16252  -0.92653 
 H                     0.49437   0.68857   0.76759 
 H                     2.76074  -0.84382  -0.61433 
 H                     2.76501  -0.31297   1.07054 
 H                     2.57213   2.06455   0.32555 
 H                     2.55695   1.54363  -1.35903 
 H                     4.83071   0.51825  -1.06566 
 H                     4.83628   1.03869   0.62481 
 H                     4.53339   3.38108  -0.08983 
 H                     4.58031   2.90729  -1.78876 
 H                     6.87079   1.97076  -1.47917 
 H                     6.85211   2.45258   0.21469 
 H                     6.60355   4.34329  -2.18267 
 H                     6.80404   5.00009   0.80833 
 H                     5.36401   5.23789  -0.20034 
 H                     6.77189   6.19417  -0.50331 
 H                     8.85043   3.2995   -1.91109 
 H                     8.90683   3.83471  -0.23412 
 H                     8.71807   6.20338  -1.00346 
 H                     8.7025    5.67686  -2.68318 
 H                     10.99034   4.67929  -2.32199 
 H                     10.90833   5.15798  -0.63407 
 H                     11.43341   6.82329  -3.07526 
 H                     9.6933    8.09129  -0.80349 
 H                     9.8466    8.6225   -2.49473 
 H                     11.75014   9.39921  -0.43861 
 H                     12.24595   9.22705  -2.14627 
 H                     12.07484   6.98683  -0.00671 
 H                     13.2479   7.06383  -1.3441 
 

 GradGradGradGradGradGradGradGradGradGradGradGradGradGradGradGradGradGrad
 Berny optimization.
 Initialization pass.
                           ----------------------------
                           !    Initial Parameters    !
                           ! (Angstroms and Degrees)  !
 --------------------------                            --------------------------
 ! Name  Definition              Value          Derivative Info.                !
 --------------------------------------------------------------------------------
 ! R1    R(1,2)                  1.5166         estimate D2E/DX2                !
 ! R2    R(1,16)                 1.0933         estimate D2E/DX2                !
 ! R3    R(1,17)                 1.0944         estimate D2E/DX2                !
 ! R4    R(1,18)                 1.0947         estimate D2E/DX2                !
 ! R5    R(2,3)                  1.5203         estimate D2E/DX2                !
 ! R6    R(2,19)                 1.0958         estimate D2E/DX2                !
 ! R7    R(2,20)                 1.0956         estimate D2E/DX2                !
 ! R8    R(3,4)                  1.5231         estimate D2E/DX2                !
 ! R9    R(3,21)                 1.098          estimate D2E/DX2                !
 ! R10   R(3,22)                 1.0964         estimate D2E/DX2                !
 ! R11   R(4,5)                  1.5174         estimate D2E/DX2                !
 ! R12   R(4,23)                 1.096          estimate D2E/DX2                !
 ! R13   R(4,24)                 1.0957         estimate D2E/DX2                !
 ! R14   R(5,6)                  1.5219         estimate D2E/DX2                !
 ! R15   R(5,25)                 1.0945         estimate D2E/DX2                !
 ! R16   R(5,26)                 1.0952         estimate D2E/DX2                !
 ! R17   R(6,7)                  1.5353         estimate D2E/DX2                !
 ! R18   R(6,27)                 1.0989         estimate D2E/DX2                !
 ! R19   R(6,28)                 1.0956         estimate D2E/DX2                !
 ! R20   R(7,8)                  1.5375         estimate D2E/DX2                !
 ! R21   R(7,9)                  1.5361         estimate D2E/DX2                !
 ! R22   R(7,29)                 1.0958         estimate D2E/DX2                !
 ! R23   R(8,30)                 1.0938         estimate D2E/DX2                !
 ! R24   R(8,31)                 1.0927         estimate D2E/DX2                !
 ! R25   R(8,32)                 1.0927         estimate D2E/DX2                !
 ! R26   R(9,10)                 1.5222         estimate D2E/DX2                !
 ! R27   R(9,33)                 1.0985         estimate D2E/DX2                !
 ! R28   R(9,34)                 1.0962         estimate D2E/DX2                !
 ! R29   R(10,11)                1.515          estimate D2E/DX2                !
 ! R30   R(10,35)                1.0915         estimate D2E/DX2                !
 ! R31   R(10,36)                1.0942         estimate D2E/DX2                !
 ! R32   R(11,12)                1.5246         estimate D2E/DX2                !
 ! R33   R(11,37)                1.0969         estimate D2E/DX2                !
 ! R34   R(11,38)                1.0956         estimate D2E/DX2                !
 ! R35   R(12,13)                1.5631         estimate D2E/DX2                !
 ! R36   R(12,15)                1.55           estimate D2E/DX2                !
 ! R37   R(12,39)                1.0993         estimate D2E/DX2                !
 ! R38   R(13,14)                1.5389         estimate D2E/DX2                !
 ! R39   R(13,40)                1.0946         estimate D2E/DX2                !
 ! R40   R(13,41)                1.0951         estimate D2E/DX2                !
 ! R41   R(14,15)                1.5374         estimate D2E/DX2                !
 ! R42   R(14,42)                1.0936         estimate D2E/DX2                !
 ! R43   R(14,43)                1.0937         estimate D2E/DX2                !
 ! R44   R(15,44)                1.0972         estimate D2E/DX2                !
 ! R45   R(15,45)                1.0921         estimate D2E/DX2                !
 ! A1    A(2,1,16)             110.1381         estimate D2E/DX2                !
 ! A2    A(2,1,17)             110.7798         estimate D2E/DX2                !
 ! A3    A(2,1,18)             110.7958         estimate D2E/DX2                !
 ! A4    A(16,1,17)            108.4065         estimate D2E/DX2                !
 ! A5    A(16,1,18)            108.3878         estimate D2E/DX2                !
 ! A6    A(17,1,18)            108.253          estimate D2E/DX2                !
 ! A7    A(1,2,3)              110.5319         estimate D2E/DX2                !
 ! A8    A(1,2,19)             109.6548         estimate D2E/DX2                !
 ! A9    A(1,2,20)             109.6352         estimate D2E/DX2                !
 ! A10   A(3,2,19)             109.7204         estimate D2E/DX2                !
 ! A11   A(3,2,20)             109.8077         estimate D2E/DX2                !
 ! A12   A(19,2,20)            107.4351         estimate D2E/DX2                !
 ! A13   A(2,3,4)              110.5906         estimate D2E/DX2                !
 ! A14   A(2,3,21)             109.7602         estimate D2E/DX2                !
 ! A15   A(2,3,22)             110.1472         estimate D2E/DX2                !
 ! A16   A(4,3,21)             109.6672         estimate D2E/DX2                !
 ! A17   A(4,3,22)             109.6621         estimate D2E/DX2                !
 ! A18   A(21,3,22)            106.9419         estimate D2E/DX2                !
 ! A19   A(3,4,5)              109.0273         estimate D2E/DX2                !
 ! A20   A(3,4,23)             110.4882         estimate D2E/DX2                !
 ! A21   A(3,4,24)             109.9205         estimate D2E/DX2                !
 ! A22   A(5,4,23)             110.0982         estimate D2E/DX2                !
 ! A23   A(5,4,24)             109.683          estimate D2E/DX2                !
 ! A24   A(23,4,24)            107.6097         estimate D2E/DX2                !
 ! A25   A(4,5,6)              111.3431         estimate D2E/DX2                !
 ! A26   A(4,5,25)             107.4465         estimate D2E/DX2                !
 ! A27   A(4,5,26)             110.4278         estimate D2E/DX2                !
 ! A28   A(6,5,25)             110.4398         estimate D2E/DX2                !
 ! A29   A(6,5,26)             109.7162         estimate D2E/DX2                !
 ! A30   A(25,5,26)            107.3675         estimate D2E/DX2                !
 ! A31   A(5,6,7)              111.3119         estimate D2E/DX2                !
 ! A32   A(5,6,27)             109.0761         estimate D2E/DX2                !
 ! A33   A(5,6,28)             110.0102         estimate D2E/DX2                !
 ! A34   A(7,6,27)             109.5171         estimate D2E/DX2                !
 ! A35   A(7,6,28)             110.0659         estimate D2E/DX2                !
 ! A36   A(27,6,28)            106.7453         estimate D2E/DX2                !
 ! A37   A(6,7,8)              111.2439         estimate D2E/DX2                !
 ! A38   A(6,7,9)              108.5934         estimate D2E/DX2                !
 ! A39   A(6,7,29)             108.5657         estimate D2E/DX2                !
 ! A40   A(8,7,9)              111.6494         estimate D2E/DX2                !
 ! A41   A(8,7,29)             108.3619         estimate D2E/DX2                !
 ! A42   A(9,7,29)             108.3383         estimate D2E/DX2                !
 ! A43   A(7,8,30)             110.9058         estimate D2E/DX2                !
 ! A44   A(7,8,31)             111.9896         estimate D2E/DX2                !
 ! A45   A(7,8,32)             112.1835         estimate D2E/DX2                !
 ! A46   A(30,8,31)            108.4664         estimate D2E/DX2                !
 ! A47   A(30,8,32)            108.4593         estimate D2E/DX2                !
 ! A48   A(31,8,32)            104.5583         estimate D2E/DX2                !
 ! A49   A(7,9,10)             111.1965         estimate D2E/DX2                !
 ! A50   A(7,9,33)             109.9233         estimate D2E/DX2                !
 ! A51   A(7,9,34)             109.7497         estimate D2E/DX2                !
 ! A52   A(10,9,33)            109.148          estimate D2E/DX2                !
 ! A53   A(10,9,34)            109.9848         estimate D2E/DX2                !
 ! A54   A(33,9,34)            106.7341         estimate D2E/DX2                !
 ! A55   A(9,10,11)            111.5244         estimate D2E/DX2                !
 ! A56   A(9,10,35)            108.6642         estimate D2E/DX2                !
 ! A57   A(9,10,36)            110.7204         estimate D2E/DX2                !
 ! A58   A(11,10,35)           107.4218         estimate D2E/DX2                !
 ! A59   A(11,10,36)           111.0309         estimate D2E/DX2                !
 ! A60   A(35,10,36)           107.3006         estimate D2E/DX2                !
 ! A61   A(10,11,12)           110.6117         estimate D2E/DX2                !
 ! A62   A(10,11,37)           110.3007         estimate D2E/DX2                !
 ! A63   A(10,11,38)           108.5578         estimate D2E/DX2                !
 ! A64   A(12,11,37)           109.9318         estimate D2E/DX2                !
 ! A65   A(12,11,38)           110.8785         estimate D2E/DX2                !
 ! A66   A(37,11,38)           106.4712         estimate D2E/DX2                !
 ! A67   A(11,12,13)           122.5721         estimate D2E/DX2                !
 ! A68   A(11,12,15)           112.1179         estimate D2E/DX2                !
 ! A69   A(11,12,39)           110.2078         estimate D2E/DX2                !
 ! A70   A(13,12,15)            86.1478         estimate D2E/DX2                !
 ! A71   A(13,12,39)           110.4989         estimate D2E/DX2                !
 ! A72   A(15,12,39)           113.3921         estimate D2E/DX2                !
 ! A73   A(12,13,14)            87.3449         estimate D2E/DX2                !
 ! A74   A(12,13,40)           116.1401         estimate D2E/DX2                !
 ! A75   A(12,13,41)           115.4437         estimate D2E/DX2                !
 ! A76   A(14,13,40)           112.737          estimate D2E/DX2                !
 ! A77   A(14,13,41)           115.3756         estimate D2E/DX2                !
 ! A78   A(40,13,41)           108.6944         estimate D2E/DX2                !
 ! A79   A(13,14,15)            87.4339         estimate D2E/DX2                !
 ! A80   A(13,14,42)           115.1942         estimate D2E/DX2                !
 ! A81   A(13,14,43)           114.1451         estimate D2E/DX2                !
 ! A82   A(15,14,42)           115.3746         estimate D2E/DX2                !
 ! A83   A(15,14,43)           113.8577         estimate D2E/DX2                !
 ! A84   A(42,14,43)           109.5276         estimate D2E/DX2                !
 ! A85   A(12,15,14)            87.864          estimate D2E/DX2                !
 ! A86   A(12,15,44)           114.2061         estimate D2E/DX2                !
 ! A87   A(12,15,45)           115.4218         estimate D2E/DX2                !
 ! A88   A(14,15,44)           112.6727         estimate D2E/DX2                !
 ! A89   A(14,15,45)           116.7511         estimate D2E/DX2                !
 ! A90   A(44,15,45)           108.8459         estimate D2E/DX2                !
 ! D1    D(16,1,2,3)           179.7201         estimate D2E/DX2                !
 ! D2    D(16,1,2,19)           58.6307         estimate D2E/DX2                !
 ! D3    D(16,1,2,20)          -59.0945         estimate D2E/DX2                !
 ! D4    D(17,1,2,3)            59.7951         estimate D2E/DX2                !
 ! D5    D(17,1,2,19)          -61.2943         estimate D2E/DX2                !
 ! D6    D(17,1,2,20)         -179.0195         estimate D2E/DX2                !
 ! D7    D(18,1,2,3)           -60.3679         estimate D2E/DX2                !
 ! D8    D(18,1,2,19)          178.5427         estimate D2E/DX2                !
 ! D9    D(18,1,2,20)           60.8175         estimate D2E/DX2                !
 ! D10   D(1,2,3,4)           -179.6133         estimate D2E/DX2                !
 ! D11   D(1,2,3,21)            59.2568         estimate D2E/DX2                !
 ! D12   D(1,2,3,22)           -58.2345         estimate D2E/DX2                !
 ! D13   D(19,2,3,4)           -58.5629         estimate D2E/DX2                !
 ! D14   D(19,2,3,21)         -179.6928         estimate D2E/DX2                !
 ! D15   D(19,2,3,22)           62.8159         estimate D2E/DX2                !
 ! D16   D(20,2,3,4)            59.3036         estimate D2E/DX2                !
 ! D17   D(20,2,3,21)          -61.8263         estimate D2E/DX2                !
 ! D18   D(20,2,3,22)         -179.3175         estimate D2E/DX2                !
 ! D19   D(2,3,4,5)           -179.3391         estimate D2E/DX2                !
 ! D20   D(2,3,4,23)            59.5368         estimate D2E/DX2                !
 ! D21   D(2,3,4,24)           -59.0785         estimate D2E/DX2                !
 ! D22   D(21,3,4,5)           -58.1541         estimate D2E/DX2                !
 ! D23   D(21,3,4,23)         -179.2782         estimate D2E/DX2                !
 ! D24   D(21,3,4,24)           62.1065         estimate D2E/DX2                !
 ! D25   D(22,3,4,5)            58.9957         estimate D2E/DX2                !
 ! D26   D(22,3,4,23)          -62.1284         estimate D2E/DX2                !
 ! D27   D(22,3,4,24)          179.2563         estimate D2E/DX2                !
 ! D28   D(3,4,5,6)            178.21           estimate D2E/DX2                !
 ! D29   D(3,4,5,25)            57.1578         estimate D2E/DX2                !
 ! D30   D(3,4,5,26)           -59.6463         estimate D2E/DX2                !
 ! D31   D(23,4,5,6)           -60.4281         estimate D2E/DX2                !
 ! D32   D(23,4,5,25)          178.5196         estimate D2E/DX2                !
 ! D33   D(23,4,5,26)           61.7155         estimate D2E/DX2                !
 ! D34   D(24,4,5,6)            57.8033         estimate D2E/DX2                !
 ! D35   D(24,4,5,25)          -63.249          estimate D2E/DX2                !
 ! D36   D(24,4,5,26)          179.9469         estimate D2E/DX2                !
 ! D37   D(4,5,6,7)           -179.042          estimate D2E/DX2                !
 ! D38   D(4,5,6,27)            60.0035         estimate D2E/DX2                !
 ! D39   D(4,5,6,28)           -56.7646         estimate D2E/DX2                !
 ! D40   D(25,5,6,7)           -59.7574         estimate D2E/DX2                !
 ! D41   D(25,5,6,27)          179.2881         estimate D2E/DX2                !
 ! D42   D(25,5,6,28)           62.52           estimate D2E/DX2                !
 ! D43   D(26,5,6,7)            58.4039         estimate D2E/DX2                !
 ! D44   D(26,5,6,27)          -62.5507         estimate D2E/DX2                !
 ! D45   D(26,5,6,28)         -179.3187         estimate D2E/DX2                !
 ! D46   D(5,6,7,8)             60.006          estimate D2E/DX2                !
 ! D47   D(5,6,7,9)           -176.7366         estimate D2E/DX2                !
 ! D48   D(5,6,7,29)           -59.1449         estimate D2E/DX2                !
 ! D49   D(27,6,7,8)          -179.2982         estimate D2E/DX2                !
 ! D50   D(27,6,7,9)           -56.0408         estimate D2E/DX2                !
 ! D51   D(27,6,7,29)           61.5509         estimate D2E/DX2                !
 ! D52   D(28,6,7,8)           -62.2392         estimate D2E/DX2                !
 ! D53   D(28,6,7,9)            61.0183         estimate D2E/DX2                !
 ! D54   D(28,6,7,29)          178.6099         estimate D2E/DX2                !
 ! D55   D(6,7,8,30)            60.766          estimate D2E/DX2                !
 ! D56   D(6,7,8,31)           -60.5609         estimate D2E/DX2                !
 ! D57   D(6,7,8,32)          -177.7814         estimate D2E/DX2                !
 ! D58   D(9,7,8,30)           -60.7252         estimate D2E/DX2                !
 ! D59   D(9,7,8,31)           177.9479         estimate D2E/DX2                !
 ! D60   D(9,7,8,32)            60.7275         estimate D2E/DX2                !
 ! D61   D(29,7,8,30)         -179.9614         estimate D2E/DX2                !
 ! D62   D(29,7,8,31)           58.7116         estimate D2E/DX2                !
 ! D63   D(29,7,8,32)          -58.5088         estimate D2E/DX2                !
 ! D64   D(6,7,9,10)           177.1501         estimate D2E/DX2                !
 ! D65   D(6,7,9,33)            56.1681         estimate D2E/DX2                !
 ! D66   D(6,7,9,34)           -60.9312         estimate D2E/DX2                !
 ! D67   D(8,7,9,10)           -59.8364         estimate D2E/DX2                !
 ! D68   D(8,7,9,33)           179.1816         estimate D2E/DX2                !
 ! D69   D(8,7,9,34)            62.0823         estimate D2E/DX2                !
 ! D70   D(29,7,9,10)           59.4138         estimate D2E/DX2                !
 ! D71   D(29,7,9,33)          -61.5682         estimate D2E/DX2                !
 ! D72   D(29,7,9,34)         -178.6675         estimate D2E/DX2                !
 ! D73   D(7,9,10,11)          176.1268         estimate D2E/DX2                !
 ! D74   D(7,9,10,35)           57.9016         estimate D2E/DX2                !
 ! D75   D(7,9,10,36)          -59.7035         estimate D2E/DX2                !
 ! D76   D(33,9,10,11)         -62.4372         estimate D2E/DX2                !
 ! D77   D(33,9,10,35)         179.3377         estimate D2E/DX2                !
 ! D78   D(33,9,10,36)          61.7326         estimate D2E/DX2                !
 ! D79   D(34,9,10,11)          54.3449         estimate D2E/DX2                !
 ! D80   D(34,9,10,35)         -63.8802         estimate D2E/DX2                !
 ! D81   D(34,9,10,36)         178.5147         estimate D2E/DX2                !
 ! D82   D(9,10,11,12)        -176.4456         estimate D2E/DX2                !
 ! D83   D(9,10,11,37)          61.7198         estimate D2E/DX2                !
 ! D84   D(9,10,11,38)         -54.5811         estimate D2E/DX2                !
 ! D85   D(35,10,11,12)        -57.4781         estimate D2E/DX2                !
 ! D86   D(35,10,11,37)       -179.3127         estimate D2E/DX2                !
 ! D87   D(35,10,11,38)         64.3864         estimate D2E/DX2                !
 ! D88   D(36,10,11,12)         59.5596         estimate D2E/DX2                !
 ! D89   D(36,10,11,37)        -62.275          estimate D2E/DX2                !
 ! D90   D(36,10,11,38)       -178.5759         estimate D2E/DX2                !
 ! D91   D(10,11,12,13)         33.6981         estimate D2E/DX2                !
 ! D92   D(10,11,12,15)        133.6944         estimate D2E/DX2                !
 ! D93   D(10,11,12,39)        -98.9857         estimate D2E/DX2                !
 ! D94   D(37,11,12,13)        155.7495         estimate D2E/DX2                !
 ! D95   D(37,11,12,15)       -104.2542         estimate D2E/DX2                !
 ! D96   D(37,11,12,39)         23.0657         estimate D2E/DX2                !
 ! D97   D(38,11,12,13)        -86.7916         estimate D2E/DX2                !
 ! D98   D(38,11,12,15)         13.2047         estimate D2E/DX2                !
 ! D99   D(38,11,12,39)        140.5246         estimate D2E/DX2                !
 ! D100  D(11,12,13,14)        138.666          estimate D2E/DX2                !
 ! D101  D(11,12,13,40)         24.5716         estimate D2E/DX2                !
 ! D102  D(11,12,13,41)       -104.3958         estimate D2E/DX2                !
 ! D103  D(15,12,13,14)         24.7885         estimate D2E/DX2                !
 ! D104  D(15,12,13,40)        -89.3059         estimate D2E/DX2                !
 ! D105  D(15,12,13,41)        141.7267         estimate D2E/DX2                !
 ! D106  D(39,12,13,14)        -88.7675         estimate D2E/DX2                !
 ! D107  D(39,12,13,40)        157.1381         estimate D2E/DX2                !
 ! D108  D(39,12,13,41)         28.1707         estimate D2E/DX2                !
 ! D109  D(11,12,15,14)       -148.5192         estimate D2E/DX2                !
 ! D110  D(11,12,15,44)        -34.5559         estimate D2E/DX2                !
 ! D111  D(11,12,15,45)         92.7306         estimate D2E/DX2                !
 ! D112  D(13,12,15,14)        -24.8034         estimate D2E/DX2                !
 ! D113  D(13,12,15,44)         89.1599         estimate D2E/DX2                !
 ! D114  D(13,12,15,45)       -143.5535         estimate D2E/DX2                !
 ! D115  D(39,12,15,14)         85.885          estimate D2E/DX2                !
 ! D116  D(39,12,15,44)       -160.1517         estimate D2E/DX2                !
 ! D117  D(39,12,15,45)        -32.8652         estimate D2E/DX2                !
 ! D118  D(12,13,14,15)        -24.9707         estimate D2E/DX2                !
 ! D119  D(12,13,14,42)       -141.9057         estimate D2E/DX2                !
 ! D120  D(12,13,14,43)         90.0914         estimate D2E/DX2                !
 ! D121  D(40,13,14,15)         92.337          estimate D2E/DX2                !
 ! D122  D(40,13,14,42)        -24.5979         estimate D2E/DX2                !
 ! D123  D(40,13,14,43)       -152.6008         estimate D2E/DX2                !
 ! D124  D(41,13,14,15)       -141.9724         estimate D2E/DX2                !
 ! D125  D(41,13,14,42)        101.0926         estimate D2E/DX2                !
 ! D126  D(41,13,14,43)        -26.9102         estimate D2E/DX2                !
 ! D127  D(13,14,15,12)         25.1862         estimate D2E/DX2                !
 ! D128  D(13,14,15,44)        -90.2235         estimate D2E/DX2                !
 ! D129  D(13,14,15,45)        142.7195         estimate D2E/DX2                !
 ! D130  D(42,14,15,12)        141.9528         estimate D2E/DX2                !
 ! D131  D(42,14,15,44)         26.5432         estimate D2E/DX2                !
 ! D132  D(42,14,15,45)       -100.5138         estimate D2E/DX2                !
 ! D133  D(43,14,15,12)        -90.1479         estimate D2E/DX2                !
 ! D134  D(43,14,15,44)        154.4424         estimate D2E/DX2                !
 ! D135  D(43,14,15,45)         27.3854         estimate D2E/DX2                !
 --------------------------------------------------------------------------------
 Trust Radius=3.00D-01 FncErr=1.00D-07 GrdErr=1.00D-06 EigMax=2.50D+02 EigMin=1.00D-04
 Number of steps in this run=    270 maximum allowed number of steps=    270.
 GradGradGradGradGradGradGradGradGradGradGradGradGradGradGradGradGradGrad

                          Input orientation:                          
 ---------------------------------------------------------------------
 Center     Atomic      Atomic             Coordinates (Angstroms)
 Number     Number       Type             X           Y           Z
 ---------------------------------------------------------------------
      1          6           0        0.879340   -0.063210    0.071120
      2          6           0        2.395910   -0.068220    0.068460
      3          6           0        2.932860    1.287610   -0.361420
      4          6           0        4.455880    1.281180   -0.373740
      5          6           0        4.953010    2.652790   -0.790850
      6          6           0        6.473460    2.718230   -0.778520
      7          6           0        6.975190    4.113230   -1.177770
      8          6           0        6.455650    5.189910   -0.210970
      9          6           0        8.510360    4.086750   -1.224540
     10          6           0        9.070200    5.425770   -1.683720
     11          6           0       10.584610    5.438690   -1.642410
     12          6           0       11.120140    6.814850   -2.021600
     13          6           0       10.369270    8.138070   -1.663180
     14          6           0       11.741890    8.736730   -1.308640
     15          6           0       12.223780    7.300290   -1.047570
     16          1           0        0.500240   -1.042210    0.376240
     17          1           0        0.490050    0.162520   -0.926530
     18          1           0        0.494370    0.688570    0.767590
     19          1           0        2.760740   -0.843820   -0.614330
     20          1           0        2.765010   -0.312970    1.070540
     21          1           0        2.572130    2.064550    0.325550
     22          1           0        2.556950    1.543630   -1.359030
     23          1           0        4.830710    0.518250   -1.065660
     24          1           0        4.836280    1.038690    0.624810
     25          1           0        4.533390    3.381080   -0.089830
     26          1           0        4.580310    2.907290   -1.788760
     27          1           0        6.870790    1.970760   -1.479170
     28          1           0        6.852110    2.452580    0.214690
     29          1           0        6.603550    4.343290   -2.182670
     30          1           0        6.804040    5.000090    0.808330
     31          1           0        5.364010    5.237890   -0.200340
     32          1           0        6.771890    6.194170   -0.503310
     33          1           0        8.850430    3.299500   -1.911090
     34          1           0        8.906830    3.834710   -0.234120
     35          1           0        8.718070    6.203380   -1.003460
     36          1           0        8.702500    5.676860   -2.683180
     37          1           0       10.990340    4.679290   -2.321990
     38          1           0       10.908330    5.157980   -0.634070
     39          1           0       11.433410    6.823290   -3.075260
     40          1           0        9.693300    8.091290   -0.803490
     41          1           0        9.846600    8.622500   -2.494730
     42          1           0       11.750140    9.399210   -0.438610
     43          1           0       12.245950    9.227050   -2.146270
     44          1           0       12.074840    6.986830   -0.006710
     45          1           0       13.247900    7.063830   -1.344100
 ---------------------------------------------------------------------
                    Distance matrix (angstroms):
                    1          2          3          4          5
     1  C    0.000000
     2  C    1.516581   0.000000
     3  C    2.495746   1.520325   0.000000
     4  C    3.846677   2.501979   1.523083   0.000000
     5  C    4.971362   3.831588   2.475709   1.517377   0.000000
     6  C    6.304956   5.010798   3.841418   2.509898   1.521908
     7  C    7.494115   6.325142   4.999099   3.874777   2.524243
     8  C    7.666164   6.648872   5.259337   4.393603   3.005190
     9  C    8.782561   7.504807   6.299894   5.003388   3.859931
    10  C   10.014916   8.820443   7.519294   6.339213   5.043599
    11  C   11.287132  10.015385   8.798959   7.513704   6.340450
    12  C   12.512441  11.307395  10.016892   8.817557   7.541285
    13  C   12.662052  11.572219  10.194291   9.145916   7.757907
    14  C   14.047693  12.913980  11.575216  10.466385   9.130790
    15  C   13.570885  12.333997  11.088026   9.850076   8.633033
    16  H    1.093278   2.153358   3.448165   4.648408   5.902735
    17  H    1.094443   2.162302   2.748181   4.157497   5.112520
    18  H    1.094735   2.162722   2.753134   4.165019   5.115307
    19  H    2.149153   1.095837   2.153273   2.728921   4.130798
    20  H    2.148714   1.095583   2.154191   2.736110   4.128904
    21  H    2.730867   2.155425   1.098039   2.156662   2.694618
    22  H    2.727937   2.159102   1.096394   2.155368   2.700772
    23  H    4.152552   2.749259   2.165572   1.096044   2.155630
    24  H    4.144651   2.736819   2.158152   1.095722   2.150125
    25  H    5.024054   4.060979   2.649165   2.120423   1.094494
    26  H    5.097078   4.132134   2.715650   2.159166   1.095217
    27  H    6.514438   5.155303   4.150103   2.743955   2.148681
    28  H    6.482576   5.121868   4.129114   2.731363   2.158188
    29  H    7.567258   6.498711   5.111565   4.154664   2.742122
    30  H    7.828318   6.757720   5.489705   4.554277   3.390207
    31  H    6.948929   6.085776   4.641244   4.063290   2.683350
    32  H    8.614344   7.661178   6.231582   5.433062   3.991538
    33  H    8.875542   7.544600   6.439473   5.074360   4.106465
    34  H    8.929028   7.597137   6.495556   5.133319   4.164082
    35  H   10.093095   8.969486   7.618771   6.541473   5.179534
    36  H   10.086447   8.963847   7.612150   6.533705   5.175383
    37  H   11.421497  10.105312   8.959370   7.618530   6.549843
    38  H   11.328670  10.013391   8.869173   7.532029   6.462692
    39  H   12.988918  11.792044  10.500859   9.311236   8.037859
    40  H   12.039381  10.981339   9.601512   8.601910   7.214416
    41  H   12.745073  11.730786  10.302981   9.351654   7.904927
    42  H   14.421217  13.318820  11.981170  10.913883   9.583279
    43  H   14.846736  13.723351  12.367459  11.267826   9.911863
    44  H   13.230584  11.977523  10.778809   9.525634   8.373723
    45  H   14.344993  13.062433  11.862986  10.567888   9.411087
                    6          7          8          9         10
     6  C    0.000000
     7  C    1.535304   0.000000
     8  C    2.536066   1.537486   0.000000
     9  C    2.494142   1.536111   2.542857   0.000000
    10  C    3.859173   2.523453   3.010065   1.522249   0.000000
    11  C    5.004874   3.873067   4.377125   2.510950   1.515028
    12  C    6.318163   5.019105   5.260825   3.858599   2.499192
    13  C    6.733099   5.287224   5.110478   4.478967   3.007420
    14  C    8.016216   6.641936   6.459810   5.663230   4.270956
    15  C    7.357570   6.141824   6.198784   4.914025   3.723383
    16  H    7.152184   8.421311   8.640084   9.645245  10.932631
    17  H    6.508053   7.597912   7.834224   8.933855  10.094261
    18  H    6.500730   7.583782   7.533691   8.931534  10.099250
    19  H    5.147761   6.530804   7.086675   7.598750   8.958830
    20  H    5.134179   6.509359   6.748687   7.591704   8.959604
    21  H    4.106902   5.083699   5.013727   6.461784   7.586823
    22  H    4.129858   5.114347   5.460152   6.475233   7.589391
    23  H    2.760614   4.187511   5.019495   5.128280   6.514524
    24  H    2.733230   4.156564   4.533598   5.119534   6.519345
    25  H    2.162761   2.771650   2.642276   4.195453   5.225312
    26  H    2.154146   2.750100   3.349131   4.141831   5.149067
    27  H    1.098860   2.166084   3.484767   2.688948   4.100773
    28  H    1.095633   2.170680   2.798454   2.737095   4.166982
    29  H    2.151600   1.095841   2.150870   2.149360   2.739539
    30  H    2.798975   2.181836   1.093791   2.806827   3.395143
    31  H    2.813158   2.194568   1.092746   3.503374   3.996443
    32  H    3.499566   2.196938   1.092707   2.825539   2.695558
    33  H    2.696401   2.171737   3.492711   1.098527   2.149656
    34  H    2.732067   2.167783   2.800962   1.096195   2.158588
    35  H    4.151523   2.727039   2.602634   2.138257   1.091525
    36  H    4.165314   2.773950   3.375985   2.166333   1.094153
    37  H    5.160452   4.213205   5.027977   2.775932   2.156747
    38  H    5.063726   4.105691   4.472851   2.691923   2.133588
    39  H    6.835762   5.551632   5.970777   4.411126   3.078020
    40  H    6.264006   4.832512   4.387649   4.196781   2.875423
    41  H    7.013120   5.505715   5.338237   4.896116   3.388158
    42  H    8.520234   7.161570   6.767692   6.271849   4.951828
    43  H    8.806652   7.407433   7.319253   6.420818   4.974844
    44  H    7.084638   5.969538   5.903045   4.753850   3.778509
    45  H    8.068281   6.934017   7.136541   5.596569   4.500196
                   11         12         13         14         15
    11  C    0.000000
    12  C    1.524596   0.000000
    13  C    2.708035   1.563068   0.000000
    14  C    3.511092   2.142080   1.538889   0.000000
    15  C    2.550739   1.549970   2.126043   1.537444   0.000000
    16  H   12.156131  13.426292  13.632114  14.994705  14.459112
    17  H   11.412738  12.587751  12.718138  14.151572  13.734731
    18  H   11.409850  12.578469  12.606242  13.985361  13.586343
    19  H   10.086616  11.424325  11.817959  13.150287  12.492532
    20  H   10.079079  11.409441  11.692650  12.966956  12.325439
    21  H    8.913895  10.056985  10.081572  11.457446  11.065838
    22  H    8.927212  10.077350  10.227976  11.666463  11.255387
    23  H    7.592808   8.950862   9.438979  10.740897  10.032641
    24  H    7.585749   8.936129   9.287092  10.520718   9.827494
    25  H    6.577350   7.675141   7.691676   9.062613   8.684444
    26  H    6.517747   7.621851   7.803133   9.246681   8.847059
    27  H    5.083861   6.466561   7.092879   8.338768   7.566021
    28  H    5.128082   6.499729   6.944178   8.106850   7.344960
    29  H    4.164207   5.151130   5.371301   6.816801   6.451301
    30  H    4.526721   5.470884   5.354077   6.544188   6.173238
    31  H    5.419829   6.239938   5.966873   7.358503   7.213026
    32  H    4.050325   4.647335   4.250316   5.640396   5.589528
    33  H    2.766894   4.185867   5.077410   6.187646   5.303912
    34  H    2.714955   4.120080   4.764436   5.763849   4.865604
    35  H    2.115887   2.679635   2.627683   3.956575   3.673576
    36  H    2.163854   2.752761   3.142623   4.526594   4.208344
    37  H    1.096875   2.160486   3.575321   4.249062   3.164674
    38  H    1.095601   2.171479   3.198529   3.735949   2.547721
    39  H    2.165788   1.099276   2.203409   2.622472   2.227945
    40  H    2.921388   2.269133   1.094619   2.206466   2.662440
    41  H    3.377537   2.261273   1.095140   2.238746   3.081152
    42  H    4.300385   3.095428   2.235363   1.093572   2.236209
    43  H    4.167205   2.664901   2.222877   1.093670   2.218116
    44  H    2.700562   2.236249   2.641631   2.206361   1.097192
    45  H    3.134196   2.246856   3.089064   2.251204   1.092092
                   16         17         18         19         20
    16  H    0.000000
    17  H    1.774454   0.000000
    18  H    1.774483   1.773919   0.000000
    19  H    2.475974   2.503242   3.065021   0.000000
    20  H    2.478513   3.064282   2.500133   1.766524   0.000000
    21  H    3.734602   3.085527   2.530970   3.062281   2.498963
    22  H    3.731995   2.523212   3.083484   2.509188   3.064810
    23  H    4.823596   4.357434   4.711015   2.518672   3.085676
    24  H    4.815929   4.697238   4.358343   3.063850   2.513129
    25  H    6.004083   5.235245   4.929347   4.611634   4.256716
    26  H    6.077232   5.000743   5.305898   4.331391   4.673434
    27  H    7.287279   6.654997   6.881183   5.055919   5.345454
    28  H    7.251614   6.857300   6.621049   5.319101   5.008506
    29  H    8.532410   7.512097   7.706043   6.643266   6.855547
    30  H    8.742653   8.141148   7.642172   7.247311   6.679156
    31  H    7.964192   7.074052   6.733988   6.628393   6.259551
    32  H    9.616257   8.719027   8.445950   8.101540   7.802241
    33  H    9.685453   8.983649   9.155109   7.478838   7.679349
    34  H    9.737949   9.209050   9.037207   7.733539   7.525114
    35  H   11.042413  10.207753  10.058777   9.236029   9.066599
    36  H   11.035534  10.046796  10.206089   9.061121   9.231591
    37  H   12.249825  11.515408  11.646319  10.057195  10.202351
    38  H   12.156949  11.557712  11.418881  10.119546   9.957442
    39  H   13.903710  12.989997  13.117350  11.834524  11.968919
    40  H   13.012492  12.148265  11.911711  11.310719  11.051913
    41  H   13.747856  12.711237  12.690712  11.973159  11.945823
    42  H   15.370344  14.572033  14.283645  13.629375  13.316776
    43  H   15.804508  14.894786  14.815392  13.918997  13.829247
    44  H   14.091966  13.476818  13.205109  12.183626  11.879414
    45  H   15.204285  14.510864  14.413733  13.154620  13.043721
                   21         22         23         24         25
    21  H    0.000000
    22  H    1.763348   0.000000
    23  H    3.070455   2.511465   0.000000
    24  H    2.503661   3.063647   1.768779   0.000000
    25  H    2.398402   2.982181   3.039151   2.467639   0.000000
    26  H    3.035343   2.477544   2.508602   3.063088   1.764381
    27  H    4.663077   4.336599   2.538248   3.071598   3.063120
    28  H    4.298963   4.663816   3.076847   2.496168   2.516209
    29  H    5.266514   4.989133   4.361376   4.682475   3.096997
    30  H    5.172962   5.889171   5.243354   4.427014   2.929801
    31  H    4.259254   4.782228   4.827856   4.311920   2.037127
    32  H    5.948004   6.334469   6.024988   5.621229   3.618746
    33  H    6.778253   6.557114   4.960671   5.258845   4.686201
    34  H    6.601145   6.843643   5.320256   5.012471   4.399270
    35  H    7.527866   7.732988   6.887390   6.662851   5.129488
    36  H    7.725456   7.523613   6.649691   6.884989   5.420106
    37  H    9.203944   9.048852   7.538810   7.733696   6.954142
    38  H    8.943289   9.128781   7.658383   7.444671   6.640288
    39  H   10.617599  10.469565   9.348137   9.522302   8.268729
    40  H    9.397201   9.700926   9.003580   8.681581   7.022824
    41  H   10.192085  10.224442   9.637441   9.609839   7.841315
    42  H   11.773574  12.127327  11.275777  10.900946   9.403245
    43  H   12.287965  12.390779  11.488982  11.385576   9.893831
    44  H   10.707041  11.047508   9.769407   9.390204   8.359534
    45  H   11.905990  12.032009  10.666360  10.532534   9.543507
                   26         27         28         29         30
    26  H    0.000000
    27  H    2.493839   0.000000
    28  H    3.062948   1.761153   0.000000
    29  H    2.512123   2.489022   3.063315   0.000000
    30  H    4.008698   3.796571   2.616205   3.068821   0.000000
    31  H    2.927279   3.818368   3.185066   2.503278   1.774162
    32  H    4.154393   4.335813   3.810703   2.504864   1.774052
    33  H    4.289839   2.423031   3.038009   2.492333   3.804598
    34  H    4.689967   3.028187   2.516662   3.059510   2.620408
    35  H    5.348080   4.642609   4.362820   3.053140   2.897240
    36  H    5.046083   4.305808   4.713552   2.536634   4.031477
    37  H    6.671792   5.001717   5.340218   4.401844   5.237072
    38  H    6.814892   5.212897   4.948990   4.646828   4.353234
    39  H    7.997194   6.849237   7.135488   5.502242   6.311687
    40  H    7.347604   6.773772   6.395631   5.049376   4.527837
    41  H    7.803578   7.357476   7.373998   5.378326   5.769682
    42  H    9.765981   8.948335   8.524856   7.422362   6.735801
    43  H    9.941288   9.054894   8.975583   7.462514   7.497415
    44  H    8.717014   7.376397   6.919924   6.454310   5.691464
    45  H    9.622976   8.162422   8.037387   7.228549   7.100374
                   31         32         33         34         35
    31  H    0.000000
    32  H    1.728696   0.000000
    33  H    4.340408   3.831617   0.000000
    34  H    3.810725   3.193350   1.761210   0.000000
    35  H    3.581465   2.009441   3.045296   2.497621   0.000000
    36  H    4.183623   2.957482   2.503966   3.071345   1.760376
    37  H    6.038959   4.837125   2.579123   3.068148   3.037200
    38  H    5.561833   4.266254   3.052815   2.432490   2.454903
    39  H    6.900455   5.361016   4.521523   4.836041   3.471270
    40  H    5.220003   3.496256   4.989836   4.365912   2.134307
    41  H    6.067407   4.395041   5.446771   5.377403   3.057713
    42  H    7.626009   5.921101   6.912523   6.252191   4.441377
    43  H    8.189087   6.470163   6.835255   6.624452   4.784823
    44  H    6.937689   5.384812   5.255462   4.474803   3.588204
    45  H    8.173002   6.588015   5.816305   5.523057   4.623394
                   36         37         38         39         40
    36  H    0.000000
    37  H    2.521868   0.000000
    38  H    3.055123   1.756401   0.000000
    39  H    2.987624   2.315267   3.001396   0.000000
    40  H    3.216270   3.953467   3.179514   3.129975   0.000000
    41  H    3.165639   4.109366   4.073356   2.468226   1.779319
    42  H    5.308681   5.138294   4.328381   3.699676   2.464626
    43  H    5.044617   4.721182   4.542390   2.702093   3.099844
    44  H    4.500243   3.444039   2.258101   3.139136   2.743433
    45  H    4.937356   3.426204   3.099999   2.519355   3.739400
                   41         42         43         44         45
    41  H    0.000000
    42  H    2.907640   0.000000
    43  H    2.498757   1.786496   0.000000
    44  H    3.718967   2.472154   3.102512   0.000000
    45  H    3.914364   2.918424   2.515333   1.780621   0.000000
 Stoichiometry    C15H30
 Framework group  C1[X(C15H30)]
 Deg. of freedom   129
 Full point group                 C1      NOp   1
 Largest Abelian subgroup         C1      NOp   1
 Largest concise Abelian subgroup C1      NOp   1
                         Standard orientation:                         
 ---------------------------------------------------------------------
 Center     Atomic      Atomic             Coordinates (Angstroms)
 Number     Number       Type             X           Y           Z
 ---------------------------------------------------------------------
      1          6           0       -7.632796    0.543160   -0.056360
      2          6           0       -6.447699   -0.346603    0.265950
      3          6           0       -5.147977    0.327067   -0.144266
      4          6           0       -3.957506   -0.569437    0.170129
      5          6           0       -2.680924    0.142379   -0.237414
      6          6           0       -1.451695   -0.691193    0.094785
      7          6           0       -0.159451    0.039818   -0.296222
      8          6           0       -0.029032    1.378093    0.449349
      9          6           0        1.032551   -0.886209   -0.011194
     10          6           0        2.343559   -0.244787   -0.443720
     11          6           0        3.532486   -1.110704   -0.080469
     12          6           0        4.837255   -0.410436   -0.443231
     13          6           0        5.011535    1.140595   -0.358897
     14          6           0        6.407885    0.879673    0.232969
     15          6           0        5.877773   -0.484745    0.703158
     16          1           0       -8.563886    0.050683    0.236544
     17          1           0       -7.677482    0.756985   -1.128781
     18          1           0       -7.561757    1.494670    0.480324
     19          1           0       -6.550711   -1.302522   -0.259851
     20          1           0       -6.430963   -0.562797    1.339859
     21          1           0       -5.041451    1.282452    0.386377
     22          1           0       -5.163728    0.556985   -1.216166
     23          1           0       -4.043841   -1.522950   -0.363418
     24          1           0       -3.930108   -0.791121    1.242842
     25          1           0       -2.651900    1.096457    0.298132
     26          1           0       -2.695051    0.369166   -1.308800
     27          1           0       -1.509912   -1.647320   -0.443662
     28          1           0       -1.439126   -0.931153    1.163744
     29          1           0       -0.186783    0.245364   -1.372266
     30          1           0        0.002845    1.220629    1.531277
     31          1           0       -0.856102    2.055232    0.222346
     32          1           0        0.866649    1.929646    0.153453
     33          1           0        0.903509   -1.837586   -0.545038
     34          1           0        1.067715   -1.126369    1.057792
     35          1           0        2.458053    0.704818    0.082178
     36          1           0        2.331461   -0.023906   -1.515277
     37          1           0        3.470987   -2.077101   -0.595666
     38          1           0        3.490994   -1.327575    0.992652
     39          1           0        5.217291   -0.788907   -1.402783
     40          1           0        4.347900    1.663311    0.337197
     41          1           0        4.999629    1.668257   -1.318461
     42          1           0        6.711145    1.564505    1.029799
     43          1           0        7.204482    0.811459   -0.513285
     44          1           0        5.442122   -0.445294    1.709380
     45          1           0        6.572235   -1.326045    0.652151
 ---------------------------------------------------------------------
 Rotational constants (GHZ):           2.6969268           0.1191479           0.1165712
 Standard basis: 6-31G(2df,p) (6D, 7F)
 There are   615 symmetry adapted cartesian basis functions of A   symmetry.
 There are   570 symmetry adapted basis functions of A   symmetry.
   570 basis functions,   870 primitive gaussians,   615 cartesian basis functions
    60 alpha electrons       60 beta electrons
       nuclear repulsion energy       978.2169949550 Hartrees.
 NAtoms=   45 NActive=   45 NUniq=   45 SFac= 1.00D+00 NAtFMM=   60 NAOKFM=F Big=F
 Integral buffers will be    131072 words long.
 Raffenetti 2 integral format.
 Two-electron integral symmetry is turned on.
 One-electron integrals computed using PRISM.
 PrsmSu:  requested number of processors reduced to:  12 ShMem   1 Linda.
 NBasis=   570 RedAO= T EigKep=  4.25D-04  NBF=   570
 NBsUse=   570 1.00D-06 EigRej= -1.00D+00 NBFU=   570
 ExpMin= 1.61D-01 ExpMax= 3.05D+03 ExpMxC= 4.57D+02 IAcc=3 IRadAn=         5 AccDes= 0.00D+00
 Harris functional with IExCor=  402 and IRadAn=       5 diagonalized for initial guess.
 HarFok:  IExCor=  402 AccDes= 0.00D+00 IRadAn=         5 IDoV= 1 UseB2=F ITyADJ=14
 ICtDFT=  3500011 ScaDFX=  1.000000  1.000000  1.000000  1.000000
 FoFCou: FMM=F IPFlag=           0 FMFlag=      100000 FMFlg1=           0
         NFxFlg=           0 DoJE=T BraDBF=F KetDBF=T FulRan=T
         wScrn=  0.000000 ICntrl=       500 IOpCl=  0 I1Cent=   200000004 NGrid=           0
         NMat0=    1 NMatS0=      1 NMatT0=    0 NMatD0=    1 NMtDS0=    0 NMtDT0=    0
 Petite list used in FoFCou.
 Requested convergence on RMS density matrix=1.00D-08 within 128 cycles.
 Requested convergence on MAX density matrix=1.00D-06.
 Requested convergence on             energy=1.00D-06.
 No special actions if energy rises.
 Integral accuracy reduced to 1.0D-05 until final iterations.
 Initial convergence to 1.0D-05 achieved.  Increase integral accuracy.
 SCF Done:  E(RB3LYP) =  -589.691612874     A.U. after   11 cycles
            NFock= 11  Conv=0.91D-08     -V/T= 2.0085

 **********************************************************************

            Population analysis using the SCF density.

 **********************************************************************

 Orbital symmetries:
       Occupied  (A) (A) (A) (A) (A) (A) (A) (A) (A) (A) (A) (A)
                 (A) (A) (A) (A) (A) (A) (A) (A) (A) (A) (A) (A)
                 (A) (A) (A) (A) (A) (A) (A) (A) (A) (A) (A) (A)
                 (A) (A) (A) (A) (A) (A) (A) (A) (A) (A) (A) (A)
                 (A) (A) (A) (A) (A) (A) (A) (A) (A) (A) (A) (A)
       Virtual   (A) (A) (A) (A) (A) (A) (A) (A) (A) (A) (A) (A)
                 (A) (A) (A) (A) (A) (A) (A) (A) (A) (A) (A) (A)
                 (A) (A) (A) (A) (A) (A) (A) (A) (A) (A) (A) (A)
                 (A) (A) (A) (A) (A) (A) (A) (A) (A) (A) (A) (A)
                 (A) (A) (A) (A) (A) (A) (A) (A) (A) (A) (A) (A)
                 (A) (A) (A) (A) (A) (A) (A) (A) (A) (A) (A) (A)
                 (A) (A) (A) (A) (A) (A) (A) (A) (A) (A) (A) (A)
                 (A) (A) (A) (A) (A) (A) (A) (A) (A) (A) (A) (A)
                 (A) (A) (A) (A) (A) (A) (A) (A) (A) (A) (A) (A)
                 (A) (A) (A) (A) (A) (A) (A) (A) (A) (A) (A) (A)
                 (A) (A) (A) (A) (A) (A) (A) (A) (A) (A) (A) (A)
                 (A) (A) (A) (A) (A) (A) (A) (A) (A) (A) (A) (A)
                 (A) (A) (A) (A) (A) (A) (A) (A) (A) (A) (A) (A)
                 (A) (A) (A) (A) (A) (A) (A) (A) (A) (A) (A) (A)
                 (A) (A) (A) (A) (A) (A) (A) (A) (A) (A) (A) (A)
                 (A) (A) (A) (A) (A) (A) (A) (A) (A) (A) (A) (A)
                 (A) (A) (A) (A) (A) (A) (A) (A) (A) (A) (A) (A)
                 (A) (A) (A) (A) (A) (A) (A) (A) (A) (A) (A) (A)
                 (A) (A) (A) (A) (A) (A) (A) (A) (A) (A) (A) (A)
                 (A) (A) (A) (A) (A) (A) (A) (A) (A) (A) (A) (A)
                 (A) (A) (A) (A) (A) (A) (A) (A) (A) (A) (A) (A)
                 (A) (A) (A) (A) (A) (A) (A) (A) (A) (A) (A) (A)
                 (A) (A) (A) (A) (A) (A) (A) (A) (A) (A) (A) (A)
                 (A) (A) (A) (A) (A) (A) (A) (A) (A) (A) (A) (A)
                 (A) (A) (A) (A) (A) (A) (A) (A) (A) (A) (A) (A)
                 (A) (A) (A) (A) (A) (A) (A) (A) (A) (A) (A) (A)
                 (A) (A) (A) (A) (A) (A) (A) (A) (A) (A) (A) (A)
                 (A) (A) (A) (A) (A) (A) (A) (A) (A) (A) (A) (A)
                 (A) (A) (A) (A) (A) (A) (A) (A) (A) (A) (A) (A)
                 (A) (A) (A) (A) (A) (A) (A) (A) (A) (A) (A) (A)
                 (A) (A) (A) (A) (A) (A) (A) (A) (A) (A) (A) (A)
                 (A) (A) (A) (A) (A) (A) (A) (A) (A) (A) (A) (A)
                 (A) (A) (A) (A) (A) (A) (A) (A) (A) (A) (A) (A)
                 (A) (A) (A) (A) (A) (A) (A) (A) (A) (A) (A) (A)
                 (A) (A) (A) (A) (A) (A) (A) (A) (A) (A) (A) (A)
                 (A) (A) (A) (A) (A) (A) (A) (A) (A) (A) (A) (A)
                 (A) (A) (A) (A) (A) (A) (A) (A) (A) (A) (A) (A)
                 (A) (A) (A) (A) (A) (A) (A) (A) (A) (A) (A) (A)
                 (A) (A) (A) (A) (A) (A) (A) (A) (A) (A) (A) (A)
                 (A) (A) (A) (A) (A) (A) (A) (A) (A) (A) (A) (A)
                 (A) (A) (A) (A) (A) (A) (A) (A) (A) (A) (A) (A)
                 (A) (A) (A) (A) (A) (A) (A) (A) (A) (A) (A) (A)
                 (A) (A) (A) (A) (A) (A)
 The electronic state is 1-A.
 Alpha  occ. eigenvalues --  -10.17621 -10.17428 -10.17231 -10.17022 -10.16900
 Alpha  occ. eigenvalues --  -10.16792 -10.16701 -10.16578 -10.16514 -10.16488
 Alpha  occ. eigenvalues --  -10.16449 -10.16422 -10.16415 -10.16377 -10.16267
 Alpha  occ. eigenvalues --   -0.84314  -0.81748  -0.79838  -0.76973  -0.74362
 Alpha  occ. eigenvalues --   -0.69560  -0.68279  -0.65077  -0.64159  -0.61266
 Alpha  occ. eigenvalues --   -0.58205  -0.57218  -0.56551  -0.55003  -0.53893
 Alpha  occ. eigenvalues --   -0.48018  -0.47555  -0.46360  -0.45295  -0.44824
 Alpha  occ. eigenvalues --   -0.43148  -0.42527  -0.42118  -0.40221  -0.39444
 Alpha  occ. eigenvalues --   -0.38975  -0.38324  -0.37913  -0.36843  -0.36133
 Alpha  occ. eigenvalues --   -0.35677  -0.34433  -0.33693  -0.33411  -0.32867
 Alpha  occ. eigenvalues --   -0.32505  -0.32272  -0.31951  -0.31551  -0.31317
 Alpha  occ. eigenvalues --   -0.31011  -0.30532  -0.28636  -0.28503  -0.26026
 Alpha virt. eigenvalues --    0.08334   0.08913   0.09393   0.10319   0.11029
 Alpha virt. eigenvalues --    0.11306   0.11436   0.11968   0.12577   0.13267
 Alpha virt. eigenvalues --    0.13880   0.14992   0.15625   0.15886   0.16807
 Alpha virt. eigenvalues --    0.16926   0.17376   0.18004   0.18024   0.18684
 Alpha virt. eigenvalues --    0.19047   0.19876   0.20150   0.20554   0.20767
 Alpha virt. eigenvalues --    0.21074   0.21301   0.21513   0.21654   0.22844
 Alpha virt. eigenvalues --    0.22921   0.23281   0.23838   0.24585   0.24807
 Alpha virt. eigenvalues --    0.25385   0.26078   0.26806   0.28131   0.28570
 Alpha virt. eigenvalues --    0.29777   0.30909   0.31727   0.34438   0.35700
 Alpha virt. eigenvalues --    0.41857   0.45740   0.46734   0.47751   0.48430
 Alpha virt. eigenvalues --    0.48709   0.49026   0.49307   0.50215   0.50688
 Alpha virt. eigenvalues --    0.51903   0.52291   0.52879   0.53284   0.53979
 Alpha virt. eigenvalues --    0.54976   0.55761   0.56341   0.57059   0.57739
 Alpha virt. eigenvalues --    0.58668   0.59148   0.59901   0.60590   0.61375
 Alpha virt. eigenvalues --    0.62778   0.63734   0.63886   0.64691   0.65487
 Alpha virt. eigenvalues --    0.66107   0.66726   0.67797   0.69332   0.69547
 Alpha virt. eigenvalues --    0.70285   0.70734   0.71199   0.71382   0.72274
 Alpha virt. eigenvalues --    0.72648   0.73640   0.73814   0.74117   0.74373
 Alpha virt. eigenvalues --    0.74793   0.75920   0.76156   0.76793   0.77296
 Alpha virt. eigenvalues --    0.77608   0.77919   0.78498   0.78840   0.79223
 Alpha virt. eigenvalues --    0.79611   0.80291   0.80721   0.81099   0.81539
 Alpha virt. eigenvalues --    0.81882   0.83069   0.83453   0.84503   0.84706
 Alpha virt. eigenvalues --    0.84862   0.85751   0.87025   0.87480   0.87911
 Alpha virt. eigenvalues --    0.88258   0.88588   0.90139   0.90893   0.91856
 Alpha virt. eigenvalues --    0.93815   0.97017   1.02922   1.04814   1.05734
 Alpha virt. eigenvalues --    1.06407   1.06999   1.08136   1.09822   1.09896
 Alpha virt. eigenvalues --    1.11878   1.13785   1.16375   1.17845   1.18771
 Alpha virt. eigenvalues --    1.20167   1.20567   1.21544   1.22118   1.23589
 Alpha virt. eigenvalues --    1.24446   1.24922   1.25599   1.26274   1.27419
 Alpha virt. eigenvalues --    1.28206   1.29501   1.31296   1.34826   1.35837
 Alpha virt. eigenvalues --    1.36786   1.37356   1.38555   1.40309   1.40789
 Alpha virt. eigenvalues --    1.41122   1.42033   1.43615   1.44313   1.44899
 Alpha virt. eigenvalues --    1.46576   1.48035   1.49297   1.50325   1.51133
 Alpha virt. eigenvalues --    1.52208   1.52922   1.53733   1.54425   1.56842
 Alpha virt. eigenvalues --    1.57103   1.58015   1.59761   1.61139   1.62017
 Alpha virt. eigenvalues --    1.64608   1.65068   1.66013   1.68021   1.68151
 Alpha virt. eigenvalues --    1.68734   1.69026   1.69932   1.71575   1.72939
 Alpha virt. eigenvalues --    1.73716   1.74530   1.78433   1.80915   1.82111
 Alpha virt. eigenvalues --    1.82659   1.83887   1.85471   1.85871   1.87205
 Alpha virt. eigenvalues --    1.89032   1.89131   1.89902   1.90897   1.91428
 Alpha virt. eigenvalues --    1.93097   1.93813   1.94436   1.95551   1.96347
 Alpha virt. eigenvalues --    1.97246   1.97831   1.98655   2.01692   2.02418
 Alpha virt. eigenvalues --    2.05447   2.07482   2.14298   2.15284   2.16692
 Alpha virt. eigenvalues --    2.18009   2.19561   2.20415   2.20743   2.21920
 Alpha virt. eigenvalues --    2.21989   2.22840   2.23356   2.23953   2.26329
 Alpha virt. eigenvalues --    2.27833   2.29433   2.30361   2.31283   2.32380
 Alpha virt. eigenvalues --    2.33274   2.33979   2.35501   2.38769   2.39764
 Alpha virt. eigenvalues --    2.41113   2.42155   2.42533   2.44108   2.46029
 Alpha virt. eigenvalues --    2.48311   2.50011   2.52777   2.54663   2.56276
 Alpha virt. eigenvalues --    2.58132   2.60084   2.61098   2.63842   2.66637
 Alpha virt. eigenvalues --    2.68266   2.69214   2.69592   2.73350   2.73786
 Alpha virt. eigenvalues --    2.73940   2.74661   2.75343   2.75829   2.76668
 Alpha virt. eigenvalues --    2.77109   2.77900   2.78723   2.79104   2.80244
 Alpha virt. eigenvalues --    2.80416   2.81335   2.82464   2.82669   2.83374
 Alpha virt. eigenvalues --    2.84045   2.84988   2.85746   2.86160   2.86811
 Alpha virt. eigenvalues --    2.87217   2.87945   2.88605   2.89215   2.90490
 Alpha virt. eigenvalues --    2.90794   2.92112   2.92574   2.93301   2.93723
 Alpha virt. eigenvalues --    2.94236   2.95063   2.95721   2.96490   2.97025
 Alpha virt. eigenvalues --    2.97277   2.98077   2.99099   2.99493   3.00466
 Alpha virt. eigenvalues --    3.01037   3.02152   3.02933   3.04270   3.05509
 Alpha virt. eigenvalues --    3.05896   3.06807   3.09601   3.10364   3.12796
 Alpha virt. eigenvalues --    3.13586   3.15855   3.17045   3.18139   3.19081
 Alpha virt. eigenvalues --    3.20690   3.21420   3.22553   3.24447   3.24784
 Alpha virt. eigenvalues --    3.25784   3.26939   3.27861   3.29005   3.31055
 Alpha virt. eigenvalues --    3.31473   3.33659   3.35187   3.36736   3.37171
 Alpha virt. eigenvalues --    3.38014   3.39072   3.40671   3.41547   3.42756
 Alpha virt. eigenvalues --    3.44468   3.45190   3.46238   3.48293   3.50255
 Alpha virt. eigenvalues --    3.52559   3.52713   3.53697   3.54486   3.55608
 Alpha virt. eigenvalues --    3.55900   3.56789   3.58374   3.59147   3.61107
 Alpha virt. eigenvalues --    3.62029   3.62515   3.62655   3.64476   3.65920
 Alpha virt. eigenvalues --    3.67059   3.69571   3.71027   3.71620   3.73641
 Alpha virt. eigenvalues --    3.74129   3.74520   3.75760   3.76372   3.77389
 Alpha virt. eigenvalues --    3.78524   3.79767   3.81108   3.81897   3.82912
 Alpha virt. eigenvalues --    3.83335   3.85255   3.86387   3.88021   3.90920
 Alpha virt. eigenvalues --    3.91727   3.92010   3.95583   3.97521   4.01253
 Alpha virt. eigenvalues --    4.02051   4.04384   4.06069   4.07493   4.10618
 Alpha virt. eigenvalues --    4.15122   4.18820   4.20078   4.23180   4.27220
 Alpha virt. eigenvalues --    4.28954   4.34492   4.35476   4.37111   4.39017
 Alpha virt. eigenvalues --    4.41452   4.41789   4.43029   4.43726   4.43980
 Alpha virt. eigenvalues --    4.44937   4.46615   4.47677   4.49705   4.50888
 Alpha virt. eigenvalues --    4.51734   4.52575   4.53649   4.55149   4.55808
 Alpha virt. eigenvalues --    4.56576   4.57289   4.57358   4.58790   4.58937
 Alpha virt. eigenvalues --    4.59182   4.60578   4.60700   4.61205   4.62521
 Alpha virt. eigenvalues --    4.63622   4.64017   4.64418   4.65157   4.65345
 Alpha virt. eigenvalues --    4.66006   4.67208   4.67580   4.67984   4.69323
 Alpha virt. eigenvalues --    4.69692   4.70067   4.71564   4.72767   4.73925
 Alpha virt. eigenvalues --    4.74268   4.74731   4.75413   4.76238   4.77678
 Alpha virt. eigenvalues --    4.78136   4.78631   4.79231   4.79923   4.80142
 Alpha virt. eigenvalues --    4.81377   4.81678   4.81984   4.83468   4.83884
 Alpha virt. eigenvalues --    4.85246   4.85558   4.86551   4.86990   4.87401
 Alpha virt. eigenvalues --    4.89484   4.90942   4.92357   4.93384   4.93792
 Alpha virt. eigenvalues --    4.94344   4.94898   4.95869   4.96905   4.97876
 Alpha virt. eigenvalues --    5.00002   5.00433   5.00784   5.02924   5.05951
 Alpha virt. eigenvalues --    5.06347   5.10678   5.12156   5.15965   5.16806
 Alpha virt. eigenvalues --    5.21193   5.22347   5.25648   5.28378   5.31910
 Alpha virt. eigenvalues --    5.34531   5.39228   5.40969   5.43731   5.46313
 Alpha virt. eigenvalues --    5.50450   5.50672   5.52434   5.53755   5.55428
 Alpha virt. eigenvalues --    5.56819   5.59488   5.64021   5.68873   5.74007
 Alpha virt. eigenvalues --    5.77238   5.81722   6.06182   6.43809   6.86910
 Alpha virt. eigenvalues --   11.05018  11.16489  11.35067  11.56744  11.65626
 Alpha virt. eigenvalues --   11.89976  11.91781  12.01197  12.15361  12.32139
 Alpha virt. eigenvalues --   12.32792  12.47498  12.51816  12.75609  12.85356
          Condensed to atoms (all electrons):
               1          2          3          4          5          6
     1  C    4.956896   0.403695  -0.036989   0.002507  -0.000181   0.000001
     2  C    0.403695   4.776463   0.430843  -0.035347   0.002190  -0.000173
     3  C   -0.036989   0.430843   4.770128   0.429518  -0.036785   0.002170
     4  C    0.002507  -0.035347   0.429518   4.809025   0.425611  -0.037256
     5  C   -0.000181   0.002190  -0.036785   0.425611   4.810871   0.423194
     6  C    0.000001  -0.000173   0.002170  -0.037256   0.423194   4.863024
     7  C   -0.000000   0.000001  -0.000144   0.001855  -0.031680   0.419479
     8  C    0.000000   0.000000   0.000011   0.000659  -0.005120  -0.034224
     9  C    0.000000  -0.000000   0.000001  -0.000151   0.001870  -0.034047
    10  C   -0.000000   0.000000  -0.000000   0.000001  -0.000148   0.001887
    11  C    0.000000  -0.000000   0.000000  -0.000000   0.000001  -0.000142
    12  C    0.000000   0.000000  -0.000000   0.000000  -0.000000   0.000001
    13  C    0.000000   0.000000   0.000000   0.000000   0.000000   0.000000
    14  C    0.000000   0.000000  -0.000000   0.000000  -0.000000  -0.000000
    15  C    0.000000  -0.000000   0.000000  -0.000000   0.000000  -0.000000
    16  H    0.369601  -0.022092   0.003489  -0.000189   0.000001  -0.000000
    17  H    0.379057  -0.029183  -0.004697   0.000201   0.000006   0.000000
    18  H    0.378830  -0.029042  -0.004546   0.000201   0.000007   0.000000
    19  H   -0.036056   0.370512  -0.033138  -0.002437   0.000197   0.000010
    20  H   -0.036180   0.370236  -0.032500  -0.002560   0.000227   0.000009
    21  H   -0.002628  -0.035926   0.364725  -0.031752  -0.003547   0.000230
    22  H   -0.002892  -0.036114   0.365722  -0.032788  -0.002009   0.000218
    23  H    0.000111  -0.003083  -0.031377   0.362164  -0.031832  -0.002277
    24  H    0.000109  -0.003369  -0.031839   0.362092  -0.030343  -0.002937
    25  H    0.000009   0.000206  -0.003679  -0.032746   0.364482  -0.031212
    26  H    0.000007   0.000128  -0.003179  -0.033534   0.362486  -0.032470
    27  H    0.000000   0.000010   0.000142  -0.002607  -0.032199   0.352931
    28  H    0.000000   0.000007   0.000162  -0.003551  -0.033864   0.355177
    29  H    0.000000   0.000000   0.000006   0.000138  -0.004547  -0.040452
    30  H    0.000000   0.000000   0.000001  -0.000046  -0.000332  -0.005274
    31  H    0.000000  -0.000000   0.000009  -0.000080  -0.000864  -0.004597
    32  H   -0.000000  -0.000000  -0.000000  -0.000009   0.000204   0.003986
    33  H    0.000000   0.000000   0.000000   0.000008   0.000224  -0.004221
    34  H    0.000000   0.000000   0.000000   0.000007   0.000151  -0.004644
    35  H    0.000000   0.000000   0.000000   0.000000   0.000008   0.000198
    36  H    0.000000   0.000000   0.000000   0.000000   0.000007   0.000199
    37  H    0.000000   0.000000   0.000000   0.000000   0.000000   0.000003
    38  H    0.000000   0.000000   0.000000   0.000000   0.000000   0.000011
    39  H    0.000000  -0.000000   0.000000  -0.000000   0.000000  -0.000000
    40  H    0.000000  -0.000000   0.000000  -0.000000   0.000000  -0.000000
    41  H    0.000000  -0.000000   0.000000  -0.000000   0.000000  -0.000000
    42  H    0.000000   0.000000   0.000000  -0.000000   0.000000  -0.000000
    43  H    0.000000   0.000000   0.000000  -0.000000   0.000000  -0.000000
    44  H    0.000000  -0.000000   0.000000  -0.000000   0.000000  -0.000000
    45  H    0.000000   0.000000  -0.000000   0.000000  -0.000000   0.000000
               7          8          9         10         11         12
     1  C   -0.000000   0.000000   0.000000  -0.000000   0.000000   0.000000
     2  C    0.000001   0.000000  -0.000000   0.000000  -0.000000   0.000000
     3  C   -0.000144   0.000011   0.000001  -0.000000   0.000000  -0.000000
     4  C    0.001855   0.000659  -0.000151   0.000001  -0.000000   0.000000
     5  C   -0.031680  -0.005120   0.001870  -0.000148   0.000001  -0.000000
     6  C    0.419479  -0.034224  -0.034047   0.001887  -0.000142   0.000001
     7  C    4.604889   0.403435   0.422606  -0.031648   0.001924  -0.000140
     8  C    0.403435   5.013423  -0.033234  -0.005943   0.000609   0.000023
     9  C    0.422606  -0.033234   4.865900   0.423825  -0.035006   0.002461
    10  C   -0.031648  -0.005943   0.423825   4.798030   0.421611  -0.038718
    11  C    0.001924   0.000609  -0.035006   0.421611   4.885805   0.422300
    12  C   -0.000140   0.000023   0.002461  -0.038718   0.422300   4.654795
    13  C    0.000025  -0.000041   0.000520  -0.012492  -0.029801   0.400292
    14  C   -0.000000   0.000000  -0.000026   0.000189   0.004405  -0.092988
    15  C    0.000001   0.000000  -0.000094   0.002602  -0.030094   0.390114
    16  H    0.000000  -0.000000  -0.000000   0.000000  -0.000000   0.000000
    17  H    0.000000  -0.000000   0.000000   0.000000   0.000000   0.000000
    18  H    0.000000   0.000000   0.000000   0.000000   0.000000   0.000000
    19  H    0.000000  -0.000000   0.000000   0.000000   0.000000   0.000000
    20  H    0.000000   0.000000   0.000000   0.000000   0.000000   0.000000
    21  H    0.000016  -0.000015   0.000000   0.000000   0.000000   0.000000
    22  H    0.000009   0.000000   0.000000   0.000000   0.000000   0.000000
    23  H    0.000086  -0.000005   0.000002   0.000000   0.000000   0.000000
    24  H    0.000239  -0.000014   0.000010   0.000000   0.000000   0.000000
    25  H   -0.005597  -0.000122   0.000147   0.000007   0.000000   0.000000
    26  H   -0.001716  -0.001107   0.000230   0.000008   0.000000   0.000000
    27  H   -0.025044   0.005380  -0.004165   0.000213   0.000007   0.000000
    28  H   -0.024899  -0.009056  -0.004700   0.000175   0.000006   0.000000
    29  H    0.359617  -0.052561  -0.041057  -0.004180   0.000092   0.000006
    30  H   -0.025565   0.370733  -0.005259  -0.000476  -0.000055   0.000001
    31  H   -0.023510   0.370965   0.003923   0.000315  -0.000008  -0.000000
    32  H   -0.023239   0.370654  -0.004326  -0.001391  -0.000110   0.000021
    33  H   -0.024494   0.005341   0.352108  -0.031989  -0.001973   0.000038
    34  H   -0.025234  -0.009013   0.353680  -0.031906  -0.004810   0.000237
    35  H   -0.006302   0.000563  -0.032622   0.367431  -0.033781  -0.007122
    36  H   -0.001190  -0.001036  -0.033391   0.364894  -0.035168  -0.000058
    37  H    0.000063  -0.000005  -0.002463  -0.030197   0.349092  -0.019083
    38  H    0.000274  -0.000027  -0.004527  -0.031791   0.361295  -0.026613
    39  H    0.000003  -0.000000  -0.000155   0.001438  -0.040120   0.357726
    40  H    0.000016  -0.000043  -0.000070  -0.002104  -0.005034  -0.024111
    41  H   -0.000001  -0.000000  -0.000001   0.000776   0.001933  -0.021515
    42  H    0.000000  -0.000000   0.000000   0.000030  -0.000511   0.007753
    43  H    0.000000  -0.000000   0.000000  -0.000007   0.000010   0.002054
    44  H    0.000001  -0.000000  -0.000031   0.000241  -0.009811  -0.025169
    45  H   -0.000000   0.000000   0.000002  -0.000005   0.002310  -0.023910
              13         14         15         16         17         18
     1  C    0.000000   0.000000   0.000000   0.369601   0.379057   0.378830
     2  C    0.000000   0.000000  -0.000000  -0.022092  -0.029183  -0.029042
     3  C    0.000000  -0.000000   0.000000   0.003489  -0.004697  -0.004546
     4  C    0.000000   0.000000  -0.000000  -0.000189   0.000201   0.000201
     5  C    0.000000  -0.000000   0.000000   0.000001   0.000006   0.000007
     6  C    0.000000  -0.000000  -0.000000  -0.000000   0.000000   0.000000
     7  C    0.000025  -0.000000   0.000001   0.000000   0.000000   0.000000
     8  C   -0.000041   0.000000   0.000000  -0.000000  -0.000000   0.000000
     9  C    0.000520  -0.000026  -0.000094  -0.000000   0.000000   0.000000
    10  C   -0.012492   0.000189   0.002602   0.000000   0.000000   0.000000
    11  C   -0.029801   0.004405  -0.030094  -0.000000   0.000000   0.000000
    12  C    0.400292  -0.092988   0.390114   0.000000   0.000000   0.000000
    13  C    4.956820   0.383491  -0.124463   0.000000   0.000000   0.000000
    14  C    0.383491   4.907145   0.375796   0.000000   0.000000   0.000000
    15  C   -0.124463   0.375796   4.958109   0.000000   0.000000   0.000000
    16  H    0.000000   0.000000   0.000000   0.614603  -0.032013  -0.032059
    17  H    0.000000   0.000000   0.000000  -0.032013   0.604251  -0.033738
    18  H    0.000000   0.000000   0.000000  -0.032059  -0.033738   0.604544
    19  H    0.000000   0.000000  -0.000000  -0.002477  -0.004515   0.005771
    20  H    0.000000   0.000000  -0.000000  -0.002335   0.005773  -0.004626
    21  H    0.000000   0.000000   0.000000  -0.000054  -0.000428   0.005162
    22  H    0.000000   0.000000  -0.000000  -0.000042   0.005236  -0.000426
    23  H   -0.000000   0.000000   0.000000   0.000004   0.000005   0.000009
    24  H    0.000000   0.000000  -0.000000   0.000004   0.000010   0.000004
    25  H    0.000000  -0.000000   0.000000   0.000000   0.000001  -0.000004
    26  H    0.000000   0.000000  -0.000000   0.000000  -0.000003   0.000001
    27  H    0.000000   0.000000  -0.000000   0.000000   0.000000  -0.000000
    28  H    0.000000   0.000000   0.000000   0.000000  -0.000000   0.000000
    29  H    0.000001   0.000000   0.000000   0.000000  -0.000000  -0.000000
    30  H   -0.000000  -0.000000   0.000000  -0.000000   0.000000  -0.000000
    31  H    0.000000   0.000000   0.000000  -0.000000  -0.000000   0.000000
    32  H   -0.000028   0.000001  -0.000000   0.000000   0.000000  -0.000000
    33  H    0.000007   0.000000   0.000001  -0.000000  -0.000000   0.000000
    34  H    0.000010   0.000002  -0.000007  -0.000000   0.000000  -0.000000
    35  H    0.004948  -0.000049   0.000393   0.000000  -0.000000  -0.000000
    36  H    0.000343   0.000106  -0.000127   0.000000   0.000000  -0.000000
    37  H    0.004303  -0.000289   0.003783  -0.000000   0.000000   0.000000
    38  H   -0.000376   0.000993  -0.018373  -0.000000   0.000000   0.000000
    39  H   -0.044241   0.007082  -0.034498   0.000000   0.000000   0.000000
    40  H    0.361874  -0.023115   0.001136   0.000000   0.000000   0.000000
    41  H    0.357418  -0.029477   0.011236   0.000000   0.000000   0.000000
    42  H   -0.027481   0.363395  -0.025435   0.000000   0.000000   0.000000
    43  H   -0.024972   0.368680  -0.024332   0.000000   0.000000   0.000000
    44  H   -0.000775  -0.024982   0.366555   0.000000   0.000000   0.000000
    45  H    0.012013  -0.025562   0.353996   0.000000   0.000000   0.000000
              19         20         21         22         23         24
     1  C   -0.036056  -0.036180  -0.002628  -0.002892   0.000111   0.000109
     2  C    0.370512   0.370236  -0.035926  -0.036114  -0.003083  -0.003369
     3  C   -0.033138  -0.032500   0.364725   0.365722  -0.031377  -0.031839
     4  C   -0.002437  -0.002560  -0.031752  -0.032788   0.362164   0.362092
     5  C    0.000197   0.000227  -0.003547  -0.002009  -0.031832  -0.030343
     6  C    0.000010   0.000009   0.000230   0.000218  -0.002277  -0.002937
     7  C    0.000000   0.000000   0.000016   0.000009   0.000086   0.000239
     8  C   -0.000000   0.000000  -0.000015   0.000000  -0.000005  -0.000014
     9  C    0.000000   0.000000   0.000000   0.000000   0.000002   0.000010
    10  C    0.000000   0.000000   0.000000   0.000000   0.000000   0.000000
    11  C    0.000000   0.000000   0.000000   0.000000   0.000000   0.000000
    12  C    0.000000   0.000000   0.000000   0.000000   0.000000   0.000000
    13  C    0.000000   0.000000   0.000000   0.000000  -0.000000   0.000000
    14  C    0.000000   0.000000   0.000000   0.000000   0.000000   0.000000
    15  C   -0.000000  -0.000000   0.000000  -0.000000   0.000000  -0.000000
    16  H   -0.002477  -0.002335  -0.000054  -0.000042   0.000004   0.000004
    17  H   -0.004515   0.005773  -0.000428   0.005236   0.000005   0.000010
    18  H    0.005771  -0.004626   0.005162  -0.000426   0.000009   0.000004
    19  H    0.648197  -0.041928   0.006363  -0.005625   0.004965  -0.000480
    20  H   -0.041928   0.648242  -0.005856   0.006333  -0.000455   0.005051
    21  H    0.006363  -0.005856   0.652393  -0.043393   0.006228  -0.005575
    22  H   -0.005625   0.006333  -0.043393   0.651955  -0.005495   0.006273
    23  H    0.004965  -0.000455   0.006228  -0.005495   0.651934  -0.043481
    24  H   -0.000480   0.005051  -0.005575   0.006273  -0.043481   0.650350
    25  H    0.000011   0.000003   0.006216  -0.000606   0.006491  -0.006056
    26  H    0.000006   0.000007  -0.000459   0.005179  -0.005838   0.006352
    27  H   -0.000003   0.000001   0.000007   0.000007   0.004932  -0.000426
    28  H    0.000001  -0.000003   0.000005   0.000009  -0.000501   0.005339
    29  H    0.000000  -0.000000   0.000001  -0.000003   0.000002   0.000011
    30  H    0.000000  -0.000000   0.000000  -0.000000   0.000001   0.000005
    31  H   -0.000000   0.000000  -0.000007   0.000003   0.000001   0.000028
    32  H    0.000000   0.000000   0.000000   0.000000   0.000000  -0.000000
    33  H    0.000000  -0.000000  -0.000000   0.000000  -0.000001   0.000001
    34  H   -0.000000   0.000000   0.000000  -0.000000   0.000001  -0.000002
    35  H    0.000000  -0.000000   0.000000  -0.000000  -0.000000  -0.000000
    36  H   -0.000000   0.000000   0.000000   0.000000   0.000000  -0.000000
    37  H    0.000000  -0.000000  -0.000000  -0.000000  -0.000000   0.000000
    38  H   -0.000000   0.000000   0.000000   0.000000   0.000000  -0.000000
    39  H    0.000000   0.000000   0.000000   0.000000  -0.000000   0.000000
[...]
 0195175,0.00182563,-0.01072118,-0.00899446,-0.02043202,-0.13944845,-0.
 06437391,-0.10626597,0.00451429,0.00101332,0.00808929,-0.00000342,-0.0
 0000355,0.00000050,-0.00000013,0.00000078,-0.00000063,-0.00000068,0.00
 000128,-0.00000003,-0.00000008,-0.00000069,0.00000005,-0.00000004,-0.0
 0000080,0.00000099,-0.00000145,0.00000069,0.00000018,-0.00000045,0.000
 00002,-0.00000025,0.00000005,-0.00000108,0.00000015,0.00000004,-0.0000
 0147,0.00000214,-0.00000248,0.00000186,-0.00000023,-0.00000042,-0.0000
 0005,-0.00000037,0.00000185,0.00000216,0.00000011,-0.00000117,-0.00000
 280,0.00000524,-0.00000175,0.00000417,0.00000122,0.00000371,-0.0000033
 5,0.00000739,-0.00002094,-0.00000056,0.00000719,0.00001729,-0.00002063
 ,-0.00000091,-0.00001296,-0.00000911,0.00001386,-0.00000305,-0.0000109
 9,0.00001861,0.00006330,0.00002113,-0.00006383,-0.00000804,-0.00001056
 ,-0.00000354,-0.00019466,-0.00049501,0.00022054,0.00003169,0.00000235,
 0.00008546,0.00010140,0.00007183,-0.00020105,0.00254130,0.00090745,0.0
 0015689,-0.00242545,-0.00133704,0.00019801,0.14575350,0.00000196,-0.00
 000397,0.00000183,-0.00000480,0.00000575,-0.00000388,0.00000654,-0.000
 00951,0.00000465,-0.00001286,0.00000998,-0.00000879,0.00001049,-0.0000
 2336,0.00001413,-0.00004773,0.00002359,-0.00001742,0.00003631,-0.00007
 856,0.00005980,-0.00001613,-0.00000867,-0.00001678,-0.00021473,0.00011
 928,-0.00005448,-0.00001376,-0.00048335,0.00032514,-0.00138228,0.00052
 179,-0.00096451,-0.00174190,-0.00528398,0.00080893,-0.00107623,-0.0024
 9569,0.00136107,-0.06414735,-0.09623413,-0.07900177,-0.01612392,-0.007
 22619,-0.01845993,-0.00000325,-0.00000335,0.00000041,-0.00000007,0.000
 00072,-0.00000082,-0.00000071,0.00000123,0.00000007,-0.00000010,-0.000
 00048,0.00000012,-0.00000002,-0.00000073,0.00000091,-0.00000161,0.0000
 0075,0.00000036,-0.00000038,-0.00000006,-0.00000048,0.00000009,-0.0000
 0054,0.00000012,0.00000006,-0.00000125,0.00000212,-0.00000380,0.000002
 32,0.00000081,-0.00000022,-0.00000028,-0.00000119,0.00000244,0.0000047
 7,-0.00000063,-0.00000079,-0.00000227,0.00000575,-0.00000068,0.0000035
 2,-0.00000166,0.00000288,-0.00000076,0.00000708,-0.00002042,0.00000372
 ,0.00000795,0.00001425,-0.00001325,-0.00000157,0.00000662,0.00000676,-
 0.00000636,0.00000050,-0.00000652,0.00002045,-0.00003954,0.00002613,0.
 00002431,0.00001835,-0.00001117,-0.00001201,0.00011268,0.00001880,-0.0
 0006738,0.00004996,0.00004959,0.00012218,-0.00018949,0.00000995,-0.000
 28536,-0.00049067,0.00079077,0.00015969,0.00051416,-0.00011734,-0.0001
 0235,0.07481966,0.10250998,0.00000122,-0.00000189,0.00000068,-0.000002
 09,0.00000328,-0.00000206,0.00000351,-0.00000443,0.00000178,-0.0000048
 8,0.00000464,-0.00000376,0.00000467,-0.00000849,0.00000460,-0.00001623
 ,0.00000867,-0.00000541,0.00001893,-0.00002377,0.00000827,-0.00000604,
 -0.00000265,-0.00000353,-0.00005762,0.00004617,-0.00001738,-0.00000889
 ,-0.00011847,0.00004611,0.00005509,0.00079626,0.00030199,0.00133494,0.
 00013381,0.00080898,0.00633549,0.00502795,0.00792900,-0.10667758,-0.07
 958734,-0.17433711,-0.00068869,0.00205619,-0.00253247,-0.00000187,-0.0
 0000211,0.00000035,0.,0.00000040,-0.00000026,-0.00000042,0.00000074,0.
 00000001,-0.00000017,-0.00000018,0.00000008,-0.00000003,-0.00000040,0.
 00000058,-0.00000088,0.00000041,0.00000023,-0.00000017,-0.00000005,-0.
 00000005,-0.00000020,-0.00000002,0.00000020,0.00000006,-0.00000066,0.0
 0000091,-0.00000165,0.00000105,0.00000045,-0.00000010,-0.00000014,-0.0
 0000009,0.00000060,0.00000211,-0.00000009,-0.00000020,-0.00000117,0.00
 000194,-0.00000189,0.00000139,0.00000028,0.00000248,0.00000033,0.00000
 208,-0.00000921,0.00000103,0.00000173,0.00000519,-0.00000657,-0.000000
 58,0.00000697,-0.00000054,-0.00000489,0.00000240,0.00000027,0.00000046
 ,-0.00002185,-0.00000538,0.00002313,-0.00000631,0.00000761,-0.00000654
 ,0.00005639,0.00011178,-0.00007195,-0.00007433,-0.00010349,0.00001143,
 0.00032708,0.00041411,0.00018024,-0.00074814,-0.00047820,0.00123925,0.
 00078492,0.00012909,0.00006469,0.11592515,0.08456575,0.18367183,0.0000
 0067,-0.00000114,0.00000075,-0.00000136,0.00000163,-0.00000074,0.00000
 185,-0.00000233,0.00000175,-0.00000255,0.00000283,-0.00000189,0.000002
 61,-0.00000254,0.00000445,-0.00000265,0.00000358,-0.00000345,0.0000126
 0,0.00000686,0.00000526,-0.00000496,0.00000510,-0.00000161,0.00005179,
 -0.00002336,-0.00002755,-0.00000846,0.00011873,0.00004919,0.00007583,-
 0.00025520,-0.00013107,-0.00061203,0.00110070,0.00019677,-0.00213726,-
 0.01535617,0.02854016,-0.04599058,-0.00909680,0.00807760,-0.00081445,0
 .00584611,-0.00920873,-0.00000088,-0.00000073,0.00000006,-0.00000021,0
 .00000017,-0.00000050,-0.00000011,0.00000028,0.00000006,0.00000009,-0.
 00000034,-0.00000005,-0.00000008,-0.00000003,-0.00000011,-0.00000014,0
 .00000008,0.00000008,-0.00000038,-0.00000006,-0.00000062,0.00000026,-0
 .00000099,-0.00000020,-0.00000005,0.00000003,0.00000014,0.00000034,0.0
 0000015,-0.00000035,-0.00000074,-0.00000027,-0.00000130,0.00000034,-0.
 00000103,-0.00000046,-0.00000060,0.00000086,-0.00000026,-0.00000278,-0
 .00000206,-0.00000477,0.00000345,0.00000447,-0.00000620,-0.00000814,-0
 .00000394,-0.00000032,0.00001023,-0.00000772,0.00000799,-0.00001469,-0
 .00002301,0.00000482,-0.00000377,0.00001276,-0.00000398,0.00012860,-0.
 00003427,-0.00000184,-0.00000289,-0.00004455,-0.00003202,-0.00004903,-
 0.00015308,-0.00008455,-0.00010155,0.00008357,-0.00013148,0.00001410,-
 0.00051533,-0.00033640,-0.00532604,-0.00285294,0.00102165,0.00249055,0
 .00124190,-0.00026301,0.00143213,0.01004424,-0.01644415,0.05002790,0.0
 0000146,-0.00000161,0.00000125,-0.00000221,0.00000280,-0.00000148,0.00
 000361,-0.00000433,0.00000275,-0.00000518,0.00000404,-0.00000313,0.000
 00510,-0.00000800,0.00000658,-0.00001469,0.00000771,-0.00000449,0.0000
 1369,-0.00001929,0.00002050,-0.00000752,-0.00000221,-0.00000551,-0.000
 03055,0.00003630,-0.00001057,-0.00002664,-0.00005127,0.00001390,-0.000
 48889,-0.00005235,-0.00017744,0.00111287,0.00007220,-0.00020176,0.0004
 9611,0.00019734,-0.00108966,-0.00924382,-0.11333808,0.11406190,0.00004
 303,-0.01602292,0.02683059,-0.00000163,-0.00000151,0.00000021,-0.00000
 046,0.00000035,-0.00000077,-0.00000028,0.00000042,-0.00000002,0.000000
 11,-0.00000032,0.00000018,-0.00000009,-0.00000012,-0.00000025,-0.00000
 076,0.00000028,0.00000025,-0.00000077,0.,-0.00000100,0.00000020,-0.000
 00036,0.00000050,0.00000022,-0.00000015,-0.00000029,-0.00000170,0.0000
 0091,0.00000024,-0.00000128,-0.00000011,-0.00000174,0.00000120,0.00000
 200,0.00000088,-0.00000006,-0.00000070,-0.00000030,-0.00000316,0.00000
 118,-0.00000354,0.00000163,0.00000007,0.00000040,-0.00001006,0.0000003
 7,0.00000318,0.00000681,-0.00000646,0.00000057,0.00000172,-0.00000087,
 0.00000289,0.00000228,-0.00000333,0.00000003,-0.00003296,0.00000974,-0
 .00000205,-0.00003507,-0.00000555,-0.00002045,0.00009253,0.00004744,0.
 00002768,0.00004327,0.00006371,-0.00023654,-0.00068502,-0.00022116,-0.
 00031791,0.00067708,0.00008431,-0.00067756,-0.00047976,0.00086980,0.00
 005239,0.00087799,0.00779442,-0.01237947,0.00823865,0.12352785,-0.0000
 0199,0.00000225,-0.00000155,0.00000279,-0.00000409,0.00000174,-0.00000
 489,0.00000549,-0.00000343,0.00000594,-0.00000559,0.00000354,-0.000006
 19,0.00000820,-0.00000771,0.00001246,-0.00000906,0.00000483,-0.0000202
 5,0.00000989,-0.00001444,0.00000813,-0.00000117,0.00000289,0.00000665,
 -0.00001076,0.00002505,-0.00002848,-0.00002000,-0.00007537,0.00006307,
 0.00010594,0.00023277,0.00017777,-0.00023218,-0.00056412,0.00075659,0.
 00345050,-0.00882484,0.00829950,0.11435882,-0.24306137,-0.00086263,-0.
 00385294,0.00607692,0.00000228,0.00000211,-0.00000037,0.00000058,-0.00
 000045,0.00000111,0.00000033,-0.00000061,-0.00000006,-0.00000011,0.000
 00059,-0.00000008,0.00000026,0.00000010,0.00000036,0.00000076,-0.00000
 030,-0.00000039,0.00000093,0.00000004,0.00000133,-0.00000025,0.0000009
 6,-0.00000020,-0.00000008,0.00000008,0.00000025,0.00000099,-0.00000087
 ,-0.00000017,0.00000147,0.00000021,0.00000216,-0.00000115,-0.00000057,
 -0.00000003,0.00000058,-0.00000003,0.00000056,0.00000447,0.00000026,0.
 00000607,-0.00000413,-0.00000384,0.00000439,0.00001428,0.00000208,-0.0
 0000156,-0.00001155,0.00001040,-0.00000551,0.00000555,0.00001255,-0.00
 000268,-0.00000014,-0.00000595,0.00000363,-0.00005527,0.00001364,0.000
 00765,0.00001483,0.00002205,0.00002647,0.00002862,0.00009787,0.0000259
 9,-0.00007091,-0.00016082,-0.00000119,-0.00000420,0.00013996,0.0002562
 3,0.00211687,0.00053453,0.00081549,-0.00021400,-0.00045788,0.00118502,
 0.00138308,0.01154767,-0.01859634,-0.01172435,-0.12467963,0.26022638,-
 0.00000082,0.00000079,-0.00000053,0.00000101,-0.00000102,0.00000056,-0
 .00000201,0.00000203,-0.00000153,0.00000314,-0.00000102,0.00000085,-0.
 00000357,0.00000551,-0.00000482,0.00001305,-0.00000496,-0.00000088,0.0
 0000460,0.00003397,-0.00001796,0.00000562,0.00001161,-0.00000181,0.000
 08037,-0.00004956,0.00008398,0.00000415,0.00015196,0.00015803,0.002865
 93,0.00088986,-0.00174303,-0.01221763,0.01289433,-0.02715874,0.0000867
 5,-0.00095122,0.00006452,0.00062238,-0.00211448,0.00271126,-0.07964605
 ,0.04400627,-0.07409053,0.00000072,0.00000049,-0.00000001,0.00000035,-
 0.00000005,0.00000039,0.00000026,-0.00000023,-0.00000011,0.00000002,-0
 .00000002,-0.00000024,0.,-0.00000008,0.00000045,0.00000050,-0.00000017
 ,-0.00000033,0.00000075,0.00000011,0.00000104,-0.00000012,-0.00000021,
 -0.00000056,-0.00000025,-0.00000047,0.00000125,0.00000144,-0.00000057,
 -0.00000061,0.00000155,0.00000015,0.00000234,-0.00000113,-0.00000184,-
 0.00000101,-0.00000079,0.00000010,0.00000266,0.00000773,0.00000249,0.0
 0000469,-0.00000212,-0.00000244,0.00000390,0.00000568,-0.00000135,-0.0
 0000041,-0.00000407,-0.00000095,-0.00000166,-0.00000893,-0.00000965,0.
 00000337,-0.00002944,-0.00003922,0.00003636,0.00006074,-0.00000859,-0.
 00004969,0.00028008,0.00000622,0.00019108,-0.00006700,-0.00044916,0.00
 002623,-0.00017498,-0.00040190,0.00110820,-0.00581338,0.00094490,0.000
 43743,-0.00018251,0.00046973,0.00043089,0.00003622,0.00001031,0.000497
 43,0.00078890,0.00058205,0.00012828,0.00009582,-0.00127102,0.00000634,
 0.08643601,-0.00000004,0.00000077,-0.00000033,0.00000114,-0.00000118,0
 .00000133,-0.00000110,0.00000199,-0.00000114,0.00000328,-0.00000255,0.
 00000274,-0.00000177,0.00000657,-0.00000477,0.00001437,-0.00000523,0.0
 0000786,-0.00000142,0.00002461,-0.00002431,0.00000535,-0.00000063,0.00
 000838,0.00009363,-0.00002353,0.00007699,-0.00001448,0.00007842,-0.000
 25012,0.00025797,0.00073695,-0.00026473,-0.00378474,0.00343551,-0.0078
 6317,-0.00079944,-0.00040212,-0.00014497,0.01036183,-0.01555790,0.0275
 6564,0.04390581,-0.09586996,0.09428019,0.00000062,0.00000086,-0.000000
 09,-0.00000021,-0.00000019,-0.00000003,0.00000007,-0.00000024,0.000000
 10,0.,0.00000016,-0.00000001,-0.00000009,0.00000026,-0.00000063,0.0000
 0016,-0.00000003,0.00000022,-0.00000008,-0.00000009,-0.00000025,0.,0.0
 0000029,-0.00000007,0.00000003,0.00000048,-0.00000086,0.00000059,-0.00
 000057,0.00000030,-0.00000021,-0.00000015,0.,-0.00000077,-0.00000071,-
 0.00000013,0.00000007,0.00000036,-0.00000245,0.00000138,0.00000033,0.0
 0000044,-0.00000038,0.00000106,-0.00000322,0.00000428,-0.00000116,-0.0
 0000298,-0.00000252,0.00000403,-0.00000072,-0.00000765,-0.00000616,-0.
 00000141,-0.00000750,-0.00001276,0.00000193,0.00001959,-0.00000761,0.0
 0000195,-0.00001651,-0.00001965,0.00009622,0.00013367,0.00008239,-0.00
 017783,0.00023885,0.00022859,0.00002347,-0.00226491,-0.00010372,-0.000
 29427,0.00059312,0.00011580,-0.00029687,0.00013643,0.00012783,-0.00041
 410,-0.00117157,0.00252215,0.00016571,0.00258289,-0.00554863,-0.001523
 83,-0.04681580,0.10562784,-0.00000037,-0.00000071,-0.00000001,-0.00000
 131,0.00000162,-0.00000130,0.00000017,-0.00000183,0.00000021,-0.000003
 20,0.00000426,-0.00000239,0.00000025,-0.00000575,0.00000149,-0.0000120
 0,0.00000701,-0.00000702,0.00000563,-0.00001867,0.00000011,0.00000298,
 0.00000518,-0.00000467,-0.00005889,0.00002700,0.00001024,0.00004343,-0
 .00012289,0.00031248,0.00117288,0.00048512,0.00082499,-0.00202409,0.00
 036448,-0.00400768,-0.00017402,-0.00002431,-0.00047853,0.00263843,-0.0
 0264434,0.00441237,-0.07378237,0.09451413,-0.22299097,-0.00000063,-0.0
 0000102,0.00000015,0.00000051,0.00000029,0.00000048,0.00000023,0.00000
 015,-0.00000025,0.00000015,-0.00000056,-0.00000058,0.00000005,-0.00000
 036,0.00000143,0.00000062,-0.00000037,-0.00000053,0.00000069,0.0000001
 4,0.00000131,0.00000013,-0.00000150,-0.00000131,-0.00000039,-0.0000008
 5,0.00000249,0.00000151,-0.00000014,-0.00000064,0.00000148,0.00000018,
 0.00000216,0.00000012,-0.00000271,-0.00000310,-0.00000101,0.00000010,0
 .00000508,0.00000178,0.00000035,0.00000376,0.00000049,-0.00000053,0.00
 000379,-0.00000180,-0.00000029,0.00000038,0.00000065,-0.00000592,0.000
 00029,-0.00000350,-0.00001423,-0.00000995,-0.00001235,-0.00000436,0.00
 001289,0.00005210,-0.00000913,-0.00001502,0.00019406,0.00004872,-0.000
 01713,-0.00015851,-0.00013632,-0.00007298,-0.00040086,-0.00053774,0.00
 056240,-0.00096108,0.00000405,0.00117930,0.00004772,0.00003999,0.00019
 392,-0.00022516,0.00017769,0.00004785,-0.00009433,0.00043007,0.0012533
 8,0.00051672,-0.00111579,0.00102381,0.08308240,-0.10324787,0.23830767,
 0.00000221,-0.00000448,0.00000265,-0.00000676,0.00000739,-0.00000400,0
 .00000720,-0.00001164,0.00000706,-0.00001808,0.00001480,-0.00000856,0.
 00001189,-0.00003023,0.00002204,-0.00006754,0.00003419,-0.00001868,0.0
 0003756,-0.00012062,0.00008235,-0.00000915,0.00000141,-0.00001953,-0.0
 0030754,0.00012908,-0.00015703,-0.00006627,-0.00088458,0.00030383,-0.0
 0192882,0.00193463,-0.00023313,-0.00828529,0.00778952,0.02308781,-0.00
 465776,0.00234357,-0.00069568,-0.00121409,0.00096989,-0.00303598,-0.11
 993193,0.03558499,0.11091293,-0.00000379,-0.00000359,0.00000038,-0.000
 00054,0.00000104,-0.00000092,-0.00000010,0.00000082,-0.00000043,0.0000
 0066,-0.00000179,-0.00000037,-0.00000004,-0.00000060,0.00000073,0.0000
 0004,-0.00000035,-0.00000055,-0.00000139,0.00000035,-0.00000117,0.0000
 0135,-0.00000423,-0.00000086,-0.00000003,-0.00000088,0.00000125,-0.000
 00039,0.00000122,-0.00000123,-0.00000214,0.00000066,-0.00000293,0.0000
 0417,-0.00000265,-0.00000274,-0.00000132,-0.00000175,0.00000415,-0.000
 00220,0.00000369,-0.00000818,0.00000422,0.00000071,0.00000298,-0.00002
 323,0.00000074,0.00000728,0.00001707,-0.00002076,0.00000314,-0.0000007
 4,-0.00004146,-0.00000330,0.00000388,0.00000573,0.00001647,0.00016248,
 -0.00000827,-0.00002276,-0.00004307,0.00000368,-0.00006326,0.00008392,
 -0.00054536,-0.00002216,0.00000729,-0.00002394,0.00003218,0.00236700,-
 0.00046046,-0.00046898,-0.00002670,0.00008571,0.00031871,-0.00029089,0
 .00137496,0.00105098,-0.00007577,-0.00068978,-0.00021975,0.00073723,0.
 00072404,0.00009543,0.00675106,-0.00346390,-0.00984930,0.12676632,0.00
 000013,-0.00000057,-0.00000002,-0.00000076,0.00000022,0.00000020,0.000
 00061,-0.00000185,0.00000025,-0.00000374,0.00000112,-0.00000068,0.0000
 0209,-0.00000781,0.00000278,-0.00002215,0.00000817,-0.00000045,0.00000
 211,-0.00004818,0.00002019,-0.00000463,-0.00001082,0.00000068,-0.00013
 704,0.00005588,-0.00004863,-0.00014027,-0.00048951,-0.00016121,-0.0009
 8459,0.00047691,0.00025776,0.00001244,-0.00074858,0.00761976,0.0024875
 1,-0.00332145,0.00008262,0.01302822,-0.00226837,-0.02307947,0.03538487
 ,-0.06963938,-0.05973301,-0.00000014,0.00000013,-0.00000002,-0.0000000
 3,-0.00000004,-0.00000009,-0.00000013,0.00000010,0.00000014,-0.0000000
 4,0.00000008,-0.00000001,0.00000002,-0.00000004,-0.00000016,-0.0000004
 2,0.00000034,0.00000029,0.,-0.00000006,-0.00000017,0.00000016,0.000000
 33,-0.00000014,0.00000019,-0.00000011,0.00000014,-0.00000172,0.0000004
 7,0.00000086,-0.00000001,-0.00000010,-0.00000046,0.00000085,0.00000239
 ,-0.00000062,0.00000057,-0.00000122,0.00000090,0.00000013,0.00000095,0
 .00000058,-0.00000012,-0.00000050,0.00000223,-0.00000238,0.00000326,0.
 00000192,0.00000074,0.00000265,-0.00000423,0.00000341,0.00000470,-0.00
 000610,0.00000940,0.00000392,-0.00000121,0.00001735,-0.00000464,0.0000
 4321,-0.00007611,-0.00000381,-0.00001797,0.00002518,-0.00007359,-0.000
 13429,0.00003604,0.00014586,-0.00025081,0.00094054,0.00074358,-0.00000
 689,0.00021634,0.00004867,-0.00029843,0.00151973,0.00041510,-0.0005626
 7,0.00118177,-0.00242059,-0.00075333,-0.00091768,0.00256610,0.00064442
 ,-0.00788692,0.00456748,0.01178766,-0.04469153,0.06999282,-0.00000097,
 0.00000205,-0.00000125,0.00000310,-0.00000416,0.00000208,-0.00000340,0
 .00000455,-0.00000306,0.00000659,-0.00000784,0.00000263,-0.00000505,0.
 00000891,-0.00000681,0.00001266,-0.00001357,0.00000115,-0.00001552,0.0
 0001266,-0.00000848,0.00000127,-0.00000266,0.00000351,0.00000018,-0.00
 005102,-0.00000853,-0.00004391,0.00003818,0.00015502,0.00019147,0.0001
 5244,-0.00019055,-0.00418025,0.00129396,0.00397847,-0.00002726,-0.0003
 9936,0.00148031,-0.00064401,0.00214961,-0.00124074,0.11112215,-0.06008
 620,-0.21961969,0.00000201,0.00000220,-0.00000030,0.00000019,-0.000000
 67,0.00000035,-0.00000013,-0.00000036,0.00000036,-0.00000042,0.0000011
 8,0.00000035,0.,0.00000034,-0.00000062,-0.00000063,0.00000072,0.000000
 59,0.00000080,-0.00000030,0.00000034,-0.00000069,0.00000291,0.00000077
 ,0.00000016,0.00000039,-0.00000033,-0.00000139,0.,0.00000105,0.0000014
 5,-0.00000060,0.00000102,-0.00000190,0.00000364,0.00000168,0.00000090,
 0.00000071,-0.00000025,0.00000189,-0.00000182,0.00000138,-0.00000330,-
 0.00000117,0.00000096,0.00001044,0.00000108,-0.00000064,-0.00000738,0.
 00001212,-0.00000212,0.00000193,0.00002011,0.00000320,-0.00000225,0.00
 000591,0.00000101,-0.00003457,-0.00000146,0.00000641,0.00007252,-0.000
 00067,-0.00000844,0.00015772,0.00013172,-0.00003384,-0.00012043,-0.000
 12465,0.00026033,0.00057571,-0.00006033,0.00116734,-0.00041022,0.00030
 307,0.00019619,-0.00002486,0.00028573,0.00002712,0.00040128,-0.0004640
 0,0.00002787,-0.00001553,-0.00009550,0.00122677,0.01409054,-0.00771232
 ,-0.02055037,-0.12111087,0.06459448,0.23312775\\0.00000070,-0.00000023
 ,0.00000039,-0.00000098,0.00000068,-0.00000027,0.00000195,-0.00000093,
 0.00000094,-0.00000204,0.00000103,-0.00000090,0.00000117,-0.00000110,0
 .00000069,-0.00000104,0.00000059,-0.00000003,0.00000155,-0.00000194,-0
 .00000079,0.00000058,-0.00000007,0.00000041,-0.00000136,0.00000031,0.0
 0000008,-0.00000069,-0.00000017,0.00000023,-0.00000010,0.00000025,0.00
 000119,0.00000206,0.00000029,-0.00000183,-0.00000071,-0.00000064,0.000
 00219,0.00000037,0.00000078,-0.00000309,-0.00000124,-0.00000070,0.0000
 0298,-0.00000013,-0.00000004,0.00000019,-0.00000016,-0.00000011,0.0000
 0009,-0.00000015,-0.00000002,0.00000010,0.00000025,-0.00000023,0.00000
 022,0.00000016,-0.00000007,0.00000031,-0.00000030,0.00000026,-0.000000
 02,-0.00000036,0.00000008,-0.00000014,0.00000040,-0.00000037,0.0000001
 4,0.00000033,-0.00000014,0.00000038,-0.00000007,-0.00000005,0.00000018
 ,-0.00000036,0.00000040,-0.00000023,0.00000008,-0.00000024,0.00000025,
 0.00000007,0.00000006,0.00000007,-0.00000028,0.00000039,0.00000034,-0.
 00000004,-0.00000019,-0.00000039,-0.00000012,0.00000069,-0.00000032,0.
 00000030,0.00000089,-0.00000009,0.00000037,-0.00000021,0.00000018,0.00
 000015,0.00000043,-0.00000032,-0.00000034,0.00000041,-0.00000014,0.000
 00014,-0.00000046,-0.00000006,-0.00000013,-0.00000016,-0.00000042,0.00
 000001,0.00000015,-0.00000003,-0.00000019,-0.00000026,-0.00000020,-0.0
 0000094,0.00000036,-0.00000043,-0.00000023,0.00000031,-0.00000042,-0.0
 0000022,-0.00000037,0.00000010,0.00000044,0.00000037,0.00000051,0.0000
 0083,-0.00000007,-0.00000112,0.00000025,0.00000005,-0.00000089\\\@


     "IF I COULD JUST GET IT ON PAPER"
 LIFE AND INK, THEY RUN OUT AT THE SAME TIME,
 OR SO SAID MY OLD FRIEND THE SQUID.
     -- JIMMY BUFFETT, 1981
 Job cpu time:       0 days 12 hours 23 minutes 11.3 seconds.
 Elapsed time:       0 days  3 hours  7 minutes 13.9 seconds.
 File lengths (MBytes):  RWF=    985 Int=      0 D2E=      0 Chk=     28 Scr=      1
 Normal termination of Gaussian 16 at Tue May 23 11:31:56 2023.
### All Done ###
