### Starting Gaussian ###
 Entering Gaussian System, Link 0=g16
 Initial command:
 /cluster/software/gaussian/gaussian-16-A.03/avx2/g16/l1.exe "/local/scratch/yxie/Gau-20606.inp" -scrdir="/local/scratch/yxie/"
 Entering Link 1 = /cluster/software/gaussian/gaussian-16-A.03/avx2/g16/l1.exe PID=     20607.
  
 Copyright (c) 1988,1990,1992,1993,1995,1998,2003,2009,2016,
            Gaussian, Inc.  All Rights Reserved.
  
 This is part of the Gaussian(R) 16 program.  It is based on
 the Gaussian(R) 09 system (copyright 2009, Gaussian, Inc.),
 the Gaussian(R) 03 system (copyright 2003, Gaussian, Inc.),
 the Gaussian(R) 98 system (copyright 1998, Gaussian, Inc.),
 the Gaussian(R) 94 system (copyright 1995, Gaussian, Inc.),
 the Gaussian 92(TM) system (copyright 1992, Gaussian, Inc.),
 the Gaussian 90(TM) system (copyright 1990, Gaussian, Inc.),
 the Gaussian 88(TM) system (copyright 1988, Gaussian, Inc.),
 the Gaussian 86(TM) system (copyright 1986, Carnegie Mellon
 University), and the Gaussian 82(TM) system (copyright 1983,
 Carnegie Mellon University). Gaussian is a federally registered
 trademark of Gaussian, Inc.
  
 This software contains proprietary and confidential information,
 including trade secrets, belonging to Gaussian, Inc.
  
 This software is provided under written license and may be
 used, copied, transmitted, or stored only in accord with that
 written license.
  
 The following legend is applicable only to US Government
 contracts under FAR:
  
                    RESTRICTED RIGHTS LEGEND
  
 Use, reproduction and disclosure by the US Government is
 subject to restrictions as set forth in subparagraphs (a)
 and (c) of the Commercial Computer Software - Restricted
 Rights clause in FAR 52.227-19.
  
 Gaussian, Inc.
 340 Quinnipiac St., Bldg. 40, Wallingford CT 06492
  
  
 ---------------------------------------------------------------
 Warning -- This program may not be used in any manner that
 competes with the business of Gaussian, Inc. or will provide
 assistance to any competitor of Gaussian, Inc.  The licensee
 of this program is prohibited from giving any competitor of
 Gaussian, Inc. access to this program.  By using this program,
 the user acknowledges that Gaussian, Inc. is engaged in the
 business of creating and licensing software in the field of
 computational chemistry and represents and warrants to the
 licensee that it is not a competitor of Gaussian, Inc. and that
 it will not use this program in any manner prohibited above.
 ---------------------------------------------------------------
  

 Cite this work as:
 Gaussian 16, Revision A.03,
 M. J. Frisch, G. W. Trucks, H. B. Schlegel, G. E. Scuseria, 
 M. A. Robb, J. R. Cheeseman, G. Scalmani, V. Barone, 
 G. A. Petersson, H. Nakatsuji, X. Li, M. Caricato, A. V. Marenich, 
 J. Bloino, B. G. Janesko, R. Gomperts, B. Mennucci, H. P. Hratchian, 
 J. V. Ortiz, A. F. Izmaylov, J. L. Sonnenberg, D. Williams-Young, 
 F. Ding, F. Lipparini, F. Egidi, J. Goings, B. Peng, A. Petrone, 
 T. Henderson, D. Ranasinghe, V. G. Zakrzewski, J. Gao, N. Rega, 
 G. Zheng, W. Liang, M. Hada, M. Ehara, K. Toyota, R. Fukuda, 
 J. Hasegawa, M. Ishida, T. Nakajima, Y. Honda, O. Kitao, H. Nakai, 
 T. Vreven, K. Throssell, J. A. Montgomery, Jr., J. E. Peralta, 
 F. Ogliaro, M. J. Bearpark, J. J. Heyd, E. N. Brothers, K. N. Kudin, 
 V. N. Staroverov, T. A. Keith, R. Kobayashi, J. Normand, 
 K. Raghavachari, A. P. Rendell, J. C. Burant, S. S. Iyengar, 
 J. Tomasi, M. Cossi, J. M. Millam, M. Klene, C. Adamo, R. Cammi, 
 J. W. Ochterski, R. L. Martin, K. Morokuma, O. Farkas, 
 J. B. Foresman, and D. J. Fox, Gaussian, Inc., Wallingford CT, 2016.
 
 ******************************************
 Gaussian 16:  ES64L-G16RevA.03 25-Dec-2016
                23-May-2023 
 ******************************************
 %chk=CCCCCCCCCCCCCCCCCCCC.chk
 %NProcShared=20
 Will use up to   20 processors via shared memory.
 -----------------------------
 # opt freq b3lyp/6-31g(2df,p)
 -----------------------------
 1/18=20,19=15,26=3,38=1/1,3;
 2/9=110,12=2,17=6,18=5,40=1/2;
 3/5=1,6=6,7=104,11=2,25=1,30=1,71=1,74=-5/1,2,3;
 4//1;
 5/5=2,38=5/2;
 6/7=2,8=2,9=2,10=2,28=1/1;
 7//1,2,3,16;
 1/18=20,19=15,26=3/3(2);
 2/9=110/2;
 99//99;
 2/9=110/2;
 3/5=1,6=6,7=104,11=2,25=1,30=1,71=1,74=-5/1,2,3;
 4/5=5,16=3,69=1/1;
 5/5=2,38=5/2;
 7//1,2,3,16;
 1/18=20,19=15,26=3/3(-5);
 2/9=110/2;
 6/7=2,8=2,9=2,10=2,19=2,28=1/1;
 99/9=1/99;
 -------------------
 Title Card Required
 -------------------
 Symbolic Z-matrix:
 Charge =  0 Multiplicity = 1
 C                     0.90708  -0.10342   0.02371 
 C                     2.4247   -0.09825   0.01427 
 C                     2.95403   0.58792  -1.2393 
 C                     4.47684   0.59364  -1.24977 
 C                     4.99382   1.28103  -2.50558 
 C                     6.51438   1.28599  -2.51463 
 C                     7.02713   1.97303  -3.76981 
 C                     8.5465    1.97624  -3.77566 
 C                     9.05788   2.66299  -5.03032 
 C                     10.57668   2.66536  -5.03464 
 C                     11.08755   3.35206  -6.2892 
 C                     12.60635   3.35443  -6.29352 
 C                     13.11773   4.04119  -7.54818 
 C                     14.6371   4.04439  -7.55403 
 C                     15.14985   4.73143  -8.80921 
 C                     16.67041   4.73639  -8.81827 
 C                     17.18739   5.42378  -10.07407 
 C                     18.7102   5.42951  -10.08454 
 C                     19.23953   6.11567  -11.33811 
 C                     20.75715   6.12084  -11.34755 
 H                     0.53585  -0.59736   0.92611 
 H                     0.51467  -0.63809  -0.84705 
 H                     0.51467   0.91822   0.00482 
 H                     2.79417  -1.12917   0.05921 
 H                     2.79417   0.41948   0.90689 
 H                     2.5822    1.61868  -1.28455 
 H                     2.5822    0.07053  -2.13196 
 H                     4.85468  -0.43494  -1.20928 
 H                     4.85469   1.11386  -0.36152 
 H                     4.61983   2.31093  -2.54875 
 H                     4.61983   0.76237  -3.39638 
 H                     6.89161   0.25733  -2.47397 
 H                     6.89161   1.8061   -1.62622 
 H                     6.65267   3.00259  -3.81217 
 H                     6.65267   1.45386  -4.65989 
 H                     8.9226    0.9473   -3.73447 
 H                     8.9226    2.49605  -2.88673 
 H                     8.68306   3.69232  -5.07219 
 H                     8.68306   2.14354  -5.91994 
 H                     10.95202   1.63623  -4.99311 
 H                     10.95202   3.18499  -4.14537 
 H                     10.71221   4.38119  -6.33073 
 H                     10.71221   2.83243  -7.17847 
 H                     12.98117   2.32511  -6.25165 
 H                     12.98117   3.87388  -5.4039 
 H                     12.74162   5.07012  -7.58938 
 H                     12.74162   3.52138  -8.43711 
 H                     15.01156   3.01483  -7.51168 
 H                     15.01156   4.56356  -6.66395 
 H                     14.77262   5.76009  -8.84987 
 H                     14.77261   4.21132  -9.69762 
 H                     17.04439   3.7065   -8.77509 
 H                     17.04439   5.25505  -7.92746 
 H                     16.80954   6.45236  -10.11456 
 H                     16.80954   4.90356  -10.96232 
 H                     19.08203   4.39874  -10.03929 
 H                     19.08203   5.94689  -9.19188 
 H                     18.87006   7.14659  -11.38305 
 H                     18.87006   5.59794  -12.23073 
 H                     21.14956   6.65551  -10.47679 
 H                     21.12838   6.61478  -12.24995 
 H                     21.14956   5.0992   -11.32867 
 

 GradGradGradGradGradGradGradGradGradGradGradGradGradGradGradGradGradGrad
 Berny optimization.
 Initialization pass.
                           ----------------------------
                           !    Initial Parameters    !
                           ! (Angstroms and Degrees)  !
 --------------------------                            --------------------------
 ! Name  Definition              Value          Derivative Info.                !
 --------------------------------------------------------------------------------
 ! R1    R(1,2)                  1.5177         estimate D2E/DX2                !
 ! R2    R(1,21)                 1.0937         estimate D2E/DX2                !
 ! R3    R(1,22)                 1.0946         estimate D2E/DX2                !
 ! R4    R(1,23)                 1.0946         estimate D2E/DX2                !
 ! R5    R(2,3)                  1.524          estimate D2E/DX2                !
 ! R6    R(2,24)                 1.096          estimate D2E/DX2                !
 ! R7    R(2,25)                 1.096          estimate D2E/DX2                !
 ! R8    R(3,4)                  1.5229         estimate D2E/DX2                !
 ! R9    R(3,26)                 1.0967         estimate D2E/DX2                !
 ! R10   R(3,27)                 1.0967         estimate D2E/DX2                !
 ! R11   R(4,5)                  1.5221         estimate D2E/DX2                !
 ! R12   R(4,28)                 1.0965         estimate D2E/DX2                !
 ! R13   R(4,29)                 1.0965         estimate D2E/DX2                !
 ! R14   R(5,6)                  1.5206         estimate D2E/DX2                !
 ! R15   R(5,30)                 1.0966         estimate D2E/DX2                !
 ! R16   R(5,31)                 1.0965         estimate D2E/DX2                !
 ! R17   R(6,7)                  1.52           estimate D2E/DX2                !
 ! R18   R(6,32)                 1.0964         estimate D2E/DX2                !
 ! R19   R(6,33)                 1.0964         estimate D2E/DX2                !
 ! R20   R(7,8)                  1.5194         estimate D2E/DX2                !
 ! R21   R(7,34)                 1.0964         estimate D2E/DX2                !
 ! R22   R(7,35)                 1.0964         estimate D2E/DX2                !
 ! R23   R(8,9)                  1.519          estimate D2E/DX2                !
 ! R24   R(8,36)                 1.0963         estimate D2E/DX2                !
 ! R25   R(8,37)                 1.0963         estimate D2E/DX2                !
 ! R26   R(9,10)                 1.5188         estimate D2E/DX2                !
 ! R27   R(9,38)                 1.0962         estimate D2E/DX2                !
 ! R28   R(9,39)                 1.0962         estimate D2E/DX2                !
 ! R29   R(10,11)                1.5187         estimate D2E/DX2                !
 ! R30   R(10,40)                1.0962         estimate D2E/DX2                !
 ! R31   R(10,41)                1.0962         estimate D2E/DX2                !
 ! R32   R(11,12)                1.5188         estimate D2E/DX2                !
 ! R33   R(11,42)                1.0962         estimate D2E/DX2                !
 ! R34   R(11,43)                1.0962         estimate D2E/DX2                !
 ! R35   R(12,13)                1.519          estimate D2E/DX2                !
 ! R36   R(12,44)                1.0962         estimate D2E/DX2                !
 ! R37   R(12,45)                1.0962         estimate D2E/DX2                !
 ! R38   R(13,14)                1.5194         estimate D2E/DX2                !
 ! R39   R(13,46)                1.0963         estimate D2E/DX2                !
 ! R40   R(13,47)                1.0963         estimate D2E/DX2                !
 ! R41   R(14,15)                1.52           estimate D2E/DX2                !
 ! R42   R(14,48)                1.0964         estimate D2E/DX2                !
 ! R43   R(14,49)                1.0964         estimate D2E/DX2                !
 ! R44   R(15,16)                1.5206         estimate D2E/DX2                !
 ! R45   R(15,50)                1.0964         estimate D2E/DX2                !
 ! R46   R(15,51)                1.0964         estimate D2E/DX2                !
 ! R47   R(16,17)                1.5221         estimate D2E/DX2                !
 ! R48   R(16,52)                1.0965         estimate D2E/DX2                !
 ! R49   R(16,53)                1.0965         estimate D2E/DX2                !
 ! R50   R(17,18)                1.5229         estimate D2E/DX2                !
 ! R51   R(17,54)                1.0965         estimate D2E/DX2                !
 ! R52   R(17,55)                1.0965         estimate D2E/DX2                !
 ! R53   R(18,19)                1.524          estimate D2E/DX2                !
 ! R54   R(18,56)                1.0967         estimate D2E/DX2                !
 ! R55   R(18,57)                1.0967         estimate D2E/DX2                !
 ! R56   R(19,20)                1.5177         estimate D2E/DX2                !
 ! R57   R(19,58)                1.096          estimate D2E/DX2                !
 ! R58   R(19,59)                1.096          estimate D2E/DX2                !
 ! R59   R(20,60)                1.0946         estimate D2E/DX2                !
 ! R60   R(20,61)                1.0937         estimate D2E/DX2                !
 ! R61   R(20,62)                1.0946         estimate D2E/DX2                !
 ! A1    A(2,1,21)             110.2488         estimate D2E/DX2                !
 ! A2    A(2,1,22)             110.8065         estimate D2E/DX2                !
 ! A3    A(2,1,23)             110.8063         estimate D2E/DX2                !
 ! A4    A(21,1,22)            108.3063         estimate D2E/DX2                !
 ! A5    A(21,1,23)            108.306          estimate D2E/DX2                !
 ! A6    A(22,1,23)            108.2807         estimate D2E/DX2                !
 ! A7    A(1,2,3)              110.7309         estimate D2E/DX2                !
 ! A8    A(1,2,24)             109.4889         estimate D2E/DX2                !
 ! A9    A(1,2,25)             109.4891         estimate D2E/DX2                !
 ! A10   A(3,2,24)             109.8855         estimate D2E/DX2                !
 ! A11   A(3,2,25)             109.8851         estimate D2E/DX2                !
 ! A12   A(24,2,25)            107.2936         estimate D2E/DX2                !
 ! A13   A(2,3,4)              110.7735         estimate D2E/DX2                !
 ! A14   A(2,3,26)             109.8376         estimate D2E/DX2                !
 ! A15   A(2,3,27)             109.8372         estimate D2E/DX2                !
 ! A16   A(4,3,26)             109.5857         estimate D2E/DX2                !
 ! A17   A(4,3,27)             109.585          estimate D2E/DX2                !
 ! A18   A(26,3,27)            107.1493         estimate D2E/DX2                !
 ! A19   A(3,4,5)              110.3042         estimate D2E/DX2                !
 ! A20   A(3,4,28)             109.925          estimate D2E/DX2                !
 ! A21   A(3,4,29)             109.9249         estimate D2E/DX2                !
 ! A22   A(5,4,28)             109.6971         estimate D2E/DX2                !
 ! A23   A(5,4,29)             109.6967         estimate D2E/DX2                !
 ! A24   A(28,4,29)            107.24           estimate D2E/DX2                !
 ! A25   A(4,5,6)              110.2442         estimate D2E/DX2                !
 ! A26   A(4,5,30)             109.9252         estimate D2E/DX2                !
 ! A27   A(4,5,31)             109.9254         estimate D2E/DX2                !
 ! A28   A(6,5,30)             109.7401         estimate D2E/DX2                !
 ! A29   A(6,5,31)             109.7407         estimate D2E/DX2                !
 ! A30   A(30,5,31)            107.214          estimate D2E/DX2                !
 ! A31   A(5,6,7)              110.1034         estimate D2E/DX2                !
 ! A32   A(5,6,32)             109.924          estimate D2E/DX2                !
 ! A33   A(5,6,33)             109.9244         estimate D2E/DX2                !
 ! A34   A(7,6,32)             109.7935         estimate D2E/DX2                !
 ! A35   A(7,6,33)             109.794          estimate D2E/DX2                !
 ! A36   A(32,6,33)            107.256          estimate D2E/DX2                !
 ! A37   A(6,7,8)              109.9662         estimate D2E/DX2                !
 ! A38   A(6,7,34)             109.9468         estimate D2E/DX2                !
 ! A39   A(6,7,35)             109.947          estimate D2E/DX2                !
 ! A40   A(8,7,34)             109.841          estimate D2E/DX2                !
 ! A41   A(8,7,35)             109.8416         estimate D2E/DX2                !
 ! A42   A(34,7,35)            107.2574         estimate D2E/DX2                !
 ! A43   A(7,8,9)              109.9251         estimate D2E/DX2                !
 ! A44   A(7,8,36)             109.9337         estimate D2E/DX2                !
 ! A45   A(7,8,37)             109.9343         estimate D2E/DX2                !
 ! A46   A(9,8,36)             109.8691         estimate D2E/DX2                !
 ! A47   A(9,8,37)             109.87           estimate D2E/DX2                !
 ! A48   A(36,8,37)            107.2693         estimate D2E/DX2                !
 ! A49   A(8,9,10)             109.8594         estimate D2E/DX2                !
 ! A50   A(8,9,38)             109.935          estimate D2E/DX2                !
 ! A51   A(8,9,39)             109.9356         estimate D2E/DX2                !
 ! A52   A(10,9,38)            109.8973         estimate D2E/DX2                !
 ! A53   A(10,9,39)            109.8978         estimate D2E/DX2                !
 ! A54   A(38,9,39)            107.2788         estimate D2E/DX2                !
 ! A55   A(9,10,11)            109.8427         estimate D2E/DX2                !
 ! A56   A(9,10,40)            109.9267         estimate D2E/DX2                !
 ! A57   A(9,10,41)            109.9272         estimate D2E/DX2                !
 ! A58   A(11,10,40)           109.9138         estimate D2E/DX2                !
 ! A59   A(11,10,41)           109.9142         estimate D2E/DX2                !
 ! A60   A(40,10,41)           107.2799         estimate D2E/DX2                !
 ! A61   A(10,11,12)           109.8427         estimate D2E/DX2                !
 ! A62   A(10,11,42)           109.9138         estimate D2E/DX2                !
 ! A63   A(10,11,43)           109.9142         estimate D2E/DX2                !
 ! A64   A(12,11,42)           109.9267         estimate D2E/DX2                !
 ! A65   A(12,11,43)           109.9272         estimate D2E/DX2                !
 ! A66   A(42,11,43)           107.2799         estimate D2E/DX2                !
 ! A67   A(11,12,13)           109.8593         estimate D2E/DX2                !
 ! A68   A(11,12,44)           109.8975         estimate D2E/DX2                !
 ! A69   A(11,12,45)           109.8978         estimate D2E/DX2                !
 ! A70   A(13,12,44)           109.9352         estimate D2E/DX2                !
 ! A71   A(13,12,45)           109.9354         estimate D2E/DX2                !
 ! A72   A(44,12,45)           107.2787         estimate D2E/DX2                !
 ! A73   A(12,13,14)           109.9249         estimate D2E/DX2                !
 ! A74   A(12,13,46)           109.8695         estimate D2E/DX2                !
 ! A75   A(12,13,47)           109.8695         estimate D2E/DX2                !
 ! A76   A(14,13,46)           109.9348         estimate D2E/DX2                !
 ! A77   A(14,13,47)           109.9346         estimate D2E/DX2                !
 ! A78   A(46,13,47)           107.2682         estimate D2E/DX2                !
 ! A79   A(13,14,15)           109.966          estimate D2E/DX2                !
 ! A80   A(13,14,48)           109.8414         estimate D2E/DX2                !
 ! A81   A(13,14,49)           109.8414         estimate D2E/DX2                !
 ! A82   A(15,14,48)           109.9464         estimate D2E/DX2                !
 ! A83   A(15,14,49)           109.947          estimate D2E/DX2                !
 ! A84   A(48,14,49)           107.2579         estimate D2E/DX2                !
 ! A85   A(14,15,16)           110.1038         estimate D2E/DX2                !
 ! A86   A(14,15,50)           109.7935         estimate D2E/DX2                !
 ! A87   A(14,15,51)           109.7938         estimate D2E/DX2                !
 ! A88   A(16,15,50)           109.9239         estimate D2E/DX2                !
 ! A89   A(16,15,51)           109.9246         estimate D2E/DX2                !
 ! A90   A(50,15,51)           107.2558         estimate D2E/DX2                !
 ! A91   A(15,16,17)           110.2446         estimate D2E/DX2                !
 ! A92   A(15,16,52)           109.7398         estimate D2E/DX2                !
 ! A93   A(15,16,53)           109.7397         estimate D2E/DX2                !
 ! A94   A(17,16,52)           109.926          estimate D2E/DX2                !
 ! A95   A(17,16,53)           109.9257         estimate D2E/DX2                !
 ! A96   A(52,16,53)           107.2137         estimate D2E/DX2                !
 ! A97   A(16,17,18)           110.3045         estimate D2E/DX2                !
 ! A98   A(16,17,54)           109.6969         estimate D2E/DX2                !
 ! A99   A(16,17,55)           109.6965         estimate D2E/DX2                !
 ! A100  A(18,17,54)           109.9251         estimate D2E/DX2                !
 ! A101  A(18,17,55)           109.9251         estimate D2E/DX2                !
 ! A102  A(54,17,55)           107.2397         estimate D2E/DX2                !
 ! A103  A(17,18,19)           110.7737         estimate D2E/DX2                !
 ! A104  A(17,18,56)           109.5852         estimate D2E/DX2                !
 ! A105  A(17,18,57)           109.5852         estimate D2E/DX2                !
 ! A106  A(19,18,56)           109.8374         estimate D2E/DX2                !
 ! A107  A(19,18,57)           109.8378         estimate D2E/DX2                !
 ! A108  A(56,18,57)           107.1489         estimate D2E/DX2                !
 ! A109  A(18,19,20)           110.731          estimate D2E/DX2                !
 ! A110  A(18,19,58)           109.8852         estimate D2E/DX2                !
 ! A111  A(18,19,59)           109.8853         estimate D2E/DX2                !
 ! A112  A(20,19,58)           109.4889         estimate D2E/DX2                !
 ! A113  A(20,19,59)           109.4891         estimate D2E/DX2                !
 ! A114  A(58,19,59)           107.2936         estimate D2E/DX2                !
 ! A115  A(19,20,60)           110.8065         estimate D2E/DX2                !
 ! A116  A(19,20,61)           110.2488         estimate D2E/DX2                !
 ! A117  A(19,20,62)           110.8063         estimate D2E/DX2                !
 ! A118  A(60,20,61)           108.3063         estimate D2E/DX2                !
 ! A119  A(60,20,62)           108.2811         estimate D2E/DX2                !
 ! A120  A(61,20,62)           108.3056         estimate D2E/DX2                !
 ! D1    D(21,1,2,3)          -179.9996         estimate D2E/DX2                !
 ! D2    D(21,1,2,24)           58.6857         estimate D2E/DX2                !
 ! D3    D(21,1,2,25)          -58.6852         estimate D2E/DX2                !
 ! D4    D(22,1,2,3)            60.1114         estimate D2E/DX2                !
 ! D5    D(22,1,2,24)          -61.2034         estimate D2E/DX2                !
 ! D6    D(22,1,2,25)         -178.5742         estimate D2E/DX2                !
 ! D7    D(23,1,2,3)           -60.111          estimate D2E/DX2                !
 ! D8    D(23,1,2,24)          178.5742         estimate D2E/DX2                !
 ! D9    D(23,1,2,25)           61.2034         estimate D2E/DX2                !
 ! D10   D(1,2,3,4)           -179.9995         estimate D2E/DX2                !
 ! D11   D(1,2,3,26)            58.8028         estimate D2E/DX2                !
 ! D12   D(1,2,3,27)           -58.803          estimate D2E/DX2                !
 ! D13   D(24,2,3,4)           -58.919          estimate D2E/DX2                !
 ! D14   D(24,2,3,26)          179.8832         estimate D2E/DX2                !
 ! D15   D(24,2,3,27)           62.2774         estimate D2E/DX2                !
 ! D16   D(25,2,3,4)            58.9201         estimate D2E/DX2                !
 ! D17   D(25,2,3,26)          -62.2777         estimate D2E/DX2                !
 ! D18   D(25,2,3,27)         -179.8835         estimate D2E/DX2                !
 ! D19   D(2,3,4,5)            179.9998         estimate D2E/DX2                !
 ! D20   D(2,3,4,28)            58.9101         estimate D2E/DX2                !
 ! D21   D(2,3,4,29)           -58.9111         estimate D2E/DX2                !
 ! D22   D(26,3,4,5)           -58.6539         estimate D2E/DX2                !
 ! D23   D(26,3,4,28)         -179.7436         estimate D2E/DX2                !
 ! D24   D(26,3,4,29)           62.4352         estimate D2E/DX2                !
 ! D25   D(27,3,4,5)            58.6545         estimate D2E/DX2                !
 ! D26   D(27,3,4,28)          -62.4352         estimate D2E/DX2                !
 ! D27   D(27,3,4,29)          179.7436         estimate D2E/DX2                !
 ! D28   D(3,4,5,6)            179.9994         estimate D2E/DX2                !
 ! D29   D(3,4,5,30)            58.8947         estimate D2E/DX2                !
 ! D30   D(3,4,5,31)           -58.8952         estimate D2E/DX2                !
 ! D31   D(28,4,5,6)           -58.7751         estimate D2E/DX2                !
 ! D32   D(28,4,5,30)         -179.8798         estimate D2E/DX2                !
 ! D33   D(28,4,5,31)           62.3303         estimate D2E/DX2                !
 ! D34   D(29,4,5,6)            58.7743         estimate D2E/DX2                !
 ! D35   D(29,4,5,30)          -62.3303         estimate D2E/DX2                !
 ! D36   D(29,4,5,31)          179.8798         estimate D2E/DX2                !
 ! D37   D(4,5,6,7)            179.9998         estimate D2E/DX2                !
 ! D38   D(4,5,6,32)            58.9202         estimate D2E/DX2                !
 ! D39   D(4,5,6,33)           -58.9197         estimate D2E/DX2                !
 ! D40   D(30,5,6,7)           -58.7851         estimate D2E/DX2                !
 ! D41   D(30,5,6,32)         -179.8647         estimate D2E/DX2                !
 ! D42   D(30,5,6,33)           62.2954         estimate D2E/DX2                !
 ! D43   D(31,5,6,7)            58.7842         estimate D2E/DX2                !
 ! D44   D(31,5,6,32)          -62.2954         estimate D2E/DX2                !
 ! D45   D(31,5,6,33)          179.8647         estimate D2E/DX2                !
 ! D46   D(5,6,7,8)            179.9999         estimate D2E/DX2                !
 ! D47   D(5,6,7,34)            58.9348         estimate D2E/DX2                !
 ! D48   D(5,6,7,35)           -58.9342         estimate D2E/DX2                !
 ! D49   D(32,6,7,8)           -58.8424         estimate D2E/DX2                !
 ! D50   D(32,6,7,34)         -179.9076         estimate D2E/DX2                !
 ! D51   D(32,6,7,35)           62.2235         estimate D2E/DX2                !
 ! D52   D(33,6,7,8)            58.8415         estimate D2E/DX2                !
 ! D53   D(33,6,7,34)          -62.2237         estimate D2E/DX2                !
 ! D54   D(33,6,7,35)          179.9073         estimate D2E/DX2                !
 ! D55   D(6,7,8,9)            179.9998         estimate D2E/DX2                !
 ! D56   D(6,7,8,36)            58.9346         estimate D2E/DX2                !
 ! D57   D(6,7,8,37)           -58.9334         estimate D2E/DX2                !
 ! D58   D(34,7,8,9)           -58.8716         estimate D2E/DX2                !
 ! D59   D(34,7,8,36)         -179.9368         estimate D2E/DX2                !
 ! D60   D(34,7,8,37)           62.1952         estimate D2E/DX2                !
 ! D61   D(35,7,8,9)            58.8707         estimate D2E/DX2                !
 ! D62   D(35,7,8,36)          -62.1946         estimate D2E/DX2                !
 ! D63   D(35,7,8,37)          179.9374         estimate D2E/DX2                !
 ! D64   D(7,8,9,10)          -179.9999         estimate D2E/DX2                !
 ! D65   D(7,8,9,38)            58.9412         estimate D2E/DX2                !
 ! D66   D(7,8,9,39)           -58.94           estimate D2E/DX2                !
 ! D67   D(36,8,9,10)          -58.8958         estimate D2E/DX2                !
 ! D68   D(36,8,9,38)         -179.9547         estimate D2E/DX2                !
 ! D69   D(36,8,9,39)           62.1641         estimate D2E/DX2                !
 ! D70   D(37,8,9,10)           58.8947         estimate D2E/DX2                !
 ! D71   D(37,8,9,38)          -62.1642         estimate D2E/DX2                !
 ! D72   D(37,8,9,39)          179.9546         estimate D2E/DX2                !
 ! D73   D(8,9,10,11)         -179.9998         estimate D2E/DX2                !
 ! D74   D(8,9,10,40)           58.9368         estimate D2E/DX2                !
 ! D75   D(8,9,10,41)          -58.9357         estimate D2E/DX2                !
 ! D76   D(38,9,10,11)         -58.9183         estimate D2E/DX2                !
 ! D77   D(38,9,10,40)        -179.9817         estimate D2E/DX2                !
 ! D78   D(38,9,10,41)          62.1459         estimate D2E/DX2                !
 ! D79   D(39,9,10,11)          58.9175         estimate D2E/DX2                !
 ! D80   D(39,9,10,40)         -62.1459         estimate D2E/DX2                !
 ! D81   D(39,9,10,41)         179.9816         estimate D2E/DX2                !
 ! D82   D(9,10,11,12)         180.0            estimate D2E/DX2                !
 ! D83   D(9,10,11,42)          58.9288         estimate D2E/DX2                !
 ! D84   D(9,10,11,43)         -58.928          estimate D2E/DX2                !
 ! D85   D(40,10,11,12)        -58.9288         estimate D2E/DX2                !
 ! D86   D(40,10,11,42)       -180.0            estimate D2E/DX2                !
 ! D87   D(40,10,11,43)         62.1431         estimate D2E/DX2                !
 ! D88   D(41,10,11,12)         58.928          estimate D2E/DX2                !
 ! D89   D(41,10,11,42)        -62.1431         estimate D2E/DX2                !
 ! D90   D(41,10,11,43)        180.0            estimate D2E/DX2                !
 ! D91   D(10,11,12,13)       -179.9998         estimate D2E/DX2                !
 ! D92   D(10,11,12,44)         58.9183         estimate D2E/DX2                !
 ! D93   D(10,11,12,45)        -58.9175         estimate D2E/DX2                !
 ! D94   D(42,11,12,13)        -58.9365         estimate D2E/DX2                !
 ! D95   D(42,11,12,44)        179.9816         estimate D2E/DX2                !
 ! D96   D(42,11,12,45)         62.1459         estimate D2E/DX2                !
 ! D97   D(43,11,12,13)         58.936          estimate D2E/DX2                !
 ! D98   D(43,11,12,44)        -62.1459         estimate D2E/DX2                !
 ! D99   D(43,11,12,45)       -179.9816         estimate D2E/DX2                !
 ! D100  D(11,12,13,14)       -179.9997         estimate D2E/DX2                !
 ! D101  D(11,12,13,46)         58.8948         estimate D2E/DX2                !
 ! D102  D(11,12,13,47)        -58.8945         estimate D2E/DX2                !
 ! D103  D(44,12,13,14)        -58.9405         estimate D2E/DX2                !
 ! D104  D(44,12,13,46)        179.954          estimate D2E/DX2                !
 ! D105  D(44,12,13,47)         62.1648         estimate D2E/DX2                !
 ! D106  D(45,12,13,14)         58.9405         estimate D2E/DX2                !
 ! D107  D(45,12,13,46)        -62.165          estimate D2E/DX2                !
 ! D108  D(45,12,13,47)       -179.9542         estimate D2E/DX2                !
 ! D109  D(12,13,14,15)        179.9998         estimate D2E/DX2                !
 ! D110  D(12,13,14,48)         58.8716         estimate D2E/DX2                !
 ! D111  D(12,13,14,49)        -58.8713         estimate D2E/DX2                !
 ! D112  D(46,13,14,15)        -58.9339         estimate D2E/DX2                !
 ! D113  D(46,13,14,48)        179.938          estimate D2E/DX2                !
 ! D114  D(46,13,14,49)         62.195          estimate D2E/DX2                !
 ! D115  D(47,13,14,15)         58.9337         estimate D2E/DX2                !
 ! D116  D(47,13,14,48)        -62.1945         estimate D2E/DX2                !
 ! D117  D(47,13,14,49)       -179.9374         estimate D2E/DX2                !
 ! D118  D(13,14,15,16)        179.9999         estimate D2E/DX2                !
 ! D119  D(13,14,15,50)         58.8421         estimate D2E/DX2                !
 ! D120  D(13,14,15,51)        -58.8414         estimate D2E/DX2                !
 ! D121  D(48,14,15,16)        -58.9349         estimate D2E/DX2                !
 ! D122  D(48,14,15,50)        179.9073         estimate D2E/DX2                !
 ! D123  D(48,14,15,51)         62.2239         estimate D2E/DX2                !
 ! D124  D(49,14,15,16)         58.9344         estimate D2E/DX2                !
 ! D125  D(49,14,15,50)        -62.2235         estimate D2E/DX2                !
 ! D126  D(49,14,15,51)       -179.9069         estimate D2E/DX2                !
 ! D127  D(14,15,16,17)       -179.9996         estimate D2E/DX2                !
 ! D128  D(14,15,16,52)         58.7843         estimate D2E/DX2                !
 ! D129  D(14,15,16,53)        -58.7839         estimate D2E/DX2                !
 ! D130  D(50,15,16,17)        -58.9198         estimate D2E/DX2                !
 ! D131  D(50,15,16,52)        179.8641         estimate D2E/DX2                !
 ! D132  D(50,15,16,53)         62.2959         estimate D2E/DX2                !
 ! D133  D(51,15,16,17)         58.9199         estimate D2E/DX2                !
 ! D134  D(51,15,16,52)        -62.2962         estimate D2E/DX2                !
 ! D135  D(51,15,16,53)       -179.8644         estimate D2E/DX2                !
 ! D136  D(15,16,17,18)       -179.9999         estimate D2E/DX2                !
 ! D137  D(15,16,17,54)         58.7744         estimate D2E/DX2                !
 ! D138  D(15,16,17,55)        -58.7746         estimate D2E/DX2                !
 ! D139  D(52,16,17,18)        -58.8949         estimate D2E/DX2                !
 ! D140  D(52,16,17,54)        179.8794         estimate D2E/DX2                !
 ! D141  D(52,16,17,55)         62.3304         estimate D2E/DX2                !
 ! D142  D(53,16,17,18)         58.8953         estimate D2E/DX2                !
 ! D143  D(53,16,17,54)        -62.3304         estimate D2E/DX2                !
 ! D144  D(53,16,17,55)       -179.8794         estimate D2E/DX2                !
 ! D145  D(16,17,18,19)        179.9997         estimate D2E/DX2                !
 ! D146  D(16,17,18,56)         58.6539         estimate D2E/DX2                !
 ! D147  D(16,17,18,57)        -58.654          estimate D2E/DX2                !
 ! D148  D(54,17,18,19)        -58.9106         estimate D2E/DX2                !
 ! D149  D(54,17,18,56)        179.7436         estimate D2E/DX2                !
 ! D150  D(54,17,18,57)         62.4358         estimate D2E/DX2                !
 ! D151  D(55,17,18,19)         58.9105         estimate D2E/DX2                !
 ! D152  D(55,17,18,56)        -62.4353         estimate D2E/DX2                !
 ! D153  D(55,17,18,57)       -179.7431         estimate D2E/DX2                !
 ! D154  D(17,18,19,20)        179.9999         estimate D2E/DX2                !
 ! D155  D(17,18,19,58)         58.9196         estimate D2E/DX2                !
 ! D156  D(17,18,19,59)        -58.9195         estimate D2E/DX2                !
 ! D157  D(56,18,19,20)        -58.8031         estimate D2E/DX2                !
 ! D158  D(56,18,19,58)       -179.8834         estimate D2E/DX2                !
 ! D159  D(56,18,19,59)         62.2775         estimate D2E/DX2                !
 ! D160  D(57,18,19,20)         58.8025         estimate D2E/DX2                !
 ! D161  D(57,18,19,58)        -62.2778         estimate D2E/DX2                !
 ! D162  D(57,18,19,59)        179.8831         estimate D2E/DX2                !
 ! D163  D(18,19,20,60)        -60.1111         estimate D2E/DX2                !
 ! D164  D(18,19,20,61)        179.9999         estimate D2E/DX2                !
 ! D165  D(18,19,20,62)         60.1119         estimate D2E/DX2                !
 ! D166  D(58,19,20,60)         61.2034         estimate D2E/DX2                !
 ! D167  D(58,19,20,61)        -58.6857         estimate D2E/DX2                !
 ! D168  D(58,19,20,62)       -178.5737         estimate D2E/DX2                !
 ! D169  D(59,19,20,60)        178.5742         estimate D2E/DX2                !
 ! D170  D(59,19,20,61)         58.6852         estimate D2E/DX2                !
 ! D171  D(59,19,20,62)        -61.2028         estimate D2E/DX2                !
 --------------------------------------------------------------------------------
 Trust Radius=3.00D-01 FncErr=1.00D-07 GrdErr=1.00D-06 EigMax=2.50D+02 EigMin=1.00D-04
 Number of steps in this run=    362 maximum allowed number of steps=    372.
 GradGradGradGradGradGradGradGradGradGradGradGradGradGradGradGradGradGrad

 Stoichiometry    C20H42
 Framework group  C1[X(C20H42)]
 Deg. of freedom   180
 Full point group                 C1      NOp   1
 Largest Abelian subgroup         C1      NOp   1
 Largest concise Abelian subgroup C1      NOp   1
                         Standard orientation:                         
 ---------------------------------------------------------------------
 Center     Atomic      Atomic             Coordinates (Angstroms)
 Number     Number       Type             X           Y           Z
 ---------------------------------------------------------------------
      1          6           0       11.848510    0.361764    0.000003
      2          6           0       10.597610   -0.497617    0.000000
      3          6           0        9.345901    0.371682   -0.000006
      4          6           0        8.090077   -0.489710    0.000004
      5          6           0        6.847038    0.388747    0.000003
      6          6           0        5.593980   -0.472679   -0.000002
      7          6           0        4.354823    0.407606    0.000001
      8          6           0        3.104828   -0.456131   -0.000005
      9          6           0        1.867135    0.424451    0.000003
     10          6           0        0.618606   -0.440392   -0.000002
     11          6           0       -0.618605    0.440390    0.000003
     12          6           0       -1.867134   -0.424453   -0.000002
     13          6           0       -3.104830    0.456133   -0.000002
     14          6           0       -4.354822   -0.407608   -0.000000
     15          6           0       -5.593979    0.472678    0.000003
     16          6           0       -6.847042   -0.388742    0.000003
     17          6           0       -8.090076    0.489708   -0.000003
     18          6           0       -9.345904   -0.371680   -0.000002
     19          6           0      -10.597610    0.497616    0.000001
     20          6           0      -11.848510   -0.361765   -0.000001
     21          1           0       12.741517   -0.269626   -0.000001
     22          1           0       11.880256    1.002178    0.887100
     23          1           0       11.880255    1.002180   -0.887099
     24          1           0       10.600303   -1.147307    0.882735
     25          1           0       10.600302   -1.147307   -0.882733
     26          1           0        9.345033    1.022882   -0.882451
     27          1           0        9.345031    1.022885    0.882449
     28          1           0        8.083028   -1.140065    0.882822
     29          1           0        8.083019   -1.140069   -0.882816
     30          1           0        6.849221    1.039347   -0.882687
     31          1           0        6.849222    1.039347    0.882679
     32          1           0        5.587539   -1.122839    0.882805
     33          1           0        5.587541   -1.122842   -0.882802
     34          1           0        4.357892    1.057759   -0.882779
     35          1           0        4.357894    1.057756    0.882779
     36          1           0        3.099656   -1.106135    0.882793
     37          1           0        3.099659   -1.106139   -0.882792
     38          1           0        1.870808    1.074366   -0.882811
     39          1           0        1.870809    1.074365    0.882805
     40          1           0        0.614280   -1.090281    0.882800
     41          1           0        0.614280   -1.090281   -0.882793
     42          1           0       -0.614280    1.090279   -0.882799
     43          1           0       -0.614280    1.090279    0.882795
     44          1           0       -1.870810   -1.074364    0.882803
     45          1           0       -1.870808   -1.074367   -0.882804
     46          1           0       -3.099653    1.106146   -0.882787
     47          1           0       -3.099653    1.106147    0.882784
     48          1           0       -4.357896   -1.057753    0.882785
     49          1           0       -4.357893   -1.057758   -0.882778
     50          1           0       -5.587538    1.122837   -0.882804
     51          1           0       -5.587532    1.122846    0.882803
     52          1           0       -6.849215   -1.039339    0.882679
     53          1           0       -6.849213   -1.039343   -0.882678
     54          1           0       -8.083019    1.140069   -0.882821
     55          1           0       -8.083018    1.140067    0.882817
     56          1           0       -9.345033   -1.022884    0.882452
     57          1           0       -9.345031   -1.022887   -0.882448
     58          1           0      -10.600302    1.147305   -0.882734
     59          1           0      -10.600302    1.147305    0.882735
     60          1           0      -11.880256   -1.002180   -0.887099
     61          1           0      -12.741517    0.269624    0.000002
     62          1           0      -11.880259   -1.002175    0.887105
 ---------------------------------------------------------------------
 Rotational constants (GHZ):           4.0812563           0.0340797           0.0339402
 Standard basis: 6-31G(2df,p) (6D, 7F)
 There are   830 symmetry adapted cartesian basis functions of A   symmetry.
 There are   770 symmetry adapted basis functions of A   symmetry.
   770 basis functions,  1174 primitive gaussians,   830 cartesian basis functions
    81 alpha electrons       81 beta electrons
       nuclear repulsion energy      1384.2003044531 Hartrees.
 NAtoms=   62 NActive=   62 NUniq=   62 SFac= 1.00D+00 NAtFMM=   60 NAOKFM=T Big=T
 Integral buffers will be    131072 words long.
 Raffenetti 2 integral format.
 Two-electron integral symmetry is turned on.
 One-electron integrals computed using PRISM.
 PrsmSu:  requested number of processors reduced to:  11 ShMem   1 Linda.
 NBasis=   770 RedAO= T EigKep=  4.21D-04  NBF=   770
 NBsUse=   770 1.00D-06 EigRej= -1.00D+00 NBFU=   770
 ExpMin= 1.61D-01 ExpMax= 3.05D+03 ExpMxC= 4.57D+02 IAcc=3 IRadAn=         5 AccDes= 0.00D+00
 Harris functional with IExCor=  402 and IRadAn=       5 diagonalized for initial guess.
 HarFok:  IExCor=  402 AccDes= 0.00D+00 IRadAn=         5 IDoV= 1 UseB2=F ITyADJ=14
 ICtDFT=  3500011 ScaDFX=  1.000000  1.000000  1.000000  1.000000
 FoFCou: FMM=F IPFlag=           0 FMFlag=      100000 FMFlg1=        2001
         NFxFlg=           0 DoJE=T BraDBF=F KetDBF=T FulRan=T
         wScrn=  0.000000 ICntrl=       500 IOpCl=  0 I1Cent=   200000004 NGrid=           0
         NMat0=    1 NMatS0=      1 NMatT0=    0 NMatD0=    1 NMtDS0=    0 NMtDT0=    0
 Petite list used in FoFCou.
 Requested convergence on RMS density matrix=1.00D-08 within 128 cycles.
 Requested convergence on MAX density matrix=1.00D-06.
 Requested convergence on             energy=1.00D-06.
 No special actions if energy rises.
 Integral accuracy reduced to 1.0D-05 until final iterations.
 Initial convergence to 1.0D-05 achieved.  Increase integral accuracy.
 SCF Done:  E(RB3LYP) =  -787.527395824     A.U. after   11 cycles
            NFock= 11  Conv=0.59D-08     -V/T= 2.0085

 **********************************************************************

            Population analysis using the SCF density.

 **********************************************************************

 Orbital symmetries:
       Occupied  (A) (A) (A) (A) (A) (A) (A) (A) (A) (A) (A) (A)
                 (A) (A) (A) (A) (A) (A) (A) (A) (A) (A) (A) (A)
                 (A) (A) (A) (A) (A) (A) (A) (A) (A) (A) (A) (A)
                 (A) (A) (A) (A) (A) (A) (A) (A) (A) (A) (A) (A)
                 (A) (A) (A) (A) (A) (A) (A) (A) (A) (A) (A) (A)
                 (A) (A) (A) (A) (A) (A) (A) (A) (A) (A) (A) (A)
                 (A) (A) (A) (A) (A) (A) (A) (A) (A)
       Virtual   (A) (A) (A) (A) (A) (A) (A) (A) (A) (A) (A) (A)
                 (A) (A) (A) (A) (A) (A) (A) (A) (A) (A) (A) (A)
                 (A) (A) (A) (A) (A) (A) (A) (A) (A) (A) (A) (A)
                 (A) (A) (A) (A) (A) (A) (A) (A) (A) (A) (A) (A)
                 (A) (A) (A) (A) (A) (A) (A) (A) (A) (A) (A) (A)
                 (A) (A) (A) (A) (A) (A) (A) (A) (A) (A) (A) (A)
                 (A) (A) (A) (A) (A) (A) (A) (A) (A) (A) (A) (A)
                 (A) (A) (A) (A) (A) (A) (A) (A) (A) (A) (A) (A)
                 (A) (A) (A) (A) (A) (A) (A) (A) (A) (A) (A) (A)
                 (A) (A) (A) (A) (A) (A) (A) (A) (A) (A) (A) (A)
                 (A) (A) (A) (A) (A) (A) (A) (A) (A) (A) (A) (A)
                 (A) (A) (A) (A) (A) (A) (A) (A) (A) (A) (A) (A)
                 (A) (A) (A) (A) (A) (A) (A) (A) (A) (A) (A) (A)
                 (A) (A) (A) (A) (A) (A) (A) (A) (A) (A) (A) (A)
                 (A) (A) (A) (A) (A) (A) (A) (A) (A) (A) (A) (A)
                 (A) (A) (A) (A) (A) (A) (A) (A) (A) (A) (A) (A)
                 (A) (A) (A) (A) (A) (A) (A) (A) (A) (A) (A) (A)
                 (A) (A) (A) (A) (A) (A) (A) (A) (A) (A) (A) (A)
                 (A) (A) (A) (A) (A) (A) (A) (A) (A) (A) (A) (A)
                 (A) (A) (A) (A) (A) (A) (A) (A) (A) (A) (A) (A)
                 (A) (A) (A) (A) (A) (A) (A) (A) (A) (A) (A) (A)
                 (A) (A) (A) (A) (A) (A) (A) (A) (A) (A) (A) (A)
                 (A) (A) (A) (A) (A) (A) (A) (A) (A) (A) (A) (A)
                 (A) (A) (A) (A) (A) (A) (A) (A) (A) (A) (A) (A)
                 (A) (A) (A) (A) (A) (A) (A) (A) (A) (A) (A) (A)
                 (A) (A) (A) (A) (A) (A) (A) (A) (A) (A) (A) (A)
                 (A) (A) (A) (A) (A) (A) (A) (A) (A) (A) (A) (A)
                 (A) (A) (A) (A) (A) (A) (A) (A) (A) (A) (A) (A)
                 (A) (A) (A) (A) (A) (A) (A) (A) (A) (A) (A) (A)
                 (A) (A) (A) (A) (A) (A) (A) (A) (A) (A) (A) (A)
                 (A) (A) (A) (A) (A) (A) (A) (A) (A) (A) (A) (A)
                 (A) (A) (A) (A) (A) (A) (A) (A) (A) (A) (A) (A)
                 (A) (A) (A) (A) (A) (A) (A) (A) (A) (A) (A) (A)
                 (A) (A) (A) (A) (A) (A) (A) (A) (A) (A) (A) (A)
                 (A) (A) (A) (A) (A) (A) (A) (A) (A) (A) (A) (A)
                 (A) (A) (A) (A) (A) (A) (A) (A) (A) (A) (A) (A)
                 (A) (A) (A) (A) (A) (A) (A) (A) (A) (A) (A) (A)
                 (A) (A) (A) (A) (A) (A) (A) (A) (A) (A) (A) (A)
                 (A) (A) (A) (A) (A) (A) (A) (A) (A) (A) (A) (A)
                 (A) (A) (A) (A) (A) (A) (A) (A) (A) (A) (A) (A)
                 (A) (A) (A) (A) (A) (A) (A) (A) (A) (A) (A) (A)
                 (A) (A) (A) (A) (A) (A) (A) (A) (A) (A) (A) (A)
                 (A) (A) (A) (A) (A) (A) (A) (A) (A) (A) (A) (A)
                 (A) (A) (A) (A) (A) (A) (A) (A) (A) (A) (A) (A)
                 (A) (A) (A) (A) (A) (A) (A) (A) (A) (A) (A) (A)
                 (A) (A) (A) (A) (A) (A) (A) (A) (A) (A) (A) (A)
                 (A) (A) (A) (A) (A) (A) (A) (A) (A) (A) (A) (A)
                 (A) (A) (A) (A) (A) (A) (A) (A) (A) (A) (A) (A)
                 (A) (A) (A) (A) (A) (A) (A) (A) (A) (A) (A) (A)
                 (A) (A) (A) (A) (A) (A) (A) (A) (A) (A) (A) (A)
                 (A) (A) (A) (A) (A) (A) (A) (A) (A) (A) (A) (A)
                 (A) (A) (A) (A) (A) (A) (A) (A) (A) (A) (A) (A)
                 (A) (A) (A) (A) (A) (A) (A) (A) (A) (A) (A) (A)
                 (A) (A) (A) (A) (A) (A) (A) (A) (A) (A) (A) (A)
                 (A) (A) (A) (A) (A) (A) (A) (A) (A) (A) (A) (A)
                 (A) (A) (A) (A) (A) (A) (A) (A) (A) (A) (A) (A)
                 (A) (A) (A) (A) (A) (A) (A) (A) (A) (A) (A) (A)
                 (A) (A) (A) (A) (A)
 The electronic state is 1-A.
 Alpha  occ. eigenvalues --  -10.16933 -10.16933 -10.16688 -10.16688 -10.16593
 Alpha  occ. eigenvalues --  -10.16593 -10.16539 -10.16539 -10.16488 -10.16488
 Alpha  occ. eigenvalues --  -10.16455 -10.16455 -10.16450 -10.16450 -10.16432
 Alpha  occ. eigenvalues --  -10.16430 -10.16419 -10.16410 -10.16399 -10.16386
 Alpha  occ. eigenvalues --   -0.81624  -0.81120  -0.80342  -0.79268  -0.77898
 Alpha  occ. eigenvalues --   -0.76238  -0.74303  -0.72111  -0.69689  -0.67085
 Alpha  occ. eigenvalues --   -0.64375  -0.61691  -0.59252  -0.57757  -0.57442
 Alpha  occ. eigenvalues --   -0.57427  -0.56925  -0.56608  -0.56138  -0.56073
 Alpha  occ. eigenvalues --   -0.48775  -0.48320  -0.47599  -0.46618  -0.45395
 Alpha  occ. eigenvalues --   -0.43960  -0.42938  -0.42889  -0.42354  -0.41977
 Alpha  occ. eigenvalues --   -0.41803  -0.40633  -0.40599  -0.39612  -0.38979
 Alpha  occ. eigenvalues --   -0.38861  -0.37454  -0.37126  -0.36628  -0.35935
 Alpha  occ. eigenvalues --   -0.35522  -0.34653  -0.34143  -0.33807  -0.33377
 Alpha  occ. eigenvalues --   -0.33056  -0.33020  -0.32590  -0.32407  -0.32306
 Alpha  occ. eigenvalues --   -0.32294  -0.32292  -0.32027  -0.31937  -0.31814
 Alpha  occ. eigenvalues --   -0.31773  -0.31595  -0.31587  -0.30412  -0.27798
 Alpha  occ. eigenvalues --   -0.25825
 Alpha virt. eigenvalues --    0.08575   0.08877   0.09330   0.09866   0.10446
 Alpha virt. eigenvalues --    0.10520   0.11099   0.11138   0.11626   0.11951
 Alpha virt. eigenvalues --    0.12136   0.12256   0.13102   0.13348   0.13503
 Alpha virt. eigenvalues --    0.14463   0.15073   0.15191   0.16065   0.17076
 Alpha virt. eigenvalues --    0.17160   0.17461   0.18128   0.18578   0.18859
 Alpha virt. eigenvalues --    0.19738   0.20027   0.20028   0.20399   0.20441
 Alpha virt. eigenvalues --    0.20471   0.20561   0.20580   0.20667   0.21002
 Alpha virt. eigenvalues --    0.21030   0.21649   0.21734   0.21977   0.22104
 Alpha virt. eigenvalues --    0.22134   0.22741   0.22915   0.22954   0.23014
 Alpha virt. eigenvalues --    0.23034   0.23547   0.23703   0.24890   0.25396
 Alpha virt. eigenvalues --    0.25741   0.26820   0.26859   0.27897   0.28428
 Alpha virt. eigenvalues --    0.28762   0.30327   0.32374   0.32847   0.37252
 Alpha virt. eigenvalues --    0.37670   0.39037   0.41734   0.44728   0.47117
 Alpha virt. eigenvalues --    0.47887   0.47983   0.49976   0.50509   0.51544
 Alpha virt. eigenvalues --    0.51688   0.51775   0.52028   0.52464   0.52622
 Alpha virt. eigenvalues --    0.53215   0.53784   0.53912   0.53927   0.53958
 Alpha virt. eigenvalues --    0.54218   0.55297   0.56106   0.57098   0.57448
 Alpha virt. eigenvalues --    0.57987   0.58742   0.59856   0.59894   0.59934
 Alpha virt. eigenvalues --    0.59948   0.60369   0.61149   0.61591   0.61862
 Alpha virt. eigenvalues --    0.62941   0.63781   0.64362   0.64438   0.64621
 Alpha virt. eigenvalues --    0.66029   0.66176   0.66738   0.67813   0.67946
 Alpha virt. eigenvalues --    0.68377   0.68469   0.69660   0.69708   0.69916
 Alpha virt. eigenvalues --    0.70398   0.70835   0.71698   0.71951   0.72730
 Alpha virt. eigenvalues --    0.73003   0.73037   0.73196   0.73958   0.74015
 Alpha virt. eigenvalues --    0.74310   0.74437   0.74700   0.75127   0.75748
 Alpha virt. eigenvalues --    0.76572   0.76621   0.76811   0.77413   0.77554
 Alpha virt. eigenvalues --    0.78103   0.79210   0.79553   0.79566   0.79935
 Alpha virt. eigenvalues --    0.79938   0.80322   0.80613   0.80678   0.81184
 Alpha virt. eigenvalues --    0.81246   0.81268   0.81955   0.81962   0.82737
 Alpha virt. eigenvalues --    0.82752   0.83306   0.83668   0.84370   0.85164
 Alpha virt. eigenvalues --    0.86241   0.86263   0.86305   0.87247   0.87608
 Alpha virt. eigenvalues --    0.87682   0.87929   0.88326   0.88497   0.89293
 Alpha virt. eigenvalues --    0.89420   0.90336   0.90788   0.90822   0.91249
 Alpha virt. eigenvalues --    0.91668   1.01663   1.03952   1.06443   1.07463
 Alpha virt. eigenvalues --    1.07862   1.08171   1.08327   1.09321   1.09910
 Alpha virt. eigenvalues --    1.12902   1.16663   1.16817   1.18210   1.18236
 Alpha virt. eigenvalues --    1.19009   1.19140   1.20006   1.20281   1.20717
 Alpha virt. eigenvalues --    1.21272   1.21595   1.22174   1.22800   1.22902
 Alpha virt. eigenvalues --    1.23242   1.24044   1.24508   1.24586   1.24972
 Alpha virt. eigenvalues --    1.25030   1.25528   1.26471   1.27097   1.27365
 Alpha virt. eigenvalues --    1.27629   1.28256   1.28527   1.34402   1.34429
 Alpha virt. eigenvalues --    1.36631   1.36981   1.37053   1.37456   1.37744
 Alpha virt. eigenvalues --    1.38333   1.39244   1.39429   1.40511   1.41310
 Alpha virt. eigenvalues --    1.41830   1.42179   1.43268   1.45385   1.46310
 Alpha virt. eigenvalues --    1.48083   1.48734   1.52082   1.53711   1.54087
 Alpha virt. eigenvalues --    1.54207   1.54490   1.56202   1.56878   1.57434
 Alpha virt. eigenvalues --    1.60332   1.60953   1.60959   1.61020   1.62711
 Alpha virt. eigenvalues --    1.64431   1.64707   1.66031   1.66260   1.66873
 Alpha virt. eigenvalues --    1.67782   1.68387   1.68902   1.69510   1.70228
 Alpha virt. eigenvalues --    1.70530   1.72020   1.72399   1.73972   1.74073
 Alpha virt. eigenvalues --    1.78250   1.79311   1.79973   1.81988   1.83082
 Alpha virt. eigenvalues --    1.84629   1.85220   1.85947   1.86317   1.86811
 Alpha virt. eigenvalues --    1.87969   1.88318   1.88598   1.88715   1.89230
 Alpha virt. eigenvalues --    1.89344   1.90023   1.90168   1.90851   1.91445
 Alpha virt. eigenvalues --    1.92137   1.93539   1.93654   1.93778   1.93872
 Alpha virt. eigenvalues --    1.94436   1.94715   1.95424   1.95593   1.96512
 Alpha virt. eigenvalues --    1.97320   1.97705   1.98316   1.99957   2.00008
 Alpha virt. eigenvalues --    2.13584   2.13604   2.13882   2.14413   2.15253
 Alpha virt. eigenvalues --    2.16328   2.17509   2.18645   2.19587   2.20042
 Alpha virt. eigenvalues --    2.20075   2.20418   2.20419   2.21062   2.21094
 Alpha virt. eigenvalues --    2.21875   2.21882   2.22651   2.22662   2.23773
 Alpha virt. eigenvalues --    2.23830   2.27801   2.28892   2.29678   2.32717
 Alpha virt. eigenvalues --    2.32963   2.35230   2.35231   2.36765   2.37859
 Alpha virt. eigenvalues --    2.38197   2.38847   2.39584   2.40050   2.40177
 Alpha virt. eigenvalues --    2.40369   2.41739   2.43651   2.44675   2.46363
 Alpha virt. eigenvalues --    2.47736   2.51850   2.52848   2.53540   2.56426
 Alpha virt. eigenvalues --    2.58413   2.59536   2.59688   2.62407   2.65073
 Alpha virt. eigenvalues --    2.69049   2.70948   2.71495   2.72694   2.72970
 Alpha virt. eigenvalues --    2.74316   2.74376   2.74385   2.74524   2.74929
 Alpha virt. eigenvalues --    2.75056   2.75495   2.75646   2.76181   2.76684
 Alpha virt. eigenvalues --    2.77116   2.77850   2.78185   2.78254   2.78618
 Alpha virt. eigenvalues --    2.79050   2.79939   2.80457   2.80484   2.80670
 Alpha virt. eigenvalues --    2.81206   2.82033   2.82074   2.82282   2.83218
 Alpha virt. eigenvalues --    2.83402   2.83433   2.83515   2.83527   2.83591
 Alpha virt. eigenvalues --    2.83704   2.83797   2.84141   2.84213   2.84754
 Alpha virt. eigenvalues --    2.86555   2.86797   2.88265   2.88478   2.88990
 Alpha virt. eigenvalues --    2.88998   2.89940   2.91417   2.91916   2.92312
 Alpha virt. eigenvalues --    2.92579   2.92767   2.93719   2.93745   2.94483
 Alpha virt. eigenvalues --    2.94804   2.95149   2.95837   2.96652   2.97025
 Alpha virt. eigenvalues --    2.97309   2.98504   2.98759   2.98863   2.99158
 Alpha virt. eigenvalues --    2.99269   2.99382   2.99597   3.01097   3.01483
 Alpha virt. eigenvalues --    3.01997   3.03308   3.03792   3.04805   3.06459
 Alpha virt. eigenvalues --    3.06986   3.08115   3.08794   3.11514   3.13525
 Alpha virt. eigenvalues --    3.14802   3.16529   3.16884   3.20146   3.20310
 Alpha virt. eigenvalues --    3.20541   3.22738   3.22804   3.23300   3.23694
 Alpha virt. eigenvalues --    3.24108   3.24232   3.24352   3.24756   3.26468
 Alpha virt. eigenvalues --    3.26629   3.27072   3.28095   3.30111   3.30119
 Alpha virt. eigenvalues --    3.30554   3.32117   3.34357   3.35969   3.37428
 Alpha virt. eigenvalues --    3.38335   3.39290   3.39363   3.41868   3.42508
 Alpha virt. eigenvalues --    3.44595   3.45847   3.47313   3.49561   3.50562
 Alpha virt. eigenvalues --    3.52036   3.52476   3.53516   3.53520   3.55382
 Alpha virt. eigenvalues --    3.55416   3.55496   3.56226   3.56255   3.56660
 Alpha virt. eigenvalues --    3.56878   3.57471   3.57744   3.58092   3.59255
 Alpha virt. eigenvalues --    3.59811   3.60287   3.61245   3.62277   3.62280
 Alpha virt. eigenvalues --    3.63159   3.64308   3.64762   3.65971   3.66801
 Alpha virt. eigenvalues --    3.67077   3.67936   3.70668   3.72807   3.73392
 Alpha virt. eigenvalues --    3.74156   3.74515   3.74890   3.75563   3.76018
 Alpha virt. eigenvalues --    3.76129   3.76779   3.79249   3.79277   3.79476
 Alpha virt. eigenvalues --    3.79938   3.80843   3.80913   3.81001   3.81693
 Alpha virt. eigenvalues --    3.81940   3.82037   3.82390   3.82566   3.82674
 Alpha virt. eigenvalues --    3.82803   3.83155   3.84690   3.87224   3.87301
 Alpha virt. eigenvalues --    3.90926   3.91599   3.93547   3.95053   3.99636
 Alpha virt. eigenvalues --    4.00958   4.05699   4.08744   4.09238   4.15943
 Alpha virt. eigenvalues --    4.16193   4.18644   4.22717   4.22853   4.26955
 Alpha virt. eigenvalues --    4.29676   4.34447   4.36229   4.36565   4.39165
 Alpha virt. eigenvalues --    4.39810   4.41342   4.42351   4.43369   4.44309
 Alpha virt. eigenvalues --    4.44423   4.45250   4.45880   4.45973   4.47660
 Alpha virt. eigenvalues --    4.49289   4.49311   4.51175   4.51457   4.52046
 Alpha virt. eigenvalues --    4.52072   4.53049   4.54146   4.54165   4.54684
 Alpha virt. eigenvalues --    4.54789   4.54803   4.54913   4.54920   4.56781
 Alpha virt. eigenvalues --    4.57029   4.58379   4.58526   4.58571   4.58989
 Alpha virt. eigenvalues --    4.59973   4.60167   4.60373   4.60769   4.61150
 Alpha virt. eigenvalues --    4.61291   4.62124   4.62210   4.62320   4.62957
 Alpha virt. eigenvalues --    4.63294   4.63674   4.64298   4.64475   4.64549
 Alpha virt. eigenvalues --    4.64842   4.65105   4.65420   4.66059   4.66308
 Alpha virt. eigenvalues --    4.66630   4.67446   4.67500   4.68007   4.68976
 Alpha virt. eigenvalues --    4.69116   4.69227   4.69931   4.69991   4.71413
 Alpha virt. eigenvalues --    4.71464   4.72026   4.73115   4.74119   4.74526
 Alpha virt. eigenvalues --    4.76795   4.77583   4.77734   4.77786   4.77852
 Alpha virt. eigenvalues --    4.78690   4.79176   4.79194   4.79862   4.80335
 Alpha virt. eigenvalues --    4.80436   4.80630   4.80991   4.81236   4.82820
 Alpha virt. eigenvalues --    4.84512   4.84844   4.84847   4.85970   4.86674
 Alpha virt. eigenvalues --    4.89257   4.90812   4.91385   4.91813   4.92198
 Alpha virt. eigenvalues --    4.92724   4.93020   4.93313   4.94217   4.95074
 Alpha virt. eigenvalues --    4.96340   4.96396   4.96938   4.96942   4.97410
 Alpha virt. eigenvalues --    4.97411   4.97903   4.98823   4.98881   5.01957
 Alpha virt. eigenvalues --    5.01958   5.05393   5.05424   5.06203   5.12548
 Alpha virt. eigenvalues --    5.16662   5.18919   5.20013   5.20475   5.22029
 Alpha virt. eigenvalues --    5.22894   5.24115   5.25973   5.28612   5.29828
 Alpha virt. eigenvalues --    5.35195   5.36138   5.41138   5.43970   5.46096
 Alpha virt. eigenvalues --    5.47169   5.49093   5.49391   5.50113   5.51006
 Alpha virt. eigenvalues --    5.52434   5.53065   5.54718   5.55428   5.59671
 Alpha virt. eigenvalues --    5.63172   5.63766   5.71059   5.71131   5.72515
 Alpha virt. eigenvalues --    5.90599   6.13847   6.38979   6.59703  11.10143
 Alpha virt. eigenvalues --   11.13640  11.22745  11.33701  11.45285  11.57155
 Alpha virt. eigenvalues --   11.69085  11.80742  11.91789  12.01923  12.10768
 Alpha virt. eigenvalues --   12.17892  12.23160  12.27079  12.30893  12.36202
 Alpha virt. eigenvalues --   12.44191  12.54582  12.64976  12.72843
          Condensed to atoms (all electrons):
 Mulliken charges:
               1
     1  C   -0.375526
     2  C   -0.159754
     3  C   -0.151687
     4  C   -0.173882
     5  C   -0.175484
     6  C   -0.174779
     7  C   -0.174954
     8  C   -0.174447
     9  C   -0.174630
    10  C   -0.174488
    11  C   -0.174489
    12  C   -0.174630
    13  C   -0.174448
    14  C   -0.174954
    15  C   -0.174780
    16  C   -0.175481
    17  C   -0.173882
    18  C   -0.151687
    19  C   -0.159753
    20  C   -0.375526
    21  H    0.103760
    22  H    0.110069
    23  H    0.110068
    24  H    0.090669
    25  H    0.090669
    26  H    0.088194
    27  H    0.088192
    28  H    0.088246
    29  H    0.088245
    30  H    0.087954
    31  H    0.087956
    32  H    0.087760
    33  H    0.087761
    34  H    0.087618
    35  H    0.087619
    36  H    0.087526
    37  H    0.087527
    38  H    0.087460
    39  H    0.087462
    40  H    0.087436
    41  H    0.087438
    42  H    0.087436
    43  H    0.087438
    44  H    0.087462
    45  H    0.087462
    46  H    0.087527
    47  H    0.087527
    48  H    0.087619
    49  H    0.087620
    50  H    0.087759
    51  H    0.087760
    52  H    0.087955
    53  H    0.087954
    54  H    0.088245
    55  H    0.088245
    56  H    0.088193
    57  H    0.088193
    58  H    0.090669
    59  H    0.090670
    60  H    0.110069
    61  H    0.103760
    62  H    0.110068
 Sum of Mulliken charges =  -0.00000
 Mulliken charges with hydrogens summed into heavy atoms:
               1
     1  C   -0.051629
     2  C    0.021585
     3  C    0.024700
     4  C    0.002609
     5  C    0.000426
     6  C    0.000742
     7  C    0.000284
     8  C    0.000606
     9  C    0.000292
    10  C    0.000386
    11  C    0.000385
    12  C    0.000294
    13  C    0.000606
    14  C    0.000284
    15  C    0.000739
    16  C    0.000429
    17  C    0.002608
    18  C    0.024699
    19  C    0.021585
    20  C   -0.051629
 Electronic spatial extent (au):  <R**2>=          31323.3996
 Charge=             -0.0000 electrons
 Dipole moment (field-independent basis, Debye):
    X=             -0.0000    Y=             -0.0000    Z=              0.0000  Tot=              0.0000
 Quadrupole moment (field-independent basis, Debye-Ang):
   XX=           -143.7822   YY=           -135.4132   ZZ=           -130.4496
   XY=             -1.2328   XZ=              0.0000   YZ=              0.0001
 Traceless Quadrupole moment (field-independent basis, Debye-Ang):
   XX=             -7.2339   YY=              1.1351   ZZ=              6.0987
   XY=             -1.2328   XZ=              0.0000   YZ=              0.0001
 Octapole moment (field-independent basis, Debye-Ang**2):
  XXX=             -0.0024  YYY=              0.0000  ZZZ=              0.0000  XYY=              0.0001
  XXY=             -0.0002  XXZ=              0.0003  XZZ=              0.0001  YZZ=             -0.0000
  YYZ=             -0.0000  XYZ=             -0.0001
 Hexadecapole moment (field-independent basis, Debye-Ang**3):
 XXXX=         -45176.9507 YYYY=           -490.8834 ZZZZ=           -275.9747 XXXY=           -290.0710
 XXXZ=              0.0026 YYYX=             -1.7526 YYYZ=              0.0004 ZZZX=              0.0002
 ZZZY=              0.0002 XXYY=          -7267.7826 XXZZ=          -7008.0967 YYZZ=           -116.3336
 XXYZ=              0.0024 YYXZ=              0.0003 ZZXY=              5.4657
 N-N= 1.384200304453D+03 E-N=-4.588137773738D+03  KE= 7.809146197345D+02
 PrsmSu:  requested number of processors reduced to:  12 ShMem   1 Linda.
 Calling FoFJK, ICntrl=      2127 FMM=T ISym2X=0 I1Cent= 0 IOpClX= 0 NMat=1 NMatS=1 NMatT=0.
 ***** Axes restored to original set *****
 -------------------------------------------------------------------
 Center     Atomic                   Forces (Hartrees/Bohr)
 Number     Number              X              Y              Z
 -------------------------------------------------------------------
      1        6          -0.004356868   -0.003412074    0.006239732
      2        6          -0.006938036    0.002304486   -0.004209659
      3        6           0.006743889   -0.005827855    0.010633714
      4        6          -0.009101570    0.005275444   -0.009631257
      5        6           0.007697752   -0.006040588    0.011048582
      6        6          -0.009301957    0.005717211   -0.010451908
      7        6           0.008479458   -0.006195866    0.011326727
      8        6          -0.009337581    0.006037405   -0.011042668
      9        6           0.008971242   -0.006258599    0.011448852
     10        6          -0.009249394    0.006216899   -0.011368795
     11        6           0.009249474   -0.006216881    0.011368773
     12        6          -0.008972522    0.006265977   -0.011449843
     13        6           0.009335625   -0.006045076    0.011041511
     14        6          -0.008479315    0.006197868   -0.011328035
     15        6           0.009300237   -0.005717135    0.010448457
     16        6          -0.007701504    0.006046636   -0.011040563
     17        6           0.009100729   -0.005271452    0.009628362
     18        6          -0.006743760    0.005817607   -0.010634398
     19        6           0.006938346   -0.002302495    0.004208824
     20        6           0.004356898    0.003412142   -0.006240654
     21        1          -0.003918664    0.000053013   -0.000097269
     22        1          -0.001521260    0.000144963   -0.000052340
     23        1          -0.001520493   -0.000036680   -0.000150434
     24        1           0.001796488   -0.000224523    0.000623499
     25        1           0.001796093   -0.000404373    0.000525836
     26        1          -0.001024772    0.000444758   -0.000572827
     27        1          -0.001023632    0.000245885   -0.000679070
     28        1           0.000488651   -0.000584321    0.000895502
     29        1           0.000487980   -0.000440811    0.000973353
     30        1          -0.000799633    0.000476531   -0.000641852
     31        1          -0.000801269    0.000280559   -0.000753033
     32        1           0.000578405   -0.000622838    0.000826987
     33        1           0.000578715   -0.000359560    0.000971628
     34        1          -0.000749747    0.000578487   -0.000683074
     35        1          -0.000749826    0.000262438   -0.000857082
     36        1           0.000623057   -0.000651992    0.000774670
     37        1           0.000624141   -0.000298427    0.000969156
     38        1          -0.000709174    0.000645274   -0.000722072
     39        1          -0.000710942    0.000257157   -0.000936713
     40        1           0.000670778   -0.000669267    0.000743592
     41        1           0.000671960   -0.000263205    0.000967853
     42        1          -0.000670796    0.000669209   -0.000743568
     43        1          -0.000671974    0.000263180   -0.000967872
     44        1           0.000711085   -0.000650569    0.000721673
     45        1           0.000710731   -0.000257037    0.000936959
     46        1          -0.000622628    0.000655681   -0.000773143
     47        1          -0.000622412    0.000298554   -0.000967863
     48        1           0.000749073   -0.000578701    0.000684079
     49        1           0.000750242   -0.000262938    0.000857149
     50        1          -0.000578365    0.000622951   -0.000826888
     51        1          -0.000577752    0.000360396   -0.000970178
     52        1           0.000802954   -0.000483647    0.000641341
     53        1           0.000801424   -0.000281491    0.000750471
     54        1          -0.000487634    0.000582650   -0.000895544
     55        1          -0.000487403    0.000440849   -0.000973776
     56        1           0.001023174   -0.000439625    0.000572756
     57        1           0.001024370   -0.000243844    0.000680954
     58        1          -0.001796277    0.000224803   -0.000624000
     59        1          -0.001796202    0.000404251   -0.000525571
     60        1           0.001521446   -0.000145426    0.000052346
     61        1           0.003918445   -0.000052547    0.000097281
     62        1           0.001520503    0.000036580    0.000151331
 -------------------------------------------------------------------
 Cartesian Forces:  Max     0.011449843 RMS     0.004661951

 GradGradGradGradGradGradGradGradGradGradGradGradGradGradGradGradGradGrad
 Berny optimization.
 FormGI is forming the generalized inverse of G from B-inverse, IUseBI=4.
 Internal  Forces:  Max     0.017537924 RMS     0.005103158
 Search for a local minimum.
 Step number   1 out of a maximum of  362
 All quantities printed in internal units (Hartrees-Bohrs-Radians)
 Mixed Optimization -- RFO/linear search
 Second derivative matrix not updated -- first step.
 ITU=  0
     Eigenvalues ---    0.00449   0.00449   0.00464   0.00464   0.00473
     Eigenvalues ---    0.00474   0.00494   0.00494   0.00501   0.00501
     Eigenvalues ---    0.00510   0.00510   0.00515   0.00515   0.00517
     Eigenvalues ---    0.00517   0.00519   0.00532   0.00532   0.03793
     Eigenvalues ---    0.03793   0.03830   0.03830   0.03848   0.03848
     Eigenvalues ---    0.03864   0.03864   0.03890   0.03890   0.03908
     Eigenvalues ---    0.03908   0.03918   0.03918   0.03927   0.03927
     Eigenvalues ---    0.03930   0.03930   0.04953   0.04953   0.04974
     Eigenvalues ---    0.04974   0.04982   0.04982   0.04986   0.04986
     Eigenvalues ---    0.05000   0.05000   0.05009   0.05009   0.05015
     Eigenvalues ---    0.05015   0.05019   0.05019   0.05021   0.05021
     Eigenvalues ---    0.05673   0.05673   0.05734   0.05734   0.07942
     Eigenvalues ---    0.07942   0.07943   0.07943   0.07952   0.07952
     Eigenvalues ---    0.07955   0.07955   0.07973   0.07973   0.07989
     Eigenvalues ---    0.07989   0.07990   0.07990   0.08061   0.08061
     Eigenvalues ---    0.08067   0.08067   0.11886   0.11886   0.11888
     Eigenvalues ---    0.11888   0.11895   0.11895   0.11899   0.11899
     Eigenvalues ---    0.11914   0.11914   0.11928   0.11928   0.11931
     Eigenvalues ---    0.11931   0.11987   0.11987   0.11987   0.11987
     Eigenvalues ---    0.16000   0.16000   0.16000   0.16000   0.16000
     Eigenvalues ---    0.16000   0.21867   0.21867   0.21868   0.21868
     Eigenvalues ---    0.21869   0.21869   0.21870   0.21870   0.21873
     Eigenvalues ---    0.21873   0.21875   0.21875   0.21877   0.21877
     Eigenvalues ---    0.21885   0.21885   0.21890   0.21890   0.29988
     Eigenvalues ---    0.29989   0.30093   0.30093   0.30164   0.30165
     Eigenvalues ---    0.30309   0.30309   0.30366   0.30366   0.30426
     Eigenvalues ---    0.30426   0.30464   0.30465   0.30482   0.30482
     Eigenvalues ---    0.30492   0.30593   0.30593   0.34048   0.34048
     Eigenvalues ---    0.34048   0.34049   0.34066   0.34067   0.34068
     Eigenvalues ---    0.34068   0.34068   0.34068   0.34068   0.34069
     Eigenvalues ---    0.34083   0.34083   0.34083   0.34084   0.34088
     Eigenvalues ---    0.34088   0.34088   0.34088   0.34095   0.34095
     Eigenvalues ---    0.34096   0.34096   0.34100   0.34101   0.34101
     Eigenvalues ---    0.34101   0.34103   0.34103   0.34104   0.34104
     Eigenvalues ---    0.34123   0.34123   0.34123   0.34123   0.34289
     Eigenvalues ---    0.34289   0.34290   0.34290   0.34392   0.34392
 RFO step:  Lambda=-3.59288645D-02 EMin= 4.48988854D-03
 Linear search not attempted -- first point.
 Maximum step size (   0.300) exceeded in Quadratic search.
    -- Step size scaled by   0.859
 Iteration  1 RMS(Cart)=  0.18408024 RMS(Int)=  0.00038173
 Iteration  2 RMS(Cart)=  0.00130028 RMS(Int)=  0.00010118
 Iteration  3 RMS(Cart)=  0.00000212 RMS(Int)=  0.00010118
 Iteration  4 RMS(Cart)=  0.00000000 RMS(Int)=  0.00010118
 Variable       Old X    -DE/DX   Delta X   Delta X   Delta X     New X
                                 (Linear)    (Quad)   (Total)
    R1        2.86796   0.01136   0.00000   0.02857   0.02857   2.89653
    R2        2.06674   0.00123   0.00000   0.00277   0.00277   2.06951
    R3        2.06844   0.00052   0.00000   0.00117   0.00117   2.06961
    R4        2.06844   0.00051   0.00000   0.00116   0.00116   2.06961
    R5        2.87987   0.00817   0.00000   0.02091   0.02091   2.90078
    R6        2.07123   0.00084   0.00000   0.00192   0.00192   2.07315
    R7        2.07123   0.00084   0.00000   0.00192   0.00192   2.07315
    R8        2.87778   0.01008   0.00000   0.02571   0.02571   2.90349
    R9        2.07248   0.00079   0.00000   0.00180   0.00180   2.07428
   R10        2.07250   0.00078   0.00000   0.00179   0.00179   2.07429
   R11        2.87638   0.01097   0.00000   0.02792   0.02792   2.90430
   R12        2.07214   0.00075   0.00000   0.00171   0.00171   2.07385
   R13        2.07215   0.00075   0.00000   0.00171   0.00171   2.07386
   R14        2.87351   0.01210   0.00000   0.03068   0.03068   2.90419
   R15        2.07218   0.00075   0.00000   0.00170   0.00170   2.07388
   R16        2.07216   0.00075   0.00000   0.00172   0.00172   2.07388
   R17        2.87239   0.01270   0.00000   0.03213   0.03213   2.90452
   R18        2.07190   0.00081   0.00000   0.00186   0.00186   2.07376
   R19        2.07189   0.00082   0.00000   0.00186   0.00186   2.07375
   R20        2.87122   0.01324   0.00000   0.03344   0.03344   2.90466
   R21        2.07182   0.00083   0.00000   0.00188   0.00188   2.07371
   R22        2.07182   0.00083   0.00000   0.00189   0.00189   2.07370
   R23        2.87046   0.01358   0.00000   0.03427   0.03427   2.90473
   R24        2.07170   0.00085   0.00000   0.00195   0.00195   2.07365
   R25        2.07169   0.00086   0.00000   0.00196   0.00196   2.07364
   R26        2.87013   0.01376   0.00000   0.03470   0.03470   2.90483
   R27        2.07161   0.00088   0.00000   0.00200   0.00200   2.07361
   R28        2.07159   0.00088   0.00000   0.00201   0.00201   2.07360
   R29        2.86994   0.01384   0.00000   0.03489   0.03489   2.90483
   R30        2.07157   0.00089   0.00000   0.00202   0.00202   2.07359
   R31        2.07155   0.00089   0.00000   0.00203   0.00203   2.07358
   R32        2.87013   0.01376   0.00000   0.03470   0.03470   2.90483
   R33        2.07157   0.00089   0.00000   0.00202   0.00202   2.07359
   R34        2.07155   0.00089   0.00000   0.00203   0.00203   2.07358
   R35        2.87047   0.01358   0.00000   0.03427   0.03427   2.90474
   R36        2.07159   0.00088   0.00000   0.00201   0.00201   2.07360
   R37        2.07159   0.00088   0.00000   0.00201   0.00201   2.07360
   R38        2.87122   0.01324   0.00000   0.03343   0.03343   2.90466
   R39        2.07169   0.00086   0.00000   0.00196   0.00196   2.07365
   R40        2.07169   0.00086   0.00000   0.00195   0.00195   2.07365
   R41        2.87239   0.01270   0.00000   0.03213   0.03213   2.90452
   R42        2.07182   0.00083   0.00000   0.00188   0.00188   2.07371
   R43        2.07182   0.00083   0.00000   0.00189   0.00189   2.07370
   R44        2.87351   0.01210   0.00000   0.03068   0.03068   2.90419
   R45        2.07190   0.00081   0.00000   0.00186   0.00186   2.07376
   R46        2.07190   0.00081   0.00000   0.00186   0.00186   2.07376
   R47        2.87636   0.01097   0.00000   0.02793   0.02793   2.90430
   R48        2.07216   0.00075   0.00000   0.00172   0.00172   2.07388
   R49        2.07217   0.00075   0.00000   0.00171   0.00171   2.07388
   R50        2.87778   0.01008   0.00000   0.02570   0.02570   2.90349
   R51        2.07215   0.00075   0.00000   0.00171   0.00171   2.07386
   R52        2.07215   0.00075   0.00000   0.00171   0.00171   2.07386
   R53        2.87986   0.00817   0.00000   0.02091   0.02091   2.90078
   R54        2.07250   0.00078   0.00000   0.00179   0.00179   2.07429
   R55        2.07249   0.00079   0.00000   0.00180   0.00180   2.07428
   R56        2.86796   0.01136   0.00000   0.02857   0.02857   2.89653
   R57        2.07123   0.00084   0.00000   0.00192   0.00192   2.07315
   R58        2.07123   0.00084   0.00000   0.00192   0.00192   2.07315
   R59        2.06844   0.00052   0.00000   0.00117   0.00117   2.06961
   R60        2.06674   0.00123   0.00000   0.00277   0.00277   2.06951
   R61        2.06844   0.00051   0.00000   0.00116   0.00116   2.06961
    A1        1.92420   0.00493   0.00000   0.02296   0.02288   1.94709
    A2        1.93394   0.00080   0.00000   0.00285   0.00281   1.93675
    A3        1.93393   0.00080   0.00000   0.00285   0.00282   1.93675
    A4        1.89030  -0.00265   0.00000  -0.01036  -0.01044   1.87986
    A5        1.89030  -0.00265   0.00000  -0.01036  -0.01044   1.87986
    A6        1.88985  -0.00150   0.00000  -0.00910  -0.00909   1.88076
    A7        1.93262   0.01042   0.00000   0.03865   0.03861   1.97123
    A8        1.91094  -0.00231   0.00000  -0.00325  -0.00321   1.90773
    A9        1.91095  -0.00231   0.00000  -0.00326  -0.00322   1.90773
   A10        1.91786  -0.00353   0.00000  -0.01266  -0.01285   1.90502
   A11        1.91786  -0.00353   0.00000  -0.01266  -0.01284   1.90501
   A12        1.87263   0.00093   0.00000  -0.00838  -0.00856   1.86406
   A13        1.93336   0.01273   0.00000   0.04650   0.04647   1.97983
   A14        1.91703  -0.00391   0.00000  -0.01232  -0.01244   1.90458
   A15        1.91702  -0.00391   0.00000  -0.01232  -0.01244   1.90458
   A16        1.91263  -0.00345   0.00000  -0.00866  -0.00868   1.90395
   A17        1.91262  -0.00344   0.00000  -0.00866  -0.00868   1.90394
   A18        1.87011   0.00153   0.00000  -0.00649  -0.00671   1.86339
   A19        1.92517   0.01451   0.00000   0.05291   0.05288   1.97806
   A20        1.91855  -0.00430   0.00000  -0.01296  -0.01308   1.90547
   A21        1.91855  -0.00430   0.00000  -0.01296  -0.01308   1.90547
   A22        1.91458  -0.00409   0.00000  -0.01112  -0.01117   1.90340
   A23        1.91457  -0.00409   0.00000  -0.01111  -0.01117   1.90340
   A24        1.87169   0.00182   0.00000  -0.00675  -0.00704   1.86465
   A25        1.92412   0.01527   0.00000   0.05559   0.05557   1.97969
   A26        1.91856  -0.00453   0.00000  -0.01361  -0.01373   1.90483
   A27        1.91856  -0.00453   0.00000  -0.01361  -0.01373   1.90483
   A28        1.91533  -0.00434   0.00000  -0.01194  -0.01200   1.90332
   A29        1.91534  -0.00434   0.00000  -0.01194  -0.01201   1.90333
   A30        1.87124   0.00197   0.00000  -0.00656  -0.00688   1.86435
   A31        1.92167   0.01606   0.00000   0.05844   0.05842   1.98008
[...]
 03,-0.00000306,0.00000044,-0.00000257,0.00000916,0.00000741,0.00000134
 ,-0.00000160,-0.00000536,0.00000434,-0.00002607,-0.00001737,0.00007227
 ,-0.00001411,-0.00000077,-0.00003343,0.00029099,0.00013648,0.00015702,
 -0.00002309,-0.00003131,0.00017759,0.00001935,0.00008154,0.00119837,0.
 00156741,0.00045396,0.00007244,-0.00694925,0.00004383,0.00067600,0.089
 46619,0.,0.00000005,-0.00000009,-0.00000005,0.00000019,-0.00000012,-0.
 00000003,0.00000009,0.,-0.00000004,0.00000017,-0.00000030,-0.00000014,
 0.,0.00000006,-0.00000019,0.,-0.00000023,-0.00000040,-0.00000013,-0.00
 000009,-0.00000034,-0.00000024,-0.00000025,-0.00000078,-0.00000014,-0.
 00000027,-0.00000024,-0.00000038,-0.00000047,-0.00000120,-0.00000015,-
 0.00000038,-0.00000063,-0.00000069,-0.00000124,-0.00000227,-0.00000034
 ,0.00000039,-0.00000510,-0.00000236,-0.00000467,-0.00000270,-0.0000005
 8,0.00001396,-0.00004296,-0.00001483,-0.00002307,-0.00003175,0.0000787
 2,0.00030337,0.00013421,-0.00017974,-0.00060739,0.00019480,-0.00024188
 ,0.00057502,-0.04573229,-0.11024064,-0.10074465,-0.00000004,0.00000001
 ,0.00000001,0.00000003,0.00000009,0.00000007,0.00000007,-0.00000018,-0
 .00000002,0.00000005,-0.00000020,0.,-0.00000001,0.00000006,0.00000007,
 0.00000009,-0.00000023,-0.00000001,0.00000007,0.00000012,0.00000010,0.
 00000003,-0.00000011,0.,-0.00000002,0.00000006,0.00000009,0.00000013,-
 0.00000029,-0.00000008,0.00000018,0.00000023,0.00000020,0.00000005,-0.
 00000010,-0.00000006,0.00000007,0.00000013,0.00000021,0.00000014,-0.00
 000022,-0.00000014,0.00000035,0.00000034,0.00000034,0.00000006,-0.0000
 0012,-0.00000017,0.00000018,0.00000031,0.00000045,0.00000024,-0.000000
 21,-0.00000021,0.00000059,0.00000043,0.00000048,0.00000002,-0.00000030
 ,-0.00000024,0.00000019,0.00000055,0.00000083,0.00000041,-0.00000036,-
 0.00000025,0.00000103,0.00000064,0.00000084,-0.00000010,-0.00000066,-0
 .00000040,0.00000011,0.00000109,0.00000171,0.00000086,-0.00000067,-0.0
 0000032,0.00000225,0.00000105,0.00000159,-0.00000051,-0.00000155,-0.00
 000100,-0.00000038,0.00000306,0.00000407,0.00000294,-0.00000185,-0.000
 00034,0.00000769,0.00000084,0.00000302,-0.00000294,-0.00000696,-0.0000
 0211,-0.00000932,0.00001323,0.00002384,0.00002948,-0.00002536,0.000000
 85,0.00013107,-0.00000290,0.00002156,-0.00005565,-0.00002381,-0.000084
 00,-0.00028608,0.00011598,0.00040038,-0.00031362,0.00059065,0.00059400
 ,0.00019967,0.00132680,0.00026822,0.05069102,0.11552876,0.00000046,-0.
 00000010,0.00000050,0.00000005,0.00000051,-0.00000036,0.00000044,-0.00
 000012,0.00000057,-0.00000031,0.00000033,-0.00000038,0.00000035,-0.000
 00038,0.00000071,-0.00000072,0.00000029,-0.00000114,0.00000047,-0.0000
 0115,0.00000090,-0.00000155,0.00000008,-0.00000181,0.00000110,-0.00000
 199,0.00000173,-0.00000303,0.00000063,-0.00000343,0.00000223,-0.000003
 74,0.00000401,-0.00000668,0.00000193,-0.00000686,0.00000452,-0.0000082
 6,0.00001044,-0.00001932,0.00000460,-0.00001628,0.00000931,-0.00002538
 ,0.00002895,-0.00007951,0.00000386,-0.00003376,0.00012330,0.00007434,0
 .00032276,0.00032394,0.00048985,0.00098632,0.00006312,0.00095572,0.000
 29763,-0.07374465,-0.10080394,-0.21009188,-0.00000050,-0.00000025,0.00
 000038,-0.00000005,0.00000005,-0.00000030,-0.00000014,0.00000005,-0.00
 000018,-0.00000004,-0.00000024,-0.00000006,-0.00000014,-0.00000003,0.0
 0000008,-0.00000004,-0.00000013,-0.00000014,-0.00000002,0.00000005,-0.
 00000011,-0.00000007,0.,-0.00000008,-0.00000010,-0.00000005,0.,-0.0000
 0009,-0.00000008,-0.00000013,0.00000005,0.00000009,0.00000012,-0.00000
 005,0.00000012,0.,0.00000008,0.00000004,0.00000036,-0.00000018,0.00000
 027,-0.00000006,0.00000030,0.00000025,0.00000039,-0.00000014,0.0000004
 4,0.00000004,0.00000022,0.00000008,0.00000069,-0.00000040,0.00000060,-
 0.00000009,0.00000034,0.00000028,0.00000048,-0.00000011,0.00000025,0.0
 0000013,0.00000032,0.00000023,0.00000136,-0.00000076,0.00000097,-0.000
 00016,0.00000045,0.00000042,0.00000060,-0.00000013,-0.00000002,0.00000
 016,0.00000045,0.00000051,0.00000269,-0.00000164,0.00000177,-0.0000004
 1,0.00000080,0.00000082,0.00000088,-0.00000006,-0.00000056,0.00000026,
 0.00000110,0.00000138,0.00000557,-0.00000392,0.00000367,-0.00000132,-0
 .00000162,0.00000137,0.00000131,0.00000014,-0.00000369,0.00000090,-0.0
 0000487,0.00000027,0.00000430,-0.00002286,0.00000481,-0.00001562,0.000
 12810,0.00001641,-0.00011710,0.00000088,0.00001088,-0.00000194,-0.0002
 5887,-0.00032811,0.00045687,-0.00045169,0.00030075,0.00016143,0.000369
 93,0.00061949,0.00127843,0.08202295,0.11168682,0.22680869,0.00000034,-
 0.00000058,0.00000110,-0.00000018,0.00000053,-0.00000106,0.00000098,-0
 .00000071,0.00000120,-0.00000144,0.00000071,-0.00000131,0.00000146,-0.
 00000097,0.00000170,-0.00000235,0.00000142,-0.00000263,0.00000233,-0.0
 0000198,0.00000361,-0.00000476,0.00000257,-0.00000467,0.00000485,-0.00
 000435,0.00000798,-0.00001135,0.00000538,-0.00000978,0.00000994,-0.000
 01092,0.00002001,-0.00003228,0.00001298,-0.00002365,0.00002254,-0.0000
 3547,0.00006485,-0.00013013,0.00003997,-0.00007300,0.00005653,-0.00016
 539,0.00030204,-0.00080276,0.00017193,-0.00031418,0.00016063,-0.001138
 31,0.00207952,-0.00697033,0.00125550,-0.00229378,-0.01031535,-0.016047
 21,0.02931686,-0.07374219,-0.03832735,0.07002100,-0.00000070,-0.000000
 29,0.00000050,-0.00000013,-0.00000005,-0.00000048,-0.00000017,0.000000
 45,-0.00000023,-0.00000012,0.,0.00000013,-0.00000009,-0.00000011,0.000
 00014,-0.00000015,0.00000023,-0.00000005,-0.00000011,-0.00000009,-0.00
 000016,0.,-0.00000013,0.00000015,0.00000004,-0.00000005,0.00000023,-0.
 00000026,0.00000024,0.00000005,-0.00000024,-0.00000017,-0.00000013,-0.
 00000001,-0.00000031,0.00000031,0.00000001,-0.00000009,0.00000045,-0.0
 0000031,0.00000028,0.00000006,-0.00000033,-0.00000020,-0.00000022,0.,-
 0.00000046,0.00000050,0.,-0.00000016,0.00000063,-0.00000078,0.00000060
 ,0.00000010,-0.00000081,-0.00000040,-0.00000050,0.00000013,-0.00000120
 ,0.00000083,0.00000011,-0.00000005,0.00000142,-0.00000167,0.00000151,0
 .00000009,-0.00000171,-0.00000090,-0.00000128,0.00000047,-0.00000283,0
 .00000140,0.00000044,0.00000034,0.00000308,-0.00000343,0.00000442,0.00
 000006,-0.00000345,-0.00000244,-0.00000373,0.00000216,-0.00000830,0.00
 000174,0.00000215,0.00000302,0.00000791,-0.00000534,0.00001695,0.00000
 122,-0.00000531,-0.00001012,-0.00001359,0.00001858,-0.00002885,-0.0000
 1476,0.00001859,0.00002801,0.00001639,0.00000468,0.00010748,0.00001957
 ,0.00000471,-0.00007439,-0.00007993,0.00011979,-0.00015905,-0.00023747
 ,0.00011981,0.00028576,0.00000606,0.00137626,0.00059333,-0.00006934,0.
 00137628,-0.00026133,-0.00053710,0.00337259,0.00627258,-0.00948959,0.0
 8198930,0.,-0.00000050,0.00000047,0.,0.00000034,-0.00000048,0.00000032
 ,-0.00000012,0.00000056,-0.00000071,0.00000041,-0.00000065,0.00000060,
 -0.00000021,0.00000053,-0.00000095,0.00000070,-0.00000103,0.00000075,-
 0.00000044,0.00000123,-0.00000157,0.00000100,-0.00000156,0.00000166,-0
 .00000096,0.00000240,-0.00000313,0.00000165,-0.00000285,0.00000311,-0.
 00000206,0.00000500,-0.00000646,0.00000308,-0.00000596,0.00000707,-0.0
 0000488,0.00001162,-0.00001455,0.00000291,-0.00001598,0.00001900,-0.00
 001761,0.00003311,-0.00003441,0.00002332,-0.00004590,0.00019310,0.0004
 3479,0.00028109,-0.00030185,0.00045566,-0.00036408,0.00068542,-0.00080
 717,-0.00109593,-0.03898183,-0.10118395,0.09879027,-0.00000024,0.00000
 003,0.00000018,-0.00000017,0.,-0.00000022,0.00000009,0.00000017,-0.000
 00007,0.,-0.00000008,0.00000026,-0.00000011,-0.00000007,-0.00000016,0.
 00000010,-0.00000003,0.00000013,-0.00000014,0.,-0.00000020,0.00000020,
 -0.00000021,0.00000025,-0.00000004,0.,0.00000005,-0.00000003,-0.000000
 04,0.00000016,-0.00000012,-0.00000003,-0.00000017,0.00000011,-0.000000
 25,0.00000020,-0.00000006,-0.00000011,0.00000018,-0.00000010,-0.000000
 05,0.,-0.00000006,-0.00000011,-0.00000011,0.00000005,-0.00000025,0.000
 00013,0.00000004,-0.00000016,0.00000030,-0.00000030,0.00000005,-0.0000
 0008,-0.00000023,-0.00000023,-0.00000013,0.00000006,-0.00000042,0.0000
 0017,0.00000014,-0.00000014,0.00000046,-0.00000063,0.00000028,-0.00000
 009,-0.00000060,-0.00000049,-0.00000034,0.00000015,-0.00000053,0.00000
 040,0.00000017,-0.00000016,0.00000065,-0.00000146,0.00000096,-0.000000
 14,-0.00000144,-0.00000102,-0.00000101,0.00000035,-0.00000081,0.000001
 61,0.00000036,0.00000006,0.00000120,-0.00000058,0.00000074,-0.00000083
 ,-0.00000408,-0.00000258,-0.00000350,0.00000668,-0.00000058,0.00000607
 ,-0.00000109,0.00000155,0.00000465,-0.00012189,-0.00000147,0.00000140,
 0.00003584,-0.00002255,-0.00002266,0.00016109,0.00051533,-0.00031673,0
 .00000297,0.00000089,0.00033906,-0.00030642,0.00048147,-0.00039618,-0.
 00016512,-0.00013824,0.00005526,0.00614171,0.00762062,-0.01404930,0.04
 286581,0.10591534,-0.00000001,0.00000045,-0.00000111,0.,-0.00000042,0.
 00000101,-0.00000060,0.00000063,-0.00000078,0.00000128,-0.00000063,0.0
 0000123,-0.00000112,0.00000056,-0.00000085,0.00000170,-0.00000107,0.00
 000207,-0.00000140,0.00000123,-0.00000208,0.00000289,-0.00000162,0.000
 00306,-0.00000304,0.00000238,-0.00000406,0.00000572,-0.00000293,0.0000
 0535,-0.00000573,0.00000500,-0.00000858,0.00001187,-0.00000600,0.00001
 069,-0.00001288,0.00001163,-0.00001981,0.00002664,-0.00001598,0.000023
 37,-0.00003468,0.00003318,-0.00005991,0.00006284,-0.00004582,0.0000820
 4,-0.00035271,0.00028112,0.00007521,0.00055149,-0.00036401,0.00092155,
 -0.00125214,-0.00109584,0.00059517,0.07121667,0.09879027,-0.22759103,0
 .00000045,0.00000019,-0.00000018,-0.00000003,0.00000004,0.00000035,0.0
 0000017,-0.00000036,0.00000020,0.00000017,-0.00000021,-0.00000013,0.00
 000006,0.00000027,-0.00000022,0.00000015,-0.00000021,0.00000008,-0.000
 00004,0.00000009,-0.00000007,-0.00000004,0.00000016,-0.00000020,-0.000
 00023,0.00000013,-0.00000045,0.00000015,-0.00000017,0.,0.00000011,0.00
 000013,-0.00000007,0.00000001,0.00000028,-0.00000036,-0.00000009,0.000
 00009,-0.00000049,0.00000010,-0.00000010,-0.00000004,0.00000019,0.0000
 0001,0.00000006,-0.00000010,0.00000040,-0.00000045,-0.00000008,0.00000
 003,-0.00000051,0.00000044,-0.00000026,-0.00000012,0.00000055,0.000000
 07,0.00000024,-0.00000023,0.00000068,-0.00000056,-0.00000013,-0.000000
 02,-0.00000079,0.00000109,-0.00000075,-0.00000022,0.00000117,0.0000003
 8,0.00000061,-0.00000032,0.00000091,-0.00000083,-0.00000027,0.00000017
 ,-0.00000114,0.00000263,-0.00000225,-0.00000029,0.00000265,0.00000113,
 0.00000170,-0.00000069,0.00000180,-0.00000174,-0.00000067,0.00000101,-
 0.00000265,0.00000524,-0.00000567,0.00000018,0.00000327,0.00000128,0.0
 0000348,-0.00000299,0.00000598,-0.00000530,-0.00000727,0.00000468,-0.0
 0000748,0.00003546,-0.00003619,-0.00000894,0.00012173,0.00001489,0.000
 01208,-0.00010658,0.00000988,-0.00001338,-0.00019319,0.00001239,0.0005
 0098,0.00039205,-0.00034127,0.00007990,0.00046935,0.00000028,0.0006995
 2,0.00815174,0.01237943,-0.02075653,-0.07831241,-0.10895929,0.24533419
 ,0.00000009,-0.00000037,0.00000008,0.00000003,0.00000020,-0.00000017,0
 .00000019,0.00000007,0.00000021,-0.00000029,0.00000022,-0.00000029,0.0
 0000008,-0.00000003,0.00000027,-0.00000047,0.00000047,-0.00000027,-0.0
 0000009,0.00000015,0.00000052,-0.00000080,0.00000073,-0.00000026,-0.00
 000010,0.00000016,0.00000106,-0.00000130,0.00000130,-0.00000077,0.0000
 0004,0.00000013,0.00000197,-0.00000217,0.00000271,-0.00000209,0.000000
 38,0.00000088,0.00000383,-0.00000345,0.00000734,-0.00000384,0.00001465
 ,0.00000525,-0.00000750,0.00004681,-0.00009407,-0.00001509,-0.00007546
 ,-0.00020630,-0.00010075,0.00168930,0.00152102,-0.00108952,-0.01361615
 ,0.03296965,-0.00006124,-0.07957819,0.08589065,-0.00117825,-0.00000013
 ,0.00000009,0.00000015,-0.00000022,0.00000007,-0.00000012,0.00000016,0
 .00000002,-0.00000005,0.00000008,-0.00000029,0.00000020,-0.00000007,0.
 00000014,-0.00000013,0.00000020,-0.00000016,0.00000010,-0.00000010,0.0
 0000015,-0.00000015,0.00000016,-0.00000017,0.00000014,-0.00000013,0.00
 000010,-0.00000012,0.00000015,-0.00000030,0.00000010,-0.00000001,0.000
 00017,-0.00000010,0.00000018,-0.00000031,0.00000008,-0.00000005,-0.000
 00005,-0.00000005,0.00000024,-0.00000043,-0.00000011,0.00000011,0.0000
 0005,-0.00000006,0.00000015,-0.00000044,0.00000002,0.00000004,-0.00000
 014,-0.00000004,0.00000038,-0.00000058,-0.00000024,0.00000008,-0.00000
 002,-0.00000010,0.00000016,-0.00000104,0.00000017,0.00000013,-0.000000
 09,0.00000012,0.00000077,-0.00000102,-0.00000039,-0.00000010,-0.000000
 02,-0.00000022,0.00000020,-0.00000243,0.00000077,0.00000008,0.,0.00000
 024,0.00000186,-0.00000233,-0.00000086,-0.00000066,0.00000027,-0.00000
 068,-0.00000009,-0.00000554,0.00000248,-0.00000013,-0.00000013,0.00000
 042,0.00000917,-0.00000515,-0.00000551,-0.00000304,0.00000195,-0.00000
 173,-0.00002608,-0.00005150,0.00005358,-0.00000161,-0.00000077,0.00000
 686,0.00029097,-0.00020582,-0.00003035,-0.00001409,0.00002858,-0.00001
 733,0.00001930,-0.00105338,0.00057711,-0.00002311,-0.00013271,0.000122
 09,-0.00694929,-0.00059302,0.00032739,0.00156738,-0.00030568,-0.000343
 34,0.00381544,-0.01118085,0.00103844,0.00337254,-0.01017660,-0.0007803
 7,0.08946591,-0.00000037,0.00000029,-0.00000026,-0.00000002,-0.0000000
 7,0.00000059,-0.00000037,0.00000035,-0.00000035,0.00000034,-0.00000027
 ,0.00000059,-0.00000022,0.00000038,-0.00000065,0.00000079,-0.00000072,
 0.00000074,-0.00000016,0.00000008,-0.00000122,0.00000152,-0.00000135,0
 .00000078,-0.00000045,0.00000019,-0.00000221,0.00000273,-0.00000238,0.
 00000190,-0.00000113,0.00000089,-0.00000435,0.00000593,-0.00000476,0.0
 0000452,-0.00000257,0.00000371,-0.00001084,0.00001897,-0.00001228,0.00
 001093,-0.00000638,0.00001520,-0.00003547,0.00009013,-0.00003703,0.000
 01808,-0.00008680,0.00042335,-0.00014616,-0.00034527,0.00059427,-0.000
 00540,-0.00015819,0.00083577,0.00026618,0.08676517,-0.27258768,0.00306
 123,0.00000042,0.00000015,-0.00000035,0.00000010,-0.00000017,0.0000000
 6,0.00000002,-0.00000012,0.00000019,0.00000008,0.00000012,-0.00000004,
 0.00000001,-0.00000020,-0.00000018,-0.00000004,0.00000002,0.00000010,0
 .,-0.00000021,-0.00000007,0.00000006,0.00000006,-0.00000002,0.00000004
 ,-0.00000009,0.,-0.00000012,0.00000027,0.00000006,0.,-0.00000023,-0.00
 000009,-0.00000010,0.00000038,-0.00000013,-0.00000002,0.,0.00000003,-0
 .00000041,0.00000057,0.00000008,0.00000006,-0.00000006,0.00000016,-0.0
 0000028,0.00000077,-0.00000023,0.00000005,0.00000011,0.00000026,-0.000
 00061,0.00000077,0.00000007,0.00000018,0.00000005,0.00000044,-0.000000
 38,0.00000160,-0.00000043,0.00000004,-0.00000002,0.00000002,-0.0000009
 5,0.00000115,0.00000007,0.00000039,0.00000014,0.00000068,-0.00000045,0
 .00000326,-0.00000084,0.00000016,-0.00000028,-0.00000029,-0.00000190,0
 .00000201,0.00000022,0.00000091,0.00000017,0.00000124,-0.00000070,0.00
 000731,-0.00000134,0.00000033,-0.00000096,-0.00000090,-0.00000282,0.00
 000318,-0.00000012,0.00000172,0.00000002,0.00000246,0.00000912,0.00001
 787,-0.00000270,0.00000148,-0.00000402,-0.00000557,-0.00017854,-0.0000
 6667,0.00005721,0.00000338,-0.00001589,-0.00000126,0.00037225,0.000390
 69,-0.00050385,0.00002931,-0.00004149,0.00002224,-0.00041920,0.0016955
 1,0.00038361,0.00054954,0.00069229,0.00023576,0.00515082,-0.01453612,0
 .00104222,0.00461322,-0.01327288,-0.00068219,-0.09641080,0.29589297,0.
 00000024,-0.00000023,0.00000028,0.00000008,0.00000003,-0.00000012,0.00
 000025,-0.00000016,0.00000031,-0.00000015,-0.00000002,0.,0.00000030,-0
 .00000019,0.00000035,-0.00000025,0.00000024,-0.00000034,0.00000058,-0.
 00000022,0.00000070,-0.00000055,0.00000048,-0.00000061,0.00000124,-0.0
 0000048,0.00000142,-0.00000144,0.00000084,-0.00000131,0.00000219,-0.00
 000106,0.00000289,-0.00000304,0.00000137,-0.00000279,0.00000436,-0.000
 00220,0.00000635,-0.00000609,0.00000167,-0.00000637,0.00000730,0.00000
 384,0.00001317,-0.00000667,-0.00000889,-0.00001163,0.00009322,0.000082
 87,-0.00002185,0.00006153,-0.00110258,0.00021229,-0.00013004,-0.000114
 50,-0.00078006,-0.00121939,0.00312046,-0.04774530,-0.00000023,-0.00000
 009,0.00000023,-0.00000014,-0.00000003,-0.00000021,-0.00000005,0.00000
 020,-0.00000007,-0.00000005,0.00000003,0.00000004,-0.00000007,0.,-0.00
 000008,-0.00000005,0.00000015,-0.00000001,-0.00000010,-0.00000002,-0.0
 0000017,-0.00000002,0.00000009,0.00000002,-0.00000007,-0.00000002,-0.0
 0000012,-0.00000013,0.00000017,0.00000007,-0.00000016,-0.00000011,-0.0
 0000017,-0.00000002,0.00000006,0.00000008,-0.00000006,-0.00000013,-0.0
 0000007,-0.00000015,0.00000017,0.00000008,-0.00000020,-0.00000025,-0.0
 0000022,-0.00000005,0.00000015,0.00000017,-0.00000010,-0.00000032,-0.0
 0000017,-0.00000032,0.00000026,0.00000009,-0.00000040,-0.00000038,-0.0
 0000035,0.,0.00000016,0.00000029,-0.00000006,-0.00000044,-0.00000016,-
 0.00000063,0.00000051,0.00000006,-0.00000074,-0.00000057,-0.00000062,0
 .00000014,0.00000033,0.00000054,0.00000003,-0.00000066,-0.00000023,-0.
 00000146,0.00000097,-0.00000011,-0.00000160,-0.00000086,-0.00000124,0.
 00000090,0.00000137,0.00000133,0.00000039,-0.00000138,-0.00000034,-0.0
 0000734,0.00000153,-0.00000101,-0.00000459,-0.00000153,-0.00000320,0.0
 0000522,0.00002089,-0.00000029,0.00000254,-0.00000398,-0.00000205,-0.0
 0004136,0.00006237,-0.00005329,-0.00003716,-0.00000520,-0.00002510,0.0
 0010148,0.00022463,0.00018218,0.00004732,-0.00007269,0.00001572,0.0000
 3117,0.00003235,0.00090978,0.00002074,0.00052898,0.00005979,0.00997786
 ,-0.02480940,0.00066949,-0.01039785,0.02574658,0.00013704,0.00150371,-
 0.00370520,0.04644491\\-0.00001249,0.00000611,-0.00001108,0.00002785,-
 0.00002411,0.00004404,-0.00004403,0.00004180,-0.00007648,0.00005135,-0
 .00003502,0.00006401,-0.00006765,0.00003888,-0.00007085,0.00004561,-0.
 00004449,0.00008122,-0.00006772,0.00003793,-0.00006923,0.00005137,-0.0
 0004099,0.00007479,-0.00006114,0.00003690,-0.00006725,0.00005525,-0.00
 003834,0.00006989,-0.00005524,0.00003833,-0.00006990,0.00006108,-0.000
 03680,0.00006725,-0.00005138,0.00004094,-0.00007481,0.00006768,-0.0000
 3790,0.00006920,-0.00004565,0.00004446,-0.00008128,0.00006760,-0.00003
 876,0.00007091,-0.00005140,0.00003503,-0.00006397,0.00004406,-0.000041
 88,0.00007644,-0.00002788,0.00002409,-0.00004402,0.00001251,-0.0000061
 1,0.00001105,0.00003423,-0.00000102,0.00000185,0.00001785,0.00000364,-
 0.00001100,0.00001787,0.00000727,-0.00000900,-0.00000923,0.00000647,0.
 00002081,-0.00000923,-0.00002102,0.00000573,-0.00000106,-0.00000086,-0
 .00001867,-0.00000099,0.00001625,-0.00000919,-0.00000105,0.00000615,0.
 00001152,-0.00000111,-0.00001305,0.00000096,-0.00000378,-0.00001595,-0
 .00000465,-0.00000385,0.00001245,0.00001083,-0.00000245,0.00001482,0.0
 0001034,-0.00000239,-0.00001665,-0.00000681,-0.00000055,-0.00001815,-0
 .00000696,-0.00000061,0.00001559,0.00001143,-0.00000277,0.00001819,0.0
 0000833,-0.00000269,-0.00001677,-0.00001066,0.00000134,-0.00001968,-0.
 00000720,0.00000127,0.00001660,0.00001250,-0.00000234,0.00001963,0.000
 00748,-0.00000228,-0.00001682,-0.00001237,0.00000234,-0.00001962,-0.00
 000748,0.00000228,0.00001682,0.00001238,-0.00000131,0.00001957,0.00000
 722,-0.00000128,-0.00001661,-0.00001256,0.00000273,-0.00001808,-0.0000
 0832,0.00000274,0.00001676,0.00001075,0.00000061,0.00001813,0.00000696
 ,0.00000061,-0.00001562,-0.00001144,0.00000246,-0.00001482,-0.00001032
 ,0.00000243,0.00001667,0.00000685,0.00000382,0.00001584,0.00000466,0.0
 0000384,-0.00001248,-0.00001089,0.00000109,-0.00000616,-0.00001154,0.0
 0000110,0.00001304,-0.00000099,0.00000103,0.00000098,0.00001864,0.0000
 0104,-0.00001621,0.00000929,0.00000924,-0.00000650,-0.00002080,0.00000
 922,0.00002101,-0.00000578,-0.00001784,-0.00000365,0.00001101,-0.00003
 424,0.00000103,-0.00000184,-0.00001787,-0.00000726,0.00000902\\\@


 CONFIDENCE: THAT QUIET ASSURED FEELING YOU HAVE
 JUST BEFORE YOU FALL FLAT ON YOUR FACE.
 Job cpu time:       1 days  1 hours 32 minutes 42.0 seconds.
 Elapsed time:       0 days  6 hours 24 minutes 46.4 seconds.
 File lengths (MBytes):  RWF=   2424 Int=      0 D2E=      0 Chk=     50 Scr=      1
 Normal termination of Gaussian 16 at Tue May 23 11:26:36 2023.
### All Done ###
