### Starting Gaussian ###
 Entering Gaussian System, Link 0=g16
 Initial command:
 /cluster/software/gaussian/gaussian-16-A.03/avx2/g16/l1.exe "/local/scratch/yxie/Gau-32056.inp" -scrdir="/local/scratch/yxie/"
 Entering Link 1 = /cluster/software/gaussian/gaussian-16-A.03/avx2/g16/l1.exe PID=     32057.
  
 Copyright (c) 1988,1990,1992,1993,1995,1998,2003,2009,2016,
            Gaussian, Inc.  All Rights Reserved.
  
 This is part of the Gaussian(R) 16 program.  It is based on
 the Gaussian(R) 09 system (copyright 2009, Gaussian, Inc.),
 the Gaussian(R) 03 system (copyright 2003, Gaussian, Inc.),
 the Gaussian(R) 98 system (copyright 1998, Gaussian, Inc.),
 the Gaussian(R) 94 system (copyright 1995, Gaussian, Inc.),
 the Gaussian 92(TM) system (copyright 1992, Gaussian, Inc.),
 the Gaussian 90(TM) system (copyright 1990, Gaussian, Inc.),
 the Gaussian 88(TM) system (copyright 1988, Gaussian, Inc.),
 the Gaussian 86(TM) system (copyright 1986, Carnegie Mellon
 University), and the Gaussian 82(TM) system (copyright 1983,
 Carnegie Mellon University). Gaussian is a federally registered
 trademark of Gaussian, Inc.
  
 This software contains proprietary and confidential information,
 including trade secrets, belonging to Gaussian, Inc.
  
 This software is provided under written license and may be
 used, copied, transmitted, or stored only in accord with that
 written license.
  
 The following legend is applicable only to US Government
 contracts under FAR:
  
                    RESTRICTED RIGHTS LEGEND
  
 Use, reproduction and disclosure by the US Government is
 subject to restrictions as set forth in subparagraphs (a)
 and (c) of the Commercial Computer Software - Restricted
 Rights clause in FAR 52.227-19.
  
 Gaussian, Inc.
 340 Quinnipiac St., Bldg. 40, Wallingford CT 06492
  
  
 ---------------------------------------------------------------
 Warning -- This program may not be used in any manner that
 competes with the business of Gaussian, Inc. or will provide
 assistance to any competitor of Gaussian, Inc.  The licensee
 of this program is prohibited from giving any competitor of
 Gaussian, Inc. access to this program.  By using this program,
 the user acknowledges that Gaussian, Inc. is engaged in the
 business of creating and licensing software in the field of
 computational chemistry and represents and warrants to the
 licensee that it is not a competitor of Gaussian, Inc. and that
 it will not use this program in any manner prohibited above.
 ---------------------------------------------------------------
  

 Cite this work as:
 Gaussian 16, Revision A.03,
 M. J. Frisch, G. W. Trucks, H. B. Schlegel, G. E. Scuseria, 
 M. A. Robb, J. R. Cheeseman, G. Scalmani, V. Barone, 
 G. A. Petersson, H. Nakatsuji, X. Li, M. Caricato, A. V. Marenich, 
 J. Bloino, B. G. Janesko, R. Gomperts, B. Mennucci, H. P. Hratchian, 
 J. V. Ortiz, A. F. Izmaylov, J. L. Sonnenberg, D. Williams-Young, 
 F. Ding, F. Lipparini, F. Egidi, J. Goings, B. Peng, A. Petrone, 
 T. Henderson, D. Ranasinghe, V. G. Zakrzewski, J. Gao, N. Rega, 
 G. Zheng, W. Liang, M. Hada, M. Ehara, K. Toyota, R. Fukuda, 
 J. Hasegawa, M. Ishida, T. Nakajima, Y. Honda, O. Kitao, H. Nakai, 
 T. Vreven, K. Throssell, J. A. Montgomery, Jr., J. E. Peralta, 
 F. Ogliaro, M. J. Bearpark, J. J. Heyd, E. N. Brothers, K. N. Kudin, 
 V. N. Staroverov, T. A. Keith, R. Kobayashi, J. Normand, 
 K. Raghavachari, A. P. Rendell, J. C. Burant, S. S. Iyengar, 
 J. Tomasi, M. Cossi, J. M. Millam, M. Klene, C. Adamo, R. Cammi, 
 J. W. Ochterski, R. L. Martin, K. Morokuma, O. Farkas, 
 J. B. Foresman, and D. J. Fox, Gaussian, Inc., Wallingford CT, 2016.
 
 ******************************************
 Gaussian 16:  ES64L-G16RevA.03 25-Dec-2016
                23-May-2023 
 ******************************************
 %chk=CCCCCCCqCCCCCOrCqCrCC.chk
 %NProcShared=20
 Will use up to   20 processors via shared memory.
 -----------------------------
 # opt freq b3lyp/6-31g(2df,p)
 -----------------------------
 1/18=20,19=15,26=3,38=1/1,3;
 2/9=110,12=2,17=6,18=5,40=1/2;
 3/5=1,6=6,7=104,11=2,25=1,30=1,71=1,74=-5/1,2,3;
 4//1;
 5/5=2,38=5/2;
 6/7=2,8=2,9=2,10=2,28=1/1;
 7//1,2,3,16;
 1/18=20,19=15,26=3/3(2);
 2/9=110/2;
 99//99;
 2/9=110/2;
 3/5=1,6=6,7=104,11=2,25=1,30=1,71=1,74=-5/1,2,3;
 4/5=5,16=3,69=1/1;
 5/5=2,38=5/2;
 7//1,2,3,16;
 1/18=20,19=15,26=3/3(-5);
 2/9=110/2;
 6/7=2,8=2,9=2,10=2,19=2,28=1/1;
 99/9=1/99;
 -------------------
 Title Card Required
 -------------------
 Symbolic Z-matrix:
 Charge =  0 Multiplicity = 1
 C                     0.88431   0.01938  -0.09964 
 C                     2.39674   0.07595  -0.10576 
 C                     2.97787  -1.09326   0.65475 
 C                     4.50404  -0.97921   0.69315 
 C                     5.00678  -2.20986   1.39977 
 C                     6.50448  -2.41811   1.3775 
 C                     7.00481  -3.71179   2.09247 
 C                     6.50771  -5.02982   1.41532 
 C                     5.00633  -5.24167   1.4411 
 C                     4.49804  -6.49075   0.76815 
 C                     2.97098  -6.38525   0.72313 
 C                     2.38923  -7.57322  -0.0033 
 O                     0.97693  -7.49697   0.00059 
 C                     8.57487  -3.69482   2.15619 
 C                     9.10233  -2.41844   2.83687 
 C                     9.13984  -4.93924   2.88063 
 C                     10.65885  -5.00115   2.88796 
 H                     0.48162   0.88668  -0.62743 
 H                     0.50038   0.02573   0.92549 
 H                     0.52387  -0.88835  -0.59468 
 H                     2.73829   1.00809   0.35455 
 H                     2.76521   0.05719  -1.13781 
 H                     2.67208  -2.03219   0.16677 
 H                     2.58093  -1.13751   1.67728 
 H                     4.8377   -0.06714   1.19046 
 H                     4.88988  -0.97859  -0.335 
 H                     4.54691  -2.93701   0.76877 
 H                     4.60452  -2.30592   2.41454 
 H                     6.91328  -1.52979   1.86194 
 H                     6.86753  -2.41834   0.3428 
 H                     6.626    -3.69876   3.1243 
 H                     6.92091  -5.90153   1.92605 
 H                     6.87075  -5.05862   0.38106 
 H                     4.5455   -4.53263   0.79014 
 H                     4.6035   -5.11671   2.45255 
 H                     4.83268  -7.38891   1.28947 
 H                     4.88393  -6.51869  -0.25964 
 H                     2.65056  -5.46171   0.21483 
 H                     2.56002  -6.3056    1.73852 
 H                     2.70264  -8.5032    0.47768 
 H                     2.73225  -7.58164  -1.04407 
 H                     0.69246  -7.46059   0.9386 
 H                     8.94962  -3.7036    1.12333 
 H                     8.74179  -2.35372   3.86877 
 H                     8.81038  -1.50804   2.31017 
 H                     10.19378  -2.38415   2.84796 
 H                     8.81378  -5.85824   2.38714 
 H                     8.75902  -4.97515   3.90839 
 H                     11.0441  -4.98671   1.86345 
 H                     10.99152  -5.92626   3.36696 
 H                     11.10137  -4.17168   3.44287 
 

 GradGradGradGradGradGradGradGradGradGradGradGradGradGradGradGradGradGrad
 Berny optimization.
 Initialization pass.
                           ----------------------------
                           !    Initial Parameters    !
                           ! (Angstroms and Degrees)  !
 --------------------------                            --------------------------
 ! Name  Definition              Value          Derivative Info.                !
 --------------------------------------------------------------------------------
 ! R1    R(1,2)                  1.5135         estimate D2E/DX2                !
 ! R2    R(1,18)                 1.0922         estimate D2E/DX2                !
 ! R3    R(1,19)                 1.0947         estimate D2E/DX2                !
 ! R4    R(1,20)                 1.095          estimate D2E/DX2                !
 ! R5    R(2,3)                  1.511          estimate D2E/DX2                !
 ! R6    R(2,21)                 1.0943         estimate D2E/DX2                !
 ! R7    R(2,22)                 1.096          estimate D2E/DX2                !
 ! R8    R(3,4)                  1.5309         estimate D2E/DX2                !
 ! R9    R(3,23)                 1.1015         estimate D2E/DX2                !
 ! R10   R(3,24)                 1.0978         estimate D2E/DX2                !
 ! R11   R(4,5)                  1.5055         estimate D2E/DX2                !
 ! R12   R(4,25)                 1.0911         estimate D2E/DX2                !
 ! R13   R(4,26)                 1.0982         estimate D2E/DX2                !
 ! R14   R(5,6)                  1.5123         estimate D2E/DX2                !
 ! R15   R(5,27)                 1.067          estimate D2E/DX2                !
 ! R16   R(5,28)                 1.0958         estimate D2E/DX2                !
 ! R17   R(6,7)                  1.5605         estimate D2E/DX2                !
 ! R18   R(6,29)                 1.0913         estimate D2E/DX2                !
 ! R19   R(6,30)                 1.0965         estimate D2E/DX2                !
 ! R20   R(7,8)                  1.563          estimate D2E/DX2                !
 ! R21   R(7,14)                 1.5714         estimate D2E/DX2                !
 ! R22   R(7,31)                 1.0992         estimate D2E/DX2                !
 ! R23   R(8,9)                  1.5165         estimate D2E/DX2                !
 ! R24   R(8,32)                 1.0915         estimate D2E/DX2                !
 ! R25   R(8,33)                 1.0965         estimate D2E/DX2                !
 ! R26   R(9,10)                 1.5071         estimate D2E/DX2                !
 ! R27   R(9,34)                 1.0672         estimate D2E/DX2                !
 ! R28   R(9,35)                 1.0959         estimate D2E/DX2                !
 ! R29   R(10,11)                1.5314         estimate D2E/DX2                !
 ! R30   R(10,36)                1.0911         estimate D2E/DX2                !
 ! R31   R(10,37)                1.0982         estimate D2E/DX2                !
 ! R32   R(11,12)                1.5091         estimate D2E/DX2                !
 ! R33   R(11,38)                1.1018         estimate D2E/DX2                !
 ! R34   R(11,39)                1.0983         estimate D2E/DX2                !
 ! R35   R(12,13)                1.4144         estimate D2E/DX2                !
 ! R36   R(12,40)                1.0929         estimate D2E/DX2                !
 ! R37   R(12,41)                1.0959         estimate D2E/DX2                !
 ! R38   R(13,42)                0.9809         estimate D2E/DX2                !
 ! R39   R(14,15)                1.5397         estimate D2E/DX2                !
 ! R40   R(14,16)                1.5468         estimate D2E/DX2                !
 ! R41   R(14,43)                1.0988         estimate D2E/DX2                !
 ! R42   R(15,44)                1.095          estimate D2E/DX2                !
 ! R43   R(15,45)                1.0915         estimate D2E/DX2                !
 ! R44   R(15,46)                1.092          estimate D2E/DX2                !
 ! R45   R(16,17)                1.5203         estimate D2E/DX2                !
 ! R46   R(16,47)                1.0929         estimate D2E/DX2                !
 ! R47   R(16,48)                1.0966         estimate D2E/DX2                !
 ! R48   R(17,49)                1.0946         estimate D2E/DX2                !
 ! R49   R(17,50)                1.0936         estimate D2E/DX2                !
 ! R50   R(17,51)                1.0917         estimate D2E/DX2                !
 ! A1    A(2,1,18)             109.6818         estimate D2E/DX2                !
 ! A2    A(2,1,19)             110.7349         estimate D2E/DX2                !
 ! A3    A(2,1,20)             110.9838         estimate D2E/DX2                !
 ! A4    A(18,1,19)            108.579          estimate D2E/DX2                !
 ! A5    A(18,1,20)            108.5694         estimate D2E/DX2                !
 ! A6    A(19,1,20)            108.2243         estimate D2E/DX2                !
 ! A7    A(1,2,3)              110.6935         estimate D2E/DX2                !
 ! A8    A(1,2,21)             110.0014         estimate D2E/DX2                !
 ! A9    A(1,2,22)             109.8233         estimate D2E/DX2                !
 ! A10   A(3,2,21)             109.1101         estimate D2E/DX2                !
 ! A11   A(3,2,22)             109.3536         estimate D2E/DX2                !
 ! A12   A(21,2,22)            107.8034         estimate D2E/DX2                !
 ! A13   A(2,3,4)              109.7786         estimate D2E/DX2                !
 ! A14   A(2,3,23)             109.2602         estimate D2E/DX2                !
 ! A15   A(2,3,24)             111.1582         estimate D2E/DX2                !
 ! A16   A(4,3,23)             110.5718         estimate D2E/DX2                !
 ! A17   A(4,3,24)             109.8835         estimate D2E/DX2                !
 ! A18   A(23,3,24)            106.1361         estimate D2E/DX2                !
 ! A19   A(3,4,5)              106.4857         estimate D2E/DX2                !
 ! A20   A(3,4,25)             112.2445         estimate D2E/DX2                !
 ! A21   A(3,4,26)             109.0759         estimate D2E/DX2                !
 ! A22   A(5,4,25)             111.5466         estimate D2E/DX2                !
 ! A23   A(5,4,26)             108.8182         estimate D2E/DX2                !
 ! A24   A(25,4,26)            108.591          estimate D2E/DX2                !
 ! A25   A(4,5,6)              115.8725         estimate D2E/DX2                !
 ! A26   A(4,5,27)              97.7926         estimate D2E/DX2                !
 ! A27   A(4,5,28)             112.5642         estimate D2E/DX2                !
 ! A28   A(6,5,27)             108.9232         estimate D2E/DX2                !
 ! A29   A(6,5,28)             111.4148         estimate D2E/DX2                !
 ! A30   A(27,5,28)            109.2508         estimate D2E/DX2                !
 ! A31   A(5,6,7)              115.1475         estimate D2E/DX2                !
 ! A32   A(5,6,29)             104.6173         estimate D2E/DX2                !
 ! A33   A(5,6,30)             109.9878         estimate D2E/DX2                !
 ! A34   A(7,6,29)             110.5691         estimate D2E/DX2                !
 ! A35   A(7,6,30)             109.0263         estimate D2E/DX2                !
 ! A36   A(29,6,30)            107.159          estimate D2E/DX2                !
 ! A37   A(6,7,8)              113.4926         estimate D2E/DX2                !
 ! A38   A(6,7,14)             109.2668         estimate D2E/DX2                !
 ! A39   A(6,7,31)             108.0445         estimate D2E/DX2                !
 ! A40   A(8,7,14)             110.1479         estimate D2E/DX2                !
 ! A41   A(8,7,31)             107.8828         estimate D2E/DX2                !
 ! A42   A(14,7,31)            107.8253         estimate D2E/DX2                !
 ! A43   A(7,8,9)              115.1714         estimate D2E/DX2                !
 ! A44   A(7,8,32)             110.5083         estimate D2E/DX2                !
 ! A45   A(7,8,33)             108.9959         estimate D2E/DX2                !
 ! A46   A(9,8,32)             104.7891         estimate D2E/DX2                !
 ! A47   A(9,8,33)             109.8866         estimate D2E/DX2                !
 ! A48   A(32,8,33)            107.1593         estimate D2E/DX2                !
 ! A49   A(8,9,10)             116.2374         estimate D2E/DX2                !
 ! A50   A(8,9,34)             108.9256         estimate D2E/DX2                !
 ! A51   A(8,9,35)             111.3272         estimate D2E/DX2                !
 ! A52   A(10,9,34)             97.6228         estimate D2E/DX2                !
 ! A53   A(10,9,35)            112.4979         estimate D2E/DX2                !
 ! A54   A(34,9,35)            109.178          estimate D2E/DX2                !
 ! A55   A(9,10,11)            106.9981         estimate D2E/DX2                !
 ! A56   A(9,10,36)            111.4359         estimate D2E/DX2                !
 ! A57   A(9,10,37)            108.691          estimate D2E/DX2                !
 ! A58   A(11,10,36)           112.1234         estimate D2E/DX2                !
 ! A59   A(11,10,37)           108.9435         estimate D2E/DX2                !
 ! A60   A(36,10,37)           108.5695         estimate D2E/DX2                !
 ! A61   A(10,11,12)           110.1408         estimate D2E/DX2                !
 ! A62   A(10,11,38)           111.1805         estimate D2E/DX2                !
 ! A63   A(10,11,39)           110.5452         estimate D2E/DX2                !
 ! A64   A(12,11,38)           109.0057         estimate D2E/DX2                !
 ! A65   A(12,11,39)           110.9697         estimate D2E/DX2                !
 ! A66   A(38,11,39)           104.8866         estimate D2E/DX2                !
 ! A67   A(11,12,13)           109.948          estimate D2E/DX2                !
 ! A68   A(11,12,40)           110.3319         estimate D2E/DX2                !
 ! A69   A(11,12,41)           110.032          estimate D2E/DX2                !
 ! A70   A(13,12,40)           109.3304         estimate D2E/DX2                !
 ! A71   A(13,12,41)           108.3959         estimate D2E/DX2                !
 ! A72   A(40,12,41)           108.7637         estimate D2E/DX2                !
 ! A73   A(12,13,42)           107.111          estimate D2E/DX2                !
 ! A74   A(7,14,15)            111.6631         estimate D2E/DX2                !
 ! A75   A(7,14,16)            112.0387         estimate D2E/DX2                !
 ! A76   A(7,14,43)            107.6113         estimate D2E/DX2                !
 ! A77   A(15,14,16)           109.5573         estimate D2E/DX2                !
 ! A78   A(15,14,43)           107.7792         estimate D2E/DX2                !
 ! A79   A(16,14,43)           108.014          estimate D2E/DX2                !
 ! A80   A(14,15,44)           110.6596         estimate D2E/DX2                !
 ! A81   A(14,15,45)           112.7345         estimate D2E/DX2                !
 ! A82   A(14,15,46)           111.8949         estimate D2E/DX2                !
 ! A83   A(44,15,45)           108.5035         estimate D2E/DX2                !
 ! A84   A(44,15,46)           108.5214         estimate D2E/DX2                !
 ! A85   A(45,15,46)           104.2427         estimate D2E/DX2                !
 ! A86   A(14,16,17)           113.5759         estimate D2E/DX2                !
 ! A87   A(14,16,47)           110.8581         estimate D2E/DX2                !
 ! A88   A(14,16,48)           109.7819         estimate D2E/DX2                !
 ! A89   A(17,16,47)           105.4281         estimate D2E/DX2                !
 ! A90   A(17,16,48)           109.945          estimate D2E/DX2                !
 ! A91   A(47,16,48)           106.9805         estimate D2E/DX2                !
 ! A92   A(16,17,49)           110.2792         estimate D2E/DX2                !
 ! A93   A(16,17,50)           109.9076         estimate D2E/DX2                !
 ! A94   A(16,17,51)           112.1186         estimate D2E/DX2                !
 ! A95   A(49,17,50)           108.303          estimate D2E/DX2                !
 ! A96   A(49,17,51)           108.8478         estimate D2E/DX2                !
 ! A97   A(50,17,51)           107.2655         estimate D2E/DX2                !
 ! D1    D(18,1,2,3)           178.3215         estimate D2E/DX2                !
 ! D2    D(18,1,2,21)           57.6629         estimate D2E/DX2                !
 ! D3    D(18,1,2,22)          -60.8324         estimate D2E/DX2                !
 ! D4    D(19,1,2,3)            58.5049         estimate D2E/DX2                !
 ! D5    D(19,1,2,21)          -62.1537         estimate D2E/DX2                !
 ! D6    D(19,1,2,22)          179.3509         estimate D2E/DX2                !
 ! D7    D(20,1,2,3)           -61.7165         estimate D2E/DX2                !
 ! D8    D(20,1,2,21)          177.6249         estimate D2E/DX2                !
 ! D9    D(20,1,2,22)           59.1296         estimate D2E/DX2                !
 ! D10   D(1,2,3,4)           -177.2844         estimate D2E/DX2                !
 ! D11   D(1,2,3,23)            61.303          estimate D2E/DX2                !
 ! D12   D(1,2,3,24)           -55.4993         estimate D2E/DX2                !
 ! D13   D(21,2,3,4)           -56.0973         estimate D2E/DX2                !
 ! D14   D(21,2,3,23)         -177.5098         estimate D2E/DX2                !
 ! D15   D(21,2,3,24)           65.6878         estimate D2E/DX2                !
 ! D16   D(22,2,3,4)            61.5911         estimate D2E/DX2                !
 ! D17   D(22,2,3,23)          -59.8215         estimate D2E/DX2                !
 ! D18   D(22,2,3,24)         -176.6238         estimate D2E/DX2                !
 ! D19   D(2,3,4,5)           -177.0932         estimate D2E/DX2                !
 ! D20   D(2,3,4,25)            60.5738         estimate D2E/DX2                !
 ! D21   D(2,3,4,26)           -59.817          estimate D2E/DX2                !
 ! D22   D(23,3,4,5)           -56.471          estimate D2E/DX2                !
 ! D23   D(23,3,4,25)         -178.804          estimate D2E/DX2                !
 ! D24   D(23,3,4,26)           60.8052         estimate D2E/DX2                !
 ! D25   D(24,3,4,5)            60.363          estimate D2E/DX2                !
 ! D26   D(24,3,4,25)          -61.97           estimate D2E/DX2                !
 ! D27   D(24,3,4,26)          177.6392         estimate D2E/DX2                !
 ! D28   D(3,4,5,6)            171.2948         estimate D2E/DX2                !
 ! D29   D(3,4,5,27)            55.8173         estimate D2E/DX2                !
 ! D30   D(3,4,5,28)           -58.8424         estimate D2E/DX2                !
 ! D31   D(25,4,5,6)           -65.9329         estimate D2E/DX2                !
 ! D32   D(25,4,5,27)          178.5897         estimate D2E/DX2                !
 ! D33   D(25,4,5,28)           63.93           estimate D2E/DX2                !
 ! D34   D(26,4,5,6)            53.8476         estimate D2E/DX2                !
 ! D35   D(26,4,5,27)          -61.6299         estimate D2E/DX2                !
 ! D36   D(26,4,5,28)         -176.2896         estimate D2E/DX2                !
 ! D37   D(4,5,6,7)           -178.9443         estimate D2E/DX2                !
 ! D38   D(4,5,6,29)            59.4857         estimate D2E/DX2                !
 ! D39   D(4,5,6,30)           -55.3044         estimate D2E/DX2                !
 ! D40   D(27,5,6,7)           -69.9444         estimate D2E/DX2                !
 ! D41   D(27,5,6,29)          168.4856         estimate D2E/DX2                !
 ! D42   D(27,5,6,30)           53.6954         estimate D2E/DX2                !
 ! D43   D(28,5,6,7)            50.6424         estimate D2E/DX2                !
 ! D44   D(28,5,6,29)          -70.9276         estimate D2E/DX2                !
 ! D45   D(28,5,6,30)          174.2823         estimate D2E/DX2                !
 ! D46   D(5,6,7,8)             64.1575         estimate D2E/DX2                !
 ! D47   D(5,6,7,14)          -172.4898         estimate D2E/DX2                !
 ! D48   D(5,6,7,31)           -55.4296         estimate D2E/DX2                !
 ! D49   D(29,6,7,8)          -177.5527         estimate D2E/DX2                !
 ! D50   D(29,6,7,14)          -54.1999         estimate D2E/DX2                !
 ! D51   D(29,6,7,31)           62.8602         estimate D2E/DX2                !
 ! D52   D(30,6,7,8)           -59.9894         estimate D2E/DX2                !
 ! D53   D(30,6,7,14)           63.3633         estimate D2E/DX2                !
 ! D54   D(30,6,7,31)         -179.5765         estimate D2E/DX2                !
 ! D55   D(6,7,8,9)            -64.0367         estimate D2E/DX2                !
 ! D56   D(6,7,8,32)           177.479          estimate D2E/DX2                !
 ! D57   D(6,7,8,33)            59.9691         estimate D2E/DX2                !
 ! D58   D(14,7,8,9)           173.0945         estimate D2E/DX2                !
 ! D59   D(14,7,8,32)           54.6103         estimate D2E/DX2                !
 ! D60   D(14,7,8,33)          -62.8996         estimate D2E/DX2                !
 ! D61   D(31,7,8,9)            55.6425         estimate D2E/DX2                !
 ! D62   D(31,7,8,32)          -62.8417         estimate D2E/DX2                !
 ! D63   D(31,7,8,33)          179.6484         estimate D2E/DX2                !
 ! D64   D(6,7,14,15)           55.5204         estimate D2E/DX2                !
 ! D65   D(6,7,14,16)          178.8445         estimate D2E/DX2                !
 ! D66   D(6,7,14,43)          -62.5657         estimate D2E/DX2                !
 ! D67   D(8,7,14,15)         -179.1658         estimate D2E/DX2                !
 ! D68   D(8,7,14,16)          -55.8417         estimate D2E/DX2                !
 ! D69   D(8,7,14,43)           62.7481         estimate D2E/DX2                !
 ! D70   D(31,7,14,15)         -61.6782         estimate D2E/DX2                !
 ! D71   D(31,7,14,16)          61.6459         estimate D2E/DX2                !
 ! D72   D(31,7,14,43)        -179.7644         estimate D2E/DX2                !
 ! D73   D(7,8,9,10)           178.7137         estimate D2E/DX2                !
 ! D74   D(7,8,9,34)            69.728          estimate D2E/DX2                !
 ! D75   D(7,8,9,35)           -50.7147         estimate D2E/DX2                !
 ! D76   D(32,8,9,10)          -59.6559         estimate D2E/DX2                !
 ! D77   D(32,8,9,34)         -168.6416         estimate D2E/DX2                !
 ! D78   D(32,8,9,35)           70.9157         estimate D2E/DX2                !
 ! D79   D(33,8,9,10)           55.1779         estimate D2E/DX2                !
 ! D80   D(33,8,9,34)          -53.8078         estimate D2E/DX2                !
 ! D81   D(33,8,9,35)         -174.2505         estimate D2E/DX2                !
 ! D82   D(8,9,10,11)         -171.2939         estimate D2E/DX2                !
 ! D83   D(8,9,10,36)           65.8117         estimate D2E/DX2                !
 ! D84   D(8,9,10,37)          -53.7916         estimate D2E/DX2                !
 ! D85   D(34,9,10,11)         -55.7767         estimate D2E/DX2                !
 ! D86   D(34,9,10,36)        -178.6712         estimate D2E/DX2                !
 ! D87   D(34,9,10,37)          61.7255         estimate D2E/DX2                !
 ! D88   D(35,9,10,11)          58.69           estimate D2E/DX2                !
 ! D89   D(35,9,10,36)         -64.2045         estimate D2E/DX2                !
 ! D90   D(35,9,10,37)         176.1922         estimate D2E/DX2                !
 ! D91   D(9,10,11,12)         177.1235         estimate D2E/DX2                !
 ! D92   D(9,10,11,38)          56.1851         estimate D2E/DX2                !
 ! D93   D(9,10,11,39)         -59.884          estimate D2E/DX2                !
 ! D94   D(36,10,11,12)        -60.4103         estimate D2E/DX2                !
 ! D95   D(36,10,11,38)        178.6513         estimate D2E/DX2                !
 ! D96   D(36,10,11,39)         62.5822         estimate D2E/DX2                !
 ! D97   D(37,10,11,12)         59.7871         estimate D2E/DX2                !
 ! D98   D(37,10,11,38)        -61.1512         estimate D2E/DX2                !
 ! D99   D(37,10,11,39)       -177.2204         estimate D2E/DX2                !
 ! D100  D(10,11,12,13)        177.8448         estimate D2E/DX2                !
 ! D101  D(10,11,12,40)         57.1792         estimate D2E/DX2                !
 ! D102  D(10,11,12,41)        -62.8361         estimate D2E/DX2                !
 ! D103  D(38,11,12,13)        -59.9228         estimate D2E/DX2                !
 ! D104  D(38,11,12,40)        179.4115         estimate D2E/DX2                !
 ! D105  D(38,11,12,41)         59.3962         estimate D2E/DX2                !
 ! D106  D(39,11,12,13)         55.1013         estimate D2E/DX2                !
 ! D107  D(39,11,12,40)        -65.5644         estimate D2E/DX2                !
 ! D108  D(39,11,12,41)        174.4204         estimate D2E/DX2                !
 ! D109  D(11,12,13,42)        -57.8472         estimate D2E/DX2                !
 ! D110  D(40,12,13,42)         63.4204         estimate D2E/DX2                !
 ! D111  D(41,12,13,42)       -178.1613         estimate D2E/DX2                !
 ! D112  D(7,14,15,44)          61.0925         estimate D2E/DX2                !
 ! D113  D(7,14,15,45)         -60.6257         estimate D2E/DX2                !
 ! D114  D(7,14,15,46)        -177.7481         estimate D2E/DX2                !
 ! D115  D(16,14,15,44)        -63.628          estimate D2E/DX2                !
 ! D116  D(16,14,15,45)        174.6539         estimate D2E/DX2                !
 ! D117  D(16,14,15,46)         57.5315         estimate D2E/DX2                !
 ! D118  D(43,14,15,44)        179.078          estimate D2E/DX2                !
 ! D119  D(43,14,15,45)         57.3598         estimate D2E/DX2                !
 ! D120  D(43,14,15,46)        -59.7626         estimate D2E/DX2                !
 ! D121  D(7,14,16,17)         176.4769         estimate D2E/DX2                !
 ! D122  D(7,14,16,47)          57.9946         estimate D2E/DX2                !
 ! D123  D(7,14,16,48)         -59.9858         estimate D2E/DX2                !
 ! D124  D(15,14,16,17)        -59.0208         estimate D2E/DX2                !
 ! D125  D(15,14,16,47)       -177.5032         estimate D2E/DX2                !
 ! D126  D(15,14,16,48)         64.5164         estimate D2E/DX2                !
 ! D127  D(43,14,16,17)         58.1258         estimate D2E/DX2                !
 ! D128  D(43,14,16,47)        -60.3566         estimate D2E/DX2                !
 ! D129  D(43,14,16,48)       -178.3369         estimate D2E/DX2                !
 ! D130  D(14,16,17,49)        -57.7285         estimate D2E/DX2                !
 ! D131  D(14,16,17,50)       -177.0615         estimate D2E/DX2                !
 ! D132  D(14,16,17,51)         63.734          estimate D2E/DX2                !
 ! D133  D(47,16,17,49)         63.8345         estimate D2E/DX2                !
 ! D134  D(47,16,17,50)        -55.4985         estimate D2E/DX2                !
 ! D135  D(47,16,17,51)       -174.703          estimate D2E/DX2                !
 ! D136  D(48,16,17,49)        178.8234         estimate D2E/DX2                !
 ! D137  D(48,16,17,50)         59.4904         estimate D2E/DX2                !
 ! D138  D(48,16,17,51)        -59.7142         estimate D2E/DX2                !
 --------------------------------------------------------------------------------
 Trust Radius=3.00D-01 FncErr=1.00D-07 GrdErr=1.00D-06 EigMax=2.50D+02 EigMin=1.00D-04
 Number of steps in this run=    295 maximum allowed number of steps=    306.
 GradGradGradGradGradGradGradGradGradGradGradGradGradGradGradGradGradGrad

 Stoichiometry    C16H34O
 Framework group  C1[X(C16H34O)]
 Deg. of freedom   147
 Full point group                 C1      NOp   1
 Largest Abelian subgroup         C1      NOp   1
 Largest concise Abelian subgroup C1      NOp   1
                         Standard orientation:                         
 ---------------------------------------------------------------------
 Center     Atomic      Atomic             Coordinates (Angstroms)
 Number     Number       Type             X           Y           Z
 ---------------------------------------------------------------------
      1          6           0       -4.960034   -3.238531   -0.155991
      2          6           0       -3.546714   -3.473844    0.331694
      3          6           0       -2.616531   -2.403748   -0.190604
      4          6           0       -1.183112   -2.699000    0.258634
      5          6           0       -0.336317   -1.557105   -0.236918
      6          6           0        1.090163   -1.527370    0.264322
      7          6           0        1.944998   -0.322865   -0.239210
      8          6           0        1.422250    1.063413    0.258597
      9          6           0        0.044421    1.450982   -0.242465
     10          6           0       -0.495883    2.770032    0.247025
     11          6           0       -1.958893    2.847664   -0.198669
     12          6           0       -2.592694    4.116281    0.317386
     13          8           0       -3.928694    4.207955   -0.137720
     14          6           0        3.439521   -0.527680    0.201116
     15          6           0        3.996995   -1.876318   -0.289887
     16          6           0        4.352169    0.620000   -0.291317
     17          6           0        5.790335    0.501123    0.187040
     18          1           0       -5.611784   -4.036701    0.206054
     19          1           0       -4.995847   -3.228273   -1.250041
     20          1           0       -5.346179   -2.280843    0.208265
     21          1           0       -3.192337   -4.452538   -0.005947
     22          1           0       -3.526131   -3.469755    1.427508
     23          1           0       -2.945257   -1.421773    0.184744
     24          1           0       -2.659262   -2.341652   -1.285777
     25          1           0       -0.821953   -3.657884   -0.116365
     26          1           0       -1.147309   -2.716317    1.356078
     27          1           0       -0.881107   -0.763019    0.222451
     28          1           0       -0.380229   -1.442734   -1.325858
     29          1           0        1.520766   -2.471227   -0.074244
     30          1           0        1.102557   -1.540956    1.360712
     31          1           0        1.915318   -0.320034   -1.338051
     32          1           0        2.078993    1.865197   -0.083878
     33          1           0        1.438243    1.078173    1.354885
     34          1           0       -0.681952    0.820265    0.219519
     35          1           0       -0.027912    1.346142   -1.330902
     36          1           0        0.093569    3.607085   -0.130255
     37          1           0       -0.456451    2.781046    1.344462
     38          1           0       -2.533915    1.983367    0.170526
     39          1           0       -2.032118    2.788649   -1.292928
     40          1           0       -2.032170    4.988574   -0.028083
     41          1           0       -2.600070    4.113371    1.413229
     42          1           0       -3.902333    4.179075   -1.117812
     43          1           0        3.464540   -0.534219    1.299590
     44          1           0        3.978242   -1.926960   -1.383541
     45          1           0        3.444488   -2.730430    0.105974
     46          1           0        5.022645   -2.040086    0.047430
     47          1           0        4.000213    1.584753    0.082563
     48          1           0        4.325246    0.671759   -1.386397
     49          1           0        5.825063    0.470056    1.280693
     50          1           0        6.367749    1.366354   -0.150462
     51          1           0        6.282196   -0.390313   -0.206895
 ---------------------------------------------------------------------
 Rotational constants (GHZ):           0.3325494           0.2098609           0.1315319
 Standard basis: 6-31G(2df,p) (6D, 7F)
 There are   697 symmetry adapted cartesian basis functions of A   symmetry.
 There are   646 symmetry adapted basis functions of A   symmetry.
   646 basis functions,   986 primitive gaussians,   697 cartesian basis functions
    69 alpha electrons       69 beta electrons
       nuclear repulsion energy      1265.7297197870 Hartrees.
 NAtoms=   51 NActive=   51 NUniq=   51 SFac= 1.00D+00 NAtFMM=   60 NAOKFM=F Big=F
 Integral buffers will be    131072 words long.
 Raffenetti 2 integral format.
 Two-electron integral symmetry is turned on.
 One-electron integrals computed using PRISM.
 PrsmSu:  requested number of processors reduced to:  12 ShMem   1 Linda.
 NBasis=   646 RedAO= T EigKep=  4.22D-04  NBF=   646
 NBsUse=   646 1.00D-06 EigRej= -1.00D+00 NBFU=   646
 ExpMin= 1.61D-01 ExpMax= 5.48D+03 ExpMxC= 8.25D+02 IAcc=3 IRadAn=         5 AccDes= 0.00D+00
 Harris functional with IExCor=  402 and IRadAn=       5 diagonalized for initial guess.
 HarFok:  IExCor=  402 AccDes= 0.00D+00 IRadAn=         5 IDoV= 1 UseB2=F ITyADJ=14
 ICtDFT=  3500011 ScaDFX=  1.000000  1.000000  1.000000  1.000000
 FoFCou: FMM=F IPFlag=           0 FMFlag=      100000 FMFlg1=           0
         NFxFlg=           0 DoJE=T BraDBF=F KetDBF=T FulRan=T
         wScrn=  0.000000 ICntrl=       500 IOpCl=  0 I1Cent=   200000004 NGrid=           0
         NMat0=    1 NMatS0=      1 NMatT0=    0 NMatD0=    1 NMtDS0=    0 NMtDT0=    0
 Petite list used in FoFCou.
 Requested convergence on RMS density matrix=1.00D-08 within 128 cycles.
 Requested convergence on MAX density matrix=1.00D-06.
 Requested convergence on             energy=1.00D-06.
 No special actions if energy rises.
 Integral accuracy reduced to 1.0D-05 until final iterations.
 Initial convergence to 1.0D-05 achieved.  Increase integral accuracy.
 SCF Done:  E(RB3LYP) =  -705.443745095     A.U. after   12 cycles
            NFock= 12  Conv=0.33D-08     -V/T= 2.0080

 **********************************************************************

            Population analysis using the SCF density.

 **********************************************************************

 Orbital symmetries:
       Occupied  (A) (A) (A) (A) (A) (A) (A) (A) (A) (A) (A) (A)
                 (A) (A) (A) (A) (A) (A) (A) (A) (A) (A) (A) (A)
                 (A) (A) (A) (A) (A) (A) (A) (A) (A) (A) (A) (A)
                 (A) (A) (A) (A) (A) (A) (A) (A) (A) (A) (A) (A)
                 (A) (A) (A) (A) (A) (A) (A) (A) (A) (A) (A) (A)
                 (A) (A) (A) (A) (A) (A) (A) (A) (A)
       Virtual   (A) (A) (A) (A) (A) (A) (A) (A) (A) (A) (A) (A)
                 (A) (A) (A) (A) (A) (A) (A) (A) (A) (A) (A) (A)
                 (A) (A) (A) (A) (A) (A) (A) (A) (A) (A) (A) (A)
                 (A) (A) (A) (A) (A) (A) (A) (A) (A) (A) (A) (A)
                 (A) (A) (A) (A) (A) (A) (A) (A) (A) (A) (A) (A)
                 (A) (A) (A) (A) (A) (A) (A) (A) (A) (A) (A) (A)
                 (A) (A) (A) (A) (A) (A) (A) (A) (A) (A) (A) (A)
                 (A) (A) (A) (A) (A) (A) (A) (A) (A) (A) (A) (A)
                 (A) (A) (A) (A) (A) (A) (A) (A) (A) (A) (A) (A)
                 (A) (A) (A) (A) (A) (A) (A) (A) (A) (A) (A) (A)
                 (A) (A) (A) (A) (A) (A) (A) (A) (A) (A) (A) (A)
                 (A) (A) (A) (A) (A) (A) (A) (A) (A) (A) (A) (A)
                 (A) (A) (A) (A) (A) (A) (A) (A) (A) (A) (A) (A)
                 (A) (A) (A) (A) (A) (A) (A) (A) (A) (A) (A) (A)
                 (A) (A) (A) (A) (A) (A) (A) (A) (A) (A) (A) (A)
                 (A) (A) (A) (A) (A) (A) (A) (A) (A) (A) (A) (A)
                 (A) (A) (A) (A) (A) (A) (A) (A) (A) (A) (A) (A)
                 (A) (A) (A) (A) (A) (A) (A) (A) (A) (A) (A) (A)
                 (A) (A) (A) (A) (A) (A) (A) (A) (A) (A) (A) (A)
                 (A) (A) (A) (A) (A) (A) (A) (A) (A) (A) (A) (A)
                 (A) (A) (A) (A) (A) (A) (A) (A) (A) (A) (A) (A)
                 (A) (A) (A) (A) (A) (A) (A) (A) (A) (A) (A) (A)
                 (A) (A) (A) (A) (A) (A) (A) (A) (A) (A) (A) (A)
                 (A) (A) (A) (A) (A) (A) (A) (A) (A) (A) (A) (A)
                 (A) (A) (A) (A) (A) (A) (A) (A) (A) (A) (A) (A)
                 (A) (A) (A) (A) (A) (A) (A) (A) (A) (A) (A) (A)
                 (A) (A) (A) (A) (A) (A) (A) (A) (A) (A) (A) (A)
                 (A) (A) (A) (A) (A) (A) (A) (A) (A) (A) (A) (A)
                 (A) (A) (A) (A) (A) (A) (A) (A) (A) (A) (A) (A)
                 (A) (A) (A) (A) (A) (A) (A) (A) (A) (A) (A) (A)
                 (A) (A) (A) (A) (A) (A) (A) (A) (A) (A) (A) (A)
                 (A) (A) (A) (A) (A) (A) (A) (A) (A) (A) (A) (A)
                 (A) (A) (A) (A) (A) (A) (A) (A) (A) (A) (A) (A)
                 (A) (A) (A) (A) (A) (A) (A) (A) (A) (A) (A) (A)
                 (A) (A) (A) (A) (A) (A) (A) (A) (A) (A) (A) (A)
                 (A) (A) (A) (A) (A) (A) (A) (A) (A) (A) (A) (A)
                 (A) (A) (A) (A) (A) (A) (A) (A) (A) (A) (A) (A)
                 (A) (A) (A) (A) (A) (A) (A) (A) (A) (A) (A) (A)
                 (A) (A) (A) (A) (A) (A) (A) (A) (A) (A) (A) (A)
                 (A) (A) (A) (A) (A) (A) (A) (A) (A) (A) (A) (A)
                 (A) (A) (A) (A) (A) (A) (A) (A) (A) (A) (A) (A)
                 (A) (A) (A) (A) (A) (A) (A) (A) (A) (A) (A) (A)
                 (A) (A) (A) (A) (A) (A) (A) (A) (A) (A) (A) (A)
                 (A) (A) (A) (A) (A) (A) (A) (A) (A) (A) (A) (A)
                 (A) (A) (A) (A) (A) (A) (A) (A) (A) (A) (A) (A)
                 (A) (A) (A) (A) (A) (A) (A) (A) (A) (A) (A) (A)
                 (A) (A) (A) (A) (A) (A) (A) (A) (A) (A) (A) (A)
                 (A) (A) (A) (A) (A) (A) (A) (A) (A) (A) (A) (A)
                 (A)
 The electronic state is 1-A.
 Alpha  occ. eigenvalues --  -19.12515 -10.21691 -10.18103 -10.17977 -10.17498
 Alpha  occ. eigenvalues --  -10.17420 -10.17055 -10.17008 -10.16931 -10.16880
 Alpha  occ. eigenvalues --  -10.16742 -10.16684 -10.16607 -10.16470 -10.16430
 Alpha  occ. eigenvalues --  -10.16264 -10.15822  -1.00587  -0.82632  -0.80688
 Alpha  occ. eigenvalues --   -0.80107  -0.77261  -0.75046  -0.72792  -0.70334
 Alpha  occ. eigenvalues --   -0.68354  -0.64394  -0.63372  -0.60283  -0.59021
 Alpha  occ. eigenvalues --   -0.57685  -0.56909  -0.56133  -0.54602  -0.49995
 Alpha  occ. eigenvalues --   -0.48866  -0.47490  -0.45972  -0.45344  -0.44696
 Alpha  occ. eigenvalues --   -0.43934  -0.42971  -0.42643  -0.41834  -0.40566
 Alpha  occ. eigenvalues --   -0.40374  -0.39211  -0.38496  -0.38104  -0.37693
 Alpha  occ. eigenvalues --   -0.36954  -0.36065  -0.35925  -0.35280  -0.34973
 Alpha  occ. eigenvalues --   -0.34350  -0.33751  -0.33344  -0.33126  -0.32525
 Alpha  occ. eigenvalues --   -0.32210  -0.31929  -0.31609  -0.31232  -0.31038
 Alpha  occ. eigenvalues --   -0.30038  -0.27971  -0.27206  -0.25366
 Alpha virt. eigenvalues --    0.06882   0.07687   0.08800   0.09573   0.09697
 Alpha virt. eigenvalues --    0.10909   0.10944   0.12177   0.12514   0.12632
 Alpha virt. eigenvalues --    0.13203   0.13870   0.14532   0.14815   0.15348
 Alpha virt. eigenvalues --    0.16024   0.16713   0.17268   0.17460   0.17646
 Alpha virt. eigenvalues --    0.17822   0.18511   0.18676   0.19234   0.19467
 Alpha virt. eigenvalues --    0.19868   0.20091   0.20420   0.20819   0.21014
 Alpha virt. eigenvalues --    0.21448   0.21883   0.22437   0.22739   0.23237
 Alpha virt. eigenvalues --    0.23852   0.23952   0.24294   0.25226   0.25394
 Alpha virt. eigenvalues --    0.25904   0.26359   0.27474   0.28247   0.29360
 Alpha virt. eigenvalues --    0.31069   0.32571   0.32777   0.33741   0.35564
 Alpha virt. eigenvalues --    0.41615   0.44253   0.46156   0.46814   0.47029
 Alpha virt. eigenvalues --    0.47868   0.47988   0.48942   0.49696   0.50972
 Alpha virt. eigenvalues --    0.51990   0.52062   0.52335   0.53180   0.53793
 Alpha virt. eigenvalues --    0.54342   0.54657   0.55363   0.55865   0.56640
 Alpha virt. eigenvalues --    0.57605   0.58369   0.58870   0.59679   0.59989
 Alpha virt. eigenvalues --    0.60994   0.62314   0.62379   0.62989   0.63798
 Alpha virt. eigenvalues --    0.64832   0.64941   0.66058   0.66234   0.67677
 Alpha virt. eigenvalues --    0.68664   0.68862   0.69435   0.70365   0.70757
 Alpha virt. eigenvalues --    0.71296   0.72485   0.72576   0.72911   0.73367
 Alpha virt. eigenvalues --    0.73836   0.74250   0.74511   0.74882   0.75286
 Alpha virt. eigenvalues --    0.75717   0.75803   0.76685   0.76963   0.77156
 Alpha virt. eigenvalues --    0.77734   0.78061   0.78636   0.78667   0.79116
 Alpha virt. eigenvalues --    0.79316   0.79844   0.80547   0.81315   0.82340
 Alpha virt. eigenvalues --    0.82628   0.82951   0.83294   0.83454   0.83995
 Alpha virt. eigenvalues --    0.84363   0.84941   0.85186   0.86137   0.86917
 Alpha virt. eigenvalues --    0.87976   0.88140   0.89306   0.89885   0.90371
 Alpha virt. eigenvalues --    0.90489   0.91852   0.92569   0.93362   0.95392
 Alpha virt. eigenvalues --    0.96273   0.98107   1.00049   1.01348   1.02494
 Alpha virt. eigenvalues --    1.02783   1.04872   1.07620   1.08275   1.08628
 Alpha virt. eigenvalues --    1.10358   1.11194   1.13808   1.14874   1.15574
 Alpha virt. eigenvalues --    1.16751   1.17665   1.18816   1.19263   1.20576
 Alpha virt. eigenvalues --    1.20724   1.20888   1.22149   1.22978   1.23906
 Alpha virt. eigenvalues --    1.25079   1.25362   1.25782   1.26851   1.27928
 Alpha virt. eigenvalues --    1.29587   1.32464   1.32917   1.33876   1.34604
 Alpha virt. eigenvalues --    1.36150   1.36205   1.37575   1.38787   1.39423
 Alpha virt. eigenvalues --    1.40473   1.41192   1.41550   1.44595   1.45309
 Alpha virt. eigenvalues --    1.45994   1.47242   1.48589   1.49344   1.50447
 Alpha virt. eigenvalues --    1.53328   1.53892   1.54166   1.55445   1.55980
 Alpha virt. eigenvalues --    1.56382   1.57407   1.58230   1.58836   1.59745
 Alpha virt. eigenvalues --    1.61714   1.61953   1.62642   1.63725   1.64127
 Alpha virt. eigenvalues --    1.65770   1.67075   1.68731   1.69712   1.70044
 Alpha virt. eigenvalues --    1.71433   1.72498   1.74302   1.74739   1.76373
 Alpha virt. eigenvalues --    1.77309   1.80869   1.81928   1.83189   1.84732
 Alpha virt. eigenvalues --    1.85144   1.85727   1.86605   1.87083   1.87991
 Alpha virt. eigenvalues --    1.88878   1.89529   1.90286   1.91532   1.93035
 Alpha virt. eigenvalues --    1.93400   1.93690   1.94198   1.94803   1.96289
 Alpha virt. eigenvalues --    1.96600   1.97232   1.98109   1.98402   1.99960
 Alpha virt. eigenvalues --    2.03025   2.03757   2.06008   2.08236   2.12931
 Alpha virt. eigenvalues --    2.14851   2.16382   2.18076   2.19320   2.19837
 Alpha virt. eigenvalues --    2.20420   2.20683   2.21327   2.21988   2.23449
 Alpha virt. eigenvalues --    2.24535   2.25837   2.26723   2.27837   2.28046
 Alpha virt. eigenvalues --    2.28804   2.31470   2.31645   2.33330   2.33827
 Alpha virt. eigenvalues --    2.34464   2.35880   2.37270   2.38003   2.39174
 Alpha virt. eigenvalues --    2.41487   2.42587   2.44198   2.45318   2.47071
 Alpha virt. eigenvalues --    2.48876   2.50085   2.52464   2.53465   2.54284
 Alpha virt. eigenvalues --    2.57340   2.58966   2.59774   2.60909   2.64794
 Alpha virt. eigenvalues --    2.66459   2.66690   2.69800   2.71481   2.72543
 Alpha virt. eigenvalues --    2.73014   2.74214   2.74480   2.75155   2.75600
 Alpha virt. eigenvalues --    2.76106   2.76319   2.77648   2.78177   2.78737
 Alpha virt. eigenvalues --    2.79244   2.79545   2.80620   2.81201   2.81293
 Alpha virt. eigenvalues --    2.81747   2.82758   2.83045   2.83506   2.83885
 Alpha virt. eigenvalues --    2.84742   2.85095   2.85441   2.85836   2.86473
 Alpha virt. eigenvalues --    2.87504   2.87997   2.88213   2.88740   2.89132
 Alpha virt. eigenvalues --    2.89895   2.90830   2.91298   2.91425   2.92720
 Alpha virt. eigenvalues --    2.93341   2.93518   2.94510   2.94705   2.95645
 Alpha virt. eigenvalues --    2.96246   2.96991   2.98085   2.98471   2.99149
 Alpha virt. eigenvalues --    3.00343   3.01185   3.01801   3.02903   3.03745
 Alpha virt. eigenvalues --    3.03904   3.04540   3.06360   3.07103   3.08151
 Alpha virt. eigenvalues --    3.09674   3.10541   3.13336   3.13809   3.14948
 Alpha virt. eigenvalues --    3.16261   3.18314   3.19397   3.20717   3.21786
 Alpha virt. eigenvalues --    3.23311   3.23707   3.24918   3.26256   3.27565
 Alpha virt. eigenvalues --    3.27870   3.29803   3.31643   3.32699   3.33018
 Alpha virt. eigenvalues --    3.35491   3.35819   3.38128   3.38960   3.39115
 Alpha virt. eigenvalues --    3.39722   3.40803   3.42940   3.43361   3.44970
 Alpha virt. eigenvalues --    3.45997   3.47178   3.48215   3.49181   3.49682
 Alpha virt. eigenvalues --    3.51754   3.52385   3.54895   3.55316   3.56394
 Alpha virt. eigenvalues --    3.57504   3.58117   3.58688   3.59272   3.60124
 Alpha virt. eigenvalues --    3.60873   3.62324   3.62442   3.63076   3.63476
 Alpha virt. eigenvalues --    3.64573   3.66055   3.67054   3.69861   3.71037
 Alpha virt. eigenvalues --    3.72157   3.72653   3.73636   3.74497   3.75166
 Alpha virt. eigenvalues --    3.75598   3.77099   3.77217   3.77522   3.78046
 Alpha virt. eigenvalues --    3.79292   3.79843   3.80457   3.81540   3.82291
 Alpha virt. eigenvalues --    3.84780   3.85491   3.88088   3.90850   3.92339
 Alpha virt. eigenvalues --    3.92507   3.92905   3.94160   3.96006   3.98255
 Alpha virt. eigenvalues --    3.99285   4.00751   4.01839   4.03746   4.09043
 Alpha virt. eigenvalues --    4.11462   4.14217   4.18912   4.20419   4.25030
 Alpha virt. eigenvalues --    4.28574   4.29990   4.31473   4.33046   4.33814
 Alpha virt. eigenvalues --    4.36963   4.39370   4.39840   4.40472   4.42215
 Alpha virt. eigenvalues --    4.43280   4.43734   4.44868   4.45459   4.46774
 Alpha virt. eigenvalues --    4.47617   4.48141   4.48653   4.49418   4.50302
 Alpha virt. eigenvalues --    4.51521   4.51925   4.52836   4.53715   4.54202
 Alpha virt. eigenvalues --    4.55149   4.55428   4.56377   4.56471   4.57315
 Alpha virt. eigenvalues --    4.57514   4.58588   4.59779   4.60010   4.61904
 Alpha virt. eigenvalues --    4.62249   4.62649   4.63424   4.63676   4.63991
 Alpha virt. eigenvalues --    4.65118   4.65833   4.66292   4.66525   4.67503
 Alpha virt. eigenvalues --    4.67972   4.68414   4.69268   4.70129   4.70484
 Alpha virt. eigenvalues --    4.70933   4.71529   4.72638   4.73430   4.73719
 Alpha virt. eigenvalues --    4.74676   4.76045   4.76919   4.77188   4.77563
 Alpha virt. eigenvalues --    4.78823   4.79500   4.80038   4.80497   4.81193
 Alpha virt. eigenvalues --    4.81648   4.82677   4.82875   4.83915   4.84111
 Alpha virt. eigenvalues --    4.84994   4.85485   4.85982   4.87361   4.88170
 Alpha virt. eigenvalues --    4.88333   4.90292   4.90851   4.92788   4.93208
 Alpha virt. eigenvalues --    4.93587   4.94085   4.94722   4.95710   4.96824
 Alpha virt. eigenvalues --    4.97838   4.98161   4.99654   5.00473   5.00810
 Alpha virt. eigenvalues --    5.03456   5.07322   5.09808   5.16053   5.18033
 Alpha virt. eigenvalues --    5.19486   5.22266   5.24559   5.27649   5.28979
 Alpha virt. eigenvalues --    5.31776   5.34311   5.36006   5.37571   5.39495
 Alpha virt. eigenvalues --    5.40960   5.42264   5.43642   5.45732   5.46406
 Alpha virt. eigenvalues --    5.47623   5.49215   5.52725   5.54178   5.54507
 Alpha virt. eigenvalues --    5.56061   5.60615   5.64425   5.65521   5.71485
 Alpha virt. eigenvalues --    5.72138   5.76078   5.83916   5.95869   5.97735
 Alpha virt. eigenvalues --    6.06280   6.10658   6.47016   6.71868   7.01884
 Alpha virt. eigenvalues --   11.14806  11.26650  11.33747  11.58044  11.68621
 Alpha virt. eigenvalues --   11.78432  11.91549  12.04421  12.13286  12.18478
 Alpha virt. eigenvalues --   12.21857  12.41077  12.47213  12.51890  12.87600
 Alpha virt. eigenvalues --   12.88619  13.17109
          Condensed to atoms (all electrons):
 Mulliken charges:
               1
     1  C   -0.378777
     2  C   -0.156529
     3  C   -0.144286
     4  C   -0.201616
     5  C   -0.149847
     6  C   -0.210680
     7  C   -0.018946
     8  C   -0.212888
     9  C   -0.147515
    10  C   -0.207751
    11  C   -0.181743
    12  C   -0.056712
    13  O   -0.428739
    14  C    0.054757
    15  C   -0.408021
    16  C   -0.176617
    17  C   -0.387051
    18  H    0.104124
    19  H    0.109704
    20  H    0.111357
    21  H    0.091141
    22  H    0.090276
    23  H    0.089738
    24  H    0.089456
    25  H    0.082921
    26  H    0.088559
    27  H    0.109178
    28  H    0.079898
    29  H    0.095404
    30  H    0.082900
    31  H    0.061249
    32  H    0.095862
    33  H    0.084017
    34  H    0.111993
    35  H    0.081770
    36  H    0.085748
    37  H    0.093764
    38  H    0.104319
    39  H    0.082630
    40  H    0.082600
    41  H    0.109250
    42  H    0.279654
    43  H    0.063851
    44  H    0.106703
    45  H    0.116107
    46  H    0.111837
    47  H    0.097839
    48  H    0.087008
    49  H    0.110077
    50  H    0.105725
    51  H    0.116305
 Sum of Mulliken charges =  -0.00000
 Mulliken charges with hydrogens summed into heavy atoms:
               1
     1  C   -0.053593
     2  C    0.024888
     3  C    0.034908
     4  C   -0.030137
     5  C    0.039228
     6  C   -0.032376
     7  C    0.042304
     8  C   -0.033008
     9  C    0.046248
    10  C   -0.028239
    11  C    0.005206
    12  C    0.135137
    13  O   -0.149086
    14  C    0.118608
    15  C   -0.073375
    16  C    0.008230
    17  C   -0.054944
 Electronic spatial extent (au):  <R**2>=           8339.0275
 Charge=             -0.0000 electrons
 Dipole moment (field-independent basis, Debye):
    X=              1.2092    Y=             -0.3351    Z=             -0.8508  Tot=              1.5160
 Quadrupole moment (field-independent basis, Debye-Ang):
   XX=           -125.0333   YY=           -116.3265   ZZ=           -108.3244
   XY=              6.1601   XZ=              3.4415   YZ=             -4.0494
 Traceless Quadrupole moment (field-independent basis, Debye-Ang):
   XX=             -8.4719   YY=              0.2349   ZZ=              8.2370
   XY=              6.1601   XZ=              3.4415   YZ=             -4.0494
 Octapole moment (field-independent basis, Debye-Ang**2):
  XXX=             26.9945  YYY=              3.0136  ZZZ=             -3.1051  XYY=             26.9210
  XXY=            -28.0118  XXZ=            -16.7538  XZZ=            -16.6153  YZZ=             17.2356
  YYZ=            -21.3277  XYZ=             17.3321
 Hexadecapole moment (field-independent basis, Debye-Ang**3):
 XXXX=          -7243.5210 YYYY=          -4268.7858 ZZZZ=           -269.4797 XXXY=             94.5261
 XXXZ=             54.0362 YYYX=             80.7050 YYYZ=            -81.8063 ZZZX=             14.5060
 ZZZY=            -10.9044 XXYY=          -2030.1509 XXZZ=          -1136.3570 YYZZ=           -693.0867
 XXYZ=            -86.5518 YYXZ=             78.2824 ZZXY=            -64.7040
 N-N= 1.265729719787D+03 E-N=-4.165651148784D+03  KE= 6.998113537777D+02
 PrsmSu:  requested number of processors reduced to:  12 ShMem   1 Linda.
 Calling FoFJK, ICntrl=      2127 FMM=F ISym2X=0 I1Cent= 0 IOpClX= 0 NMat=1 NMatS=1 NMatT=0.
 ***** Axes restored to original set *****
 -------------------------------------------------------------------
 Center     Atomic                   Forces (Hartrees/Bohr)
 Number     Number              X              Y              Z
 -------------------------------------------------------------------
      1        6          -0.005860133    0.006496943   -0.004234176
      2        6          -0.008220449   -0.001947915    0.002328247
      3        6           0.009052352    0.010423186   -0.004956164
      4        6          -0.004294294   -0.002782022    0.008169176
      5        6           0.005759442   -0.000748537   -0.010862256
      6        6           0.000643847   -0.006413916    0.009212088
      7        6           0.010181937    0.000257521   -0.008919280
      8        6           0.000767467    0.006317330    0.008603750
      9        6           0.005211668    0.001118932   -0.010627172
     10        6          -0.003320323    0.000278756    0.008020036
     11        6           0.008463341   -0.005907307   -0.005384167
     12        6          -0.012387081    0.003386573    0.008955864
     13        8          -0.015243753   -0.002425080    0.006981177
     14        6          -0.006340858   -0.001000326    0.007835645
     15        6           0.002149929    0.002261550   -0.003955971
     16        6           0.000478774    0.000706804   -0.005453585
     17        6           0.004133125   -0.001122554    0.004100174
     18        1          -0.005547700   -0.000015065   -0.000333898
     19        1          -0.001637826    0.000223305   -0.000208749
     20        1          -0.001381364    0.000173068    0.000122983
     21        1           0.000753326    0.002545173   -0.001301526
     22        1           0.001387708    0.001957816   -0.000310113
     23        1           0.002487513    0.001128571    0.001211241
     24        1          -0.000540890    0.001515518   -0.000054925
     25        1          -0.001865608    0.006644653   -0.000932422
     26        1           0.001270883    0.003136524    0.000973343
     27        1          -0.005532707   -0.016812024    0.003119576
     28        1          -0.000788806    0.000956428   -0.000439607
     29        1           0.007056743   -0.001200285    0.000500912
     30        1           0.000628023    0.000545013   -0.001280254
     31        1           0.000021322    0.000179839    0.000941878
     32        1           0.006945997    0.000989386    0.000496044
     33        1           0.000654546   -0.000633432   -0.001263991
     34        1          -0.005161755    0.017114455    0.002884126
     35        1          -0.000797755   -0.001025877   -0.000477233
     36        1          -0.001431674   -0.006781057   -0.000887235
     37        1           0.001356530   -0.003120487    0.001071703
     38        1           0.002891176   -0.002936511   -0.000293712
     39        1           0.000549585   -0.003712075    0.001355367
     40        1           0.006062700   -0.005119258   -0.000476724
     41        1          -0.003528956   -0.001622926   -0.000167047
     42        1           0.005390066   -0.001003206   -0.017211891
     43        1          -0.000260227   -0.000969928   -0.001195303
     44        1           0.000352554    0.001009997    0.001051740
     45        1          -0.002444184   -0.000505136    0.000865446
     46        1           0.000726604   -0.002744506    0.002311712
     47        1          -0.004223764    0.001063215    0.000451722
     48        1          -0.001307732    0.000491838    0.000810767
     49        1           0.002265234    0.000441555    0.000180896
     50        1           0.002026919   -0.000901155   -0.000771794
     51        1           0.002448526    0.000086635   -0.000556417
 -------------------------------------------------------------------
 Cartesian Forces:  Max     0.017211891 RMS     0.004837394

 GradGradGradGradGradGradGradGradGradGradGradGradGradGradGradGradGradGrad
 Berny optimization.
 FormGI is forming the generalized inverse of G from B-inverse, IUseBI=4.
 Internal  Forces:  Max     0.035728538 RMS     0.006999847
 Search for a local minimum.
 Step number   1 out of a maximum of  295
 All quantities printed in internal units (Hartrees-Bohrs-Radians)
 Mixed Optimization -- RFO/linear search
 Second derivative matrix not updated -- first step.
 ITU=  0
     Eigenvalues ---    0.00230   0.00230   0.00230   0.00230   0.00241
     Eigenvalues ---    0.00351   0.00357   0.00498   0.00548   0.00587
     Eigenvalues ---    0.00604   0.00620   0.00645   0.00672   0.00693
     Eigenvalues ---    0.01502   0.03266   0.03327   0.03340   0.03363
     Eigenvalues ---    0.03396   0.03417   0.03451   0.03782   0.03861
     Eigenvalues ---    0.03943   0.04175   0.04232   0.04523   0.04613
     Eigenvalues ---    0.04798   0.04802   0.04815   0.04850   0.04918
     Eigenvalues ---    0.04934   0.04964   0.05080   0.05152   0.05174
     Eigenvalues ---    0.05197   0.05197   0.05250   0.05297   0.05343
     Eigenvalues ---    0.05530   0.05709   0.05772   0.05826   0.05964
     Eigenvalues ---    0.07393   0.07463   0.07962   0.08078   0.08101
     Eigenvalues ---    0.08486   0.08743   0.08755   0.08886   0.08928
     Eigenvalues ---    0.11451   0.11455   0.11513   0.11905   0.11990
     Eigenvalues ---    0.11996   0.12301   0.12486   0.12490   0.12736
     Eigenvalues ---    0.12772   0.13796   0.16000   0.16000   0.16000
     Eigenvalues ---    0.16000   0.16000   0.16000   0.16000   0.16000
     Eigenvalues ---    0.16000   0.16000   0.16372   0.16587   0.17035
     Eigenvalues ---    0.17126   0.21777   0.21818   0.21837   0.21850
     Eigenvalues ---    0.21911   0.21936   0.21976   0.21977   0.22044
     Eigenvalues ---    0.22059   0.22062   0.25906   0.26578   0.26778
     Eigenvalues ---    0.27925   0.28545   0.29298   0.29340   0.30339
     Eigenvalues ---    0.30709   0.31001   0.31123   0.31250   0.31440
     Eigenvalues ---    0.31641   0.31806   0.33484   0.33521   0.33766
     Eigenvalues ---    0.33818   0.33872   0.33882   0.33886   0.33931
     Eigenvalues ---    0.34057   0.34067   0.34072   0.34127   0.34143
     Eigenvalues ---    0.34144   0.34150   0.34243   0.34245   0.34277
     Eigenvalues ---    0.34281   0.34324   0.34401   0.34480   0.34481
     Eigenvalues ---    0.34558   0.34577   0.34619   0.34634   0.34635
     Eigenvalues ---    0.34664   0.34685   0.34688   0.37590   0.37618
     Eigenvalues ---    0.43321   0.51216
 RFO step:  Lambda=-5.91142371D-02 EMin= 2.30000000D-03
 Linear search not attempted -- first point.
 Maximum step size (   0.300) exceeded in Quadratic search.
    -- Step size scaled by   0.733
 Iteration  1 RMS(Cart)=  0.37396448 RMS(Int)=  0.00967500
 Iteration  2 RMS(Cart)=  0.17730883 RMS(Int)=  0.00185307
 Iteration  3 RMS(Cart)=  0.00630169 RMS(Int)=  0.00038410
 Iteration  4 RMS(Cart)=  0.00000537 RMS(Int)=  0.00038410
 Iteration  5 RMS(Cart)=  0.00000000 RMS(Int)=  0.00038410
 Variable       Old X    -DE/DX   Delta X   Delta X   Delta X     New X
                                 (Linear)    (Quad)   (Total)
    R1        2.86010   0.01414   0.00000   0.02808   0.02808   2.88818
    R2        2.06398   0.00219   0.00000   0.00397   0.00397   2.06796
    R3        2.06865   0.00038   0.00000   0.00069   0.00069   2.06935
    R4        2.06919   0.00026   0.00000   0.00047   0.00047   2.06966
    R5        2.85539   0.01717   0.00000   0.03386   0.03386   2.88925
    R6        2.06787   0.00186   0.00000   0.00338   0.00338   2.07125
    R7        2.07117   0.00073   0.00000   0.00133   0.00133   2.07250
    R8        2.89300   0.00800   0.00000   0.01662   0.01662   2.90962
    R9        2.08146  -0.00219   0.00000  -0.00407  -0.00407   2.07740
   R10        2.07447   0.00008   0.00000   0.00015   0.00015   2.07463
   R11        2.84500   0.02870   0.00000   0.05577   0.05577   2.90077
   R12        2.06190   0.00456   0.00000   0.00823   0.00823   2.07013
   R13        2.07523  -0.00046   0.00000  -0.00085  -0.00085   2.07438
   R14        2.85778   0.01648   0.00000   0.03261   0.03261   2.89039
   R15        2.01625   0.01200   0.00000   0.02020   0.02020   2.03645
   R16        2.07078  -0.00020   0.00000  -0.00037  -0.00037   2.07041
   R17        2.94889   0.00663   0.00000   0.01485   0.01485   2.96375
   R18        2.06224   0.00189   0.00000   0.00341   0.00341   2.06565
   R19        2.07217   0.00142   0.00000   0.00260   0.00260   2.07476
   R20        2.95357   0.00474   0.00000   0.01069   0.01069   2.96426
   R21        2.96960   0.00022   0.00000   0.00051   0.00051   2.97011
   R22        2.07727   0.00088   0.00000   0.00162   0.00162   2.07890
   R23        2.86572   0.01336   0.00000   0.02675   0.02675   2.89246
   R24        2.06271   0.00207   0.00000   0.00374   0.00374   2.06645
   R25        2.07209   0.00143   0.00000   0.00261   0.00261   2.07471
   R26        2.84805   0.02690   0.00000   0.05251   0.05251   2.90056
   R27        2.01666   0.01184   0.00000   0.01995   0.01995   2.03661
   R28        2.07088  -0.00026   0.00000  -0.00048  -0.00048   2.07040
   R29        2.89385   0.00663   0.00000   0.01381   0.01381   2.90766
   R30        2.06184   0.00472   0.00000   0.00852   0.00852   2.07036
   R31        2.07530  -0.00045   0.00000  -0.00082  -0.00082   2.07447
   R32        2.85180   0.01386   0.00000   0.02720   0.02720   2.87900
   R33        2.08210  -0.00317   0.00000  -0.00589  -0.00589   2.07621
   R34        2.07547   0.00078   0.00000   0.00143   0.00143   2.07691
   R35        2.67276   0.00963   0.00000   0.01433   0.01433   2.68709
   R36        2.06528   0.00589   0.00000   0.01068   0.01068   2.07596
   R37        2.07090  -0.00093   0.00000  -0.00171  -0.00171   2.06919
   R38        1.85358  -0.01806   0.00000  -0.02317  -0.02317   1.83041
   R39        2.90962   0.00041   0.00000   0.00087   0.00087   2.91048
   R40        2.92303   0.00093   0.00000   0.00201   0.00201   2.92504
   R41        2.07639   0.00104   0.00000   0.00192   0.00192   2.07831
   R42        2.06922   0.00093   0.00000   0.00171   0.00171   2.07093
   R43        2.06273  -0.00019   0.00000  -0.00033  -0.00033   2.06239
   R44        2.06367   0.00066   0.00000   0.00120   0.00120   2.06487
   R45        2.87293   0.01094   0.00000   0.02212   0.02212   2.89505
   R46        2.06526   0.00016   0.00000   0.00029   0.00029   2.06556
   R47        2.07234   0.00120   0.00000   0.00220   0.00220   2.07453
   R48        2.06858   0.00063   0.00000   0.00116   0.00116   2.06973
   R49        2.06659   0.00104   0.00000   0.00189   0.00189   2.06848
   R50        2.06298   0.00078   0.00000   0.00140   0.00140   2.06438
    A1        1.91431   0.00690   0.00000   0.02403   0.02396   1.93827
    A2        1.93269   0.00079   0.00000   0.00225   0.00221   1.93490
    A3        1.93703   0.00036   0.00000   0.00067   0.00065   1.93768
    A4        1.89506  -0.00352   0.00000  -0.01076  -0.01083   1.88423
    A5        1.89489  -0.00346   0.00000  -0.01081  -0.01086   1.88403
    A6        1.88887  -0.00137   0.00000  -0.00634  -0.00633   1.88254
    A7        1.93197   0.01150   0.00000   0.03308   0.03304   1.96501
    A8        1.91989  -0.00357   0.00000  -0.00854  -0.00866   1.91123
    A9        1.91678  -0.00296   0.00000  -0.00689  -0.00692   1.90986
   A10        1.90433  -0.00238   0.00000  -0.00283  -0.00287   1.90146
   A11        1.90858  -0.00351   0.00000  -0.00834  -0.00836   1.90021
   A12        1.88152   0.00061   0.00000  -0.00759  -0.00770   1.87383
   A13        1.91600   0.01807   0.00000   0.04969   0.04977   1.96576
   A14        1.90695  -0.00363   0.00000  -0.00493  -0.00484   1.90211
   A15        1.94008  -0.00701   0.00000  -0.01976  -0.01978   1.92029
   A16        1.92984  -0.00709   0.00000  -0.02028  -0.02046   1.90938
   A17        1.91783  -0.00450   0.00000  -0.00982  -0.00974   1.90809
   A18        1.85242   0.00334   0.00000   0.00270   0.00244   1.85487
   A19        1.85853   0.02611   0.00000   0.07436   0.07430   1.93283
   A20        1.95904  -0.01203   0.00000  -0.03926  -0.03969   1.91934
   A21        1.90373  -0.00503   0.00000  -0.00787  -0.00848   1.89526
   A22        1.94686  -0.00498   0.00000  -0.00557  -0.00494   1.94192
   A23        1.89924  -0.00687   0.00000  -0.01140  -0.01177   1.88746
   A24        1.89527   0.00285   0.00000  -0.00914  -0.00973   1.88554
   A25        2.02236  -0.01052   0.00000  -0.02661  -0.02716   1.99520
   A26        1.70680   0.01328   0.00000   0.06657   0.06684   1.77364
   A27        1.96462  -0.00131   0.00000  -0.02011  -0.02077   1.94384
   A28        1.90107   0.00063   0.00000   0.01245   0.01272   1.91379
   A29        1.94456   0.00370   0.00000  -0.00433  -0.00529   1.93926
   A30        1.90679  -0.00470   0.00000  -0.01861  -0.01829   1.88850
   A31        2.00970   0.03573   0.00000   0.09944   0.09926   2.10896
   A32        1.82592  -0.00825   0.00000  -0.01982  -0.01814   1.80778
   A33        1.91965  -0.00989   0.00000  -0.01178  -0.01308   1.90656
   A34        1.92980  -0.01537   0.00000  -0.05687  -0.05660   1.87320
   A35        1.90287  -0.00845   0.00000  -0.01213  -0.01394   1.88893
   A36        1.87028   0.00448   0.00000  -0.00589  -0.00698   1.86329
   A37        1.98082   0.02311   0.00000   0.08401   0.08353   2.06435
   A38        1.90707  -0.00857   0.00000  -0.02841  -0.02748   1.87958
   A39        1.88573  -0.00383   0.00000  -0.00489  -0.00607   1.87966
   A40        1.92244  -0.01224   0.00000  -0.04105  -0.04049   1.88195
   A41        1.88291  -0.00264   0.00000  -0.00276  -0.00413   1.87878
   A42        1.88191   0.00370   0.00000  -0.00988  -0.01043   1.87148
   A43        2.01012   0.03479   0.00000   0.09684   0.09664   2.10676
   A44        1.92873  -0.01502   0.00000  -0.05582  -0.05549   1.87325
   A45        1.90234  -0.00816   0.00000  -0.01108  -0.01287   1.88946
   A46        1.82891  -0.00822   0.00000  -0.02049  -0.01886   1.81005
   A47        1.91788  -0.00942   0.00000  -0.01034  -0.01166   1.90622
   A48        1.87028   0.00432   0.00000  -0.00601  -0.00703   1.86325
   A49        2.02873  -0.01249   0.00000  -0.03189  -0.03243   1.99630
   A50        1.90111   0.00059   0.00000   0.01187   0.01234   1.91345
   A51        1.94303   0.00450   0.00000  -0.00239  -0.00346   1.93957
   A52        1.70384   0.01413   0.00000   0.06937   0.06973   1.77357
   A53        1.96346  -0.00065   0.00000  -0.01863  -0.01941   1.94405
   A54        1.90551  -0.00496   0.00000  -0.01871  -0.01844   1.88707
   A55        1.86747   0.02246   0.00000   0.06427   0.06420   1.93167
   A56        1.94492  -0.00387   0.00000  -0.00295  -0.00245   1.94247
   A57        1.89701  -0.00594   0.00000  -0.00971  -0.01001   1.88700
   A58        1.95692  -0.01063   0.00000  -0.03498  -0.03535   1.92157
   A59        1.90142  -0.00412   0.00000  -0.00597  -0.00646   1.89496
   A60        1.89489   0.00212   0.00000  -0.00985  -0.01030   1.88459
   A61        1.92232   0.01566   0.00000   0.04157   0.04168   1.96400
   A62        1.94047  -0.00587   0.00000  -0.01632  -0.01638   1.92408
   A63        1.92938  -0.00451   0.00000  -0.01164  -0.01152   1.91785
   A64        1.90251  -0.00398   0.00000  -0.00761  -0.00755   1.89496
   A65        1.93679  -0.00646   0.00000  -0.01934  -0.01929   1.91750
   A66        1.83062   0.00423   0.00000   0.01091   0.01072   1.84134
   A67        1.91896   0.01585   0.00000   0.04445   0.04426   1.96322
   A68        1.92566  -0.00410   0.00000  -0.00642  -0.00690   1.91876
   A69        1.92042  -0.00111   0.00000  -0.00395  -0.00373   1.91669
   A70        1.90818  -0.00110   0.00000   0.01006   0.00965   1.91782
   A71        1.89187  -0.00946   0.00000  -0.03386  -0.03377   1.85810
   A72        1.89829  -0.00035   0.00000  -0.01127  -0.01134   1.88694
   A73        1.86944  -0.00033   0.00000  -0.00110  -0.00110   1.86834
   A74        1.94889   0.00122   0.00000   0.00585   0.00584   1.95473
   A75        1.95544   0.00083   0.00000   0.00359   0.00358   1.95902
   A76        1.87817  -0.00105   0.00000  -0.00520  -0.00520   1.87297
   A77        1.91214  -0.00108   0.00000  -0.00186  -0.00188   1.91025
   A78        1.88110   0.00043   0.00000   0.00162   0.00162   1.88273
   A79        1.88520  -0.00041   0.00000  -0.00446  -0.00446   1.88074
   A80        1.93137   0.00148   0.00000   0.00307   0.00307   1.93444
   A81        1.96759  -0.00080   0.00000  -0.00138  -0.00138   1.96621
   A82        1.95293  -0.00176   0.00000  -0.00528  -0.00528   1.94766
   A83        1.89374  -0.00084   0.00000  -0.00386  -0.00386   1.88988
   A84        1.89406  -0.00085   0.00000  -0.00521  -0.00521   1.88884
   A85        1.81938   0.00278   0.00000   0.01283   0.01284   1.83222
   A86        1.98227   0.00654   0.00000   0.01887   0.01888   2.00116
   A87        1.93484  -0.00409   0.00000  -0.01452  -0.01471   1.92013
   A88        1.91605  -0.00229   0.00000  -0.00856  -0.00862   1.90743
   A89        1.84007   0.00112   0.00000   0.01084   0.01092   1.85098
   A90        1.91890  -0.00199   0.00000  -0.00370  -0.00364   1.91526
   A91        1.86716   0.00050   0.00000  -0.00355  -0.00366   1.86350
   A92        1.92473   0.00192   0.00000   0.00577   0.00575   1.93049
   A93        1.91825   0.00177   0.00000   0.00627   0.00624   1.92449
   A94        1.95684   0.00250   0.00000   0.00868   0.00865   1.96549
   A95        1.89024  -0.00214   0.00000  -0.00777  -0.00779   1.88246
   A96        1.89975  -0.00267   0.00000  -0.00956  -0.00958   1.89018
   A97        1.87214  -0.00168   0.00000  -0.00434  -0.00438   1.86776
    D1        3.11230   0.00050   0.00000   0.00344   0.00344   3.11573
    D2        1.00641  -0.00163   0.00000  -0.00883  -0.00879   0.99762
    D3       -1.06173   0.00160   0.00000   0.00986   0.00985  -1.05188
    D4        1.02110  -0.00005   0.00000  -0.00003  -0.00007   1.02103
    D5       -1.08479  -0.00219   0.00000  -0.01231  -0.01230  -1.09708
    D6        3.13026   0.00105   0.00000   0.00638   0.00634   3.13661
    D7       -1.07716   0.00090   0.00000   0.00601   0.00601  -1.07115
    D8        3.10014  -0.00123   0.00000  -0.00626  -0.00622   3.09392
    D9        1.03201   0.00200   0.00000   0.01242   0.01242   1.04443
   D10       -3.09420  -0.00070   0.00000  -0.00415  -0.00406  -3.09825
   D11        1.06994  -0.00101   0.00000  -0.00723  -0.00730   1.06264
   D12       -0.96865   0.00124   0.00000   0.00408   0.00397  -0.96468
   D13       -0.97908   0.00060   0.00000   0.00436   0.00450  -0.97458
   D14       -3.09813   0.00030   0.00000   0.00128   0.00126  -3.09687
   D15        1.14647   0.00254   0.00000   0.01258   0.01252   1.15899
   D16        1.07497  -0.00206   0.00000  -0.01123  -0.01110   1.06387
   D17       -1.04408  -0.00237   0.00000  -0.01432  -0.01435  -1.05843
   D18       -3.08267  -0.00012   0.00000  -0.00301  -0.00308  -3.08575
   D19       -3.09086  -0.00076   0.00000  -0.00637  -0.00662  -3.09748
   D20        1.05721  -0.00479   0.00000  -0.02547  -0.02494   1.03227
   D21       -1.04400   0.00274   0.00000   0.01648   0.01650  -1.02751
   D22       -0.98560   0.00191   0.00000   0.00675   0.00629  -0.97932
   D23       -3.12072  -0.00212   0.00000  -0.01235  -0.01203  -3.13275
   D24        1.06125   0.00541   0.00000   0.02961   0.02940   1.09065
   D25        1.05353  -0.00095   0.00000  -0.00794  -0.00826   1.04527
   D26       -1.08158  -0.00497   0.00000  -0.02704  -0.02659  -1.10817
   D27        3.10039   0.00255   0.00000   0.01492   0.01485   3.11524
   D28        2.98966   0.00561   0.00000   0.04487   0.04447   3.03413
   D29        0.97420   0.00089   0.00000   0.00032   0.00017   0.97437
   D30       -1.02699  -0.00023   0.00000  -0.00630  -0.00616  -1.03315
   D31       -1.15075   0.00498   0.00000   0.04213   0.04205  -1.10870
   D32        3.11698   0.00026   0.00000  -0.00242  -0.00225   3.11473
   D33        1.11579  -0.00086   0.00000  -0.00904  -0.00858   1.10721
   D34        0.93982   0.00097   0.00000   0.01994   0.01962   0.95944
   D35       -1.07564  -0.00374   0.00000  -0.02461  -0.02467  -1.10032
   D36       -3.07683  -0.00486   0.00000  -0.03124  -0.03100  -3.10784
   D37       -3.12317  -0.01177   0.00000  -0.08699  -0.08700   3.07302
   D38        1.03822  -0.00786   0.00000  -0.06067  -0.06074   0.97749
   D39       -0.96524  -0.00424   0.00000  -0.03817  -0.03791  -1.00315
   D40       -1.22076  -0.00059   0.00000  -0.01128  -0.01134  -1.23210
   D41        2.94063   0.00331   0.00000   0.01504   0.01493   2.95555
   D42        0.93716   0.00693   0.00000   0.03755   0.03775   0.97491
   D43        0.88388  -0.00370   0.00000  -0.02899  -0.02913   0.85475
   D44       -1.23792   0.00020   0.00000  -0.00267  -0.00286  -1.24078
   D45        3.04180   0.00382   0.00000   0.01984   0.01996   3.06176
   D46        1.11976   0.00854   0.00000   0.06416   0.06506   1.18482
   D47       -3.01051   0.00250   0.00000   0.04874   0.04924  -2.96127
   D48       -0.96743   0.00011   0.00000   0.01877   0.01934  -0.94809
   D49       -3.09888   0.01080   0.00000   0.06416   0.06359  -3.03529
   D50       -0.94597   0.00476   0.00000   0.04874   0.04778  -0.89819
   D51        1.09712   0.00237   0.00000   0.01877   0.01788   1.11500
   D52       -1.04701   0.00216   0.00000   0.01640   0.01679  -1.03022
   D53        1.10590  -0.00387   0.00000   0.00098   0.00097   1.10687
   D54       -3.13420  -0.00627   0.00000  -0.02898  -0.02892   3.12006
   D55       -1.11765  -0.00777   0.00000  -0.06281  -0.06389  -1.18154
   D56        3.09759  -0.00971   0.00000  -0.06096  -0.06065   3.03694
   D57        1.04666  -0.00131   0.00000  -0.01445  -0.01502   1.03164
   D58        3.02107  -0.00393   0.00000  -0.05504  -0.05533   2.96574
   D59        0.95313  -0.00587   0.00000  -0.05318  -0.05209   0.90104
   D60       -1.09781   0.00253   0.00000  -0.00668  -0.00646  -1.10426
   D61        0.97115  -0.00007   0.00000  -0.01882  -0.01934   0.95180
   D62       -1.09679  -0.00200   0.00000  -0.01697  -0.01610  -1.11289
   D63        3.13546   0.00640   0.00000   0.02954   0.02953  -3.11820
   D64        0.96901  -0.00709   0.00000  -0.02805  -0.02822   0.94079
   D65        3.12143  -0.00698   0.00000  -0.02347  -0.02362   3.09781
   D66       -1.09198  -0.00767   0.00000  -0.03015  -0.03030  -1.12228
   D67       -3.12703   0.00782   0.00000   0.03042   0.03050  -3.09653
   D68       -0.97462   0.00793   0.00000   0.03501   0.03510  -0.93952
   D69        1.09516   0.00724   0.00000   0.02832   0.02842   1.12358
   D70       -1.07649   0.00003   0.00000  -0.00135  -0.00130  -1.07779
   D71        1.07592   0.00014   0.00000   0.00323   0.00330   1.07923
   D72       -3.13748  -0.00055   0.00000  -0.00345  -0.00338  -3.14086
   D73        3.11914   0.01179   0.00000   0.08784   0.08786  -3.07618
   D74        1.21698   0.00060   0.00000   0.01152   0.01162   1.22860
   D75       -0.88514   0.00357   0.00000   0.02851   0.02869  -0.85645
   D76       -1.04119   0.00790   0.00000   0.06109   0.06111  -0.98008
   D77       -2.94335  -0.00329   0.00000  -0.01523  -0.01513  -2.95848
   D78        1.23771  -0.00033   0.00000   0.00176   0.00194   1.23965
   D79        0.96304   0.00431   0.00000   0.03872   0.03844   1.00148
   D80       -0.93912  -0.00688   0.00000  -0.03760  -0.03780  -0.97692
   D81       -3.04125  -0.00392   0.00000  -0.02061  -0.02073  -3.06198
   D82       -2.98964  -0.00542   0.00000  -0.04404  -0.04357  -3.03321
   D83        1.14863  -0.00480   0.00000  -0.04163  -0.04144   1.10719
   D84       -0.93884  -0.00122   0.00000  -0.02138  -0.02099  -0.95983
   D85       -0.97349  -0.00090   0.00000   0.00004   0.00011  -0.97338
   D86       -3.11840  -0.00027   0.00000   0.00245   0.00223  -3.11617
   D87        1.07731   0.00330   0.00000   0.02270   0.02268   1.10000
   D88        1.02433   0.00055   0.00000   0.00838   0.00822   1.03255
   D89       -1.12058   0.00118   0.00000   0.01080   0.01034  -1.11024
   D90        3.07513   0.00475   0.00000   0.03104   0.03079   3.10593
   D91        3.09139   0.00058   0.00000   0.00571   0.00595   3.09733
   D92        0.98062  -0.00106   0.00000  -0.00186  -0.00151   0.97911
   D93       -1.04517   0.00007   0.00000   0.00177   0.00202  -1.04315
   D94       -1.05436   0.00435   0.00000   0.02379   0.02340  -1.03096
   D95        3.11805   0.00271   0.00000   0.01622   0.01595   3.13400
   D96        1.09226   0.00383   0.00000   0.01984   0.01947   1.11174
   D97        1.04348  -0.00250   0.00000  -0.01472  -0.01470   1.02879
   D98       -1.06729  -0.00414   0.00000  -0.02228  -0.02215  -1.08944
[...]
 9712,0.00034202,-0.00022519,-0.00040494,0.00014114,0.00031433,-0.00016
 598,-0.00012352,-0.00004583,-0.00010303,0.00628234,-0.00586781,-0.0235
 2506,-0.01731379,0.06597656,0.00000275,0.00000548,-0.00000363,-0.00001
 038,-0.00000724,-0.00000095,0.00001156,0.00002125,-0.00001615,-0.00004
 365,-0.00002010,0.00001001,-0.00000418,0.00011951,-0.00002928,-0.00039
 551,0.00001464,0.00032306,0.00148844,-0.00035868,-0.00027112,0.0002413
 0,-0.00022748,-0.00019546,0.00000890,0.00020664,-0.00020411,0.00001311
 ,-0.00005184,0.00005603,-0.00000329,0.00000604,-0.00004102,0.00002162,
 0.00001149,0.00000522,-0.00003230,-0.00002169,0.00001160,0.00501907,-0
 .00264617,-0.02117545,-0.00028776,-0.00170765,0.00101617,0.05705799,-0
 .05243585,-0.26769465,-0.00006023,-0.00005343,-0.00026539,-0.00000350,
 0.00000201,-0.00000103,-0.00000239,-0.00000072,0.00000229,0.00000051,-
 0.00000004,0.00000054,0.00000114,0.00000335,0.00000064,-0.00000080,-0.
 00000104,0.00000264,0.00000216,0.00000096,0.00000228,-0.00000588,-0.00
 000061,0.00000543,0.00000212,0.00001314,0.00000141,0.00000075,-0.00000
 506,0.00000521,0.00002146,0.00000511,0.00001521,-0.00004367,0.00001400
 ,0.00001330,-0.00000973,0.00007905,0.00000126,0.00007550,-0.00019786,0
 .00015664,-0.00105130,0.00008110,0.00055659,-0.00007652,0.00033303,0.0
 0018774,-0.00011924,0.00012606,0.00012337,-0.00007765,-0.00001959,0.00
 003170,0.00001730,-0.00011363,0.00005819,-0.00000442,0.00003334,0.0000
 1045,0.00000537,0.00001541,0.00002599,-0.00001073,-0.00000101,0.000002
 23,0.00000045,-0.00001651,0.00001151,-0.00000432,0.00000415,0.00000011
 ,0.00000222,0.00000112,0.00000431,0.00000483,0.00000196,-0.00000740,-0
 .00129957,0.00335337,-0.00143619,0.00003091,0.00100352,0.00073169,-0.0
 0029756,-0.00011561,0.00045980,0.00016926,0.00019025,0.00001874,0.0020
 4878,-0.00247686,-0.00940859,-0.06315011,0.05493864,0.29441381,0.00000
 018,0.00000056,0.00000055,0.00000015,-0.00000045,0.00000065,0.00000023
 ,0.00000008,0.00000330,0.00000279,-0.00000083,-0.00000028,0.00000869,-
 0.00001570,0.00002174,0.00006744,0.00000150,-0.00010239,-0.00007133,-0
 .00025899,0.00000586,-0.00015708,0.00020411,-0.00000732,0.00004029,-0.
 00008922,0.00005440,-0.00002631,0.00004022,-0.00000722,0.00000450,-0.0
 0001272,0.00000540,-0.00001628,0.00000292,0.00000464,0.00001324,0.0000
 0224,-0.00000710,0.00136278,-0.00129792,0.00157453,-0.00011599,0.00000
 844,-0.00009017,-0.00969550,0.00875820,0.03141922,-0.06306034,0.015232
 86,0.06058757,-0.00000028,0.00000035,-0.00000015,0.00000042,-0.0000000
 9,-0.00000033,-0.00000044,-0.00000049,-0.00000036,-0.00000031,-0.00000
 082,-0.00000029,0.00000032,0.00000063,-0.00000084,-0.00000142,-0.00000
 076,-0.00000126,0.00000112,0.00000004,-0.00000122,-0.00000028,-0.00000
 354,-0.00000032,0.00000025,0.00000172,-0.00000128,-0.00000763,-0.00000
 235,-0.00000735,0.00000537,-0.00000312,-0.00000208,-0.00000028,-0.0000
 1936,0.00000314,-0.00001264,0.00003952,-0.00002643,0.00023507,-0.00002
 517,-0.00018783,-0.00001677,-0.00008549,-0.00003113,0.00000637,-0.0000
 3250,-0.00004001,0.00003105,0.00001103,-0.00002178,0.00001190,0.000041
 84,-0.00002684,0.00000567,-0.00002373,-0.00000372,-0.00000252,-0.00000
 875,-0.00001109,0.00000750,0.00000045,-0.00000240,-0.00000041,0.000006
 70,-0.00000318,0.00000417,-0.00000546,-0.00000129,-0.00000069,-0.00000
 095,-0.00000159,-0.00000306,0.00000149,0.00000328,0.00028545,0.0003877
 1,-0.00104237,0.00000995,-0.00015632,-0.00010839,0.00010692,0.00004766
 ,-0.00000705,0.00006689,0.00006064,-0.00002005,0.00143920,-0.00067423,
 -0.00010297,-0.00634233,0.00227446,-0.00018160,0.07055528,0.00000073,0
 .00000087,-0.00000018,-0.00000097,-0.00000076,-0.00000111,0.00000206,0
 .00000321,-0.00000079,-0.00000562,-0.00000272,-0.00000628,0.00000179,0
 .00001613,0.00000317,-0.00002801,-0.00001688,0.00000900,0.00008020,0.0
 0009265,0.00018875,0.00000590,-0.00001483,0.00005062,-0.00000734,0.000
 02021,-0.00002518,-0.00001681,0.00000498,0.00001047,-0.00000020,-0.000
 00439,-0.00000386,-0.00001072,0.00000102,0.00000129,0.00000741,0.00000
 085,-0.00000176,-0.00013398,0.00061541,-0.00180280,-0.00030464,-0.0003
 7004,0.00018240,0.00278979,-0.00339003,-0.00921629,0.01514309,-0.06258
 824,-0.05864944,-0.00000047,0.00000017,-0.00000021,-0.00000067,-0.0000
 0006,0.00000065,-0.00000010,-0.00000009,-0.00000028,0.00000010,0.00000
 008,-0.00000017,-0.00000026,-0.00000029,0.00000125,-0.00000009,-0.0000
 0010,-0.00000062,-0.00000163,-0.00000007,0.00000139,0.00000028,-0.0000
 0007,0.00000037,-0.00000010,-0.00000084,0.00000311,-0.00000075,-0.0000
 0086,-0.00000422,-0.00000583,0.00000101,0.00000182,-0.00000206,0.00000
 774,0.00000680,0.00000659,-0.00001897,0.00002649,-0.00014141,-0.000003
 96,0.00009649,0.00003094,0.00001597,-0.00003158,0.00003277,-0.00001578
 ,0.00001671,0.00000259,-0.00000632,0.00000609,-0.00001498,-0.00001099,
 0.00002059,0.00000345,-0.00000647,-0.00000773,0.00000675,-0.00000086,0
 .00000540,0.00000363,-0.00000061,-0.00000073,-0.00000189,-0.00000104,0
 .00000321,0.00000235,-0.00000289,-0.00000147,0.00000146,-0.00000054,0.
 00000121,-0.00000279,-0.00000005,0.00000102,0.00001864,-0.00013545,0.0
 0067275,-0.00002884,0.00008882,0.00009395,0.00011497,-0.00008037,0.000
 03290,0.00016135,0.00009950,-0.00011515,-0.00022977,0.00037858,0.00062
 129,0.00215538,0.00033306,0.00014463,-0.01917254,0.06339449,-0.0000015
 6,-0.00000375,0.00000050,0.00000507,0.00000472,-0.00000346,-0.00000518
 ,-0.00000969,0.00000075,0.00001788,0.00000820,-0.00000925,-0.00001017,
 -0.00002640,0.00000708,0.00008022,0.00000874,0.00002670,-0.00021159,-0
 .00007925,0.00033938,0.00006718,-0.00007372,0.00002192,-0.00002546,0.0
 0004016,-0.00002501,0.00002372,-0.00003042,-0.00000876,-0.00000531,0.0
 0001499,0.00000487,0.00001118,-0.00001637,-0.00001378,-0.00000152,0.00
 001339,0.00000963,-0.00036638,0.00033036,0.00068743,-0.00006662,-0.000
 05433,0.00010364,0.00049653,0.00009606,-0.00084831,0.06141308,-0.05885
 085,-0.27371309,0.00000265,-0.00000252,0.00000083,-0.00000047,0.000000
 49,0.00000024,0.00000090,0.00000146,0.00000045,0.00000038,0.00000043,0
 .00000029,-0.00000078,-0.00000119,0.00000221,0.00000216,0.00000136,0.0
 0000141,-0.00000110,-0.00000029,0.00000122,0.00000005,0.00000208,0.000
 00061,-0.00000154,-0.00000145,0.00000421,0.00000736,0.00000230,0.00000
 517,0.00000008,-0.00000152,0.00000013,-0.00000491,0.00001966,0.0000012
 3,0.00000461,-0.00000840,0.00001176,-0.00016505,0.00006547,-0.00007677
 ,0.00002343,-0.00000249,-0.00002651,0.00003037,-0.00001590,0.00001295,
 -0.00000540,-0.00000134,0.00001404,-0.00001404,-0.00001910,0.00002336,
 -0.00000696,0.00001491,0.00000115,0.00000299,0.00000493,0.00000966,-0.
 00000547,0.00000075,0.00000212,0.00000061,-0.00000511,0.00000280,-0.00
 000534,0.00000717,0.00000181,0.00000135,0.00000072,0.00000269,0.000001
 35,-0.00000705,-0.00000426,0.00015382,-0.00052701,0.00057282,-0.000009
 50,0.00009450,0.00000703,0.00007827,-0.00006903,0.00002044,0.00011906,
 0.00003098,-0.00009830,0.00054242,0.00019606,0.00045427,0.00015259,0.0
 0048976,0.00151660,-0.06867610,0.06501854,0.29750831,0.00000579,0.0000
 1394,-0.00000471,-0.00002501,-0.00001723,0.00000483,0.00002289,0.00005
 410,-0.00001713,-0.00012021,-0.00004827,0.00000733,0.00008518,0.000276
 88,-0.00009526,-0.00073427,-0.00026533,-0.00002705,0.00025491,0.001822
 28,-0.00096634,0.00002565,0.00014717,0.00012475,0.00002166,0.00001505,
 -0.00011444,-0.00004131,0.00000329,0.00004295,-0.00000106,-0.00001132,
 -0.00004329,-0.00000583,0.00001861,0.00001484,-0.00001069,-0.00002334,
 -0.00000065,-0.00637664,-0.00020886,0.00167962,-0.00046795,-0.00037439
 ,-0.00033320,-0.00427912,0.02722488,-0.02000000,-0.04919917,0.02469170
 ,-0.01769837,-0.00000879,0.00000604,-0.00000261,-0.00000125,-0.0000015
 3,0.00000180,-0.00000104,-0.00000231,-0.00000050,0.00000051,0.00000206
 ,0.00000056,0.00000054,0.00000116,-0.00000157,-0.00000226,-0.00000215,
 -0.00000247,-0.00000299,-0.00000032,0.00000328,0.00000244,0.00000333,0
 .00000405,0.00000249,-0.00000011,-0.00000435,-0.00000640,-0.00001292,-
 0.00001685,-0.00000439,-0.00000025,0.00001595,0.00002102,0.00001441,0.
 00003582,0.00001938,-0.00000758,-0.00002818,0.00001607,-0.00000581,0.0
 0010067,0.00004625,-0.00003166,-0.00001473,-0.00002049,-0.00002516,-0.
 00002260,0.00000917,-0.00000814,0.00001030,-0.00001754,-0.00001068,0.0
 0003585,0.00000772,-0.00001203,-0.00001478,0.00000700,-0.00000208,0.00
 000934,0.00000600,-0.00000225,0.00000195,-0.00000450,-0.00000730,0.000
 01345,0.00000348,-0.00000666,-0.00000460,0.00000271,-0.00000044,0.0000
 0339,-0.00000308,0.00000670,-0.00000148,0.00004652,-0.00033055,0.00000
 370,0.00010579,0.00002739,0.00003396,0.00018966,0.00012923,0.00006535,
 0.00033297,0.00019071,0.00016547,0.00131407,-0.00063354,-0.00031986,0.
 00131014,-0.00033799,0.00049481,0.00009120,-0.00703312,0.00403920,0.05
 520736,-0.00000646,-0.00001143,0.00000387,0.00001710,0.00001596,-0.000
 00545,-0.00002164,-0.00003343,0.00001189,0.00006061,0.00003528,-0.0000
 0836,-0.00006981,-0.00009684,0.00006253,0.00033188,0.00009662,-0.00000
 940,-0.00032949,-0.00061695,0.00034257,0.00002556,-0.00007004,-0.00006
 871,-0.00002121,-0.00000183,0.00006551,0.00002462,-0.00000515,-0.00003
 146,-0.00000297,0.00001223,0.00003987,-0.00001177,-0.00003172,-0.00001
 553,0.00003002,0.00003830,-0.00000219,0.00192890,0.00080409,-0.0009094
 4,-0.00014706,0.00024155,0.00006809,0.00006293,-0.00746746,0.00476826,
 0.02579199,-0.21727823,0.12233892,0.00000835,-0.00000693,0.00000287,0.
 00000170,0.00000176,-0.00000212,0.00000147,0.00000271,0.00000068,-0.00
 000047,-0.00000172,0.00000042,-0.00000027,-0.00000137,0.00000074,0.000
 00321,0.00000170,0.00000205,0.00000385,0.00000027,-0.00000315,-0.00000
 273,-0.00000065,-0.00000010,-0.00000151,-0.00000115,0.00000125,0.00002
 208,0.00000669,0.00001367,0.00000738,-0.00000040,-0.00001169,-0.000020
 55,0.00004451,0.00000237,-0.00001070,-0.00000311,0.00000973,0.00001931
 ,-0.00000004,-0.00003613,-0.00002136,0.00000786,-0.00001342,0.00002597
 ,0.00001218,0.00002579,0.00000351,0.00000120,0.00000043,-0.00000248,0.
 00000189,-0.00000535,-0.00000436,0.00000507,0.00000426,-0.00000003,0.0
 0000210,-0.00000185,-0.00000122,0.00000106,-0.00000090,0.00000107,0.00
 000557,-0.00000879,-0.00000148,0.00000498,0.00000302,-0.00000079,0.000
 00062,-0.00000162,-0.00000270,-0.00001229,0.00000228,-0.00011191,0.000
 08592,0.00000273,0.00016908,-0.00007637,-0.00000806,0.00010997,-0.0000
 2606,0.00003721,0.00025893,0.00030365,0.00008574,0.00018803,0.00088888
 ,-0.00011989,-0.00009650,-0.00005145,-0.00039273,-0.00154065,0.0071917
 4,-0.00519368,-0.02947460,0.23472982,0.00000271,0.00000445,-0.00000108
 ,-0.00000564,-0.00000625,0.00000181,0.00000865,0.00001088,-0.00000250,
 -0.00001579,-0.00001243,-0.00000189,0.00002450,0.00003278,-0.00000562,
 -0.00002004,-0.00006114,0.00000979,0.00008756,0.00020106,0.00033899,0.
 00005315,-0.00002996,0.00000547,0.00000811,0.00003138,-0.00002552,-0.0
 0002615,0.00001896,0.00002014,0.00000174,-0.00000876,-0.00002460,-0.00
 000839,0.00002139,0.00001166,-0.00000545,-0.00002163,-0.00000294,0.000
 00830,-0.00032688,0.00021838,-0.00012236,-0.00011955,0.00007717,0.0006
 9662,-0.00257651,0.00056760,-0.01845928,0.12242954,-0.13458836,-0.0000
 0333,0.00000293,-0.00000122,-0.00000071,-0.00000069,0.00000096,-0.0000
 0067,-0.00000130,-0.00000056,-0.00000007,0.00000043,-0.00000025,0.0000
 0005,0.00000049,-0.00000008,-0.00000133,-0.00000083,-0.00000141,-0.000
 00166,0.00000003,0.00000123,0.00000008,0.00000039,0.00000049,0.0000001
 7,0.00000078,0.,-0.00000177,-0.00000217,-0.00000524,0.00000059,0.00000
 018,0.00000194,0.00000410,0.00001055,0.00001044,0.00000120,0.00000473,
 -0.00000385,-0.00009282,0.00002015,-0.00001012,0.00000219,0.00004690,-
 0.00000359,-0.00000771,-0.00000765,-0.00000681,-0.00000699,-0.00001124
 ,0.00000689,-0.00000452,0.00000294,0.00001390,0.00000760,-0.00000801,-
 0.00001252,0.00000625,-0.00000630,0.00000204,0.00000535,-0.00000276,0.
 00000100,-0.00000397,-0.00000203,0.00000877,0.00000469,-0.00000725,-0.
 00000465,0.00000243,-0.00000173,0.00000170,-0.00000351,0.00000841,0.00
 000129,-0.00002473,-0.00024159,0.00061106,0.00007079,0.00001905,0.0000
 3973,0.00005824,0.00001642,0.00001073,0.00011099,0.00014030,-0.0000353
 6,-0.00035203,-0.00001064,-0.00008449,-0.00047038,-0.00015718,0.000561
 65,-0.00353471,0.02517709,-0.01704471,0.02016971,-0.13491057,0.1429255
 9,0.00000035,0.00000251,-0.00000124,-0.00000502,-0.00000665,0.00000031
 ,0.00000183,0.00000758,-0.00000320,-0.00001342,-0.00001123,0.00000478,
 -0.00000672,0.00006391,0.00000302,0.00002112,-0.00010282,-0.00006700,-
 0.00003696,0.00007519,0.00003487,0.00020108,-0.00006709,-0.00013919,0.
 00005719,0.00000345,0.00014067,0.00001883,0.00004343,-0.00001498,0.000
 01369,-0.00000838,-0.00001734,0.00002780,0.00003830,0.00001615,-0.0000
 4320,-0.00004133,0.00000083,0.00082900,-0.00141970,0.00024198,-0.00081
 533,-0.00011921,-0.00020608,-0.02005827,-0.02377530,-0.01061562,-0.146
 95367,-0.11523164,-0.05260293,-0.00000216,0.00000236,-0.00000105,0.000
 00007,-0.00000106,-0.00000031,0.00000105,0.00000014,0.00000156,0.00000
 051,0.00000387,0.00000198,0.00000011,0.00000061,-0.00000174,0.00000384
 ,0.00000160,0.00000402,0.00000053,-0.00000126,-0.00000144,-0.00000161,
 0.00001646,0.00000468,-0.00000050,0.00000169,-0.00000467,0.00004303,0.
 00000537,0.00002624,0.00000719,-0.00000573,-0.00000684,-0.00002005,0.0
 0013159,0.00004043,-0.00001249,0.00002782,-0.00002760,0.00011072,-0.00
 004861,-0.00005608,-0.00010410,0.00012782,0.00019767,-0.00010325,0.000
 09342,-0.00002858,-0.00005925,0.00000991,-0.00003011,0.00008831,0.0000
 5179,-0.00010481,-0.00000070,0.00001060,0.00001921,-0.00001894,-0.0000
 1294,-0.00002603,-0.00000787,0.00000057,-0.00000014,0.00000438,0.00000
 388,-0.00000449,-0.00000135,-0.00000142,0.00000005,-0.00000305,-0.0000
 0112,-0.00000410,0.00000951,0.00001404,-0.00000097,0.00003646,0.000244
 69,-0.00015765,0.00018776,-0.00005919,0.00003768,0.00050008,0.00005994
 ,0.00018501,0.00080900,0.00105651,-0.00001960,-0.00596758,0.00280945,0
 .00056641,0.00140529,-0.00008127,0.00043396,0.00516745,0.00657339,0.00
 231198,0.00217539,0.00280718,0.00183823,0.16251392,0.00000188,0.000003
 67,-0.00000156,-0.00000594,-0.00000671,0.00000169,0.00000594,0.0000099
 3,-0.00000414,-0.00001879,-0.00001297,0.00000088,0.00001493,0.00004316
 ,-0.00001016,-0.00006881,-0.00005810,0.00001040,0.00005769,0.00013227,
 -0.00011162,-0.00000665,-0.00000804,0.00000659,0.00000393,0.00000303,-
 0.00001828,0.00001220,-0.00002060,0.00000712,0.00000229,-0.00000315,-0
 .00000367,0.00002261,0.00001094,0.00000257,-0.00002509,-0.00001615,0.0
 0000367,-0.00059678,0.00015160,0.00035572,0.00069550,-0.00078847,-0.00
 014542,0.00600878,0.00866688,0.00379654,-0.11614833,-0.17950815,-0.061
 14877,-0.00000314,0.00000305,-0.00000128,-0.00000046,-0.00000093,0.000
 00052,-0.00000004,-0.00000065,0.00000046,0.00000042,0.00000175,0.00000
 068,0.00000014,0.00000056,-0.00000088,-0.00000005,0.00000032,0.0000006
 1,-0.00000079,-0.00000028,0.00000020,0.00000055,0.00000289,0.00000132,
 0.00000031,0.00000100,-0.00000180,0.00000369,-0.00000743,-0.00000270,-
 0.00000028,-0.00000030,0.00000101,0.00000755,0.00000397,0.00001260,0.0
 0000232,-0.00000360,-0.00000594,-0.00002618,-0.00000268,0.00002744,0.0
 0000308,0.00000452,-0.00002190,-0.00000390,-0.00002064,-0.00001299,-0.
 00000584,0.00000217,0.00000511,-0.00001541,-0.00001083,0.00000891,-0.0
 0000552,0.00000762,0.00000525,-0.00000318,0.00000535,-0.00000087,-0.00
 000558,0.00000176,0.00000017,0.00000221,-0.00000107,-0.00000312,-0.000
 00361,0.00000307,0.00000194,-0.00000199,0.00000071,-0.00000187,0.00000
 732,0.00000472,-0.00000163,-0.00005069,-0.00002613,0.00002888,0.000113
 18,-0.00003463,0.00005002,-0.00006849,0.00016088,0.00001951,0.00101735
 ,-0.00171512,0.00036487,0.00269901,0.00042942,0.00041893,-0.00087998,0
 .00055617,0.00014214,-0.00369325,-0.00559192,-0.00146734,-0.01575101,-
 0.01874960,-0.00966714,0.12670688,0.19637677,-0.00000122,-0.00000117,0
 .00000029,0.00000062,0.00000066,-0.00000023,-0.00000327,-0.00000146,0.
 00000064,-0.00000062,0.00000115,-0.00000008,-0.00000627,0.00002111,0.0
 0000362,-0.00000930,-0.00002666,-0.00001006,-0.00002051,0.00012461,-0.
 00005249,0.00008571,-0.00006121,-0.00001111,-0.00000929,0.00003139,0.0
 0002221,0.00002042,-0.00001311,-0.00000634,-0.00000082,0.00000714,0.00
 000206,0.00001069,0.00000005,-0.00000208,-0.00000807,-0.00000222,0.000
 00276,-0.00029901,-0.00070325,-0.00001087,-0.00041628,-0.00002718,0.00
 001203,0.00127325,0.00182546,-0.00005134,-0.05289090,-0.06097746,-0.07
 553442,0.00000071,-0.00000046,0.00000024,0.00000065,0.00000009,-0.0000
 0067,0.00000063,0.00000051,0.00000056,-0.00000006,0.00000074,0.0000009
 3,0.00000007,-0.00000011,-0.00000107,0.00000190,0.00000077,0.00000132,
 0.00000162,-0.00000006,-0.00000125,-0.00000129,0.00000398,0.00000216,-
 0.00000029,-0.00000010,-0.00000284,0.00001679,0.00000094,0.00000698,0.
 00000554,-0.00000038,-0.00000344,-0.00001097,0.00004275,0.00001699,-0.
 00000283,-0.00000007,-0.00001226,0.00004295,0.00000082,0.00000496,0.00
 003838,0.00001588,0.00001797,-0.00000342,0.00000349,-0.00000150,-0.000
 01605,-0.00000257,0.00000570,-0.00000393,-0.00000197,-0.00000122,-0.00
 000327,0.00001215,0.00000260,-0.00000158,0.00000146,-0.00000058,-0.000
 00412,-0.00000030,0.00000181,0.00000025,-0.00000075,-0.00000044,-0.000
 00235,0.00000292,0.00000060,-0.00000020,0.00000017,-0.00000041,0.00000
 203,0.00000038,-0.00000100,-0.00006084,-0.00004471,-0.00004702,0.00023
 820,-0.00006894,-0.00003639,0.00013042,-0.00000449,-0.00001859,0.00016
 765,0.00043758,0.00044448,0.00057497,0.00002038,0.00115668,-0.00009708
 ,0.00069049,0.00040699,-0.01942381,-0.02252961,-0.00950947,0.01265208,
 0.01386385,0.00641693,0.05803210,0.06735732,0.07678566\\0.00000040,-0.
 00000038,0.00000005,0.00000072,0.00000028,-0.00000038,0.00000029,-0.00
 000012,0.00000175,0.00000217,-0.00000044,0.00000138,-0.00000154,-0.000
 00238,-0.00000217,-0.00000396,-0.00000259,0.00000212,-0.00000837,-0.00
 000506,-0.00000115,0.00000268,0.00000618,-0.00000515,0.00000044,0.0000
 0719,0.00000177,0.00000026,-0.00000422,-0.00000167,0.00000253,0.000000
 55,0.00000053,0.00000179,-0.00000113,-0.00000098,-0.00000031,0.0000012
 3,0.00000215,0.00000137,-0.00000050,-0.00000441,0.00000074,0.00000034,
 0.00000341,-0.00000069,0.00000032,0.00000084,0.00000084,-0.00000005,-0
 .00000116,0.00000064,-0.00000035,-0.00000003,-0.00000037,0.00000015,-0
 .00000002,-0.00000015,-0.00000013,-0.00000016,0.00000011,0.00000049,0.
 00000050,0.00000070,0.00000028,0.00000003,0.00000037,-0.00000072,0.000
 00018,-0.00000027,0.00000002,0.00000028,0.00000095,0.00000295,-0.00000
 095,-0.00000093,-0.00000113,-0.00000097,0.00000026,-0.00000733,-0.0000
 0167,-0.00000116,0.00000065,-0.00000134,0.00000487,0.00000048,0.000002
 22,-0.00000067,0.00000075,-0.00000043,0.00000183,-0.00000276,0.0000014
 6,-0.00000278,-0.00000165,-0.00000033,0.00000153,0.00000096,-0.0000023
 7,-0.00000429,0.00000547,0.00000213,-0.00000066,0.00000003,0.00000077,
 0.00000032,-0.00000145,-0.00000234,-0.00000098,0.00000137,0.00000064,-
 0.00000018,0.00000097,0.00000027,-0.00000023,-0.00000025,-0.00000029,0
 .00000089,0.,-0.00000086,-0.00000005,-0.00000013,-0.00000004,-0.000000
 26,0.00000023,-0.00000272,-0.00000018,-0.00000007,0.00000282,0.0000005
 5,-0.00000111,-0.00000113,-0.00000105,0.00000151,0.00000013,0.00000175
 ,-0.00000224,0.00000209,-0.00000145,-0.00000037,0.00000547,-0.00000032
 ,0.00000182,-0.00000045,0.00000058,0.00000138,0.00000008,0.00000061,-0
 .00000050,-0.00000080,0.00000066,0.00000143,0.00000090\\\@


 CHEMISTRY BEGAN BY SAYING IT WOULD CHANGE THE BASER
 METALS INTO GOLD.  BY NOT DOING THAT IT HAS DONE MUCH
 GREATER THINGS.  --  RALPH WALDO EMERSON
 Job cpu time:       0 days 21 hours 57 minutes 23.8 seconds.
 Elapsed time:       0 days  5 hours 29 minutes 51.4 seconds.
 File lengths (MBytes):  RWF=   1460 Int=      0 D2E=      0 Chk=     35 Scr=      1
 Normal termination of Gaussian 16 at Tue May 23 14:15:13 2023.
### All Done ###
