### Starting Gaussian ###
 Entering Gaussian System, Link 0=g16
 Initial command:
 /cluster/software/gaussian/gaussian-16-A.03/avx2/g16/l1.exe "/local/scratch/cz9n3/Gau-8468.inp" -scrdir="/local/scratch/cz9n3/"
 Entering Link 1 = /cluster/software/gaussian/gaussian-16-A.03/avx2/g16/l1.exe PID=      8471.
  
 Copyright (c) 1988,1990,1992,1993,1995,1998,2003,2009,2016,
            Gaussian, Inc.  All Rights Reserved.
  
 This is part of the Gaussian(R) 16 program.  It is based on
 the Gaussian(R) 09 system (copyright 2009, Gaussian, Inc.),
 the Gaussian(R) 03 system (copyright 2003, Gaussian, Inc.),
 the Gaussian(R) 98 system (copyright 1998, Gaussian, Inc.),
 the Gaussian(R) 94 system (copyright 1995, Gaussian, Inc.),
 the Gaussian 92(TM) system (copyright 1992, Gaussian, Inc.),
 the Gaussian 90(TM) system (copyright 1990, Gaussian, Inc.),
 the Gaussian 88(TM) system (copyright 1988, Gaussian, Inc.),
 the Gaussian 86(TM) system (copyright 1986, Carnegie Mellon
 University), and the Gaussian 82(TM) system (copyright 1983,
 Carnegie Mellon University). Gaussian is a federally registered
 trademark of Gaussian, Inc.
  
 This software contains proprietary and confidential information,
 including trade secrets, belonging to Gaussian, Inc.
  
 This software is provided under written license and may be
 used, copied, transmitted, or stored only in accord with that
 written license.
  
 The following legend is applicable only to US Government
 contracts under FAR:
  
                    RESTRICTED RIGHTS LEGEND
  
 Use, reproduction and disclosure by the US Government is
 subject to restrictions as set forth in subparagraphs (a)
 and (c) of the Commercial Computer Software - Restricted
 Rights clause in FAR 52.227-19.
  
 Gaussian, Inc.
 340 Quinnipiac St., Bldg. 40, Wallingford CT 06492
  
  
 ---------------------------------------------------------------
 Warning -- This program may not be used in any manner that
 competes with the business of Gaussian, Inc. or will provide
 assistance to any competitor of Gaussian, Inc.  The licensee
 of this program is prohibited from giving any competitor of
 Gaussian, Inc. access to this program.  By using this program,
 the user acknowledges that Gaussian, Inc. is engaged in the
 business of creating and licensing software in the field of
 computational chemistry and represents and warrants to the
 licensee that it is not a competitor of Gaussian, Inc. and that
 it will not use this program in any manner prohibited above.
 ---------------------------------------------------------------
  

 Cite this work as:
 Gaussian 16, Revision A.03,
 M. J. Frisch, G. W. Trucks, H. B. Schlegel, G. E. Scuseria, 
 M. A. Robb, J. R. Cheeseman, G. Scalmani, V. Barone, 
 G. A. Petersson, H. Nakatsuji, X. Li, M. Caricato, A. V. Marenich, 
 J. Bloino, B. G. Janesko, R. Gomperts, B. Mennucci, H. P. Hratchian, 
 J. V. Ortiz, A. F. Izmaylov, J. L. Sonnenberg, D. Williams-Young, 
 F. Ding, F. Lipparini, F. Egidi, J. Goings, B. Peng, A. Petrone, 
 T. Henderson, D. Ranasinghe, V. G. Zakrzewski, J. Gao, N. Rega, 
 G. Zheng, W. Liang, M. Hada, M. Ehara, K. Toyota, R. Fukuda, 
 J. Hasegawa, M. Ishida, T. Nakajima, Y. Honda, O. Kitao, H. Nakai, 
 T. Vreven, K. Throssell, J. A. Montgomery, Jr., J. E. Peralta, 
 F. Ogliaro, M. J. Bearpark, J. J. Heyd, E. N. Brothers, K. N. Kudin, 
 V. N. Staroverov, T. A. Keith, R. Kobayashi, J. Normand, 
 K. Raghavachari, A. P. Rendell, J. C. Burant, S. S. Iyengar, 
 J. Tomasi, M. Cossi, J. M. Millam, M. Klene, C. Adamo, R. Cammi, 
 J. W. Ochterski, R. L. Martin, K. Morokuma, O. Farkas, 
 J. B. Foresman, and D. J. Fox, Gaussian, Inc., Wallingford CT, 2016.
 
 ******************************************
 Gaussian 16:  ES64L-G16RevA.03 25-Dec-2016
                26-May-2023 
 ******************************************
 %chk=CCCCqCNrCqCCrCCCON.chk
 %NProcShared=20
 Will use up to   20 processors via shared memory.
 ----------------------------------------------------------------
 # opt freq b3lyp/6-31+g(2df,p) Geom=AllCheckpoint TD(NStates=10)
 ----------------------------------------------------------------
 1/18=20,19=15,26=3,29=7,38=1/1,3;
 2/9=110,12=2,40=1/2;
 3/5=1,6=6,7=114,11=9,14=-4,25=1,30=1,71=1,74=-5/1,2,3,8;
 4//1;
 5/5=2,38=5/2;
 8/6=1,10=2,108=10/1;
 9/15=2,41=10,42=1,70=2/14;
 10/5=4/2;
 6/7=2,8=2,9=2,10=2/1;
 7/12=6,13=5/1,2,3,16;
 1/18=20,19=15,26=3/3(2);
 2/9=110/2;
 99//99;
 2/9=110/2;
 3/5=1,6=6,7=114,11=9,14=-2,25=1,30=1,71=1,74=-5/1,2,3,8;
 4/5=5,16=3,69=1/1;
 5/5=2,38=5/2;
 8/6=1,10=2,108=10/1;
 9/15=2,41=10,42=1,49=4,70=2/14;
 10/5=4/2;
 7/12=6,13=5/1,2,3,16;
 1/18=20,19=15,26=3/3(-8);
 2/9=110/2;
 6/7=2,8=2,9=2,10=2/1;
 99//99;
 Structure from the checkpoint file:  "CCCCqCNrCqCCrCCCON.chk"
 -------------------
 Title Card Required
 -------------------
 Charge =  0 Multiplicity = 1
 Redundant internal coordinates found in file.  (old form).
 C,0,1.0414534721,0.0896903475,0.540544702
 C,0,2.5403059646,-0.0509140559,0.2588866818
 C,0,3.0120425128,0.890314486,-0.8589765159
 C,0,4.5171707152,0.8210162431,-1.1876162574
 C,0,4.903778659,-0.5773518089,-1.7322859158
 N,0,5.2224503335,-1.5215978544,-0.6529137668
 C,0,5.0273563015,1.9246172536,-2.166989199
 C,0,4.3955969434,3.3256611923,-1.970399
 C,0,3.1436929968,3.6059595433,-2.8104437752
 C,0,6.568000445,2.0352244664,-2.0574908551
 C,0,7.2481216262,2.6248392364,-3.2987531044
 C,0,8.7505818262,2.7923438568,-3.1114224574
 O,0,9.2732681934,3.3231107115,-4.3200772648
 N,0,10.6942966836,3.4909355463,-4.1758057071
 H,0,0.7234251905,-0.5753523138,1.3499168536
 H,0,0.4455203866,-0.1590192798,-0.3453911566
 H,0,0.7823090061,1.1145802628,0.8313809984
 H,0,2.7830127423,-1.0873478827,0.009781653
 H,0,3.1083064871,0.1684040042,1.1727023874
 H,0,2.7468805172,1.911718474,-0.5643723718
 H,0,2.4367881653,0.6790728951,-1.7723827831
 H,0,5.0611527027,0.9674011313,-0.2409221467
 H,0,5.7203850648,-0.4765631569,-2.4644793858
 H,0,4.0514488311,-0.9874951977,-2.2892171909
 H,0,6.0648072708,-1.2153334854,-0.1734849721
 H,0,5.4390572928,-2.4330376019,-1.04624569
 H,0,4.786265837,1.5941575838,-3.188942688
 H,0,5.1432583952,4.0839705199,-2.2296196043
 H,0,4.1819727142,3.4854656531,-0.9057871783
 H,0,3.3695401519,3.5176339016,-3.8791403382
 H,0,2.7739796527,4.6216064942,-2.6341520764
 H,0,2.3282860474,2.9130986013,-2.5891805019
 H,0,7.0068652764,1.0499995103,-1.8604083403
 H,0,6.8067159774,2.6483544202,-1.1766257514
 H,0,6.8187501824,3.6007819659,-3.5537011889
 H,0,7.0702398501,1.972505665,-4.1628024442
 H,0,9.2292110045,1.8283350471,-2.882484121
 H,0,8.9677789603,3.4713452963,-2.2732706829
 H,0,10.8433713571,4.4761231678,-4.3969252544
 H,0,11.0772842629,2.9805451602,-4.9722435902
 Recover connectivity data from disk.

 GradGradGradGradGradGradGradGradGradGradGradGradGradGradGradGradGradGrad
 Berny optimization.
 Initialization pass.
                           ----------------------------
                           !    Initial Parameters    !
                           ! (Angstroms and Degrees)  !
 --------------------------                            --------------------------
 ! Name  Definition              Value          Derivative Info.                !
 --------------------------------------------------------------------------------
 ! R1    R(1,2)                  1.5316         estimate D2E/DX2                !
 ! R2    R(1,15)                 1.0948         estimate D2E/DX2                !
 ! R3    R(1,16)                 1.0963         estimate D2E/DX2                !
 ! R4    R(1,17)                 1.0964         estimate D2E/DX2                !
 ! R5    R(2,3)                  1.5356         estimate D2E/DX2                !
 ! R6    R(2,18)                 1.0932         estimate D2E/DX2                !
 ! R7    R(2,19)                 1.0981         estimate D2E/DX2                !
 ! R8    R(3,4)                  1.5421         estimate D2E/DX2                !
 ! R9    R(3,20)                 1.0956         estimate D2E/DX2                !
 ! R10   R(3,21)                 1.0999         estimate D2E/DX2                !
 ! R11   R(4,5)                  1.5497         estimate D2E/DX2                !
 ! R12   R(4,7)                  1.5612         estimate D2E/DX2                !
 ! R13   R(4,22)                 1.1016         estimate D2E/DX2                !
 ! R14   R(5,6)                  1.4691         estimate D2E/DX2                !
 ! R15   R(5,23)                 1.1014         estimate D2E/DX2                !
 ! R16   R(5,24)                 1.0977         estimate D2E/DX2                !
 ! R17   R(6,25)                 1.0165         estimate D2E/DX2                !
 ! R18   R(6,26)                 1.016          estimate D2E/DX2                !
 ! R19   R(7,8)                  1.5494         estimate D2E/DX2                !
 ! R20   R(7,10)                 1.5485         estimate D2E/DX2                !
 ! R21   R(7,27)                 1.1008         estimate D2E/DX2                !
 ! R22   R(8,9)                  1.5335         estimate D2E/DX2                !
 ! R23   R(8,28)                 1.096          estimate D2E/DX2                !
 ! R24   R(8,29)                 1.0975         estimate D2E/DX2                !
 ! R25   R(9,30)                 1.0959         estimate D2E/DX2                !
 ! R26   R(9,31)                 1.0951         estimate D2E/DX2                !
 ! R27   R(9,32)                 1.0927         estimate D2E/DX2                !
 ! R28   R(10,11)                1.5333         estimate D2E/DX2                !
 ! R29   R(10,33)                1.0964         estimate D2E/DX2                !
 ! R30   R(10,34)                1.0995         estimate D2E/DX2                !
 ! R31   R(11,12)                1.5233         estimate D2E/DX2                !
 ! R32   R(11,35)                1.0963         estimate D2E/DX2                !
 ! R33   R(11,36)                1.0972         estimate D2E/DX2                !
 ! R34   R(12,13)                1.4198         estimate D2E/DX2                !
 ! R35   R(12,37)                1.1004         estimate D2E/DX2                !
 ! R36   R(12,38)                1.1003         estimate D2E/DX2                !
 ! R37   R(13,14)                1.4382         estimate D2E/DX2                !
 ! R38   R(14,39)                1.0206         estimate D2E/DX2                !
 ! R39   R(14,40)                1.0205         estimate D2E/DX2                !
 ! A1    A(2,1,15)             111.3762         estimate D2E/DX2                !
 ! A2    A(2,1,16)             111.2561         estimate D2E/DX2                !
 ! A3    A(2,1,17)             111.4633         estimate D2E/DX2                !
 ! A4    A(15,1,16)            107.5612         estimate D2E/DX2                !
 ! A5    A(15,1,17)            107.6423         estimate D2E/DX2                !
 ! A6    A(16,1,17)            107.3341         estimate D2E/DX2                !
 ! A7    A(1,2,3)              112.225          estimate D2E/DX2                !
 ! A8    A(1,2,18)             110.2556         estimate D2E/DX2                !
 ! A9    A(1,2,19)             109.5629         estimate D2E/DX2                !
 ! A10   A(3,2,18)             110.305          estimate D2E/DX2                !
 ! A11   A(3,2,19)             108.9342         estimate D2E/DX2                !
 ! A12   A(18,2,19)            105.3158         estimate D2E/DX2                !
 ! A13   A(2,3,4)              115.3037         estimate D2E/DX2                !
 ! A14   A(2,3,20)             107.5374         estimate D2E/DX2                !
 ! A15   A(2,3,21)             109.0346         estimate D2E/DX2                !
 ! A16   A(4,3,20)             109.5973         estimate D2E/DX2                !
 ! A17   A(4,3,21)             108.9558         estimate D2E/DX2                !
 ! A18   A(20,3,21)            106.0074         estimate D2E/DX2                !
 ! A19   A(3,4,5)              111.0346         estimate D2E/DX2                !
 ! A20   A(3,4,7)              114.889          estimate D2E/DX2                !
 ! A21   A(3,4,22)             107.0281         estimate D2E/DX2                !
 ! A22   A(5,4,7)              109.6243         estimate D2E/DX2                !
 ! A23   A(5,4,22)             107.3828         estimate D2E/DX2                !
 ! A24   A(7,4,22)             106.4866         estimate D2E/DX2                !
 ! A25   A(4,5,6)              112.0777         estimate D2E/DX2                !
 ! A26   A(4,5,23)             109.6357         estimate D2E/DX2                !
 ! A27   A(4,5,24)             108.7705         estimate D2E/DX2                !
 ! A28   A(6,5,23)             112.7318         estimate D2E/DX2                !
 ! A29   A(6,5,24)             107.5212         estimate D2E/DX2                !
 ! A30   A(23,5,24)            105.8194         estimate D2E/DX2                !
 ! A31   A(5,6,25)             109.4293         estimate D2E/DX2                !
 ! A32   A(5,6,26)             109.7788         estimate D2E/DX2                !
 ! A33   A(25,6,26)            106.0336         estimate D2E/DX2                !
 ! A34   A(4,7,8)              115.2365         estimate D2E/DX2                !
 ! A35   A(4,7,10)             109.3456         estimate D2E/DX2                !
 ! A36   A(4,7,27)             107.3741         estimate D2E/DX2                !
 ! A37   A(8,7,10)             109.3971         estimate D2E/DX2                !
 ! A38   A(8,7,27)             107.4545         estimate D2E/DX2                !
 ! A39   A(10,7,27)            107.7583         estimate D2E/DX2                !
 ! A40   A(7,8,9)              115.3821         estimate D2E/DX2                !
 ! A41   A(7,8,28)             108.5102         estimate D2E/DX2                !
 ! A42   A(7,8,29)             109.5177         estimate D2E/DX2                !
 ! A43   A(9,8,28)             107.5107         estimate D2E/DX2                !
 ! A44   A(9,8,29)             110.2344         estimate D2E/DX2                !
 ! A45   A(28,8,29)            105.1566         estimate D2E/DX2                !
 ! A46   A(8,9,30)             110.5635         estimate D2E/DX2                !
 ! A47   A(8,9,31)             110.9129         estimate D2E/DX2                !
 ! A48   A(8,9,32)             112.4825         estimate D2E/DX2                !
 ! A49   A(30,9,31)            107.5364         estimate D2E/DX2                !
 ! A50   A(30,9,32)            107.4677         estimate D2E/DX2                !
 ! A51   A(31,9,32)            107.671          estimate D2E/DX2                !
 ! A52   A(7,10,11)            114.3022         estimate D2E/DX2                !
 ! A53   A(7,10,33)            110.2901         estimate D2E/DX2                !
 ! A54   A(7,10,34)            108.2103         estimate D2E/DX2                !
 ! A55   A(11,10,33)           108.2713         estimate D2E/DX2                !
 ! A56   A(11,10,34)           109.745          estimate D2E/DX2                !
 ! A57   A(33,10,34)           105.6755         estimate D2E/DX2                !
 ! A58   A(10,11,12)           112.3477         estimate D2E/DX2                !
 ! A59   A(10,11,35)           110.9081         estimate D2E/DX2                !
 ! A60   A(10,11,36)           109.6937         estimate D2E/DX2                !
 ! A61   A(12,11,35)           108.482          estimate D2E/DX2                !
 ! A62   A(12,11,36)           108.7919         estimate D2E/DX2                !
 ! A63   A(35,11,36)           106.4187         estimate D2E/DX2                !
 ! A64   A(11,12,13)           107.4289         estimate D2E/DX2                !
 ! A65   A(11,12,37)           110.9937         estimate D2E/DX2                !
 ! A66   A(11,12,38)           110.8681         estimate D2E/DX2                !
 ! A67   A(13,12,37)           110.1511         estimate D2E/DX2                !
 ! A68   A(13,12,38)           110.1878         estimate D2E/DX2                !
 ! A69   A(37,12,38)           107.2341         estimate D2E/DX2                !
 ! A70   A(12,13,14)           108.7831         estimate D2E/DX2                !
 ! A71   A(13,14,39)           103.605          estimate D2E/DX2                !
 ! A72   A(13,14,40)           103.5422         estimate D2E/DX2                !
 ! A73   A(39,14,40)           105.0024         estimate D2E/DX2                !
 ! D1    D(15,1,2,3)          -179.0888         estimate D2E/DX2                !
 ! D2    D(15,1,2,18)           57.519          estimate D2E/DX2                !
 ! D3    D(15,1,2,19)          -57.9444         estimate D2E/DX2                !
 ! D4    D(16,1,2,3)            60.9161         estimate D2E/DX2                !
 ! D5    D(16,1,2,18)          -62.4761         estimate D2E/DX2                !
 ! D6    D(16,1,2,19)         -177.9395         estimate D2E/DX2                !
 ! D7    D(17,1,2,3)           -58.8498         estimate D2E/DX2                !
 ! D8    D(17,1,2,18)          177.758          estimate D2E/DX2                !
 ! D9    D(17,1,2,19)           62.2946         estimate D2E/DX2                !
 ! D10   D(1,2,3,4)            179.1835         estimate D2E/DX2                !
 ! D11   D(1,2,3,20)            56.6024         estimate D2E/DX2                !
 ! D12   D(1,2,3,21)           -57.9143         estimate D2E/DX2                !
 ! D13   D(18,2,3,4)           -57.4521         estimate D2E/DX2                !
 ! D14   D(18,2,3,20)          179.9668         estimate D2E/DX2                !
 ! D15   D(18,2,3,21)           65.4501         estimate D2E/DX2                !
 ! D16   D(19,2,3,4)            57.6783         estimate D2E/DX2                !
 ! D17   D(19,2,3,20)          -64.9028         estimate D2E/DX2                !
 ! D18   D(19,2,3,21)         -179.4195         estimate D2E/DX2                !
 ! D19   D(2,3,4,5)             63.6898         estimate D2E/DX2                !
 ! D20   D(2,3,4,7)           -171.2045         estimate D2E/DX2                !
 ! D21   D(2,3,4,22)           -53.2167         estimate D2E/DX2                !
 ! D22   D(20,3,4,5)          -174.8353         estimate D2E/DX2                !
 ! D23   D(20,3,4,7)           -49.7296         estimate D2E/DX2                !
 ! D24   D(20,3,4,22)           68.2582         estimate D2E/DX2                !
 ! D25   D(21,3,4,5)           -59.2543         estimate D2E/DX2                !
 ! D26   D(21,3,4,7)            65.8514         estimate D2E/DX2                !
 ! D27   D(21,3,4,22)         -176.1608         estimate D2E/DX2                !
 ! D28   D(3,4,5,6)            -86.627          estimate D2E/DX2                !
 ! D29   D(3,4,5,23)           147.3965         estimate D2E/DX2                !
 ! D30   D(3,4,5,24)            32.1223         estimate D2E/DX2                !
 ! D31   D(7,4,5,6)            145.3605         estimate D2E/DX2                !
 ! D32   D(7,4,5,23)            19.3839         estimate D2E/DX2                !
 ! D33   D(7,4,5,24)           -95.8903         estimate D2E/DX2                !
 ! D34   D(22,4,5,6)            30.0621         estimate D2E/DX2                !
 ! D35   D(22,4,5,23)          -95.9145         estimate D2E/DX2                !
 ! D36   D(22,4,5,24)          148.8113         estimate D2E/DX2                !
 ! D37   D(3,4,7,8)             38.1739         estimate D2E/DX2                !
 ! D38   D(3,4,7,10)           161.8579         estimate D2E/DX2                !
 ! D39   D(3,4,7,27)           -81.491          estimate D2E/DX2                !
 ! D40   D(5,4,7,8)            164.0129         estimate D2E/DX2                !
 ! D41   D(5,4,7,10)           -72.3031         estimate D2E/DX2                !
 ! D42   D(5,4,7,27)            44.348          estimate D2E/DX2                !
 ! D43   D(22,4,7,8)           -80.1187         estimate D2E/DX2                !
 ! D44   D(22,4,7,10)           43.5652         estimate D2E/DX2                !
 ! D45   D(22,4,7,27)          160.2164         estimate D2E/DX2                !
 ! D46   D(4,5,6,25)           -65.9647         estimate D2E/DX2                !
 ! D47   D(4,5,6,26)           178.0536         estimate D2E/DX2                !
 ! D48   D(23,5,6,25)           58.3059         estimate D2E/DX2                !
 ! D49   D(23,5,6,26)          -57.6758         estimate D2E/DX2                !
 ! D50   D(24,5,6,25)          174.551          estimate D2E/DX2                !
 ! D51   D(24,5,6,26)           58.5693         estimate D2E/DX2                !
 ! D52   D(4,7,8,9)            -91.6347         estimate D2E/DX2                !
 ! D53   D(4,7,8,28)           147.6985         estimate D2E/DX2                !
 ! D54   D(4,7,8,29)            33.418          estimate D2E/DX2                !
 ! D55   D(10,7,8,9)           144.7085         estimate D2E/DX2                !
 ! D56   D(10,7,8,28)           24.0418         estimate D2E/DX2                !
 ! D57   D(10,7,8,29)          -90.2387         estimate D2E/DX2                !
 ! D58   D(27,7,8,9)            27.9858         estimate D2E/DX2                !
 ! D59   D(27,7,8,28)          -92.6809         estimate D2E/DX2                !
 ! D60   D(27,7,8,29)          153.0386         estimate D2E/DX2                !
 ! D61   D(4,7,10,11)          156.4476         estimate D2E/DX2                !
 ! D62   D(4,7,10,33)           34.1914         estimate D2E/DX2                !
 ! D63   D(4,7,10,34)          -80.9517         estimate D2E/DX2                !
 ! D64   D(8,7,10,11)          -76.4903         estimate D2E/DX2                !
 ! D65   D(8,7,10,33)          161.2535         estimate D2E/DX2                !
 ! D66   D(8,7,10,34)           46.1104         estimate D2E/DX2                !
 ! D67   D(27,7,10,11)          40.0401         estimate D2E/DX2                !
 ! D68   D(27,7,10,33)         -82.2161         estimate D2E/DX2                !
 ! D69   D(27,7,10,34)         162.6408         estimate D2E/DX2                !
 ! D70   D(7,8,9,30)           -59.352          estimate D2E/DX2                !
 ! D71   D(7,8,9,31)          -178.5524         estimate D2E/DX2                !
 ! D72   D(7,8,9,32)            60.7952         estimate D2E/DX2                !
 ! D73   D(28,8,9,30)           61.8568         estimate D2E/DX2                !
 ! D74   D(28,8,9,31)          -57.3435         estimate D2E/DX2                !
 ! D75   D(28,8,9,32)         -177.9959         estimate D2E/DX2                !
 ! D76   D(29,8,9,30)          175.967          estimate D2E/DX2                !
 ! D77   D(29,8,9,31)           56.7667         estimate D2E/DX2                !
 ! D78   D(29,8,9,32)          -63.8857         estimate D2E/DX2                !
 ! D79   D(7,10,11,12)         176.5098         estimate D2E/DX2                !
 ! D80   D(7,10,11,35)          54.9115         estimate D2E/DX2                !
 ! D81   D(7,10,11,36)         -62.354          estimate D2E/DX2                !
 ! D82   D(33,10,11,12)        -60.1383         estimate D2E/DX2                !
 ! D83   D(33,10,11,35)        178.2634         estimate D2E/DX2                !
 ! D84   D(33,10,11,36)         60.9979         estimate D2E/DX2                !
 ! D85   D(34,10,11,12)         54.7478         estimate D2E/DX2                !
 ! D86   D(34,10,11,35)        -66.8505         estimate D2E/DX2                !
 ! D87   D(34,10,11,36)        175.884          estimate D2E/DX2                !
 ! D88   D(10,11,12,13)        179.1786         estimate D2E/DX2                !
 ! D89   D(10,11,12,37)         58.7001         estimate D2E/DX2                !
 ! D90   D(10,11,12,38)        -60.372          estimate D2E/DX2                !
 ! D91   D(35,11,12,13)        -57.8485         estimate D2E/DX2                !
 ! D92   D(35,11,12,37)       -178.3269         estimate D2E/DX2                !
 ! D93   D(35,11,12,38)         62.601          estimate D2E/DX2                !
 ! D94   D(36,11,12,13)         57.5265         estimate D2E/DX2                !
 ! D95   D(36,11,12,37)        -62.9519         estimate D2E/DX2                !
 ! D96   D(36,11,12,38)        177.9759         estimate D2E/DX2                !
 ! D97   D(11,12,13,14)       -179.8904         estimate D2E/DX2                !
 ! D98   D(37,12,13,14)        -58.8803         estimate D2E/DX2                !
 ! D99   D(38,12,13,14)         59.2305         estimate D2E/DX2                !
 ! D100  D(12,13,14,39)       -124.6604         estimate D2E/DX2                !
 ! D101  D(12,13,14,40)        125.9348         estimate D2E/DX2                !
 ! D102  D(13,14,39,40)       -108.3175         estimate D2E/DX2                !
 --------------------------------------------------------------------------------
 Trust Radius=3.00D-01 FncErr=1.00D-07 GrdErr=1.00D-06 EigMax=2.50D+02 EigMin=1.00D-04
 Number of steps in this run=    224 maximum allowed number of steps=    240.
 GradGradGradGradGradGradGradGradGradGradGradGradGradGradGradGradGradGrad

                          Input orientation:                          
 ---------------------------------------------------------------------
 Center     Atomic      Atomic             Coordinates (Angstroms)
 Number     Number       Type             X           Y           Z
 ---------------------------------------------------------------------
      1          6           0        1.041453    0.089690    0.540545
      2          6           0        2.540306   -0.050914    0.258887
      3          6           0        3.012043    0.890314   -0.858977
      4          6           0        4.517171    0.821016   -1.187616
      5          6           0        4.903779   -0.577352   -1.732286
      6          7           0        5.222450   -1.521598   -0.652914
      7          6           0        5.027356    1.924617   -2.166989
      8          6           0        4.395597    3.325661   -1.970399
      9          6           0        3.143693    3.605960   -2.810444
     10          6           0        6.568000    2.035224   -2.057491
     11          6           0        7.248122    2.624839   -3.298753
     12          6           0        8.750582    2.792344   -3.111422
     13          8           0        9.273268    3.323111   -4.320077
     14          7           0       10.694297    3.490936   -4.175806
     15          1           0        0.723425   -0.575352    1.349917
     16          1           0        0.445520   -0.159019   -0.345391
     17          1           0        0.782309    1.114580    0.831381
     18          1           0        2.783013   -1.087348    0.009782
     19          1           0        3.108306    0.168404    1.172702
     20          1           0        2.746881    1.911718   -0.564372
     21          1           0        2.436788    0.679073   -1.772383
     22          1           0        5.061153    0.967401   -0.240922
     23          1           0        5.720385   -0.476563   -2.464479
     24          1           0        4.051449   -0.987495   -2.289217
     25          1           0        6.064807   -1.215333   -0.173485
     26          1           0        5.439057   -2.433038   -1.046246
     27          1           0        4.786266    1.594158   -3.188943
     28          1           0        5.143258    4.083971   -2.229620
     29          1           0        4.181973    3.485466   -0.905787
     30          1           0        3.369540    3.517634   -3.879140
     31          1           0        2.773980    4.621606   -2.634152
     32          1           0        2.328286    2.913099   -2.589181
     33          1           0        7.006865    1.050000   -1.860408
     34          1           0        6.806716    2.648354   -1.176626
     35          1           0        6.818750    3.600782   -3.553701
     36          1           0        7.070240    1.972506   -4.162802
     37          1           0        9.229211    1.828335   -2.882484
     38          1           0        8.967779    3.471345   -2.273271
     39          1           0       10.843371    4.476123   -4.396925
     40          1           0       11.077284    2.980545   -4.972244
 ---------------------------------------------------------------------
                    Distance matrix (angstroms):
                    1          2          3          4          5
     1  C    0.000000
     2  C    1.531555   0.000000
     3  C    2.546150   1.535599   0.000000
     4  C    3.949935   2.600121   1.542147   0.000000
     5  C    4.530812   3.134949   2.548603   1.549698   0.000000
     6  N    4.636952   3.191894   3.278061   2.504230   1.469080
     7  C    5.156076   3.996626   2.615754   1.561216   2.542457
     8  C    5.294018   4.451189   3.013370   2.626933   3.943153
     9  C    5.292701   4.812233   3.346683   3.503701   4.664807
    10  C    6.409182   5.093123   3.923276   2.537102   3.114634
    11  C    7.725925   6.479196   5.187047   3.894710   4.266590
    12  C    8.948288   7.616471   6.451516   5.050637   5.296675
    13  O   10.091750   8.813838   7.556498   6.220390   6.403336
    14  N   11.268976   9.934725   8.762512   7.363059   7.486778
    15  H    1.094763   2.183217   3.502165   4.772989   5.193778
    16  H    1.096301   2.182880   2.819913   4.271785   4.687702
    17  H    1.096422   2.185562   2.807012   4.255787   5.140188
    18  H    2.167985   1.093231   2.172175   2.843048   2.791513
    19  H    2.162799   1.098082   2.158273   2.825227   3.495544
    20  H    2.729306   2.138307   1.095613   2.170712   3.494525
    21  H    2.764772   2.160938   1.099933   2.165662   2.768800
    22  H    4.187965   2.764316   2.141678   1.101624   2.152950
    23  H    5.589563   4.208420   3.432363   2.182159   1.101413
    24  H    4.269421   3.107020   2.579171   2.168210   1.097659
    25  H    5.238989   3.736968   3.771343   2.751429   2.045695
    26  H    5.312342   3.972486   4.119483   3.385074   2.049572
    27  H    5.495099   4.431492   3.011977   2.162283   2.617463
    28  H    6.360258   5.483183   4.076786   3.482044   4.693891
    29  H    4.846238   4.069093   2.847058   2.700199   4.208395
    30  H    6.058416   5.526792   4.018955   3.979083   4.871527
    31  H    5.798156   5.500611   4.138896   4.424440   5.690217
    32  H    4.407125   4.116043   2.748233   3.336526   4.421614
    33  H    6.501762   5.064936   4.121526   2.589143   2.662266
    34  H    6.537101   5.248714   4.194181   2.929386   3.786173
    35  H    7.903656   6.795277   5.394367   4.315405   4.943832
    36  H    7.874816   6.645740   5.343722   4.086052   4.135546
    37  H    9.043196   7.625040   6.605123   5.107895   5.081304
    38  H    9.065307   7.754388   6.643248   5.292523   5.762006
    39  H   11.819348  10.540946   9.311542   7.979993   8.241157
    40  H   11.809563  10.461093   9.291725   7.875408   7.827396
                    6          7          8          9         10
     6  N    0.000000
     7  C    3.769202   0.000000
     8  C    5.090715   1.549417   0.000000
     9  C    5.938688   2.605597   1.533462   0.000000
    10  C    4.053927   1.548486   2.528270   3.841878   0.000000
    11  C    5.319469   2.589015   3.223751   4.248221   1.533278
    12  C    6.091147   3.937932   4.533460   5.673602   2.539225
    13  O    7.302631   4.961788   5.414118   6.319073   3.754520
    14  N    8.214460   6.213124   6.675684   7.673921   4.861345
    15  H    5.014772   6.094448   6.302956   6.375709   7.251524
    16  H    4.976972   5.352848   5.512418   5.247064   6.725381
    17  H    5.372841   5.259925   5.078848   5.004597   6.532028
    18  H    2.564877   4.341353   5.098646   5.487340   5.324491
    19  H    3.264749   4.233270   4.637292   5.261511   5.088089
    20  H    4.233668   2.787314   2.587356   2.841258   4.104341
    21  H    3.722375   2.901403   3.298571   3.184957   4.357447
    22  H    2.528017   2.151079   2.999241   4.152238   2.590513
    23  H    2.149839   2.516835   4.056611   4.840044   2.682008
    24  H    2.081826   3.073717   4.338594   4.711213   3.939995
    25  H    1.016472   3.861302   5.160988   6.223450   3.790621
    26  H    1.016047   4.518265   5.924988   6.697057   4.718315
    27  H    4.040994   1.100780   2.153039   2.624625   2.156224
    28  H    5.823630   2.163368   1.096005   2.136378   2.501375
    29  H    5.120276   2.177510   1.097530   2.172616   3.020389
    30  H    6.263838   2.866621   2.175532   1.095865   3.968135
    31  H    6.903570   3.545377   2.179377   1.095128   4.627797
    32  H    5.638426   2.905223   2.197015   1.092658   4.362171
    33  H    3.354891   2.185727   3.465466   4.728594   1.096409
    34  H    4.491400   2.161189   2.627226   4.123604   1.099471
    35  H    6.099305   2.818083   2.907612   3.749467   2.180021
    36  H    5.286058   2.856385   3.713674   4.462602   2.165298
    37  H    5.678659   4.263424   5.141761   6.340242   2.793825
    38  H    6.448451   4.234453   4.584518   5.850355   2.804985
    39  H    9.032443   6.731183   6.984654   7.909435   5.450664
    40  H    8.555991   6.751745   7.333152   8.246599   5.451885
                   11         12         13         14         15
    11  C    0.000000
    12  C    1.523331   0.000000
    13  O    2.373163   1.419775   0.000000
    14  N    3.659982   2.323568   1.438159   0.000000
    15  H    8.626878   9.781624  10.974819  12.103164   0.000000
    16  H    7.921338   9.237723  10.288464  11.533935   1.767663
    17  H    7.819567   9.047318  10.174061  11.356341   1.768677
    18  H    6.683108   7.772117   8.962323  10.053270   2.509981
    19  H    6.570088   7.554737   8.839092   9.858651   2.504443
    20  H    5.314748   6.580835   7.661011   8.871178   3.734220
    21  H    5.409690   6.791387   7.760099   9.048174   3.775970
    22  H    4.108560   5.018174   6.319082   7.320099   4.871010
    23  H    3.556499   4.504040   5.523019   6.588587   6.287208
    24  H    4.928168   6.086465   7.069166   8.230613   4.948626
    25  H    5.090625   5.648570   6.934402   7.720085   5.591126
    26  H    5.824828   6.521945   7.651953   8.514995   5.606227
    27  H    2.671160   4.142157   4.939831   6.283032   6.466428
    28  H    2.775349   3.931750   4.691045   5.912136   7.352367
    29  H    3.983495   5.120296   6.132294   7.287209   5.791372
    30  H    4.022105   5.483707   5.923366   7.330810   7.148252
    31  H    4.944362   6.268474   6.838800   8.147793   6.861921
    32  H    4.979093   6.444626   7.169162   8.534718   5.501032
    33  H    2.146430   2.764299   4.043957   4.991631   7.240827
    34  H    2.167675   2.746413   4.052217   4.981798   7.333630
    35  H    1.096277   2.140364   2.586328   3.926696   8.867838
    36  H    1.097161   2.145014   2.588861   3.929324   8.784288
    37  H    2.175411   1.100369   2.074360   2.565813   9.799965
    38  H    2.173800   1.100325   2.074781   2.569219   9.872822
    39  H    4.190353   2.977818   1.949504   1.020643  12.686879
    40  H    4.193994   2.985234   1.948627   1.020535  12.641856
                   16         17         18         19         20
    16  H    0.000000
    17  H    1.766430   0.000000
    18  H    2.540042   3.086475   0.000000
    19  H    3.082571   2.534169   1.742158   0.000000
    20  H    3.103573   2.538326   3.053745   2.487409   0.000000
    21  H    2.589180   3.115534   2.533027   3.063535   1.753528
    22  H    4.752241   4.413615   3.078111   2.539752   2.520359
    23  H    5.693467   6.146465   3.888854   4.524161   4.260989
    24  H    4.179420   4.984389   2.627603   3.769683   3.616964
    25  H    5.720292   5.860294   3.289398   3.530984   4.576012
    26  H    5.531525   6.147876   3.159216   4.138071   5.133899
    27  H    5.477361   5.694266   4.629831   4.885926   3.338908
    28  H    6.604697   6.099581   6.109682   5.572117   3.637905
    29  H    5.249513   4.494059   4.868879   4.059036   2.157020
    30  H    5.878355   5.887057   6.055872   6.066852   3.735553
    31  H    5.789174   5.317509   6.291473   5.868128   3.410017
    32  H    4.244680   4.162326   4.792176   4.721604   2.297353
    33  H    6.841656   6.781961   5.089872   5.017542   4.535387
    34  H    7.002650   6.532843   5.617225   5.034653   4.171301
    35  H    8.065198   7.864399   7.138918   6.920080   5.326269
    36  H    7.937439   8.075641   6.719634   6.886168   5.625285
    37  H    9.356262   9.254858   7.643290   7.527641   6.884853
    38  H    9.461773   9.066153   8.015319   7.557617   6.637194
    39  H   12.083658  11.826248  10.739677  10.459848   9.317607
    40  H   12.012453  11.964548  10.495869  10.448593   9.485112
                   21         22         23         24         25
    21  H    0.000000
    22  H    3.052179   0.000000
    23  H    3.549155   2.732001   0.000000
    24  H    2.377330   3.006099   1.754171   0.000000
    25  H    4.394061   2.403373   2.431679   2.929479   0.000000
    26  H    4.384761   3.514874   2.432761   2.357971   1.623600
    27  H    2.892070   3.026419   2.384389   2.830970   4.315193
    28  H    4.373485   3.697927   4.602901   5.188002   5.758434
    29  H    3.416504   2.748755   4.527020   4.683833   5.116527
    30  H    3.655938   4.754143   4.845756   4.825872   6.587665
    31  H    4.049681   4.930713   5.890792   5.763066   7.138228
    32  H    2.381135   4.094950   4.797050   4.274798   6.069689
    33  H    4.585950   2.532855   2.085744   3.615211   2.977401
    34  H    4.830038   2.597718   3.550182   4.695611   4.060148
    35  H    5.559773   4.582395   4.360912   5.505376   5.932054
    36  H    5.371773   4.519714   3.271750   4.624395   5.204601
    37  H    6.977832   5.009168   4.218903   5.923689   5.159074
    38  H    7.120500   5.065758   5.115477   6.637154   5.899263
    39  H    9.590436   7.938359   7.382983   8.967930   8.547795
    40  H    9.497055   7.914038   6.851047   8.503313   8.109156
                   26         27         28         29         30
    26  H    0.000000
    27  H    4.608209   0.000000
    28  H    6.630178   2.692009   0.000000
    29  H    6.052163   3.025726   1.742071   0.000000
    30  H    6.907871   2.486613   2.487515   3.082517   0.000000
    31  H    7.706626   3.677300   2.462962   2.502100   1.767327
    32  H    6.374850   2.853241   3.069901   2.568574   1.764559
    33  H    3.905436   2.644272   3.579711   3.850041   4.836800
    34  H    5.263842   3.040225   2.436572   2.768282   4.457960
    35  H    6.678163   2.879337   2.189506   3.738628   3.465527
    36  H    5.637596   2.511591   3.450904   4.608610   4.020331
    37  H    5.991355   4.459654   4.712657   5.668159   6.179223
    38  H    6.987074   4.674114   3.873522   4.977364   5.824194
    39  H    9.389897   6.815679   6.110833   7.585755   7.552811
    40  H    8.746996   6.684246   6.629645   8.020993   7.803375
                   31         32         33         34         35
    31  H    0.000000
    32  H    1.766257   0.000000
    33  H    5.592171   5.088354   0.000000
    34  H    4.720283   4.703375   1.749959   0.000000
    35  H    4.271747   4.644080   3.067429   2.560811   0.000000
    36  H    5.273742   5.084007   2.481139   3.073023   1.756569
    37  H    7.038043   6.991817   2.566956   3.074226   3.066337
    38  H    6.310031   6.670405   3.143017   2.559324   2.504911
    39  H    8.260970   8.844075   5.735069   5.477742   4.204144
    40  H    8.780924   9.067994   5.475293   5.723183   4.531233
                   36         37         38         39         40
    36  H    0.000000
    37  H    2.514191   0.000000
    38  H    3.068795   1.771714   0.000000
    39  H    4.534251   3.451062   3.006216   0.000000
    40  H    4.210433   3.018287   3.460542   1.619401   0.000000
 Stoichiometry    C11H26N2O
 Framework group  C1[X(C11H26N2O)]
 Deg. of freedom   114
 Full point group                 C1      NOp   1
 Largest Abelian subgroup         C1      NOp   1
 Largest concise Abelian subgroup C1      NOp   1
                         Standard orientation:                         
 ---------------------------------------------------------------------
 Center     Atomic      Atomic             Coordinates (Angstroms)
 Number     Number       Type             X           Y           Z
 ---------------------------------------------------------------------
      1          6           0       -5.289103    0.327075    0.330719
      2          6           0       -3.985880   -0.468046    0.453402
      3          6           0       -2.766363    0.339934   -0.013516
      4          6           0       -1.411363   -0.387857    0.098349
      5          6           0       -1.370550   -1.632316   -0.824266
      6          7           0       -1.924508   -2.824399   -0.168319
      7          6           0       -0.160756    0.506674   -0.172190
      8          6           0       -0.250905    1.952164    0.378379
      9          6           0       -0.812281    2.993405   -0.597418
     10          6           0        1.099147   -0.185328    0.403645
     11          6           0        2.414451    0.251831   -0.251953
     12          6           0        3.630037   -0.390891    0.403636
     13          8           0        4.780093    0.067236   -0.291528
     14          7           0        5.947550   -0.525399    0.303562
     15          1           0       -6.146691   -0.255726    0.681992
     16          1           0       -5.485509    0.610141   -0.710037
     17          1           0       -5.252019    1.251423    0.919231
     18          1           0       -4.058857   -1.403306   -0.107952
     19          1           0       -3.835357   -0.768256    1.498869
     20          1           0       -2.737145    1.263481    0.575191
     21          1           0       -2.920061    0.650421   -1.057464
     22          1           0       -1.321676   -0.744855    1.136656
     23          1           0       -0.343846   -1.787117   -1.191726
     24          1           0       -1.980077   -1.431875   -1.714860
     25          1           0       -1.327669   -3.089911    0.610463
     26          1           0       -1.910345   -3.609497   -0.813123
     27          1           0       -0.036307    0.576260   -1.263697
     28          1           0        0.755152    2.278362    0.665902
     29          1           0       -0.830498    1.954073    1.310387
     30          1           0       -0.194599    3.046451   -1.501064
     31          1           0       -0.819735    3.990155   -0.143835
     32          1           0       -1.833503    2.764136   -0.911179
     33          1           0        1.012383   -1.274063    0.307522
     34          1           0        1.137917    0.015361    1.483950
     35          1           0        2.530758    1.341007   -0.207325
     36          1           0        2.403993   -0.015595   -1.315972
     37          1           0        3.569923   -1.488540    0.355015
     38          1           0        3.693877   -0.114672    1.466812
     39          1           0        6.528199    0.278453    0.545181
     40          1           0        6.421056   -0.965489   -0.486124
 ---------------------------------------------------------------------
 Rotational constants (GHZ):           1.1212399           0.2332706           0.2011326
 Standard basis: 6-31+G(2df,p) (6D, 7F)
 There are   620 symmetry adapted cartesian basis functions of A   symmetry.
 There are   578 symmetry adapted basis functions of A   symmetry.
   578 basis functions,   854 primitive gaussians,   620 cartesian basis functions
    57 alpha electrons       57 beta electrons
       nuclear repulsion energy       956.3097485133 Hartrees.
 NAtoms=   40 NActive=   40 NUniq=   40 SFac= 1.00D+00 NAtFMM=   60 NAOKFM=F Big=F
 Integral buffers will be    131072 words long.
 Regular integral format.
 Two-electron integral symmetry is turned on.
 One-electron integrals computed using PRISM.
 PrsmSu:  requested number of processors reduced to:  12 ShMem   1 Linda.
 NBasis=   578 RedAO= T EigKep=  2.25D-06  NBF=   578
 NBsUse=   578 1.00D-06 EigRej= -1.00D+00 NBFU=   578
 ExpMin= 4.38D-02 ExpMax= 5.48D+03 ExpMxC= 8.25D+02 IAcc=3 IRadAn=         5 AccDes= 0.00D+00
 Harris functional with IExCor=  402 and IRadAn=       5 diagonalized for initial guess.
 HarFok:  IExCor=  402 AccDes= 0.00D+00 IRadAn=         5 IDoV= 1 UseB2=F ITyADJ=14
 ICtDFT=  3500011 ScaDFX=  1.000000  1.000000  1.000000  1.000000
 FoFCou: FMM=F IPFlag=           0 FMFlag=      100000 FMFlg1=           0
         NFxFlg=           0 DoJE=T BraDBF=F KetDBF=T FulRan=T
         wScrn=  0.000000 ICntrl=       500 IOpCl=  0 I1Cent=   200000004 NGrid=           0
         NMat0=    1 NMatS0=      1 NMatT0=    0 NMatD0=    1 NMtDS0=    0 NMtDT0=    0
 Petite list used in FoFCou.
 Requested convergence on RMS density matrix=1.00D-08 within 128 cycles.
 Requested convergence on MAX density matrix=1.00D-06.
 Requested convergence on             energy=1.00D-06.
 No special actions if energy rises.
 SCF Done:  E(RB3LYP) =  -619.564203775     A.U. after   13 cycles
            NFock= 13  Conv=0.64D-08     -V/T= 2.0084
 DoSCS=F DFT=T ScalE2(SS,OS)=  1.000000  1.000000
 ExpMin= 4.38D-02 ExpMax= 5.48D+03 ExpMxC= 8.25D+02 IAcc=3 IRadAn=         5 AccDes= 0.00D+00
 HarFok:  IExCor=  205 AccDes= 0.00D+00 IRadAn=         5 IDoV=-2 UseB2=F ITyADJ=14
 ICtDFT= 12500011 ScaDFX=  1.000000  1.000000  1.000000  1.000000
 Range of M.O.s used for correlation:    15   578
 NBasis=   578 NAE=    57 NBE=    57 NFC=    14 NFV=     0
 NROrb=    564 NOA=    43 NOB=    43 NVA=   521 NVB=   521

 **** Warning!!: The largest alpha MO coefficient is  0.10388767D+03

 Orbital symmetries:
       Occupied  (A) (A) (A) (A) (A) (A) (A) (A) (A) (A) (A) (A)
                 (A) (A) (A) (A) (A) (A) (A) (A) (A) (A) (A) (A)
                 (A) (A) (A) (A) (A) (A) (A) (A) (A) (A) (A) (A)
                 (A) (A) (A) (A) (A) (A) (A) (A) (A) (A) (A) (A)
                 (A) (A) (A) (A) (A) (A) (A) (A) (A)
       Virtual   (A) (A) (A) (A) (A) (A) (A) (A) (A) (A) (A) (A)
                 (A) (A) (A) (A) (A) (A) (A) (A) (A) (A) (A) (A)
                 (A) (A) (A) (A) (A) (A) (A) (A) (A) (A) (A) (A)
                 (A) (A) (A) (A) (A) (A) (A) (A) (A) (A) (A) (A)
                 (A) (A) (A) (A) (A) (A) (A) (A) (A) (A) (A) (A)
                 (A) (A) (A) (A) (A) (A) (A) (A) (A) (A) (A) (A)
                 (A) (A) (A) (A) (A) (A) (A) (A) (A) (A) (A) (A)
                 (A) (A) (A) (A) (A) (A) (A) (A) (A) (A) (A) (A)
                 (A) (A) (A) (A) (A) (A) (A) (A) (A) (A) (A) (A)
                 (A) (A) (A) (A) (A) (A) (A) (A) (A) (A) (A) (A)
                 (A) (A) (A) (A) (A) (A) (A) (A) (A) (A) (A) (A)
                 (A) (A) (A) (A) (A) (A) (A) (A) (A) (A) (A) (A)
                 (A) (A) (A) (A) (A) (A) (A) (A) (A) (A) (A) (A)
                 (A) (A) (A) (A) (A) (A) (A) (A) (A) (A) (A) (A)
                 (A) (A) (A) (A) (A) (A) (A) (A) (A) (A) (A) (A)
                 (A) (A) (A) (A) (A) (A) (A) (A) (A) (A) (A) (A)
                 (A) (A) (A) (A) (A) (A) (A) (A) (A) (A) (A) (A)
                 (A) (A) (A) (A) (A) (A) (A) (A) (A) (A) (A) (A)
                 (A) (A) (A) (A) (A) (A) (A) (A) (A) (A) (A) (A)
                 (A) (A) (A) (A) (A) (A) (A) (A) (A) (A) (A) (A)
                 (A) (A) (A) (A) (A) (A) (A) (A) (A) (A) (A) (A)
                 (A) (A) (A) (A) (A) (A) (A) (A) (A) (A) (A) (A)
                 (A) (A) (A) (A) (A) (A) (A) (A) (A) (A) (A) (A)
                 (A) (A) (A) (A) (A) (A) (A) (A) (A) (A) (A) (A)
                 (A) (A) (A) (A) (A) (A) (A) (A) (A) (A) (A) (A)
                 (A) (A) (A) (A) (A) (A) (A) (A) (A) (A) (A) (A)
                 (A) (A) (A) (A) (A) (A) (A) (A) (A) (A) (A) (A)
                 (A) (A) (A) (A) (A) (A) (A) (A) (A) (A) (A) (A)
                 (A) (A) (A) (A) (A) (A) (A) (A) (A) (A) (A) (A)
                 (A) (A) (A) (A) (A) (A) (A) (A) (A) (A) (A) (A)
                 (A) (A) (A) (A) (A) (A) (A) (A) (A) (A) (A) (A)
                 (A) (A) (A) (A) (A) (A) (A) (A) (A) (A) (A) (A)
                 (A) (A) (A) (A) (A) (A) (A) (A) (A) (A) (A) (A)
                 (A) (A) (A) (A) (A) (A) (A) (A) (A) (A) (A) (A)
                 (A) (A) (A) (A) (A) (A) (A) (A) (A) (A) (A) (A)
                 (A) (A) (A) (A) (A) (A) (A) (A) (A) (A) (A) (A)
                 (A) (A) (A) (A) (A) (A) (A) (A) (A) (A) (A) (A)
                 (A) (A) (A) (A) (A) (A) (A) (A) (A) (A) (A) (A)
                 (A) (A) (A) (A) (A) (A) (A) (A) (A) (A) (A) (A)
                 (A) (A) (A) (A) (A) (A) (A) (A) (A) (A) (A) (A)
                 (A) (A) (A) (A) (A) (A) (A) (A) (A) (A) (A) (A)
                 (A) (A) (A) (A) (A) (A) (A) (A) (A) (A) (A) (A)
                 (A) (A) (A) (A) (A) (A) (A) (A) (A) (A) (A) (A)
                 (A) (A) (A) (A) (A)
    40 initial guesses have been made.
 Convergence on wavefunction:    0.000001000000000
 Iteration     1 Dimension    40 NMult     0 NNew     40
 CISAX will form     3 AO SS matrices at one time.
 New state      2 was old state      3
 New state      3 was old state      2
 New state      4 was old state      9
 New state      5 was old state      4
 New state      6 was old state     11
 New state      7 was old state      5
 New state      9 was old state      6
 New state     10 was old state      7
 Iteration     2 Dimension    60 NMult    40 NNew     20
 Iteration     3 Dimension    80 NMult    60 NNew     20
 Iteration     4 Dimension   100 NMult    80 NNew     20
 Iteration     5 Dimension   120 NMult   100 NNew     20
 Iteration     6 Dimension   140 NMult   120 NNew     20
 Iteration     7 Dimension   160 NMult   140 NNew     20
 Iteration     8 Dimension   180 NMult   160 NNew     20
 Iteration     9 Dimension   200 NMult   180 NNew     20
 Iteration    10 Dimension   220 NMult   200 NNew     20
 Iteration    11 Dimension   236 NMult   220 NNew     16
 Iteration    12 Dimension   244 NMult   236 NNew      8
 ***********************************************************************
 Excited states from <AA,BB:AA,BB> singles matrix:
 ***********************************************************************
 
 Ground to excited state transition densities written to RWF  633
 Ground to excited state transition electric dipole moments (Au):
       state          X           Y           Z        Dip. S.      Osc.
         1         0.2038     -0.2127     -0.0451      0.0888      0.0121
         2         0.2357      0.0159      0.0004      0.0558      0.0083
         3        -0.0388      0.1848     -0.0725      0.0409      0.0063
         4        -0.2823     -0.1566      0.2898      0.1882      0.0290
         5         0.0469      0.1810     -0.0413      0.0367      0.0057
         6         0.0203      0.1538      0.1464      0.0455      0.0072
         7         0.1945      0.0771     -0.1390      0.0631      0.0101
         8         0.3069      0.0057     -0.1208      0.1088      0.0181
         9        -0.1048     -0.0717      0.0062      0.0161      0.0027
        10        -0.0305      0.0502     -0.0207      0.0039      0.0006
 Ground to excited state transition velocity dipole moments (Au):
       state          X           Y           Z        Dip. S.      Osc.
         1        -0.0433      0.0440      0.0114      0.0039      0.0129
         2        -0.0549     -0.0033     -0.0028      0.0030      0.0090
         3         0.0057     -0.0450      0.0187      0.0024      0.0069
         4         0.0680      0.0383     -0.0712      0.0112      0.0321
         5        -0.0106     -0.0401      0.0083      0.0018      0.0051
         6        -0.0036     -0.0326     -0.0322      0.0021      0.0059
         7        -0.0477     -0.0170      0.0321      0.0036      0.0099
         8        -0.0792     -0.0018      0.0309      0.0072      0.0194
         9         0.0273      0.0178     -0.0024      0.0011      0.0029
        10         0.0089     -0.0112      0.0053      0.0002      0.0006
 Ground to excited state transition magnetic dipole moments (Au):
       state          X           Y           Z
         1        -0.2470     -0.1413     -0.9041
         2         0.0407      0.0011     -0.1627
         3         0.0875     -0.7505     -0.2088
         4         0.0716      0.7130      0.9694
         5        -0.1796     -0.0921      0.0825
         6         0.5319      0.4599     -0.4424
         7        -0.1763      0.2532     -0.2906
         8        -0.1160      0.3105     -0.3773
         9        -0.0016     -0.0217      0.2185
        10         0.0284     -0.0287     -0.0680
 Ground to excited state transition velocity quadrupole moments (Au):
       state          XX          YY          ZZ          XY          XZ          YZ
         1         0.4991     -0.4651      0.0074      0.1958     -0.1613     -0.0942
         2         0.1787      0.1304      0.0105      0.1902      0.0824      0.0517
         3        -0.9283      0.1408      0.1410     -0.5376      0.5439      0.0138
         4         0.8033     -0.2054     -0.0889      0.5079     -0.6919      0.1881
         5        -0.0856      0.0057     -0.0160      0.2964      0.0743     -0.0591
         6         0.0471      0.2792     -0.2703     -0.3473     -0.4656     -0.0367
         7         0.1145      0.1853     -0.1120      0.3080     -0.0416     -0.1665
         8         0.5663     -0.1159     -0.0792      0.2341     -0.0074     -0.1600
         9         0.1410     -0.1385      0.0406     -0.0176      0.0284      0.0444
        10         0.1337      0.0302     -0.0718     -0.0632      0.1466     -0.0166
 <0|del|b> * <b|rxdel|0> + <0|del|b> * <b|delr+rdel|0>
 Rotatory Strengths (R) in cgs (10**-40 erg-esu-cm/Gauss)
       state          XX          YY          ZZ    R(velocity)    E-M Angle
         1       -12.4729      3.8985    -11.6420     -6.7388       95.62
         2         0.2970     -6.4296      0.5223     -1.8701      101.09
         3        67.8576     10.2609     14.8696     30.9960       37.80
         4       -78.4127    -23.1897    -10.8731    -37.4918      106.81
         5        14.8189      1.1546      3.0086      6.3274       47.09
         6        -7.1095      1.9119     -2.7678     -2.6551       94.01
         7        -6.5358     -4.2192     -4.5960     -5.1170      101.89
         8        -7.0777      4.2586     -5.7136     -2.8442       94.03
         9        -1.9614      0.8342     -1.6096     -0.9122       97.73
        10         1.7764      0.1116     -1.2909      0.1990       79.87
 1/2[<0|r|b>*<b|rxdel|0> + (<0|rxdel|b>*<b|r|0>)*]
 Rotatory Strengths (R) in cgs (10**-40 erg-esu-cm/Gauss)
       state          XX          YY          ZZ     R(length)
         1        35.5938    -21.2558    -28.8465     -4.8362
         2        -6.7839     -0.0121      0.0439     -2.2507
         3         2.4028     98.0950    -10.7138     29.9280
         4        14.2887     78.9314   -198.6476    -35.1425
         5         5.9631     11.7859      2.4097      6.7195
         6        -7.6490    -50.0147     45.7969     -3.9556
         7        24.2450    -13.8110    -28.5605     -6.0421
         8        25.1835     -1.2527    -32.2198     -2.7630
         9        -0.1192     -1.1019     -0.9564     -0.7259
        10         0.6120      1.0182     -0.9950      0.2117
  1/2[<0|del|b>*<b|r|0> + (<0|r|b>*<b|del|0>)*] (Au)
       state          X           Y           Z        Dip. S.   Osc.(frdel)
         1        -0.0088     -0.0094     -0.0005      0.0187      0.0125
         2        -0.0129     -0.0001     -0.0000      0.0130      0.0087
         3        -0.0002     -0.0083     -0.0014      0.0099      0.0066
         4        -0.0192     -0.0060     -0.0206      0.0458      0.0305
         5        -0.0005     -0.0073     -0.0003      0.0081      0.0054
         6        -0.0001     -0.0050     -0.0047      0.0098      0.0065
         7        -0.0093     -0.0013     -0.0045      0.0150      0.0100
         8        -0.0243     -0.0000     -0.0037      0.0281      0.0187
         9        -0.0029     -0.0013     -0.0000      0.0042      0.0028
        10        -0.0003     -0.0006     -0.0001      0.0009      0.0006

 Excitation energies and oscillator strengths:
 
 Excited State   1:      Singlet-A      5.5422 eV  223.71 nm  f=0.0121  <S**2>=0.000
      57 -> 58         0.63975
      57 -> 59        -0.25363
 This state for optimization and/or second-order correction.
 Total Energy, E(TD-HF/TD-DFT) =  -619.360532713    
 Copying the excited state density for this state as the 1-particle RhoCI density.
 
 Excited State   2:      Singlet-A      6.0965 eV  203.37 nm  f=0.0083  <S**2>=0.000
      57 -> 59        -0.10455
      57 -> 60         0.53132
      57 -> 61         0.41368
      57 -> 65         0.11704
 
 Excited State   3:      Singlet-A      6.2924 eV  197.04 nm  f=0.0063  <S**2>=0.000
      56 -> 58        -0.20976
      56 -> 59        -0.33850
      57 -> 58         0.22053
      57 -> 59         0.47039
      57 -> 61         0.15188
      57 -> 63        -0.11804
 
 Excited State   4:      Singlet-A      6.3011 eV  196.76 nm  f=0.0290  <S**2>=0.000
      56 -> 58         0.28106
      56 -> 59         0.46007
      56 -> 60         0.11261
      57 -> 58         0.15874
      57 -> 59         0.33294
      57 -> 61         0.13213
 
 Excited State   5:      Singlet-A      6.3715 eV  194.59 nm  f=0.0057  <S**2>=0.000
      57 -> 59        -0.14689
      57 -> 60        -0.40146
      57 -> 61         0.49114
      57 -> 62         0.23206
 
 Excited State   6:      Singlet-A      6.4440 eV  192.40 nm  f=0.0072  <S**2>=0.000
      55 -> 58         0.42464
      55 -> 59         0.53813
 
 Excited State   7:      Singlet-A      6.5643 eV  188.88 nm  f=0.0101  <S**2>=0.000
      57 -> 59         0.23059
      57 -> 60         0.14212
      57 -> 61        -0.10570
      57 -> 62         0.57020
      57 -> 63         0.14953
      57 -> 64         0.22504
 
 Excited State   8:      Singlet-A      6.7743 eV  183.02 nm  f=0.0181  <S**2>=0.000
      57 -> 59         0.11266
      57 -> 62        -0.23605
      57 -> 63         0.56332
      57 -> 64         0.22043
      57 -> 65         0.13764
 
 Excited State   9:      Singlet-A      6.7930 eV  182.52 nm  f=0.0027  <S**2>=0.000
      55 -> 58        -0.28282
      55 -> 59         0.23385
      56 -> 58         0.48271
      56 -> 59        -0.26090
      56 -> 62        -0.11183
 
 Excited State  10:      Singlet-A      6.8214 eV  181.76 nm  f=0.0006  <S**2>=0.000
      55 -> 58         0.45139
      55 -> 59        -0.30976
      55 -> 62        -0.12099
      56 -> 58         0.34262
      56 -> 59        -0.16107
 SavETr:  write IOETrn=   770 NScale= 10 NData=  16 NLR=1 NState=   10 LETran=     190.
          IDoAtm=1111111111111111111111111111111111111111
          Differentiating once with respect to electric field.
                with respect to dipole field.
          Differentiating once with respect to nuclear coordinates.
          There are     1 degrees of freedom in the 1st order CPHF.  IDoFFX=0 NUNeed=     1.
 LinEq1:  Iter=  0 NonCon=     1 RMS=7.15D-03 Max=1.89D-01 NDo=     1
 AX will form     1 AO Fock derivatives at one time.
 LinEq1:  Iter=  1 NonCon=     1 RMS=1.82D-03 Max=5.49D-02 NDo=     1
 LinEq1:  Iter=  2 NonCon=     1 RMS=6.79D-04 Max=1.09D-02 NDo=     1
 LinEq1:  Iter=  3 NonCon=     1 RMS=3.44D-04 Max=6.67D-03 NDo=     1
 LinEq1:  Iter=  4 NonCon=     1 RMS=1.27D-04 Max=3.61D-03 NDo=     1
 LinEq1:  Iter=  5 NonCon=     1 RMS=6.67D-05 Max=2.71D-03 NDo=     1
 LinEq1:  Iter=  6 NonCon=     1 RMS=2.41D-05 Max=1.18D-03 NDo=     1
 LinEq1:  Iter=  7 NonCon=     1 RMS=9.07D-06 Max=3.28D-04 NDo=     1
 LinEq1:  Iter=  8 NonCon=     1 RMS=4.53D-06 Max=1.48D-04 NDo=     1
 LinEq1:  Iter=  9 NonCon=     1 RMS=2.87D-06 Max=8.31D-05 NDo=     1
 LinEq1:  Iter= 10 NonCon=     1 RMS=1.49D-06 Max=3.98D-05 NDo=     1
 LinEq1:  Iter= 11 NonCon=     1 RMS=7.78D-07 Max=2.12D-05 NDo=     1
 LinEq1:  Iter= 12 NonCon=     1 RMS=3.12D-07 Max=1.08D-05 NDo=     1
 LinEq1:  Iter= 13 NonCon=     1 RMS=1.49D-07 Max=4.37D-06 NDo=     1
 LinEq1:  Iter= 14 NonCon=     1 RMS=6.09D-08 Max=2.12D-06 NDo=     1
 LinEq1:  Iter= 15 NonCon=     1 RMS=2.14D-08 Max=5.26D-07 NDo=     1
 LinEq1:  Iter= 16 NonCon=     1 RMS=9.99D-09 Max=2.14D-07 NDo=     1
 LinEq1:  Iter= 17 NonCon=     1 RMS=4.11D-09 Max=7.98D-08 NDo=     1
 LinEq1:  Iter= 18 NonCon=     1 RMS=1.21D-09 Max=2.23D-08 NDo=     1
 LinEq1:  Iter= 19 NonCon=     1 RMS=4.89D-10 Max=5.17D-09 NDo=     1
 LinEq1:  Iter= 20 NonCon=     1 RMS=2.00D-10 Max=2.65D-09 NDo=     1
 LinEq1:  Iter= 21 NonCon=     1 RMS=7.59D-11 Max=1.05D-09 NDo=     1
 LinEq1:  Iter= 22 NonCon=     0 RMS=3.43D-11 Max=4.16D-10 NDo=     1
 Linear equations converged to 1.000D-10 1.000D-09 after    22 iterations.
 End of Minotr F.D. properties file   721 does not exist.
 End of Minotr F.D. properties file   722 does not exist.
 End of Minotr F.D. properties file   788 does not exist.

 **********************************************************************

            Population analysis using the SCF density.

 **********************************************************************

 Orbital symmetries:
       Occupied  (A) (A) (A) (A) (A) (A) (A) (A) (A) (A) (A) (A)
                 (A) (A) (A) (A) (A) (A) (A) (A) (A) (A) (A) (A)
                 (A) (A) (A) (A) (A) (A) (A) (A) (A) (A) (A) (A)
                 (A) (A) (A) (A) (A) (A) (A) (A) (A) (A) (A) (A)
                 (A) (A) (A) (A) (A) (A) (A) (A) (A)
       Virtual   (A) (A) (A) (A) (A) (A) (A) (A) (A) (A) (A) (A)
                 (A) (A) (A) (A) (A) (A) (A) (A) (A) (A) (A) (A)
                 (A) (A) (A) (A) (A) (A) (A) (A) (A) (A) (A) (A)
                 (A) (A) (A) (A) (A) (A) (A) (A) (A) (A) (A) (A)
                 (A) (A) (A) (A) (A) (A) (A) (A) (A) (A) (A) (A)
                 (A) (A) (A) (A) (A) (A) (A) (A) (A) (A) (A) (A)
                 (A) (A) (A) (A) (A) (A) (A) (A) (A) (A) (A) (A)
                 (A) (A) (A) (A) (A) (A) (A) (A) (A) (A) (A) (A)
                 (A) (A) (A) (A) (A) (A) (A) (A) (A) (A) (A) (A)
                 (A) (A) (A) (A) (A) (A) (A) (A) (A) (A) (A) (A)
                 (A) (A) (A) (A) (A) (A) (A) (A) (A) (A) (A) (A)
                 (A) (A) (A) (A) (A) (A) (A) (A) (A) (A) (A) (A)
                 (A) (A) (A) (A) (A) (A) (A) (A) (A) (A) (A) (A)
                 (A) (A) (A) (A) (A) (A) (A) (A) (A) (A) (A) (A)
                 (A) (A) (A) (A) (A) (A) (A) (A) (A) (A) (A) (A)
                 (A) (A) (A) (A) (A) (A) (A) (A) (A) (A) (A) (A)
                 (A) (A) (A) (A) (A) (A) (A) (A) (A) (A) (A) (A)
                 (A) (A) (A) (A) (A) (A) (A) (A) (A) (A) (A) (A)
                 (A) (A) (A) (A) (A) (A) (A) (A) (A) (A) (A) (A)
                 (A) (A) (A) (A) (A) (A) (A) (A) (A) (A) (A) (A)
                 (A) (A) (A) (A) (A) (A) (A) (A) (A) (A) (A) (A)
                 (A) (A) (A) (A) (A) (A) (A) (A) (A) (A) (A) (A)
                 (A) (A) (A) (A) (A) (A) (A) (A) (A) (A) (A) (A)
                 (A) (A) (A) (A) (A) (A) (A) (A) (A) (A) (A) (A)
                 (A) (A) (A) (A) (A) (A) (A) (A) (A) (A) (A) (A)
                 (A) (A) (A) (A) (A) (A) (A) (A) (A) (A) (A) (A)
                 (A) (A) (A) (A) (A) (A) (A) (A) (A) (A) (A) (A)
                 (A) (A) (A) (A) (A) (A) (A) (A) (A) (A) (A) (A)
                 (A) (A) (A) (A) (A) (A) (A) (A) (A) (A) (A) (A)
                 (A) (A) (A) (A) (A) (A) (A) (A) (A) (A) (A) (A)
                 (A) (A) (A) (A) (A) (A) (A) (A) (A) (A) (A) (A)
                 (A) (A) (A) (A) (A) (A) (A) (A) (A) (A) (A) (A)
                 (A) (A) (A) (A) (A) (A) (A) (A) (A) (A) (A) (A)
                 (A) (A) (A) (A) (A) (A) (A) (A) (A) (A) (A) (A)
                 (A) (A) (A) (A) (A) (A) (A) (A) (A) (A) (A) (A)
                 (A) (A) (A) (A) (A) (A) (A) (A) (A) (A) (A) (A)
                 (A) (A) (A) (A) (A) (A) (A) (A) (A) (A) (A) (A)
                 (A) (A) (A) (A) (A) (A) (A) (A) (A) (A) (A) (A)
                 (A) (A) (A) (A) (A) (A) (A) (A) (A) (A) (A) (A)
                 (A) (A) (A) (A) (A) (A) (A) (A) (A) (A) (A) (A)
                 (A) (A) (A) (A) (A) (A) (A) (A) (A) (A) (A) (A)
                 (A) (A) (A) (A) (A) (A) (A) (A) (A) (A) (A) (A)
                 (A) (A) (A) (A) (A) (A) (A) (A) (A) (A) (A) (A)
                 (A) (A) (A) (A) (A)
 The electronic state is 1-A.
 Alpha  occ. eigenvalues --  -19.17355 -14.37420 -14.31769 -10.22542 -10.20592
 Alpha  occ. eigenvalues --  -10.18798 -10.18602 -10.18391 -10.18280 -10.18033
 Alpha  occ. eigenvalues --  -10.17325 -10.17306 -10.16797 -10.16725  -1.06646
 Alpha  occ. eigenvalues --   -0.88607  -0.83817  -0.82066  -0.78227  -0.75678
 Alpha  occ. eigenvalues --   -0.73779  -0.69038  -0.65878  -0.63107  -0.60245
 Alpha  occ. eigenvalues --   -0.59057  -0.57047  -0.55878  -0.51506  -0.49711
 Alpha  occ. eigenvalues --   -0.48516  -0.47842  -0.46534  -0.45663  -0.44954
 Alpha  occ. eigenvalues --   -0.43899  -0.42866  -0.41711  -0.41197  -0.40190
 Alpha  occ. eigenvalues --   -0.38976  -0.37873  -0.37756  -0.36481  -0.35895
 Alpha  occ. eigenvalues --   -0.34930  -0.34755  -0.33795  -0.33579  -0.32833
 Alpha  occ. eigenvalues --   -0.32086  -0.31206  -0.30498  -0.29596  -0.27060
 Alpha  occ. eigenvalues --   -0.26809  -0.24180
 Alpha virt. eigenvalues --   -0.00144   0.00570   0.00892   0.01333   0.02064
 Alpha virt. eigenvalues --    0.03139   0.03276   0.03639   0.04015   0.04345
 Alpha virt. eigenvalues --    0.04944   0.05739   0.06037   0.06478   0.06744
 Alpha virt. eigenvalues --    0.07564   0.07598   0.07950   0.08512   0.08964
 Alpha virt. eigenvalues --    0.09205   0.10111   0.10641   0.10726   0.11068
 Alpha virt. eigenvalues --    0.11677   0.12459   0.12597   0.12811   0.13273
 Alpha virt. eigenvalues --    0.13691   0.14493   0.15092   0.15491   0.15884
 Alpha virt. eigenvalues --    0.16474   0.16732   0.17510   0.17565   0.18201
 Alpha virt. eigenvalues --    0.18555   0.18792   0.19166   0.19441   0.19909
 Alpha virt. eigenvalues --    0.20147   0.20333   0.20889   0.20910   0.21054
 Alpha virt. eigenvalues --    0.21589   0.22086   0.22785   0.23347   0.23536
 Alpha virt. eigenvalues --    0.23728   0.24315   0.24724   0.25106   0.25207
 Alpha virt. eigenvalues --    0.26050   0.26163   0.26760   0.27572   0.27809
 Alpha virt. eigenvalues --    0.28012   0.28317   0.29000   0.29086   0.29744
 Alpha virt. eigenvalues --    0.30288   0.30712   0.31135   0.31529   0.32158
 Alpha virt. eigenvalues --    0.32326   0.33503   0.33731   0.33999   0.34680
 Alpha virt. eigenvalues --    0.35206   0.36167   0.36739   0.37906   0.38202
 Alpha virt. eigenvalues --    0.38890   0.39453   0.39894   0.40376   0.41387
 Alpha virt. eigenvalues --    0.41992   0.42708   0.44183   0.45860   0.51281
 Alpha virt. eigenvalues --    0.56123   0.56925   0.57488   0.58532   0.59863
 Alpha virt. eigenvalues --    0.60431   0.61113   0.62497   0.62748   0.63809
 Alpha virt. eigenvalues --    0.64651   0.65165   0.65432   0.65920   0.66703
 Alpha virt. eigenvalues --    0.67707   0.67927   0.69225   0.70209   0.70323
 Alpha virt. eigenvalues --    0.71106   0.71992   0.72461   0.73967   0.74035
 Alpha virt. eigenvalues --    0.74890   0.75307   0.75677   0.76267   0.78101
 Alpha virt. eigenvalues --    0.78447   0.78663   0.79363   0.79927   0.80590
 Alpha virt. eigenvalues --    0.81450   0.82129   0.82855   0.83034   0.83853
 Alpha virt. eigenvalues --    0.84510   0.84607   0.85471   0.85805   0.86547
 Alpha virt. eigenvalues --    0.87812   0.88318   0.88452   0.89335   0.89680
 Alpha virt. eigenvalues --    0.89981   0.90914   0.91913   0.93091   0.93851
 Alpha virt. eigenvalues --    0.94678   0.96598   0.97123   0.97620   0.99516
 Alpha virt. eigenvalues --    0.99987   1.01462   1.02014   1.02976   1.03494
 Alpha virt. eigenvalues --    1.05074   1.05297   1.06550   1.06915   1.07424
 Alpha virt. eigenvalues --    1.07813   1.08507   1.09690   1.11483   1.12049
 Alpha virt. eigenvalues --    1.14100   1.14856   1.16170   1.17173   1.17969
 Alpha virt. eigenvalues --    1.19938   1.20816   1.21869   1.23139   1.23569
 Alpha virt. eigenvalues --    1.24366   1.25053   1.26674   1.26939   1.28814
 Alpha virt. eigenvalues --    1.30243   1.30779   1.31962   1.34085   1.36444
 Alpha virt. eigenvalues --    1.37434   1.39410   1.40512   1.41404   1.43098
 Alpha virt. eigenvalues --    1.43626   1.46338   1.47442   1.48093   1.49413
 Alpha virt. eigenvalues --    1.53079   1.53539   1.54939   1.56269   1.56731
 Alpha virt. eigenvalues --    1.57916   1.59308   1.60500   1.62534   1.63019
 Alpha virt. eigenvalues --    1.64386   1.64743   1.65356   1.67167   1.68498
 Alpha virt. eigenvalues --    1.69442   1.70935   1.72300   1.72786   1.74330
 Alpha virt. eigenvalues --    1.75506   1.77366   1.77540   1.78806   1.82024
 Alpha virt. eigenvalues --    1.82470   1.83379   1.84902   1.87576   1.87801
 Alpha virt. eigenvalues --    1.88657   1.88921   1.90312   1.91329   1.92834
 Alpha virt. eigenvalues --    1.94755   1.96293   1.96534   1.97415   1.98241
 Alpha virt. eigenvalues --    1.99144   2.01301   2.03315   2.05152   2.07958
 Alpha virt. eigenvalues --    2.10133   2.12450   2.13829   2.15649   2.17290
 Alpha virt. eigenvalues --    2.18357   2.18882   2.19350   2.20553   2.21607
 Alpha virt. eigenvalues --    2.22771   2.24680   2.26519   2.28300   2.31162
 Alpha virt. eigenvalues --    2.32486   2.33319   2.35791   2.37128   2.39368
 Alpha virt. eigenvalues --    2.39761   2.40265   2.42382   2.44343   2.45790
 Alpha virt. eigenvalues --    2.47456   2.50265   2.51948   2.53086   2.56799
 Alpha virt. eigenvalues --    2.58152   2.59014   2.61404   2.62760   2.63082
 Alpha virt. eigenvalues --    2.64582   2.66050   2.70127   2.72059   2.76056
 Alpha virt. eigenvalues --    2.76632   2.77024   2.79210   2.79702   2.79902
 Alpha virt. eigenvalues --    2.80594   2.81431   2.82315   2.83312   2.83805
 Alpha virt. eigenvalues --    2.84150   2.85322   2.85958   2.86679   2.87175
 Alpha virt. eigenvalues --    2.88714   2.89310   2.90978   2.91817   2.93034
 Alpha virt. eigenvalues --    2.94278   2.95593   2.96248   2.96747   2.97992
 Alpha virt. eigenvalues --    2.98496   2.98952   2.99925   3.00778   3.01059
 Alpha virt. eigenvalues --    3.02313   3.03243   3.03530   3.05401   3.06783
 Alpha virt. eigenvalues --    3.07915   3.09432   3.09982   3.10708   3.11091
 Alpha virt. eigenvalues --    3.12411   3.13758   3.17426   3.18051   3.19608
 Alpha virt. eigenvalues --    3.20079   3.23090   3.24373   3.25658   3.25789
 Alpha virt. eigenvalues --    3.27666   3.30237   3.31888   3.32604   3.34692
 Alpha virt. eigenvalues --    3.36577   3.38070   3.39656   3.40156   3.42089
 Alpha virt. eigenvalues --    3.44350   3.45690   3.47108   3.47778   3.49753
 Alpha virt. eigenvalues --    3.50492   3.53195   3.54299   3.55000   3.55633
 Alpha virt. eigenvalues --    3.57714   3.58057   3.59464   3.60863   3.61214
 Alpha virt. eigenvalues --    3.62394   3.63249   3.64812   3.65868   3.67132
 Alpha virt. eigenvalues --    3.68279   3.70652   3.71236   3.72849   3.73090
 Alpha virt. eigenvalues --    3.76020   3.76903   3.77415   3.79529   3.80893
 Alpha virt. eigenvalues --    3.82061   3.82352   3.83567   3.85860   3.86763
 Alpha virt. eigenvalues --    3.90726   3.92159   3.93146   3.95181   3.96631
 Alpha virt. eigenvalues --    3.97273   3.99335   4.00891   4.04176   4.06569
 Alpha virt. eigenvalues --    4.10640   4.11162   4.12470   4.14628   4.17888
 Alpha virt. eigenvalues --    4.19867   4.25937   4.28299   4.30214   4.31501
 Alpha virt. eigenvalues --    4.31623   4.32780   4.33428   4.35874   4.37011
 Alpha virt. eigenvalues --    4.38379   4.39744   4.40603   4.42564   4.44534
 Alpha virt. eigenvalues --    4.45122   4.45467   4.46217   4.47956   4.48688
 Alpha virt. eigenvalues --    4.48858   4.50942   4.51692   4.52676   4.53681
 Alpha virt. eigenvalues --    4.54933   4.55857   4.56511   4.56897   4.57812
 Alpha virt. eigenvalues --    4.58625   4.59391   4.59784   4.61104   4.62732
 Alpha virt. eigenvalues --    4.63559   4.64842   4.65431   4.65798   4.66461
 Alpha virt. eigenvalues --    4.68091   4.68866   4.69414   4.70121   4.71354
 Alpha virt. eigenvalues --    4.72329   4.72808   4.73595   4.73713   4.74755
 Alpha virt. eigenvalues --    4.75598   4.76214   4.76836   4.77792   4.78671
 Alpha virt. eigenvalues --    4.79419   4.80151   4.81892   4.82065   4.82672
 Alpha virt. eigenvalues --    4.84044   4.86002   4.86401   4.87542   4.87750
 Alpha virt. eigenvalues --    4.88373   4.89312   4.91085   4.92527   4.93840
 Alpha virt. eigenvalues --    4.94340   4.96477   4.96895   4.99469   5.02063
 Alpha virt. eigenvalues --    5.03720   5.06282   5.07444   5.09641   5.10903
 Alpha virt. eigenvalues --    5.13903   5.17600   5.19792   5.24543   5.30872
 Alpha virt. eigenvalues --    5.31944   5.36484   5.38363   5.38451   5.41844
 Alpha virt. eigenvalues --    5.42182   5.45883   5.46074   5.48235   5.51973
 Alpha virt. eigenvalues --    5.55981   5.57749   5.59271   5.64676   5.72306
 Alpha virt. eigenvalues --    5.79304   5.86731   5.94474   5.98072   6.11688
 Alpha virt. eigenvalues --    6.21155   6.26932   6.40617   6.97931   7.07345
 Alpha virt. eigenvalues --   11.23397  11.26958  11.46596  11.66612  11.78651
 Alpha virt. eigenvalues --   11.95204  12.15326  12.17312  12.35325  12.51106
 Alpha virt. eigenvalues --   12.64344  12.85379  13.20030  13.42340  15.89168
 Alpha virt. eigenvalues --   18.44753
          Condensed to atoms (all electrons):
               1          2          3          4          5          6
     1  C    6.379239  -0.947263   0.700184  -0.283070  -0.089036  -0.084478
     2  C   -0.947263   7.687140  -1.621792   1.385969  -0.135998  -0.089109
     3  C    0.700184  -1.621792   9.460052  -2.817917  -0.077387   0.018360
     4  C   -0.283070   1.385969  -2.817917  15.302855  -1.381015   0.191751
     5  C   -0.089036  -0.135998  -0.077387  -1.381015   6.090569   0.224436
     6  N   -0.084478  -0.089109   0.018360   0.191751   0.224436   6.800534
     7  C   -0.340671  -0.998725   0.911486  -8.831383   1.426017  -0.055025
     8  C   -0.006558   0.228745  -0.568175   2.006852  -0.149302   0.011100
     9  C    0.014772  -0.117004   0.181042  -0.330426  -0.031661  -0.001066
    10  C    0.019374   0.094588  -0.389262   1.405484  -0.193349  -0.017133
    11  C   -0.001430  -0.021819  -0.090769  -0.156334  -0.008770   0.010387
    12  C    0.000334  -0.003466   0.019555  -0.201812  -0.022431  -0.000685
    13  O   -0.000002  -0.000016   0.000033   0.000216   0.000899  -0.000055
    14  N    0.000001   0.000020   0.000078   0.002239  -0.000614   0.000024
    15  H    0.466733  -0.100260   0.006476  -0.005596  -0.000102  -0.000006
    16  H    0.481997  -0.162070   0.048271  -0.011716  -0.000458   0.000190
    17  H    0.478253  -0.137082   0.019439  -0.003753   0.000033  -0.000214
    18  H    0.021909   0.458376  -0.151241   0.009016   0.010063  -0.017422
    19  H    0.020712   0.423154  -0.100704  -0.014870   0.008953   0.004784
    20  H    0.000202   0.064859   0.371955  -0.024893  -0.004840  -0.000825
    21  H   -0.010956   0.031291   0.363219  -0.091259  -0.000552   0.002656
    22  H   -0.000947  -0.011264   0.070642   0.114106   0.019093  -0.006731
    23  H   -0.004353  -0.014508  -0.020232  -0.259176   0.542612  -0.073361
    24  H    0.004649  -0.029133   0.038443  -0.264408   0.494205  -0.059451
    25  H    0.002372   0.000590   0.036754  -0.063629  -0.033721   0.351232
    26  H    0.001640   0.018214  -0.017218   0.070998  -0.103178   0.366597
    27  H    0.000064  -0.003997  -0.021919  -0.003934  -0.023162   0.001353
    28  H    0.000064  -0.002404   0.007016  -0.071463  -0.000118  -0.000079
    29  H    0.000784  -0.008703  -0.005418  -0.048107  -0.006828   0.000129
    30  H    0.000034  -0.000549   0.002515  -0.013005   0.000341   0.000006
    31  H   -0.000276   0.002929  -0.004613   0.040088  -0.000645  -0.000002
    32  H    0.000296  -0.007430   0.058490  -0.160191  -0.000264  -0.000049
    33  H    0.000034   0.002610  -0.010951   0.143768  -0.055002   0.001939
    34  H    0.000040  -0.000268  -0.009433   0.053210  -0.000893  -0.000290
    35  H    0.000010   0.000022   0.002013  -0.002916  -0.000524  -0.000031
    36  H    0.000025  -0.000033   0.004224  -0.004963  -0.005824   0.000036
    37  H   -0.000002  -0.000026  -0.000612  -0.015069   0.000667  -0.000001
    38  H    0.000002  -0.000005   0.001458   0.002728   0.000456  -0.000022
    39  H   -0.000000  -0.000000  -0.000001   0.000013   0.000006  -0.000000
    40  H   -0.000000   0.000000  -0.000002  -0.000017  -0.000003   0.000000
               7          8          9         10         11         12
     1  C   -0.340671  -0.006558   0.014772   0.019374  -0.001430   0.000334
     2  C   -0.998725   0.228745  -0.117004   0.094588  -0.021819  -0.003466
     3  C    0.911486  -0.568175   0.181042  -0.389262  -0.090769   0.019555
     4  C   -8.831383   2.006852  -0.330426   1.405484  -0.156334  -0.201812
     5  C    1.426017  -0.149302  -0.031661  -0.193349  -0.008770  -0.022431
     6  N   -0.055025   0.011100  -0.001066  -0.017133   0.010387  -0.000685
     7  C   18.887825  -3.314763   0.672161  -3.238030   0.429067  -0.286887
     8  C   -3.314763   7.410061  -0.513843   0.930349  -0.184479   0.050644
     9  C    0.672161  -0.513843   5.738646  -0.263149   0.037344  -0.012657
    10  C   -3.238030   0.930349  -0.263149   8.288214  -0.795169   0.096172
    11  C    0.429067  -0.184479   0.037344  -0.795169   7.300396  -0.798437
    12  C   -0.286887   0.050644  -0.012657   0.096172  -0.798437   6.440213
    13  O    0.023250  -0.002140   0.000441   0.067229  -0.073760   0.138257
    14  N   -0.004138   0.002035  -0.000041  -0.029302  -0.076115   0.050564
    15  H   -0.003616  -0.000387   0.000439  -0.000023  -0.000013  -0.000000
    16  H   -0.001400   0.000997  -0.000483   0.000056  -0.000020  -0.000001
    17  H   -0.001319   0.000575  -0.000825   0.000809   0.000011   0.000002
    18  H   -0.013703   0.003037  -0.001688   0.000365   0.000025  -0.000003
    19  H   -0.037240   0.004935  -0.002602   0.002519  -0.000543  -0.000029
    20  H   -0.120277   0.052740  -0.035095   0.004206  -0.003642  -0.000091
    21  H   -0.010345   0.020645  -0.020386   0.007828   0.000695   0.000140
    22  H    0.074200  -0.027291  -0.004112  -0.004144  -0.001284   0.001996
    23  H    0.192956  -0.004111  -0.001208  -0.061657  -0.006573  -0.005459
    24  H    0.130096  -0.017545   0.000376   0.001068   0.008690   0.000644
    25  H    0.026240  -0.003290   0.000144  -0.013706   0.003857  -0.000138
    26  H   -0.031068   0.001282  -0.000075   0.010419  -0.000845   0.000140
    27  H    0.119684   0.022560  -0.002693   0.114147  -0.003427   0.019121
    28  H    0.060147   0.319611  -0.007413  -0.009643  -0.001854   0.007858
    29  H   -0.035710   0.356220   0.023009   0.006882   0.011725   0.002471
    30  H    0.080423  -0.164787   0.458660  -0.013950   0.003358  -0.000563
    31  H   -0.029512  -0.075891   0.437936  -0.004750  -0.003854  -0.000328
    32  H    0.172526  -0.150584   0.450648  -0.012242   0.005124   0.000233
    33  H   -0.232896   0.017368   0.000030   0.439632  -0.034779   0.024807
    34  H   -0.244695   0.031501  -0.001614   0.472311  -0.058325   0.056684
    35  H   -0.017252  -0.017394  -0.005302  -0.049556   0.339115   0.062851
    36  H   -0.036913   0.019185  -0.000659  -0.052722   0.313768   0.076470
    37  H   -0.010893  -0.001983  -0.000118   0.002260  -0.136371   0.522194
[...]
    34  H    6.559370   5.252506   4.213289   2.931142   3.798291
    35  H    7.934870   6.801487   5.410837   4.315859   4.944711
    36  H    7.880879   6.633583   5.347710   4.085280   4.131713
    37  H    9.038642   7.606269   6.608331   5.106739   5.088469
    38  H    9.088160   7.756765   6.661761   5.296856   5.775836
    39  H   11.852695  10.550218   9.338206   7.993064   8.257472
    40  H   11.817138  10.449041   9.302167   7.878276   7.831244
                    6          7          8          9         10
     6  N    0.000000
     7  C    3.765729   0.000000
     8  C    5.103186   1.549445   0.000000
     9  C    5.947997   2.611755   1.535474   0.000000
    10  C    4.046210   1.550943   2.534349   3.850798   0.000000
    11  C    5.289143   2.587710   3.229201   4.253263   1.533534
    12  C    6.062078   3.935811   4.538317   5.678309   2.535660
    13  O    7.263509   4.964200   5.425127   6.328993   3.755789
    14  N    8.183760   6.219577   6.690157   7.686213   4.866972
    15  H    5.007829   6.108163   6.344874   6.440097   7.254325
    16  H    4.957150   5.379251   5.565140   5.322590   6.743844
    17  H    5.382430   5.288062   5.134952   5.077576   6.557708
    18  H    2.564954   4.347685   5.120647   5.523501   5.320509
    19  H    3.305031   4.231808   4.651127   5.288011   5.080308
    20  H    4.253395   2.800710   2.615749   2.873279   4.121814
    21  H    3.713540   2.920554   3.325650   3.221144   4.374715
    22  H    2.585900   2.154300   2.997760   4.154952   2.600060
    23  H    2.025689   2.573877   4.113916   4.915166   2.713103
    24  H    2.052145   3.081774   4.350012   4.724933   3.942095
    25  H    1.035594   3.961841   5.253442   6.309731   3.912721
    26  H    1.035888   4.602453   6.004108   6.758596   4.827897
    27  H    4.011469   1.102202   2.152736   2.629262   2.160167
    28  H    5.827190   2.157057   1.095008   2.137762   2.500000
    29  H    5.155165   2.177978   1.097919   2.175712   3.025437
    30  H    6.255970   2.872485   2.176938   1.096157   3.975858
    31  H    6.920589   3.549419   2.180336   1.095359   4.633790
    32  H    5.659413   2.919342   2.203073   1.093375   4.378263
    33  H    3.344585   2.197908   3.477253   4.745908   1.099438
    34  H    4.507867   2.162509   2.633285   4.131415   1.099504
    35  H    6.076418   2.816498   2.914202   3.752067   2.182595
    36  H    5.229899   2.856075   3.721186   4.471747   2.165731
    37  H    5.642215   4.260305   5.144599   6.344273   2.788716
    38  H    6.444101   4.235071   4.590585   5.854623   2.804722
    39  H    9.009651   6.742632   7.005323   7.927384   5.460773
    40  H    8.503055   6.755545   7.347763   8.261853   5.453165
                   11         12         13         14         15
    11  C    0.000000
    12  C    1.523874   0.000000
    13  O    2.376844   1.422740   0.000000
    14  N    3.667706   2.332820   1.439347   0.000000
    15  H    8.631089   9.777806  10.978444  12.106863   0.000000
    16  H    7.940948   9.251405  10.309760  11.555751   1.768665
    17  H    7.850590   9.074731  10.211320  11.396123   1.769491
    18  H    6.673645   7.756706   8.949200  10.042197   2.494930
    19  H    6.562185   7.542077   8.831570   9.854541   2.503859
    20  H    5.333358   6.599088   7.685873   8.900559   3.752589
    21  H    5.422815   6.803035   7.775699   9.067056   3.784440
    22  H    4.117054   5.026529   6.330827   7.338127   4.852145
    23  H    3.592701   4.518003   5.545715   6.603597   6.248523
    24  H    4.911236   6.069339   7.046256   8.212995   4.951835
    25  H    5.214317   5.772116   7.058271   7.847182   5.468533
    26  H    5.923550   6.630951   7.751908   8.625747   5.496651
    27  H    2.668767   4.140306   4.941243   6.287928   6.475020
    28  H    2.777700   3.933655   4.701222   5.925153   7.393198
    29  H    3.989135   5.125059   6.143507   7.302644   5.842671
    30  H    4.024612   5.485961   5.930042   7.338866   7.205134
    31  H    4.947810   6.271048   6.847648   8.158410   6.945055
    32  H    4.988292   6.454005   7.181774   8.550520   5.573826
    33  H    2.146057   2.753886   4.037954   4.988405   7.231314
    34  H    2.171752   2.746349   4.057258   4.991728   7.344374
    35  H    1.096925   2.143789   2.592844   3.936433   8.889372
    36  H    1.098000   2.145292   2.592480   3.934955   8.777645
    37  H    2.175237   1.099745   2.074584   2.574178   9.778782
    38  H    2.175474   1.100117   2.073938   2.576205   9.882362
    39  H    4.202638   2.990000   1.956627   1.020807  12.705408
    40  H    4.200577   2.990830   1.954480   1.020662  12.631473
                   16         17         18         19         20
    16  H    0.000000
    17  H    1.768804   0.000000
    18  H    2.525799   3.076455   0.000000
    19  H    3.084211   2.529393   1.752449   0.000000
    20  H    3.125359   2.559687   3.062106   2.488491   0.000000
    21  H    2.599497   3.121670   2.539539   3.067709   1.754291
    22  H    4.745207   4.402085   3.075639   2.516812   2.507771
    23  H    5.688005   6.145659   3.846461   4.486629   4.286278
    24  H    4.178136   4.993405   2.643703   3.792746   3.629713
    25  H    5.643127   5.796626   3.197783   3.456706   4.593948
    26  H    5.431782   6.090295   3.082352   4.123828   5.153201
    27  H    5.497949   5.716522   4.629378   4.881231   3.345796
    28  H    6.657630   6.159828   6.125228   5.581920   3.667075
    29  H    5.308726   4.557941   4.900312   4.080977   2.192259
    30  H    5.947406   5.952999   6.085023   6.087982   3.762365
    31  H    5.882445   5.410247   6.335807   5.902485   3.448855
    32  H    4.327630   4.234946   4.841415   4.758502   2.328320
    33  H    6.851043   6.797342   5.081418   5.004940   4.552344
    34  H    7.028230   6.566357   5.620566   5.032456   4.194097
    35  H    8.099957   7.911571   7.139399   6.922457   5.352290
    36  H    7.947041   8.096955   6.699674   6.870639   5.637881
    37  H    9.354295   9.266486   7.617173   7.505035   6.895314
    38  H    9.487152   9.105448   8.012366   7.555906   6.663484
    39  H   12.119752  11.881002  10.738359  10.465427   9.356557
    40  H   12.022962  11.993823  10.471163  10.432697   9.508163
                   21         22         23         24         25
    21  H    0.000000
    22  H    3.054951   0.000000
    23  H    3.585523   2.740234   0.000000
    24  H    2.383936   3.042088   1.757490   0.000000
    25  H    4.409142   2.479447   2.453772   2.978070   0.000000
    26  H    4.373794   3.615939   2.445521   2.368162   1.694702
    27  H    2.904138   3.030512   2.461106   2.821568   4.411861
    28  H    4.398138   3.693455   4.653037   5.190171   5.857838
    29  H    3.446573   2.744575   4.571602   4.707251   5.196873
    30  H    3.688249   4.758633   4.929020   4.829474   6.681283
    31  H    4.089878   4.931052   5.962736   5.780126   7.222332
    32  H    2.424690   4.105511   4.877777   4.300960   6.147594
    33  H    4.606254   2.550982   2.098499   3.626217   3.107108
    34  H    4.850921   2.606365   3.569058   4.707198   4.177642
    35  H    5.577434   4.591132   4.407545   5.489576   6.054769
    36  H    5.378705   4.525238   3.310101   4.592470   5.317180
    37  H    6.983068   5.016411   4.214357   5.904069   5.276520
    38  H    7.139664   5.079702   5.130684   6.633277   6.028804
    39  H    9.617668   7.960541   7.407637   8.955757   8.680043
    40  H    9.509298   7.924625   6.856385   8.473047   8.220740
                   26         27         28         29         30
    26  H    0.000000
    27  H    4.672840   0.000000
    28  H    6.715520   2.687501   0.000000
    29  H    6.134982   3.026386   1.741083   0.000000
    30  H    6.965663   2.492067   2.487478   3.084858   0.000000
    31  H    7.770479   3.681028   2.464082   2.503957   1.767337
    32  H    6.427369   2.863643   3.073952   2.577142   1.764664
    33  H    4.028959   2.659287   3.581980   3.859800   4.853761
    34  H    5.382993   3.043172   2.435588   2.773641   4.463935
    35  H    6.772469   2.873840   2.196212   3.746985   3.462768
    36  H    5.714552   2.510351   3.457185   4.615247   4.029037
    37  H    6.100569   4.457717   4.711866   5.670349   6.181889
    38  H    7.111984   4.674274   3.874931   4.984539   5.824455
    39  H    9.504840   6.825238   6.131038   7.607643   7.565787
    40  H    8.837511   6.687865   6.644688   8.035066   7.816502
                   31         32         33         34         35
    31  H    0.000000
    32  H    1.765973   0.000000
    33  H    5.605650   5.114951   0.000000
    34  H    4.724834   4.718668   1.747853   0.000000
    35  H    4.273741   4.649284   3.070108   2.568844   0.000000
    36  H    5.282621   5.095232   2.480477   3.076256   1.758405
    37  H    7.039755   7.001285   2.552477   3.071755   3.068377
    38  H    6.310883   6.680891   3.136570   2.562858   2.508559
    39  H    8.277615   8.864782   5.735882   5.492303   4.219804
    40  H    8.796322   9.084981   5.464829   5.728098   4.543172
                   36         37         38         39         40
    36  H    0.000000
    37  H    2.511745   0.000000
    38  H    3.070067   1.773919   0.000000
    39  H    4.545242   3.460467   3.015136   0.000000
    40  H    4.215346   3.017922   3.463847   1.627555   0.000000
 Stoichiometry    C11H26N2O
 Framework group  C1[X(C11H26N2O)]
 Deg. of freedom   114
 Full point group                 C1      NOp   1
 Largest Abelian subgroup         C1      NOp   1
 Largest concise Abelian subgroup C1      NOp   1
                         Standard orientation:                         
 ---------------------------------------------------------------------
 Center     Atomic      Atomic             Coordinates (Angstroms)
 Number     Number       Type             X           Y           Z
 ---------------------------------------------------------------------
      1          6           0       -5.305271    0.278588    0.325358
      2          6           0       -3.979583   -0.476378    0.461558
      3          6           0       -2.776315    0.350254   -0.014176
      4          6           0       -1.414442   -0.356457    0.122523
      5          6           0       -1.390967   -1.603925   -0.805976
      6          7           0       -1.895364   -2.814783   -0.218970
      7          6           0       -0.156135    0.524735   -0.160515
      8          6           0       -0.240962    1.976055    0.375447
      9          6           0       -0.794402    3.017485   -0.607818
     10          6           0        1.102031   -0.172756    0.419095
     11          6           0        2.415356    0.249811   -0.250488
     12          6           0        3.627801   -0.396260    0.408875
     13          8           0        4.782572    0.041360   -0.297653
     14          7           0        5.952597   -0.552079    0.294453
     15          1           0       -6.145926   -0.324984    0.682123
     16          1           0       -5.506282    0.544473   -0.718975
     17          1           0       -5.290216    1.207493    0.906567
     18          1           0       -4.044328   -1.419618   -0.098734
     19          1           0       -3.824270   -0.763125    1.511132
     20          1           0       -2.753900    1.275994    0.568323
     21          1           0       -2.931562    0.650428   -1.060983
     22          1           0       -1.332430   -0.702665    1.162673
     23          1           0       -0.363594   -1.850950   -1.128981
     24          1           0       -1.960367   -1.422828   -1.725469
     25          1           0       -1.450558   -3.128192    0.662152
     26          1           0       -2.025699   -3.623477   -0.853077
     27          1           0       -0.034611    0.584845   -1.254347
     28          1           0        0.768103    2.293229    0.658698
     29          1           0       -0.817928    1.989256    1.309450
     30          1           0       -0.175464    3.059601   -1.511534
     31          1           0       -0.791150    4.016887   -0.159493
     32          1           0       -1.818646    2.800178   -0.922730
     33          1           0        1.015752   -1.265970    0.340340
     34          1           0        1.144034    0.037732    1.497445
     35          1           0        2.539272    1.339354   -0.222454
     36          1           0        2.397514   -0.034374   -1.310924
     37          1           0        3.557892   -1.493182    0.372603
     38          1           0        3.702755   -0.104601    1.466975
     39          1           0        6.545686    0.245919    0.525738
     40          1           0        6.412046   -1.021167   -0.486966
 ---------------------------------------------------------------------
 Rotational constants (GHZ):           1.1143084           0.2328557           0.2006738
 Standard basis: 6-31+G(2df,p) (6D, 7F)
 There are   620 symmetry adapted cartesian basis functions of A   symmetry.
 There are   578 symmetry adapted basis functions of A   symmetry.
   578 basis functions,   854 primitive gaussians,   620 cartesian basis functions
    57 alpha electrons       57 beta electrons
       nuclear repulsion energy       955.0970574700 Hartrees.
 NAtoms=   40 NActive=   40 NUniq=   40 SFac= 1.00D+00 NAtFMM=   60 NAOKFM=F Big=F
 Integral buffers will be    131072 words long.
 Regular integral format.
 Two-electron integral symmetry is turned on.
 One-electron integrals computed using PRISM.
 PrsmSu:  requested number of processors reduced to:  12 ShMem   1 Linda.
 NBasis=   578 RedAO= T EigKep=  2.30D-06  NBF=   578
 NBsUse=   578 1.00D-06 EigRej= -1.00D+00 NBFU=   578
 Initial guess from the checkpoint file:  "CCCCqCNrCqCCrCCCON.chk"
 B after Tr=    -0.000000    0.000000   -0.000000
         Rot=    1.000000   -0.000473   -0.000009    0.000699 Ang=  -0.10 deg.
 ExpMin= 4.38D-02 ExpMax= 5.48D+03 ExpMxC= 8.25D+02 IAcc=2 IRadAn=         4 AccDes= 0.00D+00
 Harris functional with IExCor=  402 and IRadAn=       4 diagonalized for initial guess.
 HarFok:  IExCor=  402 AccDes= 0.00D+00 IRadAn=         4 IDoV= 1 UseB2=F ITyADJ=14
 ICtDFT=  3500011 ScaDFX=  1.000000  1.000000  1.000000  1.000000
 FoFCou: FMM=F IPFlag=           0 FMFlag=      100000 FMFlg1=           0
         NFxFlg=           0 DoJE=T BraDBF=F KetDBF=T FulRan=T
         wScrn=  0.000000 ICntrl=       500 IOpCl=  0 I1Cent=   200000004 NGrid=           0
         NMat0=    1 NMatS0=      1 NMatT0=    0 NMatD0=    1 NMtDS0=    0 NMtDT0=    0
 Petite list used in FoFCou.
 Requested convergence on RMS density matrix=1.00D-08 within 128 cycles.
 Requested convergence on MAX density matrix=1.00D-06.
 Requested convergence on             energy=1.00D-06.
 No special actions if energy rises.
 SCF Done:  E(RB3LYP) =  -619.558321729     A.U. after   12 cycles
            NFock= 12  Conv=0.18D-08     -V/T= 2.0086
 DoSCS=F DFT=T ScalE2(SS,OS)=  1.000000  1.000000
 ExpMin= 4.38D-02 ExpMax= 5.48D+03 ExpMxC= 8.25D+02 IAcc=3 IRadAn=         5 AccDes= 0.00D+00
 HarFok:  IExCor=  205 AccDes= 0.00D+00 IRadAn=         5 IDoV=-2 UseB2=F ITyADJ=14
 ICtDFT= 12500011 ScaDFX=  1.000000  1.000000  1.000000  1.000000
 Range of M.O.s used for correlation:    15   578
 NBasis=   578 NAE=    57 NBE=    57 NFC=    14 NFV=     0
 NROrb=    564 NOA=    43 NOB=    43 NVA=   521 NVB=   521

 **** Warning!!: The largest alpha MO coefficient is  0.10939334D+03

 Orbital symmetries:
       Occupied  (A) (A) (A) (A) (A) (A) (A) (A) (A) (A) (A) (A)
                 (A) (A) (A) (A) (A) (A) (A) (A) (A) (A) (A) (A)
                 (A) (A) (A) (A) (A) (A) (A) (A) (A) (A) (A) (A)
                 (A) (A) (A) (A) (A) (A) (A) (A) (A) (A) (A) (A)
                 (A) (A) (A) (A) (A) (A) (A) (A) (A)
       Virtual   (A) (A) (A) (A) (A) (A) (A) (A) (A) (A) (A) (A)
                 (A) (A) (A) (A) (A) (A) (A) (A) (A) (A) (A) (A)
                 (A) (A) (A) (A) (A) (A) (A) (A) (A) (A) (A) (A)
                 (A) (A) (A) (A) (A) (A) (A) (A) (A) (A) (A) (A)
                 (A) (A) (A) (A) (A) (A) (A) (A) (A) (A) (A) (A)
                 (A) (A) (A) (A) (A) (A) (A) (A) (A) (A) (A) (A)
                 (A) (A) (A) (A) (A) (A) (A) (A) (A) (A) (A) (A)
                 (A) (A) (A) (A) (A) (A) (A) (A) (A) (A) (A) (A)
                 (A) (A) (A) (A) (A) (A) (A) (A) (A) (A) (A) (A)
                 (A) (A) (A) (A) (A) (A) (A) (A) (A) (A) (A) (A)
                 (A) (A) (A) (A) (A) (A) (A) (A) (A) (A) (A) (A)
                 (A) (A) (A) (A) (A) (A) (A) (A) (A) (A) (A) (A)
                 (A) (A) (A) (A) (A) (A) (A) (A) (A) (A) (A) (A)
                 (A) (A) (A) (A) (A) (A) (A) (A) (A) (A) (A) (A)
                 (A) (A) (A) (A) (A) (A) (A) (A) (A) (A) (A) (A)
                 (A) (A) (A) (A) (A) (A) (A) (A) (A) (A) (A) (A)
                 (A) (A) (A) (A) (A) (A) (A) (A) (A) (A) (A) (A)
                 (A) (A) (A) (A) (A) (A) (A) (A) (A) (A) (A) (A)
                 (A) (A) (A) (A) (A) (A) (A) (A) (A) (A) (A) (A)
                 (A) (A) (A) (A) (A) (A) (A) (A) (A) (A) (A) (A)
                 (A) (A) (A) (A) (A) (A) (A) (A) (A) (A) (A) (A)
                 (A) (A) (A) (A) (A) (A) (A) (A) (A) (A) (A) (A)
                 (A) (A) (A) (A) (A) (A) (A) (A) (A) (A) (A) (A)
                 (A) (A) (A) (A) (A) (A) (A) (A) (A) (A) (A) (A)
                 (A) (A) (A) (A) (A) (A) (A) (A) (A) (A) (A) (A)
                 (A) (A) (A) (A) (A) (A) (A) (A) (A) (A) (A) (A)
                 (A) (A) (A) (A) (A) (A) (A) (A) (A) (A) (A) (A)
                 (A) (A) (A) (A) (A) (A) (A) (A) (A) (A) (A) (A)
                 (A) (A) (A) (A) (A) (A) (A) (A) (A) (A) (A) (A)
                 (A) (A) (A) (A) (A) (A) (A) (A) (A) (A) (A) (A)
                 (A) (A) (A) (A) (A) (A) (A) (A) (A) (A) (A) (A)
                 (A) (A) (A) (A) (A) (A) (A) (A) (A) (A) (A) (A)
                 (A) (A) (A) (A) (A) (A) (A) (A) (A) (A) (A) (A)
                 (A) (A) (A) (A) (A) (A) (A) (A) (A) (A) (A) (A)
                 (A) (A) (A) (A) (A) (A) (A) (A) (A) (A) (A) (A)
                 (A) (A) (A) (A) (A) (A) (A) (A) (A) (A) (A) (A)
                 (A) (A) (A) (A) (A) (A) (A) (A) (A) (A) (A) (A)
                 (A) (A) (A) (A) (A) (A) (A) (A) (A) (A) (A) (A)
                 (A) (A) (A) (A) (A) (A) (A) (A) (A) (A) (A) (A)
                 (A) (A) (A) (A) (A) (A) (A) (A) (A) (A) (A) (A)
                 (A) (A) (A) (A) (A) (A) (A) (A) (A) (A) (A) (A)
                 (A) (A) (A) (A) (A) (A) (A) (A) (A) (A) (A) (A)
                 (A) (A) (A) (A) (A) (A) (A) (A) (A) (A) (A) (A)
                 (A) (A) (A) (A) (A)
 Generating guess from densities on rwf.
 Convergence on wavefunction:    0.000001000000000
 Iteration     1 Dimension    20 NMult     0 NNew     20
 CISAX will form     3 AO SS matrices at one time.
 New state      4 was old state      5
 New state      5 was old state      7
 New state      6 was old state      4
 New state      7 was old state      8
 New state      8 was old state      6
 Iteration     2 Dimension    40 NMult    20 NNew     20
 New state      6 was old state      7
 New state      7 was old state      6
 No map to state      9
 New state     10 was old state      9
 Iteration     3 Dimension    60 NMult    40 NNew     20
 New state      8 was old state     10
 New state     10 was old state      8
 Iteration     4 Dimension    80 NMult    60 NNew     20
 New state      7 was old state      8
 New state      8 was old state      7
 Iteration     5 Dimension   100 NMult    80 NNew     20
 Iteration     6 Dimension   120 NMult   100 NNew     20
 Iteration     7 Dimension   140 NMult   120 NNew     20
 Iteration     8 Dimension   160 NMult   140 NNew     20
 Iteration     9 Dimension   180 NMult   160 NNew     20
slurmstepd: error: *** JOB 27500994 ON lewis4-r630-hpc4-node672 CANCELLED AT 2023-05-26T10:12:00 DUE TO TIME LIMIT ***
