### Starting Gaussian ###
 Entering Gaussian System, Link 0=g16
 Initial command:
 /cluster/software/gaussian/gaussian-16-A.03/avx2/g16/l1.exe "/local/scratch/cz9n3/Gau-29774.inp" -scrdir="/local/scratch/cz9n3/"
 Entering Link 1 = /cluster/software/gaussian/gaussian-16-A.03/avx2/g16/l1.exe PID=     29775.
  
 Copyright (c) 1988,1990,1992,1993,1995,1998,2003,2009,2016,
            Gaussian, Inc.  All Rights Reserved.
  
 This is part of the Gaussian(R) 16 program.  It is based on
 the Gaussian(R) 09 system (copyright 2009, Gaussian, Inc.),
 the Gaussian(R) 03 system (copyright 2003, Gaussian, Inc.),
 the Gaussian(R) 98 system (copyright 1998, Gaussian, Inc.),
 the Gaussian(R) 94 system (copyright 1995, Gaussian, Inc.),
 the Gaussian 92(TM) system (copyright 1992, Gaussian, Inc.),
 the Gaussian 90(TM) system (copyright 1990, Gaussian, Inc.),
 the Gaussian 88(TM) system (copyright 1988, Gaussian, Inc.),
 the Gaussian 86(TM) system (copyright 1986, Carnegie Mellon
 University), and the Gaussian 82(TM) system (copyright 1983,
 Carnegie Mellon University). Gaussian is a federally registered
 trademark of Gaussian, Inc.
  
 This software contains proprietary and confidential information,
 including trade secrets, belonging to Gaussian, Inc.
  
 This software is provided under written license and may be
 used, copied, transmitted, or stored only in accord with that
 written license.
  
 The following legend is applicable only to US Government
 contracts under FAR:
  
                    RESTRICTED RIGHTS LEGEND
  
 Use, reproduction and disclosure by the US Government is
 subject to restrictions as set forth in subparagraphs (a)
 and (c) of the Commercial Computer Software - Restricted
 Rights clause in FAR 52.227-19.
  
 Gaussian, Inc.
 340 Quinnipiac St., Bldg. 40, Wallingford CT 06492
  
  
 ---------------------------------------------------------------
 Warning -- This program may not be used in any manner that
 competes with the business of Gaussian, Inc. or will provide
 assistance to any competitor of Gaussian, Inc.  The licensee
 of this program is prohibited from giving any competitor of
 Gaussian, Inc. access to this program.  By using this program,
 the user acknowledges that Gaussian, Inc. is engaged in the
 business of creating and licensing software in the field of
 computational chemistry and represents and warrants to the
 licensee that it is not a competitor of Gaussian, Inc. and that
 it will not use this program in any manner prohibited above.
 ---------------------------------------------------------------
  

 Cite this work as:
 Gaussian 16, Revision A.03,
 M. J. Frisch, G. W. Trucks, H. B. Schlegel, G. E. Scuseria, 
 M. A. Robb, J. R. Cheeseman, G. Scalmani, V. Barone, 
 G. A. Petersson, H. Nakatsuji, X. Li, M. Caricato, A. V. Marenich, 
 J. Bloino, B. G. Janesko, R. Gomperts, B. Mennucci, H. P. Hratchian, 
 J. V. Ortiz, A. F. Izmaylov, J. L. Sonnenberg, D. Williams-Young, 
 F. Ding, F. Lipparini, F. Egidi, J. Goings, B. Peng, A. Petrone, 
 T. Henderson, D. Ranasinghe, V. G. Zakrzewski, J. Gao, N. Rega, 
 G. Zheng, W. Liang, M. Hada, M. Ehara, K. Toyota, R. Fukuda, 
 J. Hasegawa, M. Ishida, T. Nakajima, Y. Honda, O. Kitao, H. Nakai, 
 T. Vreven, K. Throssell, J. A. Montgomery, Jr., J. E. Peralta, 
 F. Ogliaro, M. J. Bearpark, J. J. Heyd, E. N. Brothers, K. N. Kudin, 
 V. N. Staroverov, T. A. Keith, R. Kobayashi, J. Normand, 
 K. Raghavachari, A. P. Rendell, J. C. Burant, S. S. Iyengar, 
 J. Tomasi, M. Cossi, J. M. Millam, M. Klene, C. Adamo, R. Cammi, 
 J. W. Ochterski, R. L. Martin, K. Morokuma, O. Farkas, 
 J. B. Foresman, and D. J. Fox, Gaussian, Inc., Wallingford CT, 2016.
 
 ******************************************
 Gaussian 16:  ES64L-G16RevA.03 25-Dec-2016
                22-May-2023 
 ******************************************
 %chk=CCCCCC1OCCCqCNCOrCCCC1C.chk
 %NProcShared=20
 Will use up to   20 processors via shared memory.
 -----------------------------
 # opt freq b3lyp/6-31g(2df,p)
 -----------------------------
 1/18=20,19=15,26=3,38=1/1,3;
 2/9=110,12=2,17=6,18=5,40=1/2;
 3/5=1,6=6,7=104,11=2,25=1,30=1,71=1,74=-5/1,2,3;
 4//1;
 5/5=2,38=5/2;
 6/7=2,8=2,9=2,10=2,28=1/1;
 7//1,2,3,16;
 1/18=20,19=15,26=3/3(2);
 2/9=110/2;
 99//99;
 2/9=110/2;
 3/5=1,6=6,7=104,11=2,25=1,30=1,71=1,74=-5/1,2,3;
 4/5=5,16=3,69=1/1;
 5/5=2,38=5/2;
 7//1,2,3,16;
 1/18=20,19=15,26=3/3(-5);
 2/9=110/2;
 6/7=2,8=2,9=2,10=2,19=2,28=1/1;
 99/9=1/99;
 -------------------
 Title Card Required
 -------------------
 Symbolic Z-matrix:
 Charge =  0 Multiplicity = 1
 C                     0.69258  -0.04933  -0.09845 
 C                     2.18913  -0.13273  -0.22241 
 C                     2.60144  -1.21493  -1.31388 
 C                     4.07753  -1.38335  -1.62463 
 C                     4.95088  -2.34188  -2.40246 
 C                     6.4824   -1.97136  -2.06724 
 O                     6.98287  -0.89517  -2.90341 
 C                     6.80462   0.50586  -2.68514 
 C                     5.40715   1.00803  -2.46277 
 C                     4.98921   1.26618  -0.87726 
 C                     5.54793   2.67697  -0.62185 
 N                     5.14707   3.21253   0.66711 
 C                     5.75238   4.50534   0.82021 
 O                     5.42984   4.95644   2.10542 
 C                     5.12731   0.30611   0.59942 
 C                     4.86573  -1.26269   1.01234 
 C                     6.01307  -2.27283   0.67082 
 C                     7.00678  -1.98796  -0.52867 
 C                     7.89333  -0.79429  -0.19561 
 H                     0.41845   0.72702   0.62575 
 H                     0.30876  -1.00968   0.23687 
 H                     0.2777    0.22544  -1.06967 
 H                     2.58176  -0.31681   0.78115 
 H                     2.44322   0.89843  -0.45013 
 H                     2.17444  -0.84724  -2.25155 
 H                     2.18259  -2.16266  -1.02085 
 H                     4.73749  -1.32425  -0.8483 
 H                     4.21199  -0.4572   -1.91923 
 H                     4.75825  -2.22953  -3.47041 
 H                     4.76367  -3.36106  -2.07223 
 H                     7.01827  -2.83208  -2.51065 
 H                     7.1635    0.99077  -3.60284 
 H                     7.47717   0.92138  -1.94291 
 H                     4.75104   0.4198   -3.13522 
 H                     5.22815   1.95549  -2.99803 
 H                     3.93659   1.4968   -0.98466 
 H                     5.15022   3.34595  -1.40125 
 H                     6.63508   2.65143  -0.72788 
 H                     5.52623   2.62282   1.40561 
 H                     5.35626   5.20798   0.08128 
 H                     6.84036   4.44445   0.72126 
 H                     4.46602   4.83668   2.15035 
 H                     4.46854   0.82572   1.314 
 H                     6.10877   0.51728   1.02194 
 H                     3.95527  -1.74185   0.61253 
 H                     4.51953  -1.34172   2.05408 
 H                     5.56661  -3.26566   0.49335 
 H                     6.58651  -2.38593   1.60069 
 H                     7.70105  -2.84613  -0.48134 
 H                     7.32171   0.10875  -0.31399 
 H                     8.75256  -0.70716  -0.86418 
 H                     8.23635  -0.78146   0.84142 
 

 GradGradGradGradGradGradGradGradGradGradGradGradGradGradGradGradGradGrad
 Berny optimization.
 Initialization pass.
                           ----------------------------
                           !    Initial Parameters    !
                           ! (Angstroms and Degrees)  !
 --------------------------                            --------------------------
 ! Name  Definition              Value          Derivative Info.                !
 --------------------------------------------------------------------------------
 ! R1    R(1,2)                  1.504          estimate D2E/DX2                !
 ! R2    R(1,20)                 1.0965         estimate D2E/DX2                !
 ! R3    R(1,21)                 1.0872         estimate D2E/DX2                !
 ! R4    R(1,22)                 1.0913         estimate D2E/DX2                !
 ! R5    R(2,3)                  1.5914         estimate D2E/DX2                !
 ! R6    R(2,23)                 1.0932         estimate D2E/DX2                !
 ! R7    R(2,24)                 1.0861         estimate D2E/DX2                !
 ! R8    R(3,4)                  1.5178         estimate D2E/DX2                !
 ! R9    R(3,25)                 1.094          estimate D2E/DX2                !
 ! R10   R(3,26)                 1.0768         estimate D2E/DX2                !
 ! R11   R(4,5)                  1.5121         estimate D2E/DX2                !
 ! R12   R(4,27)                 1.0207         estimate D2E/DX2                !
 ! R13   R(4,28)                 0.9811         estimate D2E/DX2                !
 ! R14   R(5,6)                  1.611          estimate D2E/DX2                !
 ! R15   R(5,29)                 1.091          estimate D2E/DX2                !
 ! R16   R(5,30)                 1.0876         estimate D2E/DX2                !
 ! R17   R(6,7)                  1.4518         estimate D2E/DX2                !
 ! R18   R(6,18)                 1.6256         estimate D2E/DX2                !
 ! R19   R(6,31)                 1.1066         estimate D2E/DX2                !
 ! R20   R(7,8)                  1.4291         estimate D2E/DX2                !
 ! R21   R(8,9)                  1.5015         estimate D2E/DX2                !
 ! R22   R(8,32)                 1.0982         estimate D2E/DX2                !
 ! R23   R(8,33)                 1.0844         estimate D2E/DX2                !
 ! R24   R(9,10)                 1.6599         estimate D2E/DX2                !
 ! R25   R(9,34)                 1.1085         estimate D2E/DX2                !
 ! R26   R(9,35)                 1.1028         estimate D2E/DX2                !
 ! R27   R(10,11)                1.5387         estimate D2E/DX2                !
 ! R28   R(10,15)                1.7667         estimate D2E/DX2                !
 ! R29   R(10,36)                1.0829         estimate D2E/DX2                !
 ! R30   R(11,12)                1.4522         estimate D2E/DX2                !
 ! R31   R(11,37)                1.1014         estimate D2E/DX2                !
 ! R32   R(11,38)                1.0926         estimate D2E/DX2                !
 ! R33   R(12,13)                1.4357         estimate D2E/DX2                !
 ! R34   R(12,39)                1.0183         estimate D2E/DX2                !
 ! R35   R(13,14)                1.3997         estimate D2E/DX2                !
 ! R36   R(13,40)                1.0939         estimate D2E/DX2                !
 ! R37   R(13,41)                1.0942         estimate D2E/DX2                !
 ! R38   R(14,42)                0.9723         estimate D2E/DX2                !
 ! R39   R(15,16)                1.6432         estimate D2E/DX2                !
 ! R40   R(15,43)                1.1021         estimate D2E/DX2                !
 ! R41   R(15,44)                1.0892         estimate D2E/DX2                !
 ! R42   R(16,17)                1.5663         estimate D2E/DX2                !
 ! R43   R(16,45)                1.1038         estimate D2E/DX2                !
 ! R44   R(16,46)                1.1006         estimate D2E/DX2                !
 ! R45   R(17,18)                1.5835         estimate D2E/DX2                !
 ! R46   R(17,47)                1.103          estimate D2E/DX2                !
 ! R47   R(17,48)                1.0983         estimate D2E/DX2                !
 ! R48   R(18,19)                1.5237         estimate D2E/DX2                !
 ! R49   R(18,49)                1.1049         estimate D2E/DX2                !
 ! R50   R(19,50)                1.0753         estimate D2E/DX2                !
 ! R51   R(19,51)                1.0922         estimate D2E/DX2                !
 ! R52   R(19,52)                1.0924         estimate D2E/DX2                !
 ! A1    A(2,1,20)             110.027          estimate D2E/DX2                !
 ! A2    A(2,1,21)             109.1307         estimate D2E/DX2                !
 ! A3    A(2,1,22)             108.5968         estimate D2E/DX2                !
 ! A4    A(20,1,21)            109.478          estimate D2E/DX2                !
 ! A5    A(20,1,22)            108.3295         estimate D2E/DX2                !
 ! A6    A(21,1,22)            111.265          estimate D2E/DX2                !
 ! A7    A(1,2,3)              110.6127         estimate D2E/DX2                !
 ! A8    A(1,2,23)             106.9205         estimate D2E/DX2                !
 ! A9    A(1,2,24)             101.3859         estimate D2E/DX2                !
 ! A10   A(3,2,23)             114.9639         estimate D2E/DX2                !
 ! A11   A(3,2,24)             116.1809         estimate D2E/DX2                !
 ! A12   A(23,2,24)            105.5631         estimate D2E/DX2                !
 ! A13   A(2,3,4)              117.8947         estimate D2E/DX2                !
 ! A14   A(2,3,25)             104.9622         estimate D2E/DX2                !
 ! A15   A(2,3,26)             108.1258         estimate D2E/DX2                !
 ! A16   A(4,3,25)             103.9694         estimate D2E/DX2                !
 ! A17   A(4,3,26)             109.6538         estimate D2E/DX2                !
 ! A18   A(25,3,26)            112.1633         estimate D2E/DX2                !
 ! A19   A(3,4,5)              137.505          estimate D2E/DX2                !
 ! A20   A(3,4,27)             117.819          estimate D2E/DX2                !
 ! A21   A(3,4,28)              95.1641         estimate D2E/DX2                !
 ! A22   A(5,4,27)              93.1246         estimate D2E/DX2                !
 ! A23   A(5,4,28)             111.393          estimate D2E/DX2                !
 ! A24   A(27,4,28)             94.8826         estimate D2E/DX2                !
 ! A25   A(4,5,6)              107.2323         estimate D2E/DX2                !
 ! A26   A(4,5,29)             109.6502         estimate D2E/DX2                !
 ! A27   A(4,5,30)             109.7806         estimate D2E/DX2                !
 ! A28   A(6,5,29)             110.3568         estimate D2E/DX2                !
 ! A29   A(6,5,30)             108.421          estimate D2E/DX2                !
 ! A30   A(29,5,30)            111.3053         estimate D2E/DX2                !
 ! A31   A(5,6,7)              112.2321         estimate D2E/DX2                !
 ! A32   A(5,6,18)             120.0846         estimate D2E/DX2                !
 ! A33   A(5,6,31)             101.4253         estimate D2E/DX2                !
 ! A34   A(7,6,18)             116.1989         estimate D2E/DX2                !
 ! A35   A(7,6,31)             100.3027         estimate D2E/DX2                !
 ! A36   A(18,6,31)            102.4211         estimate D2E/DX2                !
 ! A37   A(6,7,8)              126.5657         estimate D2E/DX2                !
 ! A38   A(7,8,9)              117.8126         estimate D2E/DX2                !
 ! A39   A(7,8,32)             105.3362         estimate D2E/DX2                !
 ! A40   A(7,8,33)             113.7561         estimate D2E/DX2                !
 ! A41   A(9,8,32)             106.2734         estimate D2E/DX2                !
 ! A42   A(9,8,33)             110.3477         estimate D2E/DX2                !
 ! A43   A(32,8,33)            101.5424         estimate D2E/DX2                !
 ! A44   A(8,9,10)             115.3293         estimate D2E/DX2                !
 ! A45   A(8,9,34)             106.4736         estimate D2E/DX2                !
 ! A46   A(8,9,35)             111.5005         estimate D2E/DX2                !
 ! A47   A(10,9,34)            120.8619         estimate D2E/DX2                !
 ! A48   A(10,9,35)            106.8058         estimate D2E/DX2                !
 ! A49   A(34,9,35)             93.7497         estimate D2E/DX2                !
 ! A50   A(9,10,11)            102.1057         estimate D2E/DX2                !
 ! A51   A(9,10,15)            133.9621         estimate D2E/DX2                !
 ! A52   A(9,10,36)            100.5523         estimate D2E/DX2                !
 ! A53   A(11,10,15)           109.336          estimate D2E/DX2                !
 ! A54   A(11,10,36)           100.0292         estimate D2E/DX2                !
 ! A55   A(15,10,36)           105.938          estimate D2E/DX2                !
 ! A56   A(10,11,12)           112.6574         estimate D2E/DX2                !
 ! A57   A(10,11,37)           107.9567         estimate D2E/DX2                !
 ! A58   A(10,11,38)           108.8898         estimate D2E/DX2                !
 ! A59   A(12,11,37)           107.7226         estimate D2E/DX2                !
 ! A60   A(12,11,38)           111.6792         estimate D2E/DX2                !
 ! A61   A(37,11,38)           107.7465         estimate D2E/DX2                !
 ! A62   A(11,12,13)           108.0808         estimate D2E/DX2                !
 ! A63   A(11,12,39)           109.1083         estimate D2E/DX2                !
 ! A64   A(13,12,39)           106.688          estimate D2E/DX2                !
 ! A65   A(12,13,14)           106.9155         estimate D2E/DX2                !
 ! A66   A(12,13,40)           110.7132         estimate D2E/DX2                !
 ! A67   A(12,13,41)           111.0681         estimate D2E/DX2                !
 ! A68   A(14,13,40)           109.2554         estimate D2E/DX2                !
 ! A69   A(14,13,41)           109.2745         estimate D2E/DX2                !
 ! A70   A(40,13,41)           109.5558         estimate D2E/DX2                !
 ! A71   A(13,14,42)           103.3653         estimate D2E/DX2                !
 ! A72   A(10,15,16)           135.7583         estimate D2E/DX2                !
 ! A73   A(10,15,43)           103.8278         estimate D2E/DX2                !
 ! A74   A(10,15,44)           106.8164         estimate D2E/DX2                !
 ! A75   A(16,15,43)           101.0721         estimate D2E/DX2                !
 ! A76   A(16,15,44)           103.3595         estimate D2E/DX2                !
 ! A77   A(43,15,44)           101.285          estimate D2E/DX2                !
 ! A78   A(15,16,17)           116.3794         estimate D2E/DX2                !
 ! A79   A(15,16,45)           117.0478         estimate D2E/DX2                !
 ! A80   A(15,16,46)           110.8844         estimate D2E/DX2                !
 ! A81   A(17,16,45)           104.1975         estimate D2E/DX2                !
 ! A82   A(17,16,46)           112.9844         estimate D2E/DX2                !
 ! A83   A(45,16,46)            92.9929         estimate D2E/DX2                !
 ! A84   A(16,17,18)           120.5856         estimate D2E/DX2                !
 ! A85   A(16,17,47)           108.6079         estimate D2E/DX2                !
 ! A86   A(16,17,48)           105.3229         estimate D2E/DX2                !
 ! A87   A(18,17,47)           107.102          estimate D2E/DX2                !
 ! A88   A(18,17,48)           109.4028         estimate D2E/DX2                !
 ! A89   A(47,17,48)           104.7661         estimate D2E/DX2                !
 ! A90   A(6,18,17)            121.0889         estimate D2E/DX2                !
 ! A91   A(6,18,19)            112.7415         estimate D2E/DX2                !
 ! A92   A(6,18,49)            104.5475         estimate D2E/DX2                !
 ! A93   A(17,18,19)           109.9063         estimate D2E/DX2                !
 ! A94   A(17,18,49)           102.8357         estimate D2E/DX2                !
 ! A95   A(19,18,49)           103.5034         estimate D2E/DX2                !
 ! A96   A(18,19,50)           108.9374         estimate D2E/DX2                !
 ! A97   A(18,19,51)           112.7322         estimate D2E/DX2                !
 ! A98   A(18,19,52)           113.5416         estimate D2E/DX2                !
 ! A99   A(50,19,51)           106.4886         estimate D2E/DX2                !
 ! A100  A(50,19,52)           105.1639         estimate D2E/DX2                !
 ! A101  A(51,19,52)           109.4606         estimate D2E/DX2                !
 ! D1    D(20,1,2,3)          -177.7085         estimate D2E/DX2                !
 ! D2    D(20,1,2,23)           56.4361         estimate D2E/DX2                !
 ! D3    D(20,1,2,24)          -53.8881         estimate D2E/DX2                !
 ! D4    D(21,1,2,3)            62.153          estimate D2E/DX2                !
 ! D5    D(21,1,2,23)          -63.7024         estimate D2E/DX2                !
 ! D6    D(21,1,2,24)         -174.0266         estimate D2E/DX2                !
 ! D7    D(22,1,2,3)           -59.2965         estimate D2E/DX2                !
 ! D8    D(22,1,2,23)          174.8481         estimate D2E/DX2                !
 ! D9    D(22,1,2,24)           64.5239         estimate D2E/DX2                !
 ! D10   D(1,2,3,4)            176.9012         estimate D2E/DX2                !
 ! D11   D(1,2,3,25)            61.8017         estimate D2E/DX2                !
 ! D12   D(1,2,3,26)           -58.0896         estimate D2E/DX2                !
 ! D13   D(23,2,3,4)           -61.8939         estimate D2E/DX2                !
 ! D14   D(23,2,3,25)         -176.9935         estimate D2E/DX2                !
 ! D15   D(23,2,3,26)           63.1152         estimate D2E/DX2                !
 ! D16   D(24,2,3,4)            62.0696         estimate D2E/DX2                !
 ! D17   D(24,2,3,25)          -53.0299         estimate D2E/DX2                !
 ! D18   D(24,2,3,26)         -172.9213         estimate D2E/DX2                !
 ! D19   D(2,3,4,5)            170.3342         estimate D2E/DX2                !
 ! D20   D(2,3,4,27)            38.4845         estimate D2E/DX2                !
 ! D21   D(2,3,4,28)           -59.8132         estimate D2E/DX2                !
 ! D22   D(25,3,4,5)           -74.0262         estimate D2E/DX2                !
 ! D23   D(25,3,4,27)          154.1242         estimate D2E/DX2                !
 ! D24   D(25,3,4,28)           55.8264         estimate D2E/DX2                !
 ! D25   D(26,3,4,5)            46.0821         estimate D2E/DX2                !
 ! D26   D(26,3,4,27)          -85.7675         estimate D2E/DX2                !
 ! D27   D(26,3,4,28)          175.9347         estimate D2E/DX2                !
 ! D28   D(3,4,5,6)           -171.4253         estimate D2E/DX2                !
 ! D29   D(3,4,5,29)            68.7406         estimate D2E/DX2                !
 ! D30   D(3,4,5,30)           -53.8352         estimate D2E/DX2                !
 ! D31   D(27,4,5,6)           -32.7091         estimate D2E/DX2                !
 ! D32   D(27,4,5,29)         -152.5431         estimate D2E/DX2                !
 ! D33   D(27,4,5,30)           84.881          estimate D2E/DX2                !
 ! D34   D(28,4,5,6)            63.7754         estimate D2E/DX2                !
 ! D35   D(28,4,5,29)          -56.0586         estimate D2E/DX2                !
 ! D36   D(28,4,5,30)         -178.6344         estimate D2E/DX2                !
 ! D37   D(4,5,6,7)            -84.3778         estimate D2E/DX2                !
 ! D38   D(4,5,6,18)            57.6205         estimate D2E/DX2                !
 ! D39   D(4,5,6,31)           169.3784         estimate D2E/DX2                !
 ! D40   D(29,5,6,7)            35.0035         estimate D2E/DX2                !
 ! D41   D(29,5,6,18)          177.0018         estimate D2E/DX2                !
 ! D42   D(29,5,6,31)          -71.2402         estimate D2E/DX2                !
 ! D43   D(30,5,6,7)           157.1477         estimate D2E/DX2                !
 ! D44   D(30,5,6,18)          -60.854          estimate D2E/DX2                !
 ! D45   D(30,5,6,31)           50.9039         estimate D2E/DX2                !
 ! D46   D(5,6,7,8)             83.3017         estimate D2E/DX2                !
 ! D47   D(18,6,7,8)           -60.2754         estimate D2E/DX2                !
 ! D48   D(31,6,7,8)          -169.7321         estimate D2E/DX2                !
 ! D49   D(5,6,18,17)           -4.0008         estimate D2E/DX2                !
 ! D50   D(5,6,18,19)         -137.1459         estimate D2E/DX2                !
 ! D51   D(5,6,18,49)          111.1171         estimate D2E/DX2                !
 ! D52   D(7,6,18,17)          136.5668         estimate D2E/DX2                !
 ! D53   D(7,6,18,19)            3.4217         estimate D2E/DX2                !
 ! D54   D(7,6,18,49)         -108.3152         estimate D2E/DX2                !
 ! D55   D(31,6,18,17)        -115.2247         estimate D2E/DX2                !
 ! D56   D(31,6,18,19)         111.6302         estimate D2E/DX2                !
 ! D57   D(31,6,18,49)          -0.1068         estimate D2E/DX2                !
 ! D58   D(6,7,8,9)            -52.1209         estimate D2E/DX2                !
 ! D59   D(6,7,8,32)          -170.3625         estimate D2E/DX2                !
 ! D60   D(6,7,8,33)            79.3094         estimate D2E/DX2                !
 ! D61   D(7,8,9,10)            99.3698         estimate D2E/DX2                !
 ! D62   D(7,8,9,34)           -37.6671         estimate D2E/DX2                !
 ! D63   D(7,8,9,35)          -138.6074         estimate D2E/DX2                !
 ! D64   D(32,8,9,10)         -142.8877         estimate D2E/DX2                !
 ! D65   D(32,8,9,34)           80.0754         estimate D2E/DX2                !
 ! D66   D(32,8,9,35)          -20.8648         estimate D2E/DX2                !
 ! D67   D(33,8,9,10)          -33.584          estimate D2E/DX2                !
 ! D68   D(33,8,9,34)         -170.6209         estimate D2E/DX2                !
 ! D69   D(33,8,9,35)           88.4389         estimate D2E/DX2                !
 ! D70   D(8,9,10,11)           83.7346         estimate D2E/DX2                !
 ! D71   D(8,9,10,15)          -48.8995         estimate D2E/DX2                !
 ! D72   D(8,9,10,36)         -173.4899         estimate D2E/DX2                !
 ! D73   D(34,9,10,11)        -145.8491         estimate D2E/DX2                !
 ! D74   D(34,9,10,15)          81.5168         estimate D2E/DX2                !
 ! D75   D(34,9,10,36)         -43.0737         estimate D2E/DX2                !
 ! D76   D(35,9,10,11)         -40.7747         estimate D2E/DX2                !
 ! D77   D(35,9,10,15)        -173.4089         estimate D2E/DX2                !
 ! D78   D(35,9,10,36)          62.0007         estimate D2E/DX2                !
 ! D79   D(9,10,11,12)         172.1706         estimate D2E/DX2                !
 ! D80   D(9,10,11,37)          53.3518         estimate D2E/DX2                !
 ! D81   D(9,10,11,38)         -63.3628         estimate D2E/DX2                !
 ! D82   D(15,10,11,12)        -41.9687         estimate D2E/DX2                !
 ! D83   D(15,10,11,37)       -160.7875         estimate D2E/DX2                !
 ! D84   D(15,10,11,38)         82.4979         estimate D2E/DX2                !
 ! D85   D(36,10,11,12)         68.9833         estimate D2E/DX2                !
 ! D86   D(36,10,11,37)        -49.8355         estimate D2E/DX2                !
 ! D87   D(36,10,11,38)       -166.5502         estimate D2E/DX2                !
 ! D88   D(9,10,15,16)         -43.2673         estimate D2E/DX2                !
 ! D89   D(9,10,15,43)        -165.6936         estimate D2E/DX2                !
 ! D90   D(9,10,15,44)          87.7522         estimate D2E/DX2                !
 ! D91   D(11,10,15,16)       -173.5969         estimate D2E/DX2                !
 ! D92   D(11,10,15,43)         63.9768         estimate D2E/DX2                !
 ! D93   D(11,10,15,44)        -42.5774         estimate D2E/DX2                !
 ! D94   D(36,10,15,16)         79.4166         estimate D2E/DX2                !
 ! D95   D(36,10,15,43)        -43.0098         estimate D2E/DX2                !
 ! D96   D(36,10,15,44)       -149.564          estimate D2E/DX2                !
 ! D97   D(10,11,12,13)        178.2302         estimate D2E/DX2                !
 ! D98   D(10,11,12,39)         62.585          estimate D2E/DX2                !
 ! D99   D(37,11,12,13)        -62.8144         estimate D2E/DX2                !
 ! D100  D(37,11,12,39)       -178.4596         estimate D2E/DX2                !
 ! D101  D(38,11,12,13)         55.3101         estimate D2E/DX2                !
 ! D102  D(38,11,12,39)        -60.3351         estimate D2E/DX2                !
 ! D103  D(11,12,13,14)       -175.8515         estimate D2E/DX2                !
 ! D104  D(11,12,13,40)         65.2336         estimate D2E/DX2                !
 ! D105  D(11,12,13,41)        -56.715          estimate D2E/DX2                !
 ! D106  D(39,12,13,14)        -58.6337         estimate D2E/DX2                !
 ! D107  D(39,12,13,40)       -177.5486         estimate D2E/DX2                !
 ! D108  D(39,12,13,41)         60.5028         estimate D2E/DX2                !
 ! D109  D(12,13,14,42)        -50.5698         estimate D2E/DX2                !
 ! D110  D(40,13,14,42)         69.2865         estimate D2E/DX2                !
 ! D111  D(41,13,14,42)       -170.861          estimate D2E/DX2                !
 ! D112  D(10,15,16,17)         81.4578         estimate D2E/DX2                !
 ! D113  D(10,15,16,45)        -42.6407         estimate D2E/DX2                !
 ! D114  D(10,15,16,46)       -147.5658         estimate D2E/DX2                !
 ! D115  D(43,15,16,17)       -155.1751         estimate D2E/DX2                !
 ! D116  D(43,15,16,45)         80.7264         estimate D2E/DX2                !
 ! D117  D(43,15,16,46)        -24.1987         estimate D2E/DX2                !
 ! D118  D(44,15,16,17)        -50.6136         estimate D2E/DX2                !
 ! D119  D(44,15,16,45)       -174.7121         estimate D2E/DX2                !
 ! D120  D(44,15,16,46)         80.3628         estimate D2E/DX2                !
 ! D121  D(15,16,17,18)        -26.8487         estimate D2E/DX2                !
 ! D122  D(15,16,17,47)       -150.8664         estimate D2E/DX2                !
 ! D123  D(15,16,17,48)         97.3503         estimate D2E/DX2                !
 ! D124  D(45,16,17,18)        103.6216         estimate D2E/DX2                !
 ! D125  D(45,16,17,47)        -20.3961         estimate D2E/DX2                !
 ! D126  D(45,16,17,48)       -132.1794         estimate D2E/DX2                !
 ! D127  D(46,16,17,18)       -156.8342         estimate D2E/DX2                !
 ! D128  D(46,16,17,47)         79.1481         estimate D2E/DX2                !
 ! D129  D(46,16,17,48)        -32.6352         estimate D2E/DX2                !
 ! D130  D(16,17,18,6)         -66.0514         estimate D2E/DX2                !
 ! D131  D(16,17,18,19)         68.251          estimate D2E/DX2                !
 ! D132  D(16,17,18,49)        177.9584         estimate D2E/DX2                !
 ! D133  D(47,17,18,6)          58.6755         estimate D2E/DX2                !
 ! D134  D(47,17,18,19)       -167.0221         estimate D2E/DX2                !
 ! D135  D(47,17,18,49)        -57.3148         estimate D2E/DX2                !
 ! D136  D(48,17,18,6)         171.6977         estimate D2E/DX2                !
 ! D137  D(48,17,18,19)        -53.9998         estimate D2E/DX2                !
 ! D138  D(48,17,18,49)         55.7075         estimate D2E/DX2                !
 ! D139  D(6,18,19,50)          61.9867         estimate D2E/DX2                !
 ! D140  D(6,18,19,51)         -55.9886         estimate D2E/DX2                !
 ! D141  D(6,18,19,52)         178.8035         estimate D2E/DX2                !
 ! D142  D(17,18,19,50)        -76.3669         estimate D2E/DX2                !
 ! D143  D(17,18,19,51)        165.6578         estimate D2E/DX2                !
 ! D144  D(17,18,19,52)         40.4499         estimate D2E/DX2                !
 ! D145  D(49,18,19,50)        174.3673         estimate D2E/DX2                !
 ! D146  D(49,18,19,51)         56.3921         estimate D2E/DX2                !
 ! D147  D(49,18,19,52)        -68.8159         estimate D2E/DX2                !
 --------------------------------------------------------------------------------
 Trust Radius=3.00D-01 FncErr=1.00D-07 GrdErr=1.00D-06 EigMax=2.50D+02 EigMin=1.00D-04
 Number of steps in this run=    310 maximum allowed number of steps=    312.
 GradGradGradGradGradGradGradGradGradGradGradGradGradGradGradGradGradGrad

 Stoichiometry    C16H33NO2
 Framework group  C1[X(C16H33NO2)]
 Deg. of freedom   150
 Full point group                 C1      NOp   1
 Largest Abelian subgroup         C1      NOp   1
 Largest concise Abelian subgroup C1      NOp   1
                         Standard orientation:                         
 ---------------------------------------------------------------------
 Center     Atomic      Atomic             Coordinates (Angstroms)
 Number     Number       Type             X           Y           Z
 ---------------------------------------------------------------------
      1          6           0        0.130388    4.466140   -0.245856
      2          6           0       -0.070382    2.988675   -0.048952
      3          6           0       -1.512413    2.546683   -0.556547
      4          6           0       -1.863286    1.071019   -0.501075
      5          6           0       -3.092396    0.209566   -0.684727
      6          6           0       -2.698294   -1.286319   -0.235035
      7          8           0       -2.061268   -2.031902   -1.305614
      8          6           0       -0.679289   -1.989921   -1.667099
      9          6           0       -0.060185   -0.644380   -1.913626
     10          6           0        0.817830   -0.024199   -0.648865
     11          6           0        2.186029   -0.700912   -0.843349
     12          7           0        3.202252   -0.175386    0.051103
     13          6           0        4.419678   -0.899362   -0.183270
     14          8           0        5.352849   -0.441247    0.754072
     15          6           0        0.505551    0.178226    1.078241
     16          6           0       -0.761712    0.683535    1.994084
     17          6           0       -1.881599   -0.374435    2.276857
     18          6           0       -2.138791   -1.565378    1.265474
     19          6           0       -0.956375   -2.526262    1.284002
     20          1           0        1.140800    4.753044    0.068923
     21          1           0       -0.601803    5.007503    0.348157
     22          1           0        0.024349    4.693265   -1.307959
     23          1           0        0.132773    2.777543    1.004294
     24          1           0        0.775500    2.582553   -0.595997
     25          1           0       -1.519326    2.779779   -1.625363
     26          1           0       -2.247761    3.114504   -0.012180
     27          1           0       -1.538948    0.534246    0.304163
     28          1           0       -1.134005    0.784583   -1.091606
     29          1           0       -3.396753    0.223170   -1.732309
     30          1           0       -3.890588    0.564199   -0.036690
     31          1           0       -3.689751   -1.777442   -0.214548
     32          1           0       -0.610402   -2.538856   -2.615799
     33          1           0       -0.041334   -2.586470   -1.024427
     34          1           0       -0.830437   -0.032900   -2.424986
     35          1           0        0.610481   -0.662279   -2.788904
     36          1           0        1.041044    0.965079   -1.028646
     37          1           0        2.516397   -0.508245   -1.876261
     38          1           0        2.066146   -1.780778   -0.727989
     39          1           0        2.929693   -0.365454    1.013645
     40          1           0        4.796718   -0.706102   -1.191795
     41          1           0        4.270030   -1.974777   -0.048044
     42          1           0        5.309074    0.525545    0.660765
     43          1           0        1.295687    0.871540    1.409296
     44          1           0        0.815128   -0.745757    1.564859
     45          1           0       -1.312309    1.573059    1.641991
     46          1           0       -0.409728    1.190746    2.905218
     47          1           0       -2.840874    0.154409    2.405888
     48          1           0       -1.651149   -0.782591    3.270127
     49          1           0       -2.944131   -2.137748    1.759969
     50          1           0       -0.143764   -2.090348    0.730933
     51          1           0       -1.181021   -3.481216    0.803950
     52          1           0       -0.556655   -2.706972    2.284415
 ---------------------------------------------------------------------
 Rotational constants (GHZ):           0.4011657           0.2628385           0.2096496
 Standard basis: 6-31G(2df,p) (6D, 7F)
 There are   754 symmetry adapted cartesian basis functions of A   symmetry.
 There are   697 symmetry adapted basis functions of A   symmetry.
   697 basis functions,  1067 primitive gaussians,   754 cartesian basis functions
    76 alpha electrons       76 beta electrons
       nuclear repulsion energy      1693.4024334251 Hartrees.
 NAtoms=   52 NActive=   52 NUniq=   52 SFac= 1.00D+00 NAtFMM=   60 NAOKFM=F Big=F
 Integral buffers will be    131072 words long.
 Raffenetti 2 integral format.
 Two-electron integral symmetry is turned on.
 One-electron integrals computed using PRISM.
 PrsmSu:  requested number of processors reduced to:  12 ShMem   1 Linda.
 NBasis=   697 RedAO= T EigKep=  3.35D-04  NBF=   697
 NBsUse=   697 1.00D-06 EigRej= -1.00D+00 NBFU=   697
 ExpMin= 1.61D-01 ExpMax= 5.48D+03 ExpMxC= 8.25D+02 IAcc=3 IRadAn=         5 AccDes= 0.00D+00
 Harris functional with IExCor=  402 and IRadAn=       5 diagonalized for initial guess.
 HarFok:  IExCor=  402 AccDes= 0.00D+00 IRadAn=         5 IDoV= 1 UseB2=F ITyADJ=14
 ICtDFT=  3500011 ScaDFX=  1.000000  1.000000  1.000000  1.000000
 FoFCou: FMM=F IPFlag=           0 FMFlag=      100000 FMFlg1=           0
         NFxFlg=           0 DoJE=T BraDBF=F KetDBF=T FulRan=T
         wScrn=  0.000000 ICntrl=       500 IOpCl=  0 I1Cent=   200000004 NGrid=           0
         NMat0=    1 NMatS0=      1 NMatT0=    0 NMatD0=    1 NMtDS0=    0 NMtDT0=    0
 Petite list used in FoFCou.
 Requested convergence on RMS density matrix=1.00D-08 within 128 cycles.
 Requested convergence on MAX density matrix=1.00D-06.
 Requested convergence on             energy=1.00D-06.
 No special actions if energy rises.
 Integral accuracy reduced to 1.0D-05 until final iterations.
 Initial convergence to 1.0D-05 achieved.  Increase integral accuracy.
 SCF Done:  E(RB3LYP) =  -834.569731028     A.U. after   12 cycles
            NFock= 12  Conv=0.54D-08     -V/T= 2.0077

 **********************************************************************

            Population analysis using the SCF density.

 **********************************************************************

 Orbital symmetries:
       Occupied  (A) (A) (A) (A) (A) (A) (A) (A) (A) (A) (A) (A)
                 (A) (A) (A) (A) (A) (A) (A) (A) (A) (A) (A) (A)
                 (A) (A) (A) (A) (A) (A) (A) (A) (A) (A) (A) (A)
                 (A) (A) (A) (A) (A) (A) (A) (A) (A) (A) (A) (A)
                 (A) (A) (A) (A) (A) (A) (A) (A) (A) (A) (A) (A)
                 (A) (A) (A) (A) (A) (A) (A) (A) (A) (A) (A) (A)
                 (A) (A) (A) (A)
       Virtual   (A) (A) (A) (A) (A) (A) (A) (A) (A) (A) (A) (A)
                 (A) (A) (A) (A) (A) (A) (A) (A) (A) (A) (A) (A)
                 (A) (A) (A) (A) (A) (A) (A) (A) (A) (A) (A) (A)
                 (A) (A) (A) (A) (A) (A) (A) (A) (A) (A) (A) (A)
                 (A) (A) (A) (A) (A) (A) (A) (A) (A) (A) (A) (A)
                 (A) (A) (A) (A) (A) (A) (A) (A) (A) (A) (A) (A)
                 (A) (A) (A) (A) (A) (A) (A) (A) (A) (A) (A) (A)
                 (A) (A) (A) (A) (A) (A) (A) (A) (A) (A) (A) (A)
                 (A) (A) (A) (A) (A) (A) (A) (A) (A) (A) (A) (A)
                 (A) (A) (A) (A) (A) (A) (A) (A) (A) (A) (A) (A)
                 (A) (A) (A) (A) (A) (A) (A) (A) (A) (A) (A) (A)
                 (A) (A) (A) (A) (A) (A) (A) (A) (A) (A) (A) (A)
                 (A) (A) (A) (A) (A) (A) (A) (A) (A) (A) (A) (A)
                 (A) (A) (A) (A) (A) (A) (A) (A) (A) (A) (A) (A)
                 (A) (A) (A) (A) (A) (A) (A) (A) (A) (A) (A) (A)
                 (A) (A) (A) (A) (A) (A) (A) (A) (A) (A) (A) (A)
                 (A) (A) (A) (A) (A) (A) (A) (A) (A) (A) (A) (A)
                 (A) (A) (A) (A) (A) (A) (A) (A) (A) (A) (A) (A)
                 (A) (A) (A) (A) (A) (A) (A) (A) (A) (A) (A) (A)
                 (A) (A) (A) (A) (A) (A) (A) (A) (A) (A) (A) (A)
                 (A) (A) (A) (A) (A) (A) (A) (A) (A) (A) (A) (A)
                 (A) (A) (A) (A) (A) (A) (A) (A) (A) (A) (A) (A)
                 (A) (A) (A) (A) (A) (A) (A) (A) (A) (A) (A) (A)
                 (A) (A) (A) (A) (A) (A) (A) (A) (A) (A) (A) (A)
                 (A) (A) (A) (A) (A) (A) (A) (A) (A) (A) (A) (A)
                 (A) (A) (A) (A) (A) (A) (A) (A) (A) (A) (A) (A)
                 (A) (A) (A) (A) (A) (A) (A) (A) (A) (A) (A) (A)
                 (A) (A) (A) (A) (A) (A) (A) (A) (A) (A) (A) (A)
                 (A) (A) (A) (A) (A) (A) (A) (A) (A) (A) (A) (A)
                 (A) (A) (A) (A) (A) (A) (A) (A) (A) (A) (A) (A)
                 (A) (A) (A) (A) (A) (A) (A) (A) (A) (A) (A) (A)
                 (A) (A) (A) (A) (A) (A) (A) (A) (A) (A) (A) (A)
                 (A) (A) (A) (A) (A) (A) (A) (A) (A) (A) (A) (A)
                 (A) (A) (A) (A) (A) (A) (A) (A) (A) (A) (A) (A)
                 (A) (A) (A) (A) (A) (A) (A) (A) (A) (A) (A) (A)
                 (A) (A) (A) (A) (A) (A) (A) (A) (A) (A) (A) (A)
                 (A) (A) (A) (A) (A) (A) (A) (A) (A) (A) (A) (A)
                 (A) (A) (A) (A) (A) (A) (A) (A) (A) (A) (A) (A)
                 (A) (A) (A) (A) (A) (A) (A) (A) (A) (A) (A) (A)
                 (A) (A) (A) (A) (A) (A) (A) (A) (A) (A) (A) (A)
                 (A) (A) (A) (A) (A) (A) (A) (A) (A) (A) (A) (A)
                 (A) (A) (A) (A) (A) (A) (A) (A) (A) (A) (A) (A)
                 (A) (A) (A) (A) (A) (A) (A) (A) (A) (A) (A) (A)
                 (A) (A) (A) (A) (A) (A) (A) (A) (A) (A) (A) (A)
                 (A) (A) (A) (A) (A) (A) (A) (A) (A) (A) (A) (A)
                 (A) (A) (A) (A) (A) (A) (A) (A) (A) (A) (A) (A)
                 (A) (A) (A) (A) (A) (A) (A) (A) (A) (A) (A) (A)
                 (A) (A) (A) (A) (A) (A) (A) (A) (A) (A) (A) (A)
                 (A) (A) (A) (A) (A) (A) (A) (A) (A) (A) (A) (A)
                 (A) (A) (A) (A) (A) (A) (A) (A) (A) (A) (A) (A)
                 (A) (A) (A) (A) (A) (A) (A) (A) (A) (A) (A) (A)
                 (A) (A) (A) (A) (A) (A) (A) (A) (A)
 The electronic state is 1-A.
 Alpha  occ. eigenvalues --  -19.13148 -19.13103 -14.31518 -10.24461 -10.23649
 Alpha  occ. eigenvalues --  -10.21946 -10.21010 -10.20765 -10.20593 -10.19687
 Alpha  occ. eigenvalues --  -10.18987 -10.18949 -10.18597 -10.17529 -10.17473
 Alpha  occ. eigenvalues --  -10.17165 -10.16446 -10.16384 -10.11685  -1.02863
 Alpha  occ. eigenvalues --   -1.00636  -0.90498  -0.81682  -0.79437  -0.78512
 Alpha  occ. eigenvalues --   -0.76077  -0.74202  -0.72887  -0.69421  -0.67795
 Alpha  occ. eigenvalues --   -0.65336  -0.63788  -0.61476  -0.61282  -0.58961
 Alpha  occ. eigenvalues --   -0.57859  -0.55604  -0.53468  -0.52363  -0.49196
 Alpha  occ. eigenvalues --   -0.47999  -0.47403  -0.46394  -0.45976  -0.44794
 Alpha  occ. eigenvalues --   -0.44591  -0.44139  -0.43369  -0.42698  -0.42266
 Alpha  occ. eigenvalues --   -0.41841  -0.40865  -0.39549  -0.39528  -0.38794
 Alpha  occ. eigenvalues --   -0.38496  -0.37042  -0.36260  -0.35929  -0.35498
 Alpha  occ. eigenvalues --   -0.35138  -0.34499  -0.33772  -0.33170  -0.32882
 Alpha  occ. eigenvalues --   -0.32543  -0.31629  -0.30920  -0.30103  -0.29437
 Alpha  occ. eigenvalues --   -0.28397  -0.27234  -0.26774  -0.26111  -0.24088
 Alpha  occ. eigenvalues --   -0.23733
 Alpha virt. eigenvalues --    0.05879   0.07014   0.07433   0.08495   0.08978
 Alpha virt. eigenvalues --    0.09150   0.09795   0.10540   0.11237   0.11833
 Alpha virt. eigenvalues --    0.12647   0.12841   0.13372   0.13569   0.14544
 Alpha virt. eigenvalues --    0.14867   0.14919   0.15177   0.16389   0.16702
 Alpha virt. eigenvalues --    0.16820   0.17242   0.17607   0.18274   0.18671
 Alpha virt. eigenvalues --    0.19011   0.19564   0.19814   0.20246   0.20514
 Alpha virt. eigenvalues --    0.21168   0.21737   0.22144   0.22639   0.23397
 Alpha virt. eigenvalues --    0.23980   0.24482   0.24863   0.25830   0.26382
 Alpha virt. eigenvalues --    0.26464   0.26779   0.27088   0.28558   0.28874
 Alpha virt. eigenvalues --    0.29349   0.30608   0.32114   0.32247   0.33905
 Alpha virt. eigenvalues --    0.35591   0.35988   0.42217   0.43110   0.44340
 Alpha virt. eigenvalues --    0.45298   0.45702   0.47670   0.48306   0.48796
 Alpha virt. eigenvalues --    0.49969   0.50418   0.50776   0.51061   0.51684
 Alpha virt. eigenvalues --    0.52165   0.52606   0.54189   0.54482   0.56142
 Alpha virt. eigenvalues --    0.56510   0.56966   0.57853   0.57966   0.58131
 Alpha virt. eigenvalues --    0.59276   0.60164   0.60248   0.61188   0.61381
 Alpha virt. eigenvalues --    0.61750   0.62298   0.63283   0.63658   0.64530
 Alpha virt. eigenvalues --    0.65394   0.66038   0.67564   0.67917   0.68404
 Alpha virt. eigenvalues --    0.69003   0.69227   0.69735   0.70751   0.71182
 Alpha virt. eigenvalues --    0.71805   0.71836   0.72843   0.73528   0.73979
 Alpha virt. eigenvalues --    0.74312   0.74644   0.75394   0.75811   0.76322
 Alpha virt. eigenvalues --    0.76620   0.77586   0.78110   0.78533   0.78925
 Alpha virt. eigenvalues --    0.79703   0.80290   0.80810   0.81098   0.81885
 Alpha virt. eigenvalues --    0.81950   0.82762   0.83275   0.83978   0.84476
 Alpha virt. eigenvalues --    0.85142   0.85437   0.85647   0.86063   0.86766
 Alpha virt. eigenvalues --    0.87487   0.87916   0.88175   0.88500   0.89889
 Alpha virt. eigenvalues --    0.90355   0.91031   0.91386   0.92062   0.92746
 Alpha virt. eigenvalues --    0.94302   0.95562   0.95907   0.96452   0.97262
 Alpha virt. eigenvalues --    0.98058   0.99297   0.99970   1.01172   1.02113
 Alpha virt. eigenvalues --    1.02551   1.03937   1.04207   1.06283   1.07554
 Alpha virt. eigenvalues --    1.08426   1.09481   1.10903   1.11635   1.12675
 Alpha virt. eigenvalues --    1.13576   1.15893   1.16599   1.17576   1.19846
 Alpha virt. eigenvalues --    1.20852   1.21381   1.22209   1.22907   1.23817
 Alpha virt. eigenvalues --    1.24145   1.25692   1.26274   1.27479   1.27821
 Alpha virt. eigenvalues --    1.28647   1.29364   1.31052   1.31312   1.32165
 Alpha virt. eigenvalues --    1.33487   1.35182   1.35920   1.36292   1.37530
 Alpha virt. eigenvalues --    1.38025   1.38317   1.39706   1.41181   1.41685
 Alpha virt. eigenvalues --    1.43077   1.44220   1.45234   1.45706   1.46550
 Alpha virt. eigenvalues --    1.47236   1.48362   1.49750   1.50062   1.50849
 Alpha virt. eigenvalues --    1.52496   1.52986   1.53012   1.53557   1.55145
 Alpha virt. eigenvalues --    1.55258   1.56361   1.57005   1.57730   1.58441
 Alpha virt. eigenvalues --    1.59308   1.59618   1.60576   1.61203   1.61777
 Alpha virt. eigenvalues --    1.62994   1.64164   1.64898   1.65476   1.66520
 Alpha virt. eigenvalues --    1.66902   1.68244   1.69464   1.70266   1.71044
 Alpha virt. eigenvalues --    1.72593   1.73222   1.74318   1.76011   1.77317
 Alpha virt. eigenvalues --    1.77546   1.78731   1.80104   1.81872   1.82489
 Alpha virt. eigenvalues --    1.83071   1.84283   1.85916   1.86683   1.88038
 Alpha virt. eigenvalues --    1.88256   1.89300   1.90937   1.91737   1.92759
 Alpha virt. eigenvalues --    1.93070   1.94623   1.95376   1.96865   1.98195
 Alpha virt. eigenvalues --    1.98896   2.00100   2.01608   2.03456   2.04383
 Alpha virt. eigenvalues --    2.04993   2.06860   2.07932   2.09286   2.11184
 Alpha virt. eigenvalues --    2.13378   2.15673   2.17759   2.20914   2.21601
 Alpha virt. eigenvalues --    2.22861   2.23458   2.25652   2.26352   2.26958
 Alpha virt. eigenvalues --    2.27781   2.28661   2.30172   2.30961   2.32718
 Alpha virt. eigenvalues --    2.32862   2.34164   2.34693   2.35398   2.36674
 Alpha virt. eigenvalues --    2.36944   2.38327   2.39731   2.40374   2.41000
 Alpha virt. eigenvalues --    2.43190   2.44541   2.45305   2.45741   2.46275
 Alpha virt. eigenvalues --    2.47380   2.48587   2.49006   2.50655   2.51877
 Alpha virt. eigenvalues --    2.52497   2.53860   2.54145   2.54686   2.56244
 Alpha virt. eigenvalues --    2.58691   2.60124   2.60523   2.62314   2.63670
 Alpha virt. eigenvalues --    2.64666   2.67328   2.68500   2.69124   2.69590
 Alpha virt. eigenvalues --    2.70429   2.71930   2.72811   2.73543   2.75097
 Alpha virt. eigenvalues --    2.75532   2.76334   2.77282   2.77902   2.78846
 Alpha virt. eigenvalues --    2.79548   2.79945   2.80831   2.81851   2.82854
 Alpha virt. eigenvalues --    2.83336   2.84088   2.84860   2.85102   2.86242
 Alpha virt. eigenvalues --    2.86474   2.87854   2.88488   2.89314   2.89496
 Alpha virt. eigenvalues --    2.90163   2.90775   2.91386   2.92227   2.92260
 Alpha virt. eigenvalues --    2.92786   2.93652   2.94221   2.94670   2.95436
 Alpha virt. eigenvalues --    2.95918   2.96157   2.97405   2.98101   2.98610
 Alpha virt. eigenvalues --    2.99106   2.99812   3.01164   3.02180   3.02901
 Alpha virt. eigenvalues --    3.03363   3.05858   3.06609   3.08191   3.09745
 Alpha virt. eigenvalues --    3.10454   3.11268   3.12581   3.13318   3.13784
 Alpha virt. eigenvalues --    3.15411   3.16768   3.18557   3.18701   3.19174
 Alpha virt. eigenvalues --    3.21418   3.23000   3.24050   3.24337   3.25832
 Alpha virt. eigenvalues --    3.27407   3.28151   3.29099   3.31173   3.31397
 Alpha virt. eigenvalues --    3.33246   3.34168   3.35538   3.35792   3.36207
 Alpha virt. eigenvalues --    3.38083   3.39389   3.39501   3.41133   3.41361
 Alpha virt. eigenvalues --    3.42730   3.43458   3.44690   3.45539   3.46996
 Alpha virt. eigenvalues --    3.47681   3.47910   3.48564   3.48811   3.49964
 Alpha virt. eigenvalues --    3.50298   3.52783   3.53480   3.54221   3.54753
 Alpha virt. eigenvalues --    3.55803   3.56973   3.58342   3.59529   3.60837
 Alpha virt. eigenvalues --    3.61052   3.61691   3.62889   3.63994   3.64300
 Alpha virt. eigenvalues --    3.64991   3.66904   3.67066   3.68274   3.69254
 Alpha virt. eigenvalues --    3.69622   3.70244   3.71862   3.73369   3.73857
 Alpha virt. eigenvalues --    3.75698   3.75979   3.76891   3.77687   3.79591
 Alpha virt. eigenvalues --    3.80047   3.80573   3.81654   3.83437   3.83813
 Alpha virt. eigenvalues --    3.85631   3.86622   3.86870   3.87943   3.89672
 Alpha virt. eigenvalues --    3.90855   3.92327   3.93551   3.94540   3.98794
 Alpha virt. eigenvalues --    3.99802   4.01336   4.02902   4.04112   4.05416
 Alpha virt. eigenvalues --    4.06585   4.09310   4.12149   4.12555   4.15106
 Alpha virt. eigenvalues --    4.15291   4.16051   4.18689   4.19484   4.21872
 Alpha virt. eigenvalues --    4.26162   4.27828   4.28892   4.32207   4.32666
 Alpha virt. eigenvalues --    4.33197   4.34245   4.36086   4.37623   4.38630
 Alpha virt. eigenvalues --    4.39969   4.40584   4.41723   4.42475   4.43585
 Alpha virt. eigenvalues --    4.44831   4.45017   4.45701   4.46744   4.47473
 Alpha virt. eigenvalues --    4.48656   4.49171   4.49797   4.50962   4.51904
 Alpha virt. eigenvalues --    4.52498   4.52995   4.54049   4.54348   4.55300
 Alpha virt. eigenvalues --    4.55768   4.56537   4.57375   4.58674   4.59039
 Alpha virt. eigenvalues --    4.60389   4.60818   4.61387   4.62017   4.62610
 Alpha virt. eigenvalues --    4.62791   4.63853   4.64533   4.64836   4.66480
 Alpha virt. eigenvalues --    4.66499   4.67002   4.68059   4.68956   4.69941
 Alpha virt. eigenvalues --    4.70544   4.70633   4.72045   4.72800   4.73220
 Alpha virt. eigenvalues --    4.73354   4.74409   4.75434   4.75866   4.77755
 Alpha virt. eigenvalues --    4.78807   4.79429   4.79511   4.79752   4.81231
 Alpha virt. eigenvalues --    4.81357   4.81698   4.82275   4.83656   4.84436
 Alpha virt. eigenvalues --    4.85150   4.85876   4.86375   4.87554   4.88198
 Alpha virt. eigenvalues --    4.88621   4.89374   4.90215   4.90798   4.91735
 Alpha virt. eigenvalues --    4.92755   4.93141   4.93970   4.94527   4.96104
 Alpha virt. eigenvalues --    4.97278   4.99589   5.01079   5.01511   5.02284
 Alpha virt. eigenvalues --    5.03959   5.05480   5.05882   5.06339   5.08208
 Alpha virt. eigenvalues --    5.08763   5.09999   5.10258   5.11688   5.12586
 Alpha virt. eigenvalues --    5.14537   5.15657   5.21165   5.21674   5.25967
 Alpha virt. eigenvalues --    5.27505   5.28610   5.29313   5.31699   5.33718
 Alpha virt. eigenvalues --    5.36856   5.37258   5.40201   5.41620   5.41917
 Alpha virt. eigenvalues --    5.44137   5.44404   5.45308   5.46518   5.46952
 Alpha virt. eigenvalues --    5.49990   5.52152   5.52888   5.55912   5.58515
 Alpha virt. eigenvalues --    5.60108   5.64035   5.64878   5.67945   5.73914
 Alpha virt. eigenvalues --    5.81075   5.92111   5.95448   5.96279   5.98634
 Alpha virt. eigenvalues --    6.04492   6.07708   6.10823   6.16949   6.19774
 Alpha virt. eigenvalues --    6.44601   6.47070   6.73705   6.95853   7.00937
 Alpha virt. eigenvalues --    7.34325  10.95813  11.34251  11.42913  11.46745
 Alpha virt. eigenvalues --   11.57891  11.77288  11.85666  12.00972  12.04970
 Alpha virt. eigenvalues --   12.13484  12.35004  12.53219  12.58026  12.71161
 Alpha virt. eigenvalues --   12.89555  12.97796  13.05676  13.10999  13.69214
 Alpha virt. eigenvalues --   14.88990
          Condensed to atoms (all electrons):
 Mulliken charges:
               1
     1  C   -0.370342
     2  C   -0.166070
     3  C   -0.279535
     4  C   -0.077031
     5  C   -0.307575
     6  C    0.106190
     7  O   -0.287011
     8  C   -0.046578
     9  C   -0.262111
    10  C   -0.044915
    11  C   -0.160949
    12  N   -0.311532
    13  C   -0.006177
    14  O   -0.424495
    15  C   -0.264386
    16  C   -0.234630
    17  C   -0.239832
    18  C   -0.021903
    19  C   -0.383541
    20  H    0.103404
    21  H    0.105395
    22  H    0.106703
    23  H    0.105748
    24  H    0.115366
    25  H    0.087067
    26  H    0.080979
    27  H    0.166357
    28  H    0.129771
    29  H    0.091682
    30  H    0.090650
    31  H    0.088571
    32  H    0.096617
    33  H    0.097454
    34  H    0.131598
    35  H    0.097188
    36  H    0.115630
    37  H    0.107986
    38  H    0.081961
    39  H    0.219127
    40  H    0.089321
    41  H    0.093381
    42  H    0.279715
    43  H    0.124399
    44  H    0.116739
    45  H    0.142895
    46  H    0.081813
    47  H    0.098981
    48  H    0.099493
    49  H    0.084883
    50  H    0.134812
    51  H    0.115948
    52  H    0.100787
 Sum of Mulliken charges =  -0.00000
 Mulliken charges with hydrogens summed into heavy atoms:
               1
     1  C   -0.054840
     2  C    0.055044
     3  C   -0.111488
     4  C    0.219098
     5  C   -0.125242
     6  C    0.194762
     7  O   -0.287011
     8  C    0.147494
     9  C   -0.033325
    10  C    0.070715
    11  C    0.028998
    12  N   -0.092405
    13  C    0.176525
    14  O   -0.144780
    15  C   -0.023248
    16  C   -0.009923
    17  C   -0.041358
    18  C    0.062980
    19  C   -0.031994
 Electronic spatial extent (au):  <R**2>=           6009.7862
 Charge=             -0.0000 electrons
 Dipole moment (field-independent basis, Debye):
    X=             -0.1929    Y=              0.6748    Z=              0.0758  Tot=              0.7059
 Quadrupole moment (field-independent basis, Debye-Ang):
   XX=           -134.0393   YY=           -126.0106   ZZ=           -118.7299
   XY=              1.3478   XZ=             -8.5366   YZ=             -0.1923
 Traceless Quadrupole moment (field-independent basis, Debye-Ang):
   XX=             -7.7793   YY=              0.2493   ZZ=              7.5300
   XY=              1.3478   XZ=             -8.5366   YZ=             -0.1923
 Octapole moment (field-independent basis, Debye-Ang**2):
  XXX=            -49.5941  YYY=            -23.4295  ZZZ=             -8.4839  XYY=             22.0854
  XXY=             30.2809  XXZ=            -15.1152  XZZ=             10.6437  YZZ=              1.2023
  YYZ=              7.8820  XYZ=             12.7380
 Hexadecapole moment (field-independent basis, Debye-Ang**3):
 XXXX=          -4471.9250 YYYY=          -2777.5809 ZZZZ=          -1214.0796 XXXY=            200.6123
 XXXZ=           -154.6724 YYYX=             -6.1163 YYYZ=             18.1677 ZZZX=             19.4619
 ZZZY=             10.2265 XXYY=          -1103.3456 XXZZ=           -899.5631 YYZZ=           -645.6363
 XXYZ=             26.8508 YYXZ=            -11.5578 ZZXY=             -3.6447
 N-N= 1.693402433425D+03 E-N=-5.325322558424D+03  KE= 8.282176391322D+02
 PrsmSu:  requested number of processors reduced to:  12 ShMem   1 Linda.
 Calling FoFJK, ICntrl=      2127 FMM=F ISym2X=0 I1Cent= 0 IOpClX= 0 NMat=1 NMatS=1 NMatT=0.
 ***** Axes restored to original set *****
 -------------------------------------------------------------------
 Center     Atomic                   Forces (Hartrees/Bohr)
 Number     Number              X              Y              Z
 -------------------------------------------------------------------
      1        6          -0.007641721   -0.002639773    0.000990377
      2        6          -0.000608581   -0.007295782   -0.003378070
      3        6          -0.001375053   -0.000603506    0.010270637
      4        6          -0.011243421   -0.037087368    0.008040493
      5        6          -0.001006417    0.013216462    0.000813639
      6        6          -0.002483807   -0.017704780   -0.013012415
      7        8          -0.001558645   -0.000720817    0.009953810
      8        6           0.007329747    0.006446166   -0.017310005
      9        6          -0.011058652    0.001045699    0.010469791
     10        6          -0.009986814   -0.002266987   -0.011327791
     11        6          -0.001979651   -0.016197048    0.005854848
     12        7           0.000942551   -0.003582764   -0.010218414
     13        6          -0.007346636    0.004298501    0.015370265
     14        8          -0.002689941    0.006919709    0.009220347
     15        6          -0.008661733    0.002027008    0.004792615
     16        6          -0.011005061   -0.002683394   -0.017094858
     17        6          -0.003759796    0.001159611   -0.000663830
     18        6          -0.002049384   -0.007341505    0.008438942
     19        6           0.002623723    0.009893344   -0.004634982
     20        1          -0.002304533   -0.002161238   -0.000425780
     21        1          -0.010211871   -0.002319404   -0.000525676
     22        1          -0.007850153   -0.002382138   -0.000434144
     23        1           0.002732192   -0.004008118   -0.005118155
     24        1           0.012083465   -0.002687857   -0.007555058
     25        1          -0.011542752   -0.008076152   -0.000580053
     26        1          -0.017020746   -0.009279113    0.001161933
     27        1          -0.001145010   -0.000297206    0.040678723
     28        1           0.018008433    0.065517321   -0.044746387
     29        1           0.009408707   -0.009774081   -0.006112603
     30        1           0.002297679   -0.007617690   -0.003316903
     31        1          -0.000588806    0.008347436    0.000596726
     32        1           0.000889375   -0.009312276   -0.005655943
     33        1           0.003618213   -0.003757889    0.006847308
     34        1           0.002683087   -0.001926078    0.017821722
     35        1           0.012893775    0.007959082    0.013773454
     36        1          -0.004407581   -0.009275848    0.006395396
     37        1           0.002915104   -0.002594779    0.002668460
     38        1           0.009630979    0.004039344   -0.001897103
     39        1          -0.001499516    0.002893579   -0.000819938
     40        1           0.000725013   -0.001563972   -0.009546672
     41        1           0.005831774    0.006851500    0.003055105
     42        1           0.007393263    0.002185005    0.003084043
     43        1          -0.002855650    0.003643930   -0.013272404
     44        1           0.003212018    0.001081783   -0.004078848
     45        1           0.008959210    0.016942352   -0.002343506
     46        1           0.022458509    0.012612911    0.009450705
     47        1          -0.000722966    0.004276813    0.001639847
     48        1           0.008640365   -0.000778798   -0.006790488
     49        1          -0.007756888   -0.000263233   -0.002996437
     50        1           0.003146165    0.005666564    0.000991736
     51        1           0.001632086   -0.003322289    0.000593202
     52        1           0.002306348   -0.007502235    0.000882341
 -------------------------------------------------------------------
 Cartesian Forces:  Max     0.065517321 RMS     0.010721087

 GradGradGradGradGradGradGradGradGradGradGradGradGradGradGradGradGradGrad
 Berny optimization.
 FormGI is forming the generalized inverse of G from B-inverse, IUseBI=4.
 Internal  Forces:  Max     0.215084948 RMS     0.022937839
 Search for a local minimum.
 Step number   1 out of a maximum of  310
 All quantities printed in internal units (Hartrees-Bohrs-Radians)
 Mixed Optimization -- RFO/linear search
 Second derivative matrix not updated -- first step.
 ITU=  0
     Eigenvalues ---    0.00230   0.00230   0.00230   0.00252   0.00253
     Eigenvalues ---    0.00452   0.00510   0.00530   0.00605   0.00655
     Eigenvalues ---    0.00713   0.00849   0.01001   0.01200   0.01220
     Eigenvalues ---    0.01630   0.01668   0.01695   0.01742   0.02277
     Eigenvalues ---    0.02417   0.02803   0.03222   0.03240   0.03388
     Eigenvalues ---    0.03671   0.03747   0.04046   0.04142   0.04168
     Eigenvalues ---    0.04252   0.04264   0.04358   0.04454   0.04474
     Eigenvalues ---    0.04560   0.04798   0.04949   0.05084   0.05144
     Eigenvalues ---    0.05322   0.05536   0.05541   0.05774   0.05919
     Eigenvalues ---    0.06021   0.06055   0.06117   0.06376   0.06619
     Eigenvalues ---    0.07033   0.07346   0.07629   0.07931   0.08399
     Eigenvalues ---    0.08893   0.08983   0.09396   0.09496   0.09586
     Eigenvalues ---    0.09648   0.10225   0.11342   0.11418   0.11587
     Eigenvalues ---    0.11935   0.12224   0.12361   0.12705   0.12705
     Eigenvalues ---    0.12868   0.13253   0.13709   0.13788   0.14532
     Eigenvalues ---    0.14711   0.15002   0.15429   0.16000   0.16000
     Eigenvalues ---    0.16000   0.16000   0.16000   0.16000   0.16000
     Eigenvalues ---    0.17849   0.19539   0.19671   0.19994   0.21049
     Eigenvalues ---    0.21191   0.21333   0.21574   0.21681   0.21760
     Eigenvalues ---    0.21969   0.21991   0.22031   0.22063   0.22264
     Eigenvalues ---    0.22371   0.23055   0.23651   0.24413   0.24838
     Eigenvalues ---    0.26189   0.28631   0.30010   0.30578   0.31137
     Eigenvalues ---    0.31849   0.31962   0.32764   0.32961   0.33151
     Eigenvalues ---    0.33265   0.33356   0.33372   0.33452   0.33523
     Eigenvalues ---    0.33616   0.33870   0.33879   0.34071   0.34336
     Eigenvalues ---    0.34359   0.34365   0.34441   0.34513   0.34541
     Eigenvalues ---    0.34562   0.34665   0.34699   0.34904   0.35094
     Eigenvalues ---    0.35137   0.35262   0.35470   0.35643   0.36384
     Eigenvalues ---    0.36570   0.37445   0.37956   0.40183   0.40658
     Eigenvalues ---    0.44234   0.44613   0.45663   0.51165   0.52916
 RFO step:  Lambda=-3.19123989D-01 EMin= 2.30000000D-03
 Linear search not attempted -- first point.
 Maximum step size (   0.300) exceeded in Quadratic search.
    -- Step size scaled by   0.450
 Iteration  1 RMS(Cart)=  0.30575709 RMS(Int)=  0.01106230
 Iteration  2 RMS(Cart)=  0.24488547 RMS(Int)=  0.00393747
 Iteration  3 RMS(Cart)=  0.01094348 RMS(Int)=  0.00043087
 Iteration  4 RMS(Cart)=  0.00001483 RMS(Int)=  0.00043081
 Iteration  5 RMS(Cart)=  0.00000000 RMS(Int)=  0.00043081
 Variable       Old X    -DE/DX   Delta X   Delta X   Delta X     New X
                                 (Linear)    (Quad)   (Total)
    R1        2.84213   0.02731   0.00000   0.01925   0.01925   2.86138
    R2        2.07210  -0.00124   0.00000  -0.00084  -0.00084   2.07126
    R3        2.05453   0.00549   0.00000   0.00369   0.00369   2.05822
    R4        2.06222   0.00277   0.00000   0.00187   0.00187   2.06409
    R5        3.00726  -0.02368   0.00000  -0.01893  -0.01893   2.98832
    R6        2.06593  -0.00304   0.00000  -0.00206  -0.00206   2.06386
    R7        2.05251   0.00186   0.00000   0.00125   0.00125   2.05376
    R8        2.86826   0.03679   0.00000   0.02651   0.02651   2.89477
    R9        2.06729   0.00229   0.00000   0.00155   0.00155   2.06884
   R10        2.03485   0.01510   0.00000   0.00996   0.00996   2.04481
   R11        2.85751   0.01274   0.00000   0.00910   0.00910   2.86661
   R12        1.92875   0.03018   0.00000   0.01785   0.01785   1.94660
   R13        1.85407   0.07775   0.00000   0.04214   0.04214   1.89622
   R14        3.04428   0.03222   0.00000   0.02640   0.02640   3.07068
   R15        2.06166   0.00332   0.00000   0.00224   0.00224   2.06390
   R16        2.05523   0.00574   0.00000   0.00385   0.00385   2.05908
   R17        2.74358  -0.00074   0.00000  -0.00060  -0.00018   2.74339
   R18        3.07186   0.01314   0.00000   0.01101   0.01156   3.08343
   R19        2.09121  -0.00702   0.00000  -0.00487  -0.00487   2.08634
   R20        2.70059   0.00414   0.00000   0.00322   0.00325   2.70383
   R21        2.83745   0.00498   0.00000   0.00475   0.00469   2.84214
   R22        2.07535   0.00091   0.00000   0.00062   0.00062   2.07597
   R23        2.04919   0.00549   0.00000   0.00367   0.00367   2.05286
   R24        3.13669  -0.01897   0.00000  -0.01559  -0.01614   3.12055
   R25        2.09469  -0.01138   0.00000  -0.00792  -0.00792   2.08676
   R26        2.08404  -0.00194   0.00000  -0.00134  -0.00134   2.08270
   R27        2.90780   0.01082   0.00000   0.00805   0.00805   2.91585
   R28        3.33867  -0.03494   0.00000  -0.03360  -0.03415   3.30451
   R29        2.04643   0.00167   0.00000   0.00112   0.00112   2.04755
   R30        2.74429   0.01472   0.00000   0.00949   0.00949   2.75378
   R31        2.08142  -0.00452   0.00000  -0.00311  -0.00311   2.07831
   R32        2.06473   0.00967   0.00000   0.00656   0.00656   2.07129
   R33        2.71306   0.02074   0.00000   0.01295   0.01295   2.72601
   R34        1.92428  -0.00283   0.00000  -0.00166  -0.00166   1.92261
   R35        2.64514   0.01315   0.00000   0.00763   0.00763   2.65277
   R36        2.06718   0.00518   0.00000   0.00352   0.00352   2.07070
   R37        2.06767   0.00514   0.00000   0.00349   0.00349   2.07117
   R38        1.83733  -0.00746   0.00000  -0.00396  -0.00396   1.83337
   R39        3.10517  -0.01228   0.00000  -0.01081  -0.01108   3.09409
   R40        2.08264  -0.00518   0.00000  -0.00357  -0.00357   2.07907
   R41        2.05831   0.00152   0.00000   0.00103   0.00103   2.05934
   R42        2.95995   0.00533   0.00000   0.00275   0.00281   2.96276
   R43        2.08588  -0.01390   0.00000  -0.00960  -0.00960   2.07628
   R44        2.07983   0.00097   0.00000   0.00067   0.00067   2.08050
   R45        2.99233  -0.01228   0.00000  -0.01065  -0.01017   2.98216
   R46        2.08430  -0.00382   0.00000  -0.00264  -0.00264   2.08167
   R47        2.07550  -0.00116   0.00000  -0.00079  -0.00079   2.07471
   R48        2.87943   0.00888   0.00000   0.00646   0.00646   2.88589
   R49        2.08788  -0.00480   0.00000  -0.00332  -0.00332   2.08455
   R50        2.03200   0.00298   0.00000   0.00196   0.00196   2.03396
   R51        2.06392   0.00066   0.00000   0.00044   0.00044   2.06436
   R52        2.06427   0.00147   0.00000   0.00100   0.00100   2.06527
    A1        1.92033   0.00099   0.00000   0.00098   0.00098   1.92131
    A2        1.90469   0.01017   0.00000   0.00951   0.00949   1.91418
    A3        1.89537   0.00798   0.00000   0.00749   0.00747   1.90284
    A4        1.91075  -0.00562   0.00000  -0.00528  -0.00529   1.90546
    A5        1.89071  -0.00387   0.00000  -0.00354  -0.00354   1.88716
    A6        1.94194  -0.00962   0.00000  -0.00915  -0.00919   1.93276
    A7        1.93056  -0.00669   0.00000  -0.00540  -0.00539   1.92517
    A8        1.86611   0.00391   0.00000   0.00376   0.00374   1.86986
    A9        1.76952   0.01219   0.00000   0.01272   0.01271   1.78223
   A10        2.00650  -0.00098   0.00000  -0.00206  -0.00206   2.00444
   A11        2.02774  -0.00725   0.00000  -0.00813  -0.00811   2.01962
   A12        1.84242   0.00128   0.00000   0.00178   0.00172   1.84414
   A13        2.05765   0.03497   0.00000   0.02993   0.02992   2.08757
   A14        1.83194  -0.00879   0.00000  -0.00727  -0.00740   1.82454
   A15        1.88715  -0.01603   0.00000  -0.01441  -0.01449   1.87266
   A16        1.81461  -0.00366   0.00000  -0.00124  -0.00124   1.81337
   A17        1.91382  -0.00493   0.00000  -0.00263  -0.00256   1.91126
   A18        1.95762  -0.00145   0.00000  -0.00462  -0.00473   1.95289
   A19        2.39991  -0.11579   0.00000  -0.09829  -0.09839   2.30152
   A20        2.05633   0.01588   0.00000   0.01060   0.01088   2.06721
   A21        1.66093   0.05321   0.00000   0.04621   0.04592   1.70685
   A22        1.62533   0.06775   0.00000   0.05887   0.05856   1.68390
   A23        1.94417   0.01758   0.00000   0.01200   0.01215   1.95632
   A24        1.65601  -0.01009   0.00000  -0.00319  -0.00380   1.65222
   A25        1.87156   0.21508   0.00000   0.18292   0.18395   2.05551
   A26        1.91376  -0.05313   0.00000  -0.03997  -0.03945   1.87431
   A27        1.91603  -0.05662   0.00000  -0.04525  -0.04456   1.87148
   A28        1.92609  -0.06682   0.00000  -0.05553  -0.05640   1.86969
   A29        1.89230  -0.06316   0.00000  -0.05244  -0.05262   1.83968
   A30        1.94264   0.03103   0.00000   0.01606   0.01246   1.95510
   A31        1.95882   0.00308   0.00000   0.00967   0.00889   1.96771
   A32        2.09587   0.08943   0.00000   0.08030   0.08032   2.17619
   A33        1.77021  -0.05571   0.00000  -0.05796  -0.05682   1.71338
   A34        2.02805  -0.06260   0.00000  -0.05358  -0.05413   1.97392
   A35        1.75061   0.01253   0.00000   0.00671   0.00592   1.75653
   A36        1.78759  -0.00431   0.00000  -0.00597  -0.00517   1.78241
   A37        2.20899   0.02720   0.00000   0.02436   0.02620   2.23519
   A38        2.05622   0.03156   0.00000   0.03180   0.03166   2.08788
   A39        1.83846  -0.01743   0.00000  -0.01542  -0.01574   1.82273
   A40        1.98542  -0.01256   0.00000  -0.01495  -0.01481   1.97061
   A41        1.85482   0.01380   0.00000   0.01199   0.01170   1.86652
   A42        1.92593  -0.02158   0.00000  -0.01943  -0.01901   1.90692
   A43        1.77225   0.00516   0.00000   0.00486   0.00486   1.77711
   A44        2.01288  -0.01104   0.00000  -0.00326  -0.00340   2.00947
   A45        1.85831   0.00733   0.00000   0.00563   0.00562   1.86394
   A46        1.94605   0.00395   0.00000  -0.00066  -0.00059   1.94546
   A47        2.10944  -0.00153   0.00000  -0.00542  -0.00536   2.10408
   A48        1.86411  -0.00177   0.00000  -0.00409  -0.00407   1.86004
   A49        1.63624   0.00698   0.00000   0.01004   0.01002   1.64626
   A50        1.78208   0.01473   0.00000   0.01113   0.01127   1.79335
   A51        2.33808  -0.00854   0.00000  -0.00714  -0.00756   2.33052
   A52        1.75497   0.00368   0.00000   0.00470   0.00477   1.75973
   A53        1.90827  -0.01257   0.00000  -0.01063  -0.01051   1.89776
   A54        1.74584   0.00473   0.00000   0.00645   0.00633   1.75217
   A55        1.84897   0.00251   0.00000   0.00036   0.00054   1.84951
   A56        1.96624   0.00872   0.00000   0.00753   0.00753   1.97377
   A57        1.88420  -0.00356   0.00000  -0.00331  -0.00330   1.88090
   A58        1.90049   0.00122   0.00000   0.00205   0.00205   1.90253
   A59        1.88011  -0.00285   0.00000  -0.00273  -0.00273   1.87738
   A60        1.94917  -0.00353   0.00000  -0.00280  -0.00282   1.94635
   A61        1.88053  -0.00046   0.00000  -0.00123  -0.00123   1.87930
   A62        1.88637   0.02372   0.00000   0.01944   0.01943   1.90580
   A63        1.90430  -0.00399   0.00000  -0.00238  -0.00238   1.90192
   A64        1.86206  -0.00655   0.00000  -0.00492  -0.00494   1.85712
   A65        1.86603   0.01797   0.00000   0.01536   0.01535   1.88138
   A66        1.93231  -0.01052   0.00000  -0.00951  -0.00952   1.92279
   A67        1.93850   0.00424   0.00000   0.00475   0.00476   1.94327
   A68        1.90687   0.00222   0.00000   0.00342   0.00344   1.91031
   A69        1.90720  -0.01242   0.00000  -0.01139  -0.01142   1.89578
   A70        1.91211  -0.00124   0.00000  -0.00237  -0.00237   1.90973
   A71        1.80406   0.00672   0.00000   0.00631   0.00631   1.81038
   A72        2.36943   0.02891   0.00000   0.01931   0.01949   2.38892
   A73        1.81214  -0.01494   0.00000  -0.01227  -0.01236   1.79977
   A74        1.86430  -0.01476   0.00000  -0.01191  -0.01198   1.85232
   A75        1.76404   0.00019   0.00000   0.00319   0.00317   1.76721
   A76        1.80396  -0.00849   0.00000  -0.00488  -0.00489   1.79908
   A77        1.76776   0.00615   0.00000   0.00531   0.00526   1.77301
   A78        2.03120  -0.00448   0.00000  -0.00425  -0.00424   2.02697
   A79        2.04287   0.00275   0.00000   0.00224   0.00247   2.04534
   A80        1.93530  -0.01262   0.00000  -0.01382  -0.01411   1.92118
   A81        1.81859   0.00751   0.00000   0.00926   0.00917   1.82776
   A82        1.97195   0.00195   0.00000  -0.00011  -0.00023   1.97172
   A83        1.62303   0.00883   0.00000   0.01100   0.01103   1.63406
   A84        2.10462  -0.01429   0.00000  -0.01292  -0.01165   2.09297
   A85        1.89557   0.01935   0.00000   0.01987   0.01976   1.91532
   A86        1.83823  -0.00515   0.00000  -0.00644  -0.00720   1.83103
   A87        1.86928  -0.00025   0.00000   0.00174   0.00114   1.87042
   A88        1.90944   0.00281   0.00000  -0.00072  -0.00099   1.90845
   A89        1.82851  -0.00085   0.00000   0.00001   0.00023   1.82874
   A90        2.11340   0.03668   0.00000   0.03758   0.03795   2.15135
   A91        1.96771   0.00700   0.00000   0.00361   0.00382   1.97154
   A92        1.82470  -0.02378   0.00000  -0.02421  -0.02459   1.80011
   A93        1.91823  -0.03589   0.00000  -0.03157  -0.03175   1.88648
   A94        1.79482   0.00763   0.00000   0.00780   0.00770   1.80252
   A95        1.80648   0.00531   0.00000   0.00310   0.00321   1.80968
   A96        1.90132   0.01153   0.00000   0.01147   0.01148   1.91280
   A97        1.96755  -0.00328   0.00000  -0.00340  -0.00343   1.96412
   A98        1.98167  -0.00915   0.00000  -0.00893  -0.00894   1.97273
   A99        1.85858  -0.00161   0.00000  -0.00091  -0.00090   1.85767
   A100       1.83546   0.00099   0.00000   0.00150   0.00153   1.83699
   A101       1.91045   0.00245   0.00000   0.00129   0.00124   1.91169
    D1       -3.10160   0.00035   0.00000   0.00011   0.00012  -3.10148
    D2        0.98500   0.00322   0.00000   0.00361   0.00363   0.98862
    D3       -0.94053  -0.00432   0.00000  -0.00465  -0.00467  -0.94520
    D4        1.08478   0.00031   0.00000   0.00006   0.00008   1.08485
    D5       -1.11182   0.00318   0.00000   0.00356   0.00359  -1.10823
    D6       -3.03734  -0.00436   0.00000  -0.00470  -0.00471  -3.04205
    D7       -1.03492   0.00098   0.00000   0.00087   0.00086  -1.03406
    D8        3.05167   0.00386   0.00000   0.00437   0.00438   3.05605
    D9        1.12615  -0.00369   0.00000  -0.00389  -0.00392   1.12223
   D10        3.08751   0.00323   0.00000   0.00390   0.00392   3.09143
   D11        1.07864  -0.00493   0.00000  -0.00565  -0.00560   1.07305
   D12       -1.01386   0.00938   0.00000   0.01074   0.01067  -1.00319
   D13       -1.08025   0.00251   0.00000   0.00320   0.00322  -1.07703
   D14       -3.08912  -0.00565   0.00000  -0.00635  -0.00630  -3.09542
   D15        1.10157   0.00867   0.00000   0.01004   0.00997   1.11153
   D16        1.08332  -0.00302   0.00000  -0.00338  -0.00336   1.07996
   D17       -0.92555  -0.01118   0.00000  -0.01293  -0.01288  -0.93842
   D18       -3.01805   0.00314   0.00000   0.00346   0.00339  -3.01466
   D19        2.97289  -0.00220   0.00000  -0.00157  -0.00116   2.97173
   D20        0.67168   0.01023   0.00000   0.01152   0.01137   0.68305
   D21       -1.04394  -0.00997   0.00000  -0.01187  -0.01212  -1.05605
   D22       -1.29200   0.00276   0.00000   0.00434   0.00478  -1.28722
   D23        2.68997   0.01520   0.00000   0.01743   0.01731   2.70728
   D24        0.97436  -0.00501   0.00000  -0.00596  -0.00617   0.96818
   D25        0.80428  -0.00342   0.00000  -0.00306  -0.00269   0.80160
   D26       -1.49693   0.00902   0.00000   0.01003   0.00984  -1.48708
   D27        3.07064  -0.01119   0.00000  -0.01336  -0.01364   3.05700
   D28       -2.99194  -0.00093   0.00000   0.00058   0.00127  -2.99067
   D29        1.19975  -0.01757   0.00000  -0.01806  -0.01748   1.18227
   D30       -0.93960   0.01552   0.00000   0.01765   0.01770  -0.92191
   D31       -0.57088  -0.00660   0.00000  -0.00763  -0.00776  -0.57864
   D32       -2.66238  -0.02323   0.00000  -0.02626  -0.02651  -2.68889
   D33        1.48145   0.00985   0.00000   0.00945   0.00867   1.49012
   D34        1.11309   0.01139   0.00000   0.01370   0.01391   1.12700
   D35       -0.97841  -0.00524   0.00000  -0.00493  -0.00484  -0.98325
   D36       -3.11776   0.02785   0.00000   0.03078   0.03034  -3.08742
   D37       -1.47267  -0.01259   0.00000  -0.01922  -0.02021  -1.49288
   D38        1.00567   0.00370   0.00000   0.01030   0.01198   1.01765
   D39        2.95621  -0.00076   0.00000  -0.00190  -0.00227   2.95394
   D40        0.61093   0.01469   0.00000   0.01101   0.00883   0.61976
   D41        3.08926   0.03098   0.00000   0.04053   0.04102   3.13029
   D42       -1.24338   0.02652   0.00000   0.02833   0.02677  -1.21661
   D43        2.74275  -0.02968   0.00000  -0.03787  -0.03799   2.70476
   D44       -1.06210  -0.01339   0.00000  -0.00836  -0.00580  -1.06790
   D45        0.88844  -0.01785   0.00000  -0.02055  -0.02005   0.86839
   D46        1.45389   0.08420   0.00000   0.09937   0.09802   1.55191
   D47       -1.05200   0.00786   0.00000   0.01772   0.01789  -1.03411
   D48       -2.96238   0.02852   0.00000   0.04044   0.03968  -2.92271
   D49       -0.06983  -0.05315   0.00000  -0.06712  -0.06623  -0.13606
   D50       -2.39365  -0.04493   0.00000  -0.06285  -0.06255  -2.45619
   D51        1.93936  -0.04109   0.00000  -0.05466  -0.05441   1.88495
   D52        2.38354  -0.00965   0.00000  -0.01112  -0.01100   2.37254
   D53        0.05972  -0.00143   0.00000  -0.00685  -0.00731   0.05241
   D54       -1.89046   0.00242   0.00000   0.00134   0.00082  -1.88964
   D55       -2.01105  -0.02202   0.00000  -0.02781  -0.02729  -2.03834
[...]
 05033,-0.00006168,0.00003343,-0.00001342,0.00000286,0.00004615,0.00002
 205,0.00000703,0.00000406,-0.00000387,-0.00000329,0.00000382,0.0003415
 5,0.00027291,-0.00007855,0.00095639,0.00002468,-0.00409783,-0.00098026
 ,-0.02833196,-0.00175528,0.00387736,0.02237260,-0.04788795,0.00007974,
 -0.00104613,0.00082092,0.00000752,0.00000135,-0.00000118,-0.00000153,0
 .00000017,0.00000317,-0.00000192,0.00000046,0.00000068,0.00000616,0.00
 000240,-0.00000754,0.00000887,0.00000078,-0.00000750,0.00001566,0.0000
 0987,-0.00000558,-0.00002170,-0.00002965,-0.00000814,-0.00011106,0.000
 02717,0.00007752,0.00021360,-0.00001255,-0.00007876,0.00035549,-0.0001
 7283,0.00023274,-0.00021515,-0.00043304,-0.00082698,0.00021514,-0.0006
 7186,-0.00137487,0.00021127,0.00021769,-0.00020853,0.00012162,-0.00001
 328,0.00004952,0.00000090,-0.00002796,-0.00000269,-0.00000208,0.000082
 79,0.00008146,0.00001606,0.00004040,0.00004350,-0.00002912,-0.00004164
 ,0.00001490,-0.00003480,0.00000888,0.00001354,0.00003998,0.00001121,0.
 00000005,-0.00000366,-0.00000526,0.00000146,-0.00000801,-0.00000006,0.
 00000143,0.00000294,0.00000604,-0.00000132,-0.00003716,-0.00002134,0.0
 0003071,-0.00003180,0.00007584,0.00003461,0.00015332,0.00003636,-0.000
 06561,0.00055029,-0.00134345,-0.00022188,-0.00008627,-0.00043540,0.001
 30742,-0.00060825,0.00051138,0.00040130,-0.00565214,-0.02242557,0.0600
 3940,-0.00000268,0.00000624,0.00000810,0.00001995,-0.00001207,-0.00000
 772,0.00003987,0.00006848,-0.00005343,0.00006744,-0.00004000,0.0001770
 4,0.00023490,-0.00011095,-0.00005859,0.00177395,-0.00100380,0.00177745
 ,0.00004058,0.00116702,-0.00020098,-0.00114922,-0.00024151,0.00004007,
 0.00002082,0.00009447,-0.00004553,0.00027922,0.00008270,-0.00026070,0.
 00010815,0.00009747,0.00003060,-0.00012588,-0.00012911,-0.00001600,0.0
 0013315,0.00010989,0.00002267,-0.00005826,-0.00005522,-0.00005896,-0.0
 0119341,0.00049846,0.00049298,-0.00027572,-0.00017796,0.00030409,0.001
 13497,0.00004677,-0.00023172,-0.01071117,-0.03164501,0.00550841,-0.082
 46051,-0.08807761,0.01927749,-0.00001053,-0.00000420,0.00000133,0.0000
 0167,0.00000075,-0.00000029,-0.00000083,-0.00000077,-0.00000535,0.0000
 0431,0.00000370,-0.00000542,-0.00000732,0.00000652,0.00000107,-0.00003
 568,-0.00001881,-0.00002556,0.00000375,0.00000569,0.00001198,0.0001239
 8,0.00004447,-0.00014309,-0.00007631,0.00002724,-0.00003457,-0.0000866
 8,0.00006203,-0.00011421,-0.00001083,0.00016716,0.00008859,0.00036068,
 0.00020543,-0.00061080,0.00028977,-0.00003564,0.00006049,0.00037481,0.
 00031930,-0.00035761,0.00005880,-0.00007151,-0.00001755,0.00002176,-0.
 00001264,0.00004900,0.00006118,-0.00021129,0.00010127,-0.00000770,-0.0
 0003921,0.00000354,0.00000334,0.00001367,-0.00002138,0.00006950,0.0000
 2161,0.00000728,-0.00001257,-0.00000385,0.00000443,-0.00003965,-0.0000
 0995,0.00000940,0.00001124,0.00002904,0.00001830,0.00028916,-0.0001996
 8,-0.00021076,0.00039836,0.00153843,0.00046586,0.00005867,0.00004588,-
 0.00002281,0.00009911,0.00021824,-0.00003419,0.00004117,0.00031371,0.0
 0003801,-0.00008681,0.00021112,0.00023330,-0.00730932,-0.00010970,-0.0
 0019476,0.09020026,0.00000144,0.00000176,0.00000334,0.00001213,-0.0000
 0373,0.00000408,0.00002721,-0.00000678,-0.00001525,0.00007982,0.000043
 68,0.00010704,0.00012214,-0.00000283,-0.00027665,-0.00021916,0.0000260
 6,0.00070209,0.00001143,0.00100024,-0.00052802,-0.00092549,-0.00072130
 ,0.00021149,0.00012071,-0.00001511,-0.00005370,0.00032968,-0.00008259,
 -0.00020062,-0.00000359,0.00005191,-0.00001602,-0.00000940,-0.00003707
 ,-0.00002308,0.00000314,0.00004749,0.00003794,-0.00000702,-0.00003102,
 -0.00003325,0.00006130,-0.00153190,0.00011514,-0.00010643,0.00022132,0
 .00018324,-0.00058863,-0.00003306,-0.00022302,0.00026661,0.00097804,-0
 .00046948,-0.08888224,-0.26169960,0.04904017,-0.00000633,-0.00000181,0
 .00000156,0.00000107,0.00000113,0.00000008,-0.00000115,0.00000003,-0.0
 0000503,0.00000067,0.00000199,-0.00000550,-0.00000428,0.00000396,0.000
 00166,-0.00000886,-0.00000218,-0.00001046,-0.00000034,0.00000647,0.000
 00340,0.00001443,0.00002220,-0.00002058,-0.00002456,0.00000552,0.00000
 094,-0.00007596,-0.00001846,-0.00006372,0.00002672,0.00008038,0.000034
 40,-0.00010238,-0.00001514,-0.00052860,0.00016040,0.00000060,0.0000255
 1,0.00071435,-0.00012885,0.00034441,0.00005765,-0.00006749,-0.00001501
 ,0.00000530,0.00001335,0.00001715,0.00008107,-0.00016989,0.00006700,0.
 00000152,-0.00000573,0.00000517,0.00000261,-0.00002456,-0.00000527,0.0
 0000040,0.00001491,0.00001439,0.00000176,-0.00000783,0.00000131,0.0000
 0559,-0.00000097,-0.00000586,0.00000335,0.00001225,0.00000863,0.000015
 30,-0.00005946,-0.00013500,0.00220553,-0.00229113,-0.00149174,0.000001
 94,0.00001726,0.00000216,0.00007760,0.00010909,-0.00001779,-0.00011913
 ,0.00014634,0.00005789,-0.00009431,-0.00001911,-0.00001291,0.00005022,
 0.00190898,0.00020564,0.09642608,0.28920978,0.00000431,-0.00000284,-0.
 00000573,0.00000025,0.00001206,0.00001225,0.00001861,0.00000052,-0.000
 03512,-0.00002347,0.00004478,0.00003159,0.00015022,-0.00009789,-0.0000
 2291,-0.00011873,-0.00049617,0.00048661,0.00031487,-0.00048640,0.00006
 302,-0.00034076,0.00036503,-0.00006999,0.00014133,0.00008888,0.0000992
 8,-0.00022899,-0.00000114,0.00034058,-0.00003181,-0.00001587,0.0000326
 8,0.00003555,0.00003789,-0.00002991,-0.00006454,-0.00007524,-0.0000247
 8,0.00001863,0.00004551,0.00001926,0.00069536,-0.00050134,-0.00064533,
 0.00014624,0.00018321,0.00012588,0.00000007,0.00051192,-0.00012911,-0.
 00110475,-0.00142871,-0.00047134,0.01975414,0.04893834,-0.05776007,0.0
 0000553,0.00000259,0.00000023,-0.00000073,-0.00000012,0.00000013,-0.00
 000055,0.00000001,0.00000116,0.00000040,0.00000145,-0.00000129,0.00000
 192,-0.00000283,0.00000037,-0.00000492,-0.00000266,-0.00000214,0.00000
 110,0.00000074,0.00000001,0.00001419,0.00001228,-0.00002802,-0.0000137
 5,-0.00000764,0.00000873,0.00000371,0.00002725,0.00001033,0.00003471,0
 .00002346,0.00001657,0.00017867,-0.00009357,-0.00012679,-0.00000050,-0
 .00004636,-0.00002815,-0.00019201,0.00036993,-0.00013084,0.00000491,-0
 .00004213,-0.00003543,-0.00000841,-0.00001795,-0.00005029,-0.00006162,
 0.00013874,-0.00012154,0.00000569,0.00004397,-0.00001570,0.00003159,-0
 .00000162,0.00001425,-0.00003310,-0.00005028,-0.00003151,0.00000365,0.
 00002031,-0.00000791,0.00001404,-0.00000184,0.00000440,-0.00000517,-0.
 00002487,-0.00000749,-0.00003440,0.00001240,-0.00001378,0.00045695,-0.
 00100857,0.00070453,-0.00012213,-0.00006888,0.00006240,-0.00010756,-0.
 00002751,0.00001182,0.00002262,-0.00013813,-0.00005565,0.00003506,0.00
 006487,0.00009085,-0.00063795,-0.00018046,0.00104130,-0.02154569,-0.05
 279801,0.05732079,0.00000691,0.00000337,-0.00000694,0.00000698,0.00000
 564,0.00002379,0.00004059,0.00002539,-0.00006579,0.00001124,-0.0000699
 4,0.00016565,0.00005898,0.00009962,-0.00014898,0.00007720,0.00000730,0
 .00252236,0.00045481,-0.00020079,-0.00034139,-0.00002487,0.00002150,-0
 .00000765,-0.00000913,0.00000126,0.00001473,0.00019111,-0.00004516,-0.
 00003437,-0.00004735,0.00004729,-0.00001287,0.00001673,0.00000271,-0.0
 0001859,-0.00000782,0.00000067,0.00000274,0.00000407,-0.00000090,-0.00
 000002,-0.00009871,-0.00007101,0.00012173,-0.00028179,-0.00049554,0.00
 055037,-0.00584905,-0.00116488,-0.00222706,-0.01382272,0.02106569,0.02
 249719,-0.07838204,0.05912810,0.06144104,0.00000453,0.00000146,0.00000
 088,-0.00000159,-0.00000443,-0.00000029,-0.00000298,-0.00000072,-0.000
 00271,0.00000256,0.00001053,-0.00000853,0.00000774,-0.00000656,0.00000
 067,-0.00001759,-0.00000963,-0.00002170,-0.00000914,-0.00002302,-0.000
 00423,0.00002921,0.00010367,-0.00004442,0.00006110,-0.00003366,0.00000
 563,0.00000146,-0.00005769,-0.00004181,-0.00006658,-0.00016195,-0.0000
 5818,0.00049002,0.00017985,-0.00100871,0.00001604,0.00001316,-0.000021
 95,0.00000673,0.00003143,-0.00001403,0.00001357,-0.00001332,0.00000795
 ,0.00000666,-0.00000632,-0.00001406,0.00000952,-0.00006093,0.00002331,
 0.00001816,0.00001196,-0.00000600,0.00001621,-0.00000322,-0.00001405,-
 0.00001834,0.00000665,0.00000806,0.00000137,-0.00000149,0.00000068,0.0
 0000473,0.00000121,-0.00000233,-0.00000188,-0.00000130,0.00000086,0.00
 001786,0.00004453,-0.00000065,0.00008117,0.00011313,-0.00019001,-0.000
 00927,0.00006335,0.00000385,0.00000604,0.00034711,-0.00001134,-0.00097
 141,0.00076615,0.00149852,0.00018909,-0.00018090,-0.00019143,0.0017137
 7,-0.00018192,0.00029781,0.00386054,-0.00708040,-0.00856396,0.08885816
 ,-0.00000636,0.00000068,0.00000550,-0.00000634,-0.00001199,-0.00002015
 ,-0.00003264,0.00000769,0.00004873,-0.00002147,-0.00006708,-0.00009508
 ,-0.00007172,0.00006871,0.00031009,0.00063646,-0.00009921,-0.00109076,
 -0.00040603,0.00049732,0.00034727,-0.00005747,-0.00016563,-0.00001244,
 -0.00007392,-0.00003934,-0.00009276,0.00022417,0.00000791,-0.00033062,
 0.00006871,0.00004960,0.00003088,-0.00008578,-0.00008790,0.00000564,0.
 00010865,0.00009914,0.00002081,-0.00004311,-0.00005261,-0.00003838,-0.
 00085590,0.00007661,0.00061950,-0.00029747,-0.00013595,0.00004020,-0.0
 0054842,0.00140323,0.00068707,-0.00141048,0.00012911,0.00112582,0.0601
 7553,-0.15370147,-0.11281073,-0.00000352,-0.00000195,-0.00000087,0.000
 00048,0.00000178,-0.00000047,0.00000191,-0.00000049,0.00000161,-0.0000
 0116,-0.00000341,0.00000543,-0.00000264,0.00000343,0.00000005,0.000009
 13,0.00000208,0.00000713,0.00000238,0.00000459,-0.00000139,-0.00002359
 ,-0.00002505,0.00003522,-0.00000840,0.00001575,-0.00000181,0.00005315,
 -0.00000621,0.00003626,0.00003227,-0.00001898,-0.00001377,-0.00010774,
 -0.00022502,0.00088582,0.00009511,0.00000728,0.00005876,0.00002295,0.0
 0003202,-0.00019348,0.00000838,0.00000055,0.00001337,0.00001201,0.0000
 0179,0.00005140,0.00006593,-0.00016314,0.00011714,-0.00000679,-0.00004
 951,0.00000797,-0.00001433,0.00000988,-0.00002595,0.00005383,0.0000342
 7,0.00002055,-0.00000778,-0.00001267,0.00000650,-0.00002953,-0.0000034
 7,0.00000356,0.00000986,0.00002892,0.00001224,0.00013386,-0.00010731,-
 0.00010987,0.00067637,-0.00023999,-0.00045461,0.00008430,0.00003224,-0
 .00003026,0.00011330,0.00009053,-0.00000204,-0.00010552,-0.00008230,-0
 .00011202,-0.00014840,-0.00000547,-0.00011801,0.00003216,0.00122469,0.
 00061960,0.01042827,-0.01883732,-0.02073217,-0.06458876,0.16413363,0.0
 0000120,-0.00000623,-0.00000455,-0.00000237,0.00000537,0.00000277,-0.0
 0000297,-0.00003485,0.00001085,-0.00000877,0.00003605,-0.00000921,0.00
 007148,-0.00010829,0.00024444,-0.00033047,0.00091528,0.00026967,-0.000
 14264,0.00005304,0.00004601,-0.00001386,-0.00000932,-0.00003919,0.0000
 0520,-0.00002093,-0.00000547,-0.00002791,0.00003261,-0.00001143,0.0000
 3126,-0.00001262,0.00000071,-0.00003969,-0.00002923,0.00000718,0.00004
 644,0.00004066,0.00000314,-0.00001818,-0.00002624,-0.00001099,0.000009
 48,0.00014072,0.00008343,0.00016509,0.00015509,0.00008411,0.00025254,0
 .00045001,-0.00008746,-0.00140977,0.00100966,-0.00038471,0.06295269,-0
 .11247685,-0.16606176,0.00000395,0.00000196,0.00000002,0.00000007,0.00
 000523,0.00000185,0.00000076,0.00000059,0.00000236,0.00000079,-0.00000
 516,0.00000076,-0.00000389,0.00000474,-0.00000087,0.00000833,0.0000082
 5,0.00000675,0.00000209,0.00001553,0.00000450,-0.00001076,-0.00003826,
 0.00001087,-0.00001021,0.00001140,-0.00000840,0.00006438,0.00003450,0.
 00003970,0.00001621,0.00000557,-0.00000090,-0.00042026,0.00013448,0.00
 020757,-0.00000308,0.00000147,0.00000780,0.00002443,-0.00001544,0.0000
 2928,-0.00000604,0.00000725,-0.00000368,-0.00000218,-0.00000603,0.0000
 1622,0.00000058,0.00000884,0.00000199,-0.00000768,-0.00001475,0.000007
 54,-0.00001003,0.00000523,0.00000181,0.00002007,0.00001356,-0.00000276
 ,-0.00000301,-0.00000590,0.00000385,-0.00001254,-0.00000066,0.00000178
 ,0.00000401,0.00001543,0.00000316,-0.00004703,0.00005571,0.00005134,-0
 .00002939,-0.00007563,-0.00006300,0.00004664,-0.00012244,-0.00001604,-
 0.00002255,-0.00002740,-0.00000689,0.00039290,-0.00031662,0.00010848,0
 .00008334,-0.00007833,0.00077874,0.00041474,0.00039756,0.00033170,-0.0
 0297861,0.00501925,0.00460442,-0.06935423,0.12433646,0.17862550,-0.000
 01564,0.00000962,0.00002608,0.00000343,-0.00002954,-0.00005287,-0.0000
 6486,0.00003666,0.00010067,0.00016408,-0.00000828,-0.00019248,-0.00004
 781,0.00088482,-0.00127876,-0.00589202,-0.00238545,0.00180927,0.000000
 26,0.00155374,-0.00063692,-0.00072928,-0.00051632,0.00008854,0.0000778
 3,0.00002615,-0.00004222,-0.00002995,0.00001739,-0.00006105,-0.0000020
 5,0.00000003,0.00003000,-0.00000549,-0.00000788,0.00000676,0.00001585,
 0.00001234,0.00000303,-0.00000462,-0.00000652,-0.00000049,-0.00001118,
 -0.00001127,-0.00000896,0.00011610,0.00012224,0.00034094,0.00103063,0.
 00011833,-0.00254531,-0.01151149,0.01038329,-0.02917424,-0.07365487,0.
 02348567,-0.07583620,-0.00002034,-0.00000863,-0.00000226,0.00000261,-0
 .00000290,-0.00000371,0.00000367,-0.00000042,-0.00000113,-0.00000694,-
 0.00000667,0.00001516,-0.00000562,0.00000449,0.00000173,0.00001452,-0.
 00000364,0.00001934,0.00000354,-0.00000225,-0.00000561,-0.00001280,-0.
 00003315,0.00006064,-0.00001898,0.00002600,-0.00000036,-0.00038279,-0.
 00030235,-0.00030212,0.00001246,-0.00008110,-0.00000251,0.00002820,0.0
 0010997,0.00001972,0.00010548,0.00011168,-0.00005971,0.00016492,0.0000
 6575,-0.00003475,0.00001843,-0.00003272,-0.00001113,-0.00000046,0.0000
 3899,0.00003129,0.00001495,-0.00000624,0.00002371,-0.00000522,-0.00001
 931,0.00000309,-0.00000009,0.00000127,-0.00000639,0.00001785,0.0000070
 2,0.00000088,-0.00000190,-0.00000318,0.00000183,-0.00000418,-0.0000008
 8,0.00000165,0.00000134,0.00000579,-0.00000090,0.00001156,0.00001394,0
 .00001591,-0.00007375,0.00009809,0.00001805,0.00007704,-0.00022395,-0.
 00004166,-0.00002838,0.00008422,0.00002982,0.00046827,-0.00026988,0.00
 006450,0.00002348,0.00012064,0.00149526,0.00121312,-0.00042387,0.00023
 452,0.00347598,-0.00262951,0.01115122,0.00333742,-0.00408389,0.0102994
 6,0.08212767,0.00000402,-0.00000171,-0.00000613,-0.00000107,0.00001031
 ,0.00001285,0.00002581,-0.00000568,-0.00003572,-0.00000388,0.00003455,
 0.00005891,0.00005592,-0.00028076,0.00008874,0.00013779,0.00136027,-0.
 00007021,-0.00027588,0.00044946,-0.00035337,-0.00085137,-0.00022918,0.
 00010691,0.00006915,0.00008158,0.00002674,-0.00003578,-0.00000752,0.00
 008787,-0.00001247,0.00005234,0.00008174,-0.00001266,-0.00003828,-0.00
 004665,0.00000748,0.00000618,0.00001104,-0.00001188,0.00000741,-0.0000
 2576,-0.00006255,0.00002332,-0.00028884,-0.00010162,-0.00006657,-0.000
 01657,0.00034352,0.00001124,0.00070117,-0.00010285,-0.00051128,-0.0007
 5343,0.02370666,-0.06845149,0.06665747,0.00000485,0.00000219,0.0000004
 8,-0.00000084,-0.00000037,-0.00000013,-0.00000052,-0.00000042,0.000000
 78,0.00000037,0.00000242,-0.00000153,0.00000225,-0.00000301,0.00000068
 ,-0.00000430,-0.00000384,-0.00000312,-0.00000103,-0.00000228,-0.000003
 07,-0.00000691,0.00001543,-0.00001506,-0.00000183,-0.00000743,0.000011
 48,0.00005822,0.00003663,0.00002249,0.00000477,0.00003539,-0.00001624,
 -0.00004758,-0.00001618,0.00000864,0.00018752,-0.00005462,0.00003938,0
 .00039643,0.00001525,0.00001260,0.00003546,-0.00005375,-0.00002199,0.0
 0000244,-0.00000985,-0.00001427,-0.00000575,-0.00000182,-0.00002436,0.
 00001079,0.00000385,-0.00001630,0.00003443,-0.00001305,-0.00002520,-0.
 00000397,-0.00002004,0.00000844,-0.00000198,0.00001057,-0.00000553,-0.
 00000213,-0.00000483,0.00000467,0.00000271,-0.00000721,0.00000585,0.00
 011926,-0.00016513,-0.00014225,-0.00005926,0.00028937,0.00041303,-0.00
 004648,0.00007112,0.00002084,0.00002163,0.00002262,-0.00001826,-0.0001
 3879,-0.00003066,-0.00018269,0.00024265,0.00011154,-0.00051486,0.00024
 525,0.00026082,-0.00041639,0.00995066,-0.00810975,0.02740506,-0.007638
 29,0.00618003,-0.01949033,-0.02623838,0.06900284,-0.00001588,0.0000098
 2,0.00002420,-0.00000171,-0.00002593,-0.00005371,-0.00004908,0.0000445
 3,0.00009837,-0.00003726,-0.00007879,-0.00015652,-0.00003800,0.0003895
 7,0.00014597,0.00029449,-0.00097221,0.00029803,-0.00053554,0.00047831,
 0.00010160,0.00012474,-0.00026149,0.00014195,-0.00000023,-0.00003603,-
 0.00004640,-0.00002185,0.00003304,-0.00004147,-0.00002574,-0.00004060,
 -0.00005347,0.00004834,0.00005896,0.00004160,-0.00004505,-0.00003714,-
 0.00001873,0.00002784,0.00001330,0.00004140,0.00004019,-0.00002043,-0.
 00005068,0.00007582,0.00005095,0.00012717,0.00106119,-0.00029994,0.000
 34198,0.00089050,-0.00010398,-0.00138472,-0.07746519,0.06689479,-0.258
 60793,-0.00001954,-0.00000773,-0.00000125,0.00000256,-0.00000439,-0.00
 000412,0.00000269,-0.00000067,-0.00000174,-0.00000310,-0.00000306,0.00
 001042,-0.00000227,0.00000130,0.00000165,0.00000707,0.00000199,0.00000
 280,0.00000347,-0.00000689,-0.00000387,-0.00000800,-0.00002390,0.00002
 806,-0.00000827,0.00002050,-0.00000318,-0.00006573,-0.00004349,-0.0000
 4049,0.00001379,-0.00000348,-0.00000428,-0.00026118,-0.00001258,0.0007
 6907,-0.00001749,0.00003508,-0.00001843,-0.00007493,0.00004087,-0.0000
 5412,-0.00000795,0.00000488,0.00002043,0.00000472,0.00003574,0.0000147
 1,0.00000250,0.00001451,0.00002081,-0.00000275,-0.00000338,0.00000875,
 -0.00001669,0.00000916,0.00001472,-0.00000767,0.00000724,-0.00000528,0
 .00000552,-0.00000752,0.00000369,0.00001164,0.00000553,-0.00000587,-0.
 00000631,-0.00000365,-0.00001042,-0.00002667,0.00004235,0.00008436,-0.
 00008610,0.00005045,-0.00001957,0.00003711,-0.00009292,-0.00004040,-0.
 00000066,0.00005183,0.00002813,0.00015557,-0.00009527,0.00033099,0.000
 29556,0.00000454,0.00071991,-0.00043712,-0.00040074,0.00012540,-0.0014
 7646,0.00073950,-0.00525262,-0.00674955,0.00682705,-0.01888299,0.08440
 865,-0.07327961,0.28121611\\-0.00000096,-0.00000140,-0.00000074,0.0000
 0047,0.00000123,0.00000044,0.00000070,0.00000138,0.00000104,-0.0000026
 4,0.00000463,-0.00000076,-0.00000217,-0.00000352,-0.00000402,-0.000004
 75,0.00001621,-0.00000168,0.00001477,-0.00000466,-0.00000378,-0.000008
 57,-0.00001846,0.00000693,-0.00000026,0.00000899,0.00000412,-0.0000036
 7,-0.00000042,-0.00000159,-0.00000076,-0.00000139,0.00000187,0.0000057
 0,0.00000083,-0.00000076,-0.00000851,-0.00000203,-0.00000209,0.0000022
 2,0.00000338,0.00000106,0.00000065,-0.00000119,-0.00000064,0.00000224,
 0.00000622,-0.00000071,0.00000198,-0.00000631,-0.00000221,-0.00000417,
 -0.00000252,0.00000773,0.00000259,0.00000041,0.00000100,-0.00000025,0.
 00000039,0.,-0.00000007,0.00000028,0.00000075,0.00000037,0.00000008,0.
 00000026,-0.00000091,0.00000007,0.00000024,-0.00000046,0.00000009,-0.0
 0000008,0.00000123,-0.00000078,-0.00000046,0.00000029,-0.00000060,0.00
 000185,0.00000186,-0.00000253,0.00000126,0.00000154,-0.00000108,0.0000
 0226,0.,-0.00000057,0.00000007,-0.00000041,0.00000098,0.00000209,0.000
 00261,-0.00000134,0.00000029,0.00000114,-0.00000023,-0.00000316,0.0000
 0216,0.00000006,-0.00000139,0.00000195,-0.00000229,-0.00000102,-0.0000
 0040,0.00000094,0.00000019,0.00000004,0.00000155,0.00000065,0.00000064
 ,-0.00000072,-0.00000165,0.00000036,-0.00000057,0.00000001,-0.00000058
 ,-0.00000047,-0.00000290,0.00000155,-0.00000054,-0.00000221,0.00000093
 ,0.00000027,0.00000251,-0.00000019,-0.00000132,-0.00000200,0.00000062,
 0.00000321,-0.00000204,-0.00000106,0.00000092,-0.00000140,0.00000035,-
 0.00000164,0.00000110,-0.00000226,0.00000055,-0.00000066,-0.00000361,0
 .00000341,0.00000175,-0.00000168,0.00000120,0.00000026,0.00000116,-0.0
 0000030,-0.00000285,-0.00000124,-0.00000127,-0.00000063,0.00000041,0.0
 0000016,0.00000073,-0.00000096,0.00000071,0.00000095\\\@


 THE TEST OF A FIRST RATE INTELLIGENCE IS THE ABILITY TO HOLD TWO OPPOSED
 IDEAS IN THE MIND AT THE SAME TIME, AND STILL RETAIN THE ABILITY TO FUNCTION.
 ONE SHOULD, FOR EXAMPLE, BE ABLE TO SEE THAT THINGS ARE HOPELESS AND YET BE
 DETERMINED TO MAKE THEM OTHERWISE.

                                                       -- F. SCOTT FITZGERALD
 Job cpu time:       1 days  9 hours 43 minutes 57.9 seconds.
 Elapsed time:       0 days  8 hours 26 minutes  3.5 seconds.
 File lengths (MBytes):  RWF=   1749 Int=      0 D2E=      0 Chk=     41 Scr=      1
 Normal termination of Gaussian 16 at Tue May 23 08:57:24 2023.
### All Done ###
