### Starting Gaussian ###
 Entering Gaussian System, Link 0=g16
 Initial command:
 /cluster/software/gaussian/gaussian-16-A.03/avx2/g16/l1.exe "/local/scratch/linjian/Gau-1305.inp" -scrdir="/local/scratch/linjian/"
 Entering Link 1 = /cluster/software/gaussian/gaussian-16-A.03/avx2/g16/l1.exe PID=      1308.
  
 Copyright (c) 1988,1990,1992,1993,1995,1998,2003,2009,2016,
            Gaussian, Inc.  All Rights Reserved.
  
 This is part of the Gaussian(R) 16 program.  It is based on
 the Gaussian(R) 09 system (copyright 2009, Gaussian, Inc.),
 the Gaussian(R) 03 system (copyright 2003, Gaussian, Inc.),
 the Gaussian(R) 98 system (copyright 1998, Gaussian, Inc.),
 the Gaussian(R) 94 system (copyright 1995, Gaussian, Inc.),
 the Gaussian 92(TM) system (copyright 1992, Gaussian, Inc.),
 the Gaussian 90(TM) system (copyright 1990, Gaussian, Inc.),
 the Gaussian 88(TM) system (copyright 1988, Gaussian, Inc.),
 the Gaussian 86(TM) system (copyright 1986, Carnegie Mellon
 University), and the Gaussian 82(TM) system (copyright 1983,
 Carnegie Mellon University). Gaussian is a federally registered
 trademark of Gaussian, Inc.
  
 This software contains proprietary and confidential information,
 including trade secrets, belonging to Gaussian, Inc.
  
 This software is provided under written license and may be
 used, copied, transmitted, or stored only in accord with that
 written license.
  
 The following legend is applicable only to US Government
 contracts under FAR:
  
                    RESTRICTED RIGHTS LEGEND
  
 Use, reproduction and disclosure by the US Government is
 subject to restrictions as set forth in subparagraphs (a)
 and (c) of the Commercial Computer Software - Restricted
 Rights clause in FAR 52.227-19.
  
 Gaussian, Inc.
 340 Quinnipiac St., Bldg. 40, Wallingford CT 06492
  
  
 ---------------------------------------------------------------
 Warning -- This program may not be used in any manner that
 competes with the business of Gaussian, Inc. or will provide
 assistance to any competitor of Gaussian, Inc.  The licensee
 of this program is prohibited from giving any competitor of
 Gaussian, Inc. access to this program.  By using this program,
 the user acknowledges that Gaussian, Inc. is engaged in the
 business of creating and licensing software in the field of
 computational chemistry and represents and warrants to the
 licensee that it is not a competitor of Gaussian, Inc. and that
 it will not use this program in any manner prohibited above.
 ---------------------------------------------------------------
  

 Cite this work as:
 Gaussian 16, Revision A.03,
 M. J. Frisch, G. W. Trucks, H. B. Schlegel, G. E. Scuseria, 
 M. A. Robb, J. R. Cheeseman, G. Scalmani, V. Barone, 
 G. A. Petersson, H. Nakatsuji, X. Li, M. Caricato, A. V. Marenich, 
 J. Bloino, B. G. Janesko, R. Gomperts, B. Mennucci, H. P. Hratchian, 
 J. V. Ortiz, A. F. Izmaylov, J. L. Sonnenberg, D. Williams-Young, 
 F. Ding, F. Lipparini, F. Egidi, J. Goings, B. Peng, A. Petrone, 
 T. Henderson, D. Ranasinghe, V. G. Zakrzewski, J. Gao, N. Rega, 
 G. Zheng, W. Liang, M. Hada, M. Ehara, K. Toyota, R. Fukuda, 
 J. Hasegawa, M. Ishida, T. Nakajima, Y. Honda, O. Kitao, H. Nakai, 
 T. Vreven, K. Throssell, J. A. Montgomery, Jr., J. E. Peralta, 
 F. Ogliaro, M. J. Bearpark, J. J. Heyd, E. N. Brothers, K. N. Kudin, 
 V. N. Staroverov, T. A. Keith, R. Kobayashi, J. Normand, 
 K. Raghavachari, A. P. Rendell, J. C. Burant, S. S. Iyengar, 
 J. Tomasi, M. Cossi, J. M. Millam, M. Klene, C. Adamo, R. Cammi, 
 J. W. Ochterski, R. L. Martin, K. Morokuma, O. Farkas, 
 J. B. Foresman, and D. J. Fox, Gaussian, Inc., Wallingford CT, 2016.
 
 ******************************************
 Gaussian 16:  ES64L-G16RevA.03 25-Dec-2016
                23-May-2023 
 ******************************************
 %chk=CCCCCCCCCCqCrCCOCqCrOC.chk
 %NProcShared=20
 Will use up to   20 processors via shared memory.
 -----------------------------
 # opt freq b3lyp/6-31g(2df,p)
 -----------------------------
 1/18=20,19=15,26=3,38=1/1,3;
 2/9=110,12=2,17=6,18=5,40=1/2;
 3/5=1,6=6,7=104,11=2,25=1,30=1,71=1,74=-5/1,2,3;
 4//1;
 5/5=2,38=5/2;
 6/7=2,8=2,9=2,10=2,28=1/1;
 7//1,2,3,16;
 1/18=20,19=15,26=3/3(2);
 2/9=110/2;
 99//99;
 2/9=110/2;
 3/5=1,6=6,7=104,11=2,25=1,30=1,71=1,74=-5/1,2,3;
 4/5=5,16=3,69=1/1;
 5/5=2,38=5/2;
 7//1,2,3,16;
 1/18=20,19=15,26=3/3(-5);
 2/9=110/2;
 6/7=2,8=2,9=2,10=2,19=2,28=1/1;
 99/9=1/99;
 -------------------
 Title Card Required
 -------------------
 Symbolic Z-matrix:
 Charge =  0 Multiplicity = 1
 C                     0.90529   0.0963   -0.0003 
 C                     2.42238   0.09242   0.00739 
 C                     2.94804  -0.5524    1.28267 
 C                     4.46934  -0.55991   1.29375 
 C                     4.97247  -1.21089   2.57246 
 C                     6.48901  -1.22963   2.58574 
 C                     6.98448  -1.89138   3.86212 
 C                     8.49952  -1.8827    3.86065 
 C                     9.04875  -2.4948    5.14211 
 C                     10.58141  -2.46951   5.15747 
 C                     11.10888  -1.02546   5.04585 
 C                     11.08481  -3.17961   6.43221 
 C                     12.60259  -3.2155    6.43354 
 O                     13.13791  -3.75283   7.63218 
 C                     14.575   -3.70304   7.63064 
 C                     15.08834  -2.25838   7.53943 
 O                     15.03387  -4.3143    8.83815 
 C                     16.44406  -4.46584   8.89176 
 H                     0.533     0.56018  -0.91788 
 H                     0.51423   0.6585    0.85348 
 H                     0.5143   -0.92465   0.053 
 H                     2.79271   1.12098  -0.0702 
 H                     2.79257  -0.45471  -0.86697 
 H                     2.57575  -1.58102   1.36152 
 H                     2.57698  -0.00618   2.15801 
 H                     4.85096   0.46589   1.22394 
 H                     4.84899  -1.10802   0.42376 
 H                     4.59142  -2.23624   2.64683 
 H                     4.60177  -0.66054   3.44451 
 H                     6.87402  -0.20357   2.5222 
 H                     6.86891  -1.77085   1.71227 
 H                     6.61248  -2.91996   3.92984 
 H                     6.61129  -1.34496   4.73461 
 H                     8.81829  -0.84019   3.76213 
 H                     8.88449  -2.42559   2.99171 
 H                     8.69881  -3.53298   5.22132 
 H                     8.65578  -1.95816   6.01135 
 H                     10.94491  -3.02918   4.2882 
 H                     10.77715  -0.42096   5.89432 
 H                     10.781   -0.53738   4.12445 
 H                     12.19985  -0.98232   4.99331 
 H                     10.69244  -4.20354   6.48712 
 H                     10.72099  -2.66744   7.32954 
 H                     12.92912  -2.18371   6.36904 
 H                     12.97421  -3.77302   5.56892 
 H                     14.93091  -4.29711   6.77984 
 H                     14.70231  -1.67116   8.37899 
 H                     14.79039  -1.75657   6.6153 
 H                     16.1778  -2.20335   7.55649 
 H                     16.69691  -5.03656   9.78818 
 H                     16.93806  -3.49465   8.97942 
 H                     16.81411  -4.9997    8.01173 
 

 GradGradGradGradGradGradGradGradGradGradGradGradGradGradGradGradGradGrad
 Berny optimization.
 Initialization pass.
                           ----------------------------
                           !    Initial Parameters    !
                           ! (Angstroms and Degrees)  !
 --------------------------                            --------------------------
 ! Name  Definition              Value          Derivative Info.                !
 --------------------------------------------------------------------------------
 ! R1    R(1,2)                  1.5171         estimate D2E/DX2                !
 ! R2    R(1,19)                 1.0935         estimate D2E/DX2                !
 ! R3    R(1,20)                 1.0945         estimate D2E/DX2                !
 ! R4    R(1,21)                 1.0946         estimate D2E/DX2                !
 ! R5    R(2,3)                  1.5226         estimate D2E/DX2                !
 ! R6    R(2,22)                 1.0959         estimate D2E/DX2                !
 ! R7    R(2,23)                 1.0959         estimate D2E/DX2                !
 ! R8    R(3,4)                  1.5214         estimate D2E/DX2                !
 ! R9    R(3,24)                 1.0968         estimate D2E/DX2                !
 ! R10   R(3,25)                 1.0965         estimate D2E/DX2                !
 ! R11   R(4,5)                  1.5205         estimate D2E/DX2                !
 ! R12   R(4,26)                 1.0967         estimate D2E/DX2                !
 ! R13   R(4,27)                 1.0961         estimate D2E/DX2                !
 ! R14   R(5,6)                  1.5167         estimate D2E/DX2                !
 ! R15   R(5,28)                 1.0964         estimate D2E/DX2                !
 ! R16   R(5,29)                 1.0958         estimate D2E/DX2                !
 ! R17   R(6,7)                  1.5207         estimate D2E/DX2                !
 ! R18   R(6,30)                 1.0978         estimate D2E/DX2                !
 ! R19   R(6,31)                 1.0955         estimate D2E/DX2                !
 ! R20   R(7,8)                  1.5151         estimate D2E/DX2                !
 ! R21   R(7,32)                 1.0959         estimate D2E/DX2                !
 ! R22   R(7,33)                 1.095          estimate D2E/DX2                !
 ! R23   R(8,9)                  1.5226         estimate D2E/DX2                !
 ! R24   R(8,34)                 1.0946         estimate D2E/DX2                !
 ! R25   R(8,35)                 1.0945         estimate D2E/DX2                !
 ! R26   R(9,10)                 1.5329         estimate D2E/DX2                !
 ! R27   R(9,36)                 1.0984         estimate D2E/DX2                !
 ! R28   R(9,37)                 1.0945         estimate D2E/DX2                !
 ! R29   R(10,11)                1.5414         estimate D2E/DX2                !
 ! R30   R(10,12)                1.5436         estimate D2E/DX2                !
 ! R31   R(10,38)                1.0959         estimate D2E/DX2                !
 ! R32   R(11,39)                1.0933         estimate D2E/DX2                !
 ! R33   R(11,40)                1.093          estimate D2E/DX2                !
 ! R34   R(11,41)                1.0931         estimate D2E/DX2                !
 ! R35   R(12,13)                1.5182         estimate D2E/DX2                !
 ! R36   R(12,42)                1.0979         estimate D2E/DX2                !
 ! R37   R(12,43)                1.0954         estimate D2E/DX2                !
 ! R38   R(13,14)                1.4185         estimate D2E/DX2                !
 ! R39   R(13,44)                1.0841         estimate D2E/DX2                !
 ! R40   R(13,45)                1.0938         estimate D2E/DX2                !
 ! R41   R(14,15)                1.438          estimate D2E/DX2                !
 ! R42   R(15,16)                1.5359         estimate D2E/DX2                !
 ! R43   R(15,17)                1.4291         estimate D2E/DX2                !
 ! R44   R(15,46)                1.097          estimate D2E/DX2                !
 ! R45   R(16,47)                1.0949         estimate D2E/DX2                !
 ! R46   R(16,48)                1.093          estimate D2E/DX2                !
 ! R47   R(16,49)                1.091          estimate D2E/DX2                !
 ! R48   R(17,18)                1.4193         estimate D2E/DX2                !
 ! R49   R(18,50)                1.0923         estimate D2E/DX2                !
 ! R50   R(18,51)                1.0931         estimate D2E/DX2                !
 ! R51   R(18,52)                1.0938         estimate D2E/DX2                !
 ! A1    A(2,1,19)             110.2301         estimate D2E/DX2                !
 ! A2    A(2,1,20)             110.7719         estimate D2E/DX2                !
 ! A3    A(2,1,21)             110.7674         estimate D2E/DX2                !
 ! A4    A(19,1,20)            108.3622         estimate D2E/DX2                !
 ! A5    A(19,1,21)            108.3569         estimate D2E/DX2                !
 ! A6    A(20,1,21)            108.2703         estimate D2E/DX2                !
 ! A7    A(1,2,3)              110.521          estimate D2E/DX2                !
 ! A8    A(1,2,22)             109.5813         estimate D2E/DX2                !
 ! A9    A(1,2,23)             109.5748         estimate D2E/DX2                !
 ! A10   A(3,2,22)             109.8822         estimate D2E/DX2                !
 ! A11   A(3,2,23)             109.8891         estimate D2E/DX2                !
 ! A12   A(22,2,23)            107.3337         estimate D2E/DX2                !
 ! A13   A(2,3,4)              110.6957         estimate D2E/DX2                !
 ! A14   A(2,3,24)             109.8893         estimate D2E/DX2                !
 ! A15   A(2,3,25)             109.9277         estimate D2E/DX2                !
 ! A16   A(4,3,24)             109.5287         estimate D2E/DX2                !
 ! A17   A(4,3,25)             109.5752         estimate D2E/DX2                !
 ! A18   A(24,3,25)            107.1542         estimate D2E/DX2                !
 ! A19   A(3,4,5)              109.823          estimate D2E/DX2                !
 ! A20   A(3,4,26)             110.0521         estimate D2E/DX2                !
 ! A21   A(3,4,27)             110.0621         estimate D2E/DX2                !
 ! A22   A(5,4,26)             109.806          estimate D2E/DX2                !
 ! A23   A(5,4,27)             109.803          estimate D2E/DX2                !
 ! A24   A(26,4,27)            107.258          estimate D2E/DX2                !
 ! A25   A(4,5,6)              110.0906         estimate D2E/DX2                !
 ! A26   A(4,5,28)             110.0249         estimate D2E/DX2                !
 ! A27   A(4,5,29)             110.0164         estimate D2E/DX2                !
 ! A28   A(6,5,28)             109.5945         estimate D2E/DX2                !
 ! A29   A(6,5,29)             109.7241         estimate D2E/DX2                !
 ! A30   A(28,5,29)            107.3459         estimate D2E/DX2                !
 ! A31   A(5,6,7)              109.7858         estimate D2E/DX2                !
 ! A32   A(5,6,30)             109.7934         estimate D2E/DX2                !
 ! A33   A(5,6,31)             110.234          estimate D2E/DX2                !
 ! A34   A(7,6,30)             109.9408         estimate D2E/DX2                !
 ! A35   A(7,6,31)             109.9524         estimate D2E/DX2                !
 ! A36   A(30,6,31)            107.0969         estimate D2E/DX2                !
 ! A37   A(6,7,8)              108.8143         estimate D2E/DX2                !
 ! A38   A(6,7,32)             110.4692         estimate D2E/DX2                !
 ! A39   A(6,7,33)             109.9119         estimate D2E/DX2                !
 ! A40   A(8,7,32)             110.1748         estimate D2E/DX2                !
 ! A41   A(8,7,33)             109.7985         estimate D2E/DX2                !
 ! A42   A(32,7,33)            107.664          estimate D2E/DX2                !
 ! A43   A(7,8,9)              110.9517         estimate D2E/DX2                !
 ! A44   A(7,8,34)             107.2631         estimate D2E/DX2                !
 ! A45   A(7,8,35)             110.4656         estimate D2E/DX2                !
 ! A46   A(9,8,34)             110.7058         estimate D2E/DX2                !
 ! A47   A(9,8,35)             109.9915         estimate D2E/DX2                !
 ! A48   A(34,8,35)            107.3685         estimate D2E/DX2                !
 ! A49   A(8,9,10)             111.2501         estimate D2E/DX2                !
 ! A50   A(8,9,36)             109.0093         estimate D2E/DX2                !
 ! A51   A(8,9,37)             109.9848         estimate D2E/DX2                !
 ! A52   A(10,9,36)            109.4748         estimate D2E/DX2                !
 ! A53   A(10,9,37)            110.0548         estimate D2E/DX2                !
 ! A54   A(36,9,37)            106.9628         estimate D2E/DX2                !
 ! A55   A(9,10,11)            110.9078         estimate D2E/DX2                !
 ! A56   A(9,10,12)            109.0717         estimate D2E/DX2                !
 ! A57   A(9,10,38)            108.3763         estimate D2E/DX2                !
 ! A58   A(11,10,12)           112.2829         estimate D2E/DX2                !
 ! A59   A(11,10,38)           107.9082         estimate D2E/DX2                !
 ! A60   A(12,10,38)           108.1765         estimate D2E/DX2                !
 ! A61   A(10,11,39)           110.9744         estimate D2E/DX2                !
 ! A62   A(10,11,40)           112.1311         estimate D2E/DX2                !
 ! A63   A(10,11,41)           112.457          estimate D2E/DX2                !
 ! A64   A(39,11,40)           108.4382         estimate D2E/DX2                !
 ! A65   A(39,11,41)           108.5605         estimate D2E/DX2                !
 ! A66   A(40,11,41)           103.9605         estimate D2E/DX2                !
 ! A67   A(10,12,13)           109.7328         estimate D2E/DX2                !
 ! A68   A(10,12,42)           110.7194         estimate D2E/DX2                !
 ! A69   A(10,12,43)           110.6769         estimate D2E/DX2                !
 ! A70   A(13,12,42)           109.584          estimate D2E/DX2                !
 ! A71   A(13,12,43)           110.0219         estimate D2E/DX2                !
 ! A72   A(42,12,43)           106.0451         estimate D2E/DX2                !
 ! A73   A(12,13,14)           112.767          estimate D2E/DX2                !
 ! A74   A(12,13,44)           106.1738         estimate D2E/DX2                !
 ! A75   A(12,13,45)           110.5484         estimate D2E/DX2                !
 ! A76   A(14,13,44)           107.2851         estimate D2E/DX2                !
 ! A77   A(14,13,45)           110.2828         estimate D2E/DX2                !
 ! A78   A(44,13,45)           109.6165         estimate D2E/DX2                !
 ! A79   A(13,14,15)           111.2936         estimate D2E/DX2                !
 ! A80   A(14,15,16)           111.5102         estimate D2E/DX2                !
 ! A81   A(14,15,17)           107.7693         estimate D2E/DX2                !
 ! A82   A(14,15,46)           107.8375         estimate D2E/DX2                !
 ! A83   A(16,15,17)           110.1932         estimate D2E/DX2                !
 ! A84   A(16,15,46)           110.786          estimate D2E/DX2                !
 ! A85   A(17,15,46)           108.6331         estimate D2E/DX2                !
 ! A86   A(15,16,47)           109.9445         estimate D2E/DX2                !
 ! A87   A(15,16,48)           113.014          estimate D2E/DX2                !
 ! A88   A(15,16,49)           112.3514         estimate D2E/DX2                !
 ! A89   A(47,16,48)           107.8181         estimate D2E/DX2                !
 ! A90   A(47,16,49)           108.2431         estimate D2E/DX2                !
 ! A91   A(48,16,49)           105.2058         estimate D2E/DX2                !
 ! A92   A(15,17,18)           113.3665         estimate D2E/DX2                !
 ! A93   A(17,18,50)           108.4674         estimate D2E/DX2                !
 ! A94   A(17,18,51)           110.9269         estimate D2E/DX2                !
 ! A95   A(17,18,52)           110.9689         estimate D2E/DX2                !
 ! A96   A(50,18,51)           107.0841         estimate D2E/DX2                !
 ! A97   A(50,18,52)           109.0828         estimate D2E/DX2                !
 ! A98   A(51,18,52)           110.1979         estimate D2E/DX2                !
 ! D1    D(19,1,2,3)          -179.9962         estimate D2E/DX2                !
 ! D2    D(19,1,2,22)           58.7677         estimate D2E/DX2                !
 ! D3    D(19,1,2,23)          -58.7557         estimate D2E/DX2                !
 ! D4    D(20,1,2,3)            60.0795         estimate D2E/DX2                !
 ! D5    D(20,1,2,22)          -61.1566         estimate D2E/DX2                !
 ! D6    D(20,1,2,23)         -178.68           estimate D2E/DX2                !
 ! D7    D(21,1,2,3)           -60.0814         estimate D2E/DX2                !
 ! D8    D(21,1,2,22)          178.6825         estimate D2E/DX2                !
 ! D9    D(21,1,2,23)           61.1591         estimate D2E/DX2                !
 ! D10   D(1,2,3,4)            179.9312         estimate D2E/DX2                !
 ! D11   D(1,2,3,24)            58.8212         estimate D2E/DX2                !
 ! D12   D(1,2,3,25)           -58.8755         estimate D2E/DX2                !
 ! D13   D(22,2,3,4)           -59.0113         estimate D2E/DX2                !
 ! D14   D(22,2,3,24)          179.8788         estimate D2E/DX2                !
 ! D15   D(22,2,3,25)           62.182          estimate D2E/DX2                !
 ! D16   D(23,2,3,4)            58.8773         estimate D2E/DX2                !
 ! D17   D(23,2,3,24)          -62.2327         estimate D2E/DX2                !
 ! D18   D(23,2,3,25)         -179.9294         estimate D2E/DX2                !
 ! D19   D(2,3,4,5)           -179.8407         estimate D2E/DX2                !
 ! D20   D(2,3,4,26)            59.1622         estimate D2E/DX2                !
 ! D21   D(2,3,4,27)           -58.8408         estimate D2E/DX2                !
 ! D22   D(24,3,4,5)           -58.5176         estimate D2E/DX2                !
 ! D23   D(24,3,4,26)         -179.5148         estimate D2E/DX2                !
 ! D24   D(24,3,4,27)           62.4822         estimate D2E/DX2                !
 ! D25   D(25,3,4,5)            58.7577         estimate D2E/DX2                !
 ! D26   D(25,3,4,26)          -62.2394         estimate D2E/DX2                !
 ! D27   D(25,3,4,27)          179.7576         estimate D2E/DX2                !
 ! D28   D(3,4,5,6)            179.6373         estimate D2E/DX2                !
 ! D29   D(3,4,5,28)            58.7485         estimate D2E/DX2                !
 ! D30   D(3,4,5,29)           -59.3181         estimate D2E/DX2                !
 ! D31   D(26,4,5,6)           -59.2175         estimate D2E/DX2                !
 ! D32   D(26,4,5,28)          179.8936         estimate D2E/DX2                !
 ! D33   D(26,4,5,29)           61.8271         estimate D2E/DX2                !
 ! D34   D(27,4,5,6)            58.4816         estimate D2E/DX2                !
 ! D35   D(27,4,5,28)          -62.4073         estimate D2E/DX2                !
 ! D36   D(27,4,5,29)          179.5262         estimate D2E/DX2                !
 ! D37   D(4,5,6,7)           -179.5709         estimate D2E/DX2                !
 ! D38   D(4,5,6,30)            59.4536         estimate D2E/DX2                !
 ! D39   D(4,5,6,31)           -58.299          estimate D2E/DX2                !
 ! D40   D(28,5,6,7)           -58.4242         estimate D2E/DX2                !
 ! D41   D(28,5,6,30)         -179.3997         estimate D2E/DX2                !
 ! D42   D(28,5,6,31)           62.8477         estimate D2E/DX2                !
 ! D43   D(29,5,6,7)            59.2095         estimate D2E/DX2                !
 ! D44   D(29,5,6,30)          -61.766          estimate D2E/DX2                !
 ! D45   D(29,5,6,31)         -179.5186         estimate D2E/DX2                !
 ! D46   D(5,6,7,8)           -179.2966         estimate D2E/DX2                !
 ! D47   D(5,6,7,32)            59.6333         estimate D2E/DX2                !
 ! D48   D(5,6,7,33)           -59.0317         estimate D2E/DX2                !
 ! D49   D(30,6,7,8)           -58.4101         estimate D2E/DX2                !
 ! D50   D(30,6,7,32)         -179.4801         estimate D2E/DX2                !
 ! D51   D(30,6,7,33)           61.8549         estimate D2E/DX2                !
 ! D52   D(31,6,7,8)            59.2623         estimate D2E/DX2                !
 ! D53   D(31,6,7,32)          -61.8077         estimate D2E/DX2                !
 ! D54   D(31,6,7,33)          179.5273         estimate D2E/DX2                !
 ! D55   D(6,7,8,9)            178.1407         estimate D2E/DX2                !
 ! D56   D(6,7,8,34)            57.1131         estimate D2E/DX2                !
 ! D57   D(6,7,8,35)           -59.6071         estimate D2E/DX2                !
 ! D58   D(32,7,8,9)           -60.609          estimate D2E/DX2                !
 ! D59   D(32,7,8,34)          178.3634         estimate D2E/DX2                !
 ! D60   D(32,7,8,35)           61.6432         estimate D2E/DX2                !
 ! D61   D(33,7,8,9)            57.8056         estimate D2E/DX2                !
 ! D62   D(33,7,8,34)          -63.222          estimate D2E/DX2                !
 ! D63   D(33,7,8,35)         -179.9422         estimate D2E/DX2                !
 ! D64   D(7,8,9,10)          -179.1108         estimate D2E/DX2                !
 ! D65   D(7,8,9,36)            60.0707         estimate D2E/DX2                !
 ! D66   D(7,8,9,37)           -56.9067         estimate D2E/DX2                !
 ! D67   D(34,8,9,10)          -60.1348         estimate D2E/DX2                !
 ! D68   D(34,8,9,36)          179.0466         estimate D2E/DX2                !
 ! D69   D(34,8,9,37)           62.0692         estimate D2E/DX2                !
 ! D70   D(35,8,9,10)           58.3616         estimate D2E/DX2                !
 ! D71   D(35,8,9,36)          -62.4569         estimate D2E/DX2                !
 ! D72   D(35,8,9,37)         -179.4343         estimate D2E/DX2                !
 ! D73   D(8,9,10,11)           59.3798         estimate D2E/DX2                !
 ! D74   D(8,9,10,12)         -176.4568         estimate D2E/DX2                !
 ! D75   D(8,9,10,38)          -58.8988         estimate D2E/DX2                !
 ! D76   D(36,9,10,11)         179.9244         estimate D2E/DX2                !
 ! D77   D(36,9,10,12)         -55.9122         estimate D2E/DX2                !
 ! D78   D(36,9,10,38)          61.6459         estimate D2E/DX2                !
 ! D79   D(37,9,10,11)         -62.7838         estimate D2E/DX2                !
 ! D80   D(37,9,10,12)          61.3796         estimate D2E/DX2                !
 ! D81   D(37,9,10,38)         178.9377         estimate D2E/DX2                !
 ! D82   D(9,10,11,39)          61.6499         estimate D2E/DX2                !
 ! D83   D(9,10,11,40)         -59.7878         estimate D2E/DX2                !
 ! D84   D(9,10,11,41)        -176.5257         estimate D2E/DX2                !
 ! D85   D(12,10,11,39)        -60.6638         estimate D2E/DX2                !
 ! D86   D(12,10,11,40)        177.8985         estimate D2E/DX2                !
 ! D87   D(12,10,11,41)         61.1606         estimate D2E/DX2                !
 ! D88   D(38,10,11,39)       -179.7881         estimate D2E/DX2                !
 ! D89   D(38,10,11,40)         58.7742         estimate D2E/DX2                !
 ! D90   D(38,10,11,41)        -57.9637         estimate D2E/DX2                !
 ! D91   D(9,10,12,13)         177.5994         estimate D2E/DX2                !
 ! D92   D(9,10,12,42)          56.5081         estimate D2E/DX2                !
 ! D93   D(9,10,12,43)         -60.7891         estimate D2E/DX2                !
 ! D94   D(11,10,12,13)        -59.0517         estimate D2E/DX2                !
 ! D95   D(11,10,12,42)        179.857          estimate D2E/DX2                !
 ! D96   D(11,10,12,43)         62.5598         estimate D2E/DX2                !
 ! D97   D(38,10,12,13)         59.9152         estimate D2E/DX2                !
 ! D98   D(38,10,12,42)        -61.176          estimate D2E/DX2                !
 ! D99   D(38,10,12,43)       -178.4733         estimate D2E/DX2                !
 ! D100  D(10,12,13,14)        174.9305         estimate D2E/DX2                !
 ! D101  D(10,12,13,44)         57.7218         estimate D2E/DX2                !
 ! D102  D(10,12,13,45)        -61.0961         estimate D2E/DX2                !
 ! D103  D(42,12,13,14)        -63.2966         estimate D2E/DX2                !
 ! D104  D(42,12,13,44)        179.4947         estimate D2E/DX2                !
 ! D105  D(42,12,13,45)         60.6768         estimate D2E/DX2                !
 ! D106  D(43,12,13,14)         52.9273         estimate D2E/DX2                !
 ! D107  D(43,12,13,44)        -64.2814         estimate D2E/DX2                !
 ! D108  D(43,12,13,45)        176.9006         estimate D2E/DX2                !
 ! D109  D(12,13,14,15)       -176.7654         estimate D2E/DX2                !
 ! D110  D(44,13,14,15)        -60.2157         estimate D2E/DX2                !
 ! D111  D(45,13,14,15)         59.1149         estimate D2E/DX2                !
 ! D112  D(13,14,15,16)         61.5078         estimate D2E/DX2                !
 ! D113  D(13,14,15,17)       -177.4332         estimate D2E/DX2                !
 ! D114  D(13,14,15,46)        -60.3309         estimate D2E/DX2                !
 ! D115  D(14,15,16,47)         58.2888         estimate D2E/DX2                !
 ! D116  D(14,15,16,48)        -62.2288         estimate D2E/DX2                !
 ! D117  D(14,15,16,49)        178.9048         estimate D2E/DX2                !
 ! D118  D(17,15,16,47)        -61.346          estimate D2E/DX2                !
 ! D119  D(17,15,16,48)        178.1364         estimate D2E/DX2                !
 ! D120  D(17,15,16,49)         59.27           estimate D2E/DX2                !
 ! D121  D(46,15,16,47)        178.4062         estimate D2E/DX2                !
 ! D122  D(46,15,16,48)         57.8885         estimate D2E/DX2                !
 ! D123  D(46,15,16,49)        -60.9779         estimate D2E/DX2                !
 ! D124  D(14,15,17,18)        173.2833         estimate D2E/DX2                !
 ! D125  D(16,15,17,18)        -64.838          estimate D2E/DX2                !
 ! D126  D(46,15,17,18)         56.699          estimate D2E/DX2                !
 ! D127  D(15,17,18,50)       -173.7675         estimate D2E/DX2                !
 ! D128  D(15,17,18,51)         68.8902         estimate D2E/DX2                !
 ! D129  D(15,17,18,52)        -53.9579         estimate D2E/DX2                !
 --------------------------------------------------------------------------------
 Trust Radius=3.00D-01 FncErr=1.00D-07 GrdErr=1.00D-06 EigMax=2.50D+02 EigMin=1.00D-04
 Number of steps in this run=    288 maximum allowed number of steps=    312.
 GradGradGradGradGradGradGradGradGradGradGradGradGradGradGradGradGradGrad

 Stoichiometry    C16H34O2
 Framework group  C1[X(C16H34O2)]
 Deg. of freedom   150
 Full point group                 C1      NOp   1
 Largest Abelian subgroup         C1      NOp   1
 Largest concise Abelian subgroup C1      NOp   1
                         Standard orientation:                         
 ---------------------------------------------------------------------
 Center     Atomic      Atomic             Coordinates (Angstroms)
 Number     Number       Type             X           Y           Z
 ---------------------------------------------------------------------
      1          6           0        9.803390   -0.222614   -0.179039
      2          6           0        8.530925    0.470092    0.271104
      3          6           0        7.307225   -0.316498   -0.178658
      4          6           0        6.028716    0.373903    0.272224
      5          6           0        4.820715   -0.429321   -0.183383
      6          6           0        3.542502    0.249138    0.270804
      7          6           0        2.339585   -0.565152   -0.179165
      8          6           0        1.076293    0.140248    0.270198
      9          6           0       -0.162655   -0.612218   -0.195917
     10          6           0       -1.445242    0.107519    0.236366
     11          6           0       -1.498000    1.534182   -0.344852
     12          6           0       -2.665096   -0.740554   -0.182376
     13          6           0       -3.942332   -0.070162    0.291110
     14          8           0       -5.111142   -0.736302   -0.158524
     15          6           0       -6.299800   -0.034384    0.244108
     16          6           0       -6.350789    1.377918   -0.357291
     17          8           0       -7.426164   -0.797631   -0.192972
     18          6           0       -8.666185   -0.289292    0.274375
     19          1           0       10.678885    0.346018    0.146387
     20          1           0        9.833749   -0.308183   -1.269770
     21          1           0        9.868562   -1.229138    0.246067
     22          1           0        8.496883    1.483010   -0.145954
     23          1           0        8.531738    0.566323    1.362725
     24          1           0        7.342263   -1.330881    0.236884
     25          1           0        7.306441   -0.414248   -1.270769
     26          1           0        5.980725    1.386672   -0.145830
     27          1           0        6.019219    0.471936    1.363893
     28          1           0        4.866060   -1.443334    0.231098
     29          1           0        4.822221   -0.522307   -1.275229
     30          1           0        3.488610    1.261114   -0.151179
     31          1           0        3.536118    0.354138    1.361275
     32          1           0        2.379941   -1.574827    0.244951
     33          1           0        2.342048   -0.662562   -1.269849
     34          1           0        1.098985    1.148951   -0.154243
     35          1           0        1.063028    0.244418    1.359675
     36          1           0       -0.148674   -1.623987    0.231493
     37          1           0       -0.144293   -0.725122   -1.284449
     38          1           0       -1.444263    0.188708    1.329253
     39          1           0       -1.504835    1.511451   -1.437922
     40          1           0       -0.652140    2.143906   -0.017035
     41          1           0       -2.373522    2.092223   -0.002963
     42          1           0       -2.600259   -1.750719    0.242788
     43          1           0       -2.690734   -0.870780   -1.269697
     44          1           0       -3.945558    0.919781   -0.150903
     45          1           0       -3.949963    0.014564    1.381642
     46          1           0       -6.309607    0.008657    1.340239
     47          1           0       -6.311782    1.320191   -1.449927
     48          1           0       -5.525418    2.013366   -0.026272
     49          1           0       -7.257025    1.916225   -0.075859
     50          1           0       -9.455908   -0.988515   -0.009610
     51          1           0       -8.899191    0.667932   -0.199293
     52          1           0       -8.659373   -0.180351    1.362714
 ---------------------------------------------------------------------
 Rotational constants (GHZ):           2.7360227           0.0606914           0.0599745
 Standard basis: 6-31G(2df,p) (6D, 7F)
 There are   728 symmetry adapted cartesian basis functions of A   symmetry.
 There are   674 symmetry adapted basis functions of A   symmetry.
   674 basis functions,  1030 primitive gaussians,   728 cartesian basis functions
    73 alpha electrons       73 beta electrons
       nuclear repulsion energy      1279.6069062725 Hartrees.
 NAtoms=   52 NActive=   52 NUniq=   52 SFac= 1.00D+00 NAtFMM=   60 NAOKFM=F Big=F
 Integral buffers will be    131072 words long.
 Raffenetti 2 integral format.
 Two-electron integral symmetry is turned on.
 One-electron integrals computed using PRISM.
 PrsmSu:  requested number of processors reduced to:  12 ShMem   1 Linda.
 NBasis=   674 RedAO= T EigKep=  4.28D-04  NBF=   674
 NBsUse=   674 1.00D-06 EigRej= -1.00D+00 NBFU=   674
 ExpMin= 1.61D-01 ExpMax= 5.48D+03 ExpMxC= 8.25D+02 IAcc=3 IRadAn=         5 AccDes= 0.00D+00
 Harris functional with IExCor=  402 and IRadAn=       5 diagonalized for initial guess.
 HarFok:  IExCor=  402 AccDes= 0.00D+00 IRadAn=         5 IDoV= 1 UseB2=F ITyADJ=14
 ICtDFT=  3500011 ScaDFX=  1.000000  1.000000  1.000000  1.000000
 FoFCou: FMM=F IPFlag=           0 FMFlag=      100000 FMFlg1=           0
         NFxFlg=           0 DoJE=T BraDBF=F KetDBF=T FulRan=T
         wScrn=  0.000000 ICntrl=       500 IOpCl=  0 I1Cent=   200000004 NGrid=           0
         NMat0=    1 NMatS0=      1 NMatT0=    0 NMatD0=    1 NMtDS0=    0 NMtDT0=    0
 Petite list used in FoFCou.
 Requested convergence on RMS density matrix=1.00D-08 within 128 cycles.
 Requested convergence on MAX density matrix=1.00D-06.
 Requested convergence on             energy=1.00D-06.
 No special actions if energy rises.
 Integral accuracy reduced to 1.0D-05 until final iterations.
 Initial convergence to 1.0D-05 achieved.  Increase integral accuracy.
 SCF Done:  E(RB3LYP) =  -780.674906944     A.U. after   12 cycles
            NFock= 12  Conv=0.34D-08     -V/T= 2.0080

 **********************************************************************

            Population analysis using the SCF density.

 **********************************************************************

 Orbital symmetries:
       Occupied  (A) (A) (A) (A) (A) (A) (A) (A) (A) (A) (A) (A)
                 (A) (A) (A) (A) (A) (A) (A) (A) (A) (A) (A) (A)
                 (A) (A) (A) (A) (A) (A) (A) (A) (A) (A) (A) (A)
                 (A) (A) (A) (A) (A) (A) (A) (A) (A) (A) (A) (A)
                 (A) (A) (A) (A) (A) (A) (A) (A) (A) (A) (A) (A)
                 (A) (A) (A) (A) (A) (A) (A) (A) (A) (A) (A) (A)
                 (A)
       Virtual   (A) (A) (A) (A) (A) (A) (A) (A) (A) (A) (A) (A)
                 (A) (A) (A) (A) (A) (A) (A) (A) (A) (A) (A) (A)
                 (A) (A) (A) (A) (A) (A) (A) (A) (A) (A) (A) (A)
                 (A) (A) (A) (A) (A) (A) (A) (A) (A) (A) (A) (A)
                 (A) (A) (A) (A) (A) (A) (A) (A) (A) (A) (A) (A)
                 (A) (A) (A) (A) (A) (A) (A) (A) (A) (A) (A) (A)
                 (A) (A) (A) (A) (A) (A) (A) (A) (A) (A) (A) (A)
                 (A) (A) (A) (A) (A) (A) (A) (A) (A) (A) (A) (A)
                 (A) (A) (A) (A) (A) (A) (A) (A) (A) (A) (A) (A)
                 (A) (A) (A) (A) (A) (A) (A) (A) (A) (A) (A) (A)
                 (A) (A) (A) (A) (A) (A) (A) (A) (A) (A) (A) (A)
                 (A) (A) (A) (A) (A) (A) (A) (A) (A) (A) (A) (A)
                 (A) (A) (A) (A) (A) (A) (A) (A) (A) (A) (A) (A)
                 (A) (A) (A) (A) (A) (A) (A) (A) (A) (A) (A) (A)
                 (A) (A) (A) (A) (A) (A) (A) (A) (A) (A) (A) (A)
                 (A) (A) (A) (A) (A) (A) (A) (A) (A) (A) (A) (A)
                 (A) (A) (A) (A) (A) (A) (A) (A) (A) (A) (A) (A)
                 (A) (A) (A) (A) (A) (A) (A) (A) (A) (A) (A) (A)
                 (A) (A) (A) (A) (A) (A) (A) (A) (A) (A) (A) (A)
                 (A) (A) (A) (A) (A) (A) (A) (A) (A) (A) (A) (A)
                 (A) (A) (A) (A) (A) (A) (A) (A) (A) (A) (A) (A)
                 (A) (A) (A) (A) (A) (A) (A) (A) (A) (A) (A) (A)
                 (A) (A) (A) (A) (A) (A) (A) (A) (A) (A) (A) (A)
                 (A) (A) (A) (A) (A) (A) (A) (A) (A) (A) (A) (A)
                 (A) (A) (A) (A) (A) (A) (A) (A) (A) (A) (A) (A)
                 (A) (A) (A) (A) (A) (A) (A) (A) (A) (A) (A) (A)
                 (A) (A) (A) (A) (A) (A) (A) (A) (A) (A) (A) (A)
                 (A) (A) (A) (A) (A) (A) (A) (A) (A) (A) (A) (A)
                 (A) (A) (A) (A) (A) (A) (A) (A) (A) (A) (A) (A)
                 (A) (A) (A) (A) (A) (A) (A) (A) (A) (A) (A) (A)
                 (A) (A) (A) (A) (A) (A) (A) (A) (A) (A) (A) (A)
                 (A) (A) (A) (A) (A) (A) (A) (A) (A) (A) (A) (A)
                 (A) (A) (A) (A) (A) (A) (A) (A) (A) (A) (A) (A)
                 (A) (A) (A) (A) (A) (A) (A) (A) (A) (A) (A) (A)
                 (A) (A) (A) (A) (A) (A) (A) (A) (A) (A) (A) (A)
                 (A) (A) (A) (A) (A) (A) (A) (A) (A) (A) (A) (A)
                 (A) (A) (A) (A) (A) (A) (A) (A) (A) (A) (A) (A)
                 (A) (A) (A) (A) (A) (A) (A) (A) (A) (A) (A) (A)
                 (A) (A) (A) (A) (A) (A) (A) (A) (A) (A) (A) (A)
                 (A) (A) (A) (A) (A) (A) (A) (A) (A) (A) (A) (A)
                 (A) (A) (A) (A) (A) (A) (A) (A) (A) (A) (A) (A)
                 (A) (A) (A) (A) (A) (A) (A) (A) (A) (A) (A) (A)
                 (A) (A) (A) (A) (A) (A) (A) (A) (A) (A) (A) (A)
                 (A) (A) (A) (A) (A) (A) (A) (A) (A) (A) (A) (A)
                 (A) (A) (A) (A) (A) (A) (A) (A) (A) (A) (A) (A)
                 (A) (A) (A) (A) (A) (A) (A) (A) (A) (A) (A) (A)
                 (A) (A) (A) (A) (A) (A) (A) (A) (A) (A) (A) (A)
                 (A) (A) (A) (A) (A) (A) (A) (A) (A) (A) (A) (A)
                 (A) (A) (A) (A) (A) (A) (A) (A) (A) (A) (A) (A)
                 (A) (A) (A) (A) (A) (A) (A) (A) (A) (A) (A) (A)
                 (A)
 The electronic state is 1-A.
 Alpha  occ. eigenvalues --  -19.13734 -19.13342 -10.27702 -10.22390 -10.21611
 Alpha  occ. eigenvalues --  -10.18416 -10.17392 -10.17290 -10.17074 -10.16994
 Alpha  occ. eigenvalues --  -10.16987 -10.16751 -10.16730 -10.16712 -10.16693
 Alpha  occ. eigenvalues --  -10.16689 -10.16636 -10.16498  -1.04738  -0.99895
 Alpha  occ. eigenvalues --   -0.82214  -0.80887  -0.78771  -0.75955  -0.74421
 Alpha  occ. eigenvalues --   -0.72022  -0.70122  -0.68722  -0.66829  -0.63423
 Alpha  occ. eigenvalues --   -0.60422  -0.58587  -0.57741  -0.57158  -0.56767
 Alpha  occ. eigenvalues --   -0.55539  -0.50377  -0.49203  -0.48660  -0.47713
 Alpha  occ. eigenvalues --   -0.46843  -0.45812  -0.44849  -0.43642  -0.43120
 Alpha  occ. eigenvalues --   -0.42754  -0.41801  -0.41435  -0.40636  -0.40371
 Alpha  occ. eigenvalues --   -0.39793  -0.38342  -0.38018  -0.37822  -0.37174
 Alpha  occ. eigenvalues --   -0.36925  -0.35740  -0.35128  -0.34853  -0.33817
 Alpha  occ. eigenvalues --   -0.33388  -0.32958  -0.32554  -0.32468  -0.32234
 Alpha  occ. eigenvalues --   -0.31999  -0.31903  -0.31487  -0.31249  -0.29856
 Alpha  occ. eigenvalues --   -0.27068  -0.26288  -0.24196
 Alpha virt. eigenvalues --    0.07816   0.08699   0.09289   0.10084   0.10411
 Alpha virt. eigenvalues --    0.11127   0.11430   0.11649   0.12117   0.12313
 Alpha virt. eigenvalues --    0.12587   0.13303   0.14118   0.14374   0.15110
 Alpha virt. eigenvalues --    0.15176   0.16130   0.16564   0.16661   0.16927
 Alpha virt. eigenvalues --    0.17632   0.17803   0.18178   0.18788   0.19368
 Alpha virt. eigenvalues --    0.19680   0.20028   0.20142   0.20388   0.20661
 Alpha virt. eigenvalues --    0.21104   0.21387   0.21684   0.22074   0.22360
 Alpha virt. eigenvalues --    0.22412   0.22865   0.23229   0.24249   0.24344
 Alpha virt. eigenvalues --    0.24580   0.24982   0.25962   0.26531   0.27159
 Alpha virt. eigenvalues --    0.27587   0.28807   0.29656   0.31234   0.35910
 Alpha virt. eigenvalues --    0.36451   0.39062   0.40603   0.44752   0.45929
 Alpha virt. eigenvalues --    0.47384   0.47410   0.48839   0.49100   0.49560
 Alpha virt. eigenvalues --    0.50697   0.51090   0.51767   0.52133   0.52489
 Alpha virt. eigenvalues --    0.52838   0.53319   0.53465   0.53711   0.54582
 Alpha virt. eigenvalues --    0.55526   0.55977   0.56342   0.57388   0.58493
 Alpha virt. eigenvalues --    0.59331   0.59681   0.60443   0.60703   0.61793
 Alpha virt. eigenvalues --    0.62037   0.63069   0.63748   0.64433   0.64967
 Alpha virt. eigenvalues --    0.65627   0.66640   0.67502   0.67936   0.68342
 Alpha virt. eigenvalues --    0.69373   0.70078   0.70569   0.71028   0.71305
 Alpha virt. eigenvalues --    0.72136   0.72511   0.72642   0.72915   0.73285
 Alpha virt. eigenvalues --    0.73473   0.74387   0.74427   0.74788   0.75088
 Alpha virt. eigenvalues --    0.75121   0.75878   0.76262   0.77028   0.77212
 Alpha virt. eigenvalues --    0.77468   0.77624   0.78477   0.79306   0.79641
 Alpha virt. eigenvalues --    0.79898   0.80129   0.80805   0.80823   0.81091
 Alpha virt. eigenvalues --    0.81442   0.81954   0.82609   0.83063   0.83844
 Alpha virt. eigenvalues --    0.84324   0.86013   0.86215   0.86591   0.87314
 Alpha virt. eigenvalues --    0.87599   0.88276   0.88725   0.89345   0.89723
 Alpha virt. eigenvalues --    0.91115   0.91326   0.92579   0.93513   0.96311
 Alpha virt. eigenvalues --    0.97309   0.99505   1.01281   1.01558   1.03764
 Alpha virt. eigenvalues --    1.05074   1.06791   1.07408   1.08513   1.08934
 Alpha virt. eigenvalues --    1.09988   1.11718   1.12002   1.14605   1.16278
 Alpha virt. eigenvalues --    1.16706   1.18912   1.19234   1.21373   1.22062
 Alpha virt. eigenvalues --    1.22307   1.22535   1.23201   1.24091   1.24497
 Alpha virt. eigenvalues --    1.25298   1.25671   1.26409   1.26811   1.27246
 Alpha virt. eigenvalues --    1.27612   1.30036   1.31887   1.33628   1.34624
 Alpha virt. eigenvalues --    1.35245   1.36261   1.36952   1.37695   1.37971
 Alpha virt. eigenvalues --    1.39227   1.39829   1.40983   1.41697   1.42367
 Alpha virt. eigenvalues --    1.42834   1.45218   1.46006   1.46688   1.47712
 Alpha virt. eigenvalues --    1.48406   1.50080   1.50237   1.52513   1.53916
 Alpha virt. eigenvalues --    1.54384   1.54949   1.56472   1.56695   1.57014
 Alpha virt. eigenvalues --    1.58079   1.59253   1.60905   1.61634   1.62595
 Alpha virt. eigenvalues --    1.64095   1.65437   1.65954   1.66682   1.67180
 Alpha virt. eigenvalues --    1.68681   1.69696   1.70513   1.72360   1.73174
 Alpha virt. eigenvalues --    1.73454   1.75995   1.76949   1.77546   1.79757
 Alpha virt. eigenvalues --    1.80212   1.81412   1.82924   1.83778   1.84887
 Alpha virt. eigenvalues --    1.85430   1.87317   1.87845   1.88180   1.88928
 Alpha virt. eigenvalues --    1.89390   1.89887   1.90310   1.92096   1.93084
 Alpha virt. eigenvalues --    1.93554   1.94211   1.94425   1.95357   1.95504
 Alpha virt. eigenvalues --    1.96314   1.96404   1.96662   1.97776   1.98558
 Alpha virt. eigenvalues --    1.99211   2.01649   2.03092   2.06052   2.13650
 Alpha virt. eigenvalues --    2.14737   2.14822   2.16621   2.17425   2.18764
 Alpha virt. eigenvalues --    2.19551   2.20057   2.20664   2.21416   2.22000
 Alpha virt. eigenvalues --    2.23733   2.24258   2.26696   2.26814   2.28423
 Alpha virt. eigenvalues --    2.29479   2.30439   2.32081   2.32607   2.34852
 Alpha virt. eigenvalues --    2.35044   2.35509   2.37079   2.38776   2.39067
 Alpha virt. eigenvalues --    2.40640   2.41411   2.42883   2.45717   2.45949
 Alpha virt. eigenvalues --    2.46784   2.48986   2.50568   2.52542   2.53175
 Alpha virt. eigenvalues --    2.56185   2.57251   2.59771   2.60737   2.63044
 Alpha virt. eigenvalues --    2.65649   2.67940   2.70865   2.71767   2.72811
 Alpha virt. eigenvalues --    2.73530   2.74043   2.74375   2.74832   2.74963
 Alpha virt. eigenvalues --    2.75933   2.76466   2.77138   2.77656   2.78250
 Alpha virt. eigenvalues --    2.78648   2.78778   2.79229   2.80379   2.80899
 Alpha virt. eigenvalues --    2.81607   2.82101   2.82700   2.82935   2.83312
 Alpha virt. eigenvalues --    2.83384   2.83975   2.84293   2.85044   2.85530
 Alpha virt. eigenvalues --    2.86760   2.87109   2.87907   2.88584   2.89496
 Alpha virt. eigenvalues --    2.89759   2.90594   2.90750   2.91686   2.92420
 Alpha virt. eigenvalues --    2.92926   2.93711   2.94422   2.94902   2.95600
 Alpha virt. eigenvalues --    2.95983   2.96325   2.96948   2.97324   2.97502
 Alpha virt. eigenvalues --    2.98091   2.98260   2.99401   3.00640   3.01114
 Alpha virt. eigenvalues --    3.02167   3.02697   3.03442   3.06545   3.07619
 Alpha virt. eigenvalues --    3.09237   3.10582   3.13243   3.13905   3.14653
 Alpha virt. eigenvalues --    3.16976   3.17931   3.19305   3.19759   3.20722
 Alpha virt. eigenvalues --    3.21407   3.22843   3.23017   3.23802   3.24627
 Alpha virt. eigenvalues --    3.26023   3.27055   3.27483   3.27896   3.29849
 Alpha virt. eigenvalues --    3.30693   3.32346   3.35290   3.36576   3.37079
 Alpha virt. eigenvalues --    3.38262   3.39166   3.40603   3.40919   3.42153
 Alpha virt. eigenvalues --    3.43916   3.44412   3.45113   3.46426   3.46933
 Alpha virt. eigenvalues --    3.49029   3.50946   3.51766   3.52211   3.53741
 Alpha virt. eigenvalues --    3.54662   3.55070   3.55598   3.56797   3.56952
 Alpha virt. eigenvalues --    3.58361   3.58725   3.60019   3.60435   3.61433
 Alpha virt. eigenvalues --    3.62359   3.63343   3.64179   3.66294   3.66822
 Alpha virt. eigenvalues --    3.67437   3.68174   3.69178   3.70776   3.72949
 Alpha virt. eigenvalues --    3.73613   3.74600   3.74881   3.75444   3.75985
 Alpha virt. eigenvalues --    3.76423   3.78448   3.79207   3.79658   3.80241
 Alpha virt. eigenvalues --    3.81126   3.81813   3.82296   3.83348   3.85456
 Alpha virt. eigenvalues --    3.87482   3.89399   3.90257   3.91757   3.93972
 Alpha virt. eigenvalues --    3.95320   3.95535   3.96008   3.98977   4.00453
 Alpha virt. eigenvalues --    4.01678   4.06152   4.10052   4.15583   4.18573
 Alpha virt. eigenvalues --    4.19663   4.21450   4.23344   4.25606   4.30476
 Alpha virt. eigenvalues --    4.30530   4.31336   4.32602   4.35030   4.36072
 Alpha virt. eigenvalues --    4.37211   4.38173   4.39119   4.39398   4.40013
 Alpha virt. eigenvalues --    4.40687   4.41386   4.43088   4.44451   4.45051
 Alpha virt. eigenvalues --    4.46178   4.46652   4.47298   4.49460   4.50041
 Alpha virt. eigenvalues --    4.50737   4.51243   4.51988   4.52533   4.53925
 Alpha virt. eigenvalues --    4.54162   4.55029   4.55954   4.56736   4.57234
 Alpha virt. eigenvalues --    4.58573   4.58804   4.59089   4.59411   4.59958
 Alpha virt. eigenvalues --    4.60340   4.60611   4.62003   4.62284   4.62560
 Alpha virt. eigenvalues --    4.63030   4.63432   4.64212   4.64508   4.65336
 Alpha virt. eigenvalues --    4.66266   4.66676   4.67014   4.67254   4.68263
 Alpha virt. eigenvalues --    4.68715   4.70403   4.70663   4.70851   4.72299
 Alpha virt. eigenvalues --    4.72770   4.73451   4.74280   4.74894   4.75610
 Alpha virt. eigenvalues --    4.76560   4.77004   4.77396   4.77630   4.78435
 Alpha virt. eigenvalues --    4.78991   4.79409   4.79803   4.80555   4.81506
 Alpha virt. eigenvalues --    4.82469   4.83163   4.83608   4.84280   4.84875
 Alpha virt. eigenvalues --    4.85257   4.86583   4.87158   4.88173   4.90140
 Alpha virt. eigenvalues --    4.91681   4.91974   4.92909   4.93267   4.94094
 Alpha virt. eigenvalues --    4.95661   4.96186   4.96872   4.97472   4.98447
 Alpha virt. eigenvalues --    5.00077   5.02360   5.04230   5.05418   5.06060
 Alpha virt. eigenvalues --    5.10542   5.12261   5.17803   5.20959   5.22277
 Alpha virt. eigenvalues --    5.24970   5.25639   5.30031   5.30407   5.32551
 Alpha virt. eigenvalues --    5.37241   5.40175   5.40984   5.42386   5.44211
 Alpha virt. eigenvalues --    5.45830   5.47127   5.49209   5.51076   5.51998
 Alpha virt. eigenvalues --    5.52761   5.54524   5.55985   5.59158   5.62578
 Alpha virt. eigenvalues --    5.67770   5.69209   5.71997   5.80433   5.84895
 Alpha virt. eigenvalues --    5.86886   5.89942   6.01275   6.03638   6.05263
 Alpha virt. eigenvalues --    6.10045   6.18052   6.24052   6.29290   6.49273
 Alpha virt. eigenvalues --    6.54591   7.04090   7.16351  11.12334  11.20039
 Alpha virt. eigenvalues --   11.24916  11.38798  11.43088  11.62331  11.69817
 Alpha virt. eigenvalues --   11.87406  12.07246  12.22008  12.23177  12.24916
 Alpha virt. eigenvalues --   12.31775  12.42503  12.58988  12.74464  13.41610
 Alpha virt. eigenvalues --   13.53406
          Condensed to atoms (all electrons):
 Mulliken charges:
               1
     1  C   -0.375413
     2  C   -0.160501
     3  C   -0.149997
     4  C   -0.175564
     5  C   -0.174037
     6  C   -0.173676
     7  C   -0.179446
     8  C   -0.179644
     9  C   -0.191407
    10  C    0.038714
    11  C   -0.392294
    12  C   -0.232931
    13  C   -0.042357
    14  O   -0.276695
    15  C    0.264185
    16  C   -0.427942
    17  O   -0.256607
    18  C   -0.233445
    19  H    0.103619
    20  H    0.110199
    21  H    0.110220
    22  H    0.090518
    23  H    0.090582
    24  H    0.088467
    25  H    0.088426
    26  H    0.088091
    27  H    0.088303
    28  H    0.088611
    29  H    0.088560
    30  H    0.088040
    31  H    0.088462
    32  H    0.088351
    33  H    0.089600
    34  H    0.095368
    35  H    0.087298
    36  H    0.088616
    37  H    0.090286
    38  H    0.069062
    39  H    0.112599
    40  H    0.116483
    41  H    0.113882
    42  H    0.099141
    43  H    0.103805
    44  H    0.092231
    45  H    0.079498
    46  H    0.056155
    47  H    0.132879
    48  H    0.123613
    49  H    0.117465
    50  H    0.131816
    51  H    0.112751
    52  H    0.106061
 Sum of Mulliken charges =  -0.00000
 Mulliken charges with hydrogens summed into heavy atoms:
               1
     1  C   -0.051375
     2  C    0.020599
     3  C    0.026896
     4  C    0.000830
     5  C    0.003134
     6  C    0.002826
     7  C   -0.001494
     8  C    0.003022
     9  C   -0.012504
    10  C    0.107776
    11  C   -0.049331
    12  C   -0.029984
    13  C    0.129371
    14  O   -0.276695
    15  C    0.320340
    16  C   -0.053985
    17  O   -0.256607
    18  C    0.117183
 Electronic spatial extent (au):  <R**2>=          17612.7542
 Charge=              0.0000 electrons
 Dipole moment (field-independent basis, Debye):
    X=              0.1927    Y=              2.0690    Z=              1.1264  Tot=              2.3636
 Quadrupole moment (field-independent basis, Debye-Ang):
   XX=           -115.6515   YY=           -119.6343   ZZ=           -115.8937
   XY=            -12.2792   XZ=             -6.8889   YZ=             -1.8564
 Traceless Quadrupole moment (field-independent basis, Debye-Ang):
   XX=              1.4084   YY=             -2.5745   ZZ=              1.1661
   XY=            -12.2792   XZ=             -6.8889   YZ=             -1.8564
 Octapole moment (field-independent basis, Debye-Ang**2):
  XXX=           -231.1311  YYY=             -5.2419  ZZZ=             -2.3849  XYY=             -6.6997
  XXY=             78.9084  XXZ=             50.9297  XZZ=            -17.0574  YZZ=             -2.3481
  YYZ=              1.1562  XYZ=              2.0002
 Hexadecapole moment (field-independent basis, Debye-Ang**3):
 XXXX=         -21855.3099 YYYY=           -571.5978 ZZZZ=           -274.3308 XXXY=           -327.6462
 XXXZ=           -261.4368 YYYX=             27.5186 YYYZ=             -2.8188 ZZZX=              6.6485
 ZZZY=              0.0497 XXYY=          -3964.0767 XXZZ=          -3810.4347 YYZZ=           -145.7619
 XXYZ=            -67.5694 YYXZ=              2.2392 ZZXY=             11.8944
 N-N= 1.279606906273D+03 E-N=-4.371052562864D+03  KE= 7.744533322667D+02
 PrsmSu:  requested number of processors reduced to:  12 ShMem   1 Linda.
 Calling FoFJK, ICntrl=      2127 FMM=F ISym2X=0 I1Cent= 0 IOpClX= 0 NMat=1 NMatS=1 NMatT=0.
 ***** Axes restored to original set *****
 -------------------------------------------------------------------
 Center     Atomic                   Forces (Hartrees/Bohr)
 Number     Number              X              Y              Z
 -------------------------------------------------------------------
      1        6          -0.004538744    0.003366131   -0.006706161
      2        6          -0.007462009   -0.002104620    0.004400724
      3        6           0.006737753    0.005575120   -0.011454470
      4        6          -0.009756673   -0.004811901    0.010345693
      5        6           0.007774778    0.005156776   -0.012111578
      6        6          -0.009202051   -0.005040148    0.011847326
      7        6           0.009057733    0.002822731   -0.011674543
      8        6          -0.005588127   -0.001785656    0.013191920
      9        6           0.009551841   -0.000477374   -0.009886998
     10        6          -0.002058202    0.001159013    0.011649815
     11        6           0.004258204   -0.001015297   -0.005077097
     12        6           0.005125189   -0.006812960   -0.001371394
     13        6          -0.001039365    0.003839365    0.012757039
     14        8           0.019456400   -0.006219473    0.009133775
     15        6          -0.005380694    0.005239954    0.009874529
     16        6           0.000340137    0.005104879   -0.001596717
     17        8          -0.011816442    0.002721896   -0.008699430
     18        6          -0.008826979    0.002097545    0.002207201
     19        1          -0.004137404   -0.000026030    0.000062829
     20        1          -0.001579112   -0.000083998    0.000022055
     21        1          -0.001564988    0.000062669    0.000082835
     22        1           0.001724812    0.000280469   -0.000704475
     23        1           0.001755688    0.000361627   -0.000661201
     24        1          -0.001080144   -0.000342206    0.000527950
     25        1          -0.001121758   -0.000118269    0.000712382
     26        1           0.000424091    0.000453567   -0.000843619
     27        1           0.000482698    0.000206403   -0.001120844
     28        1          -0.001239878   -0.000333072    0.000596621
     29        1          -0.001093222   -0.000161283    0.001020145
     30        1           0.000608889   -0.000265083   -0.000329476
     31        1           0.000462428   -0.000241294   -0.001244880
     32        1          -0.001913120   -0.000451029    0.000534561
     33        1          -0.001155414   -0.000316812    0.001505934
     34        1           0.001705511   -0.000951645   -0.000670144
     35        1           0.000650890   -0.000620961   -0.001861886
     36        1           0.000229149    0.000554538    0.001171275
     37        1          -0.000190778    0.001168132    0.002013178
     38        1           0.000063939   -0.001667203   -0.001739470
     39        1          -0.000020294    0.001456868    0.001267050
     40        1          -0.003064268   -0.000552412    0.001451049
     41        1          -0.000008593   -0.000441022    0.002927916
     42        1          -0.001166477    0.001050984   -0.001824092
     43        1           0.001220056    0.002302855    0.000269524
     44        1           0.003663511    0.003080551   -0.006516032
     45        1           0.002073833   -0.001553700   -0.005342430
     46        1           0.003569452   -0.002421615   -0.005223913
     47        1          -0.000492602   -0.001980724    0.000651079
     48        1          -0.000168764   -0.002277667    0.000163555
     49        1           0.000870169   -0.002608995    0.001010680
     50        1          -0.004222188   -0.002098710   -0.000124856
     51        1           0.004412672    0.000667596   -0.001699642
     52        1           0.003668463   -0.000948508   -0.002913292
 -------------------------------------------------------------------
 Cartesian Forces:  Max     0.019456400 RMS     0.004717140

 GradGradGradGradGradGradGradGradGradGradGradGradGradGradGradGradGradGrad
 Berny optimization.
 FormGI is forming the generalized inverse of G from B-inverse, IUseBI=4.
 Internal  Forces:  Max     0.025901531 RMS     0.005670105
 Search for a local minimum.
 Step number   1 out of a maximum of  288
 All quantities printed in internal units (Hartrees-Bohrs-Radians)
 Mixed Optimization -- RFO/linear search
 Second derivative matrix not updated -- first step.
 ITU=  0
     Eigenvalues ---    0.00230   0.00230   0.00292   0.00330   0.00466
     Eigenvalues ---    0.00466   0.00483   0.00492   0.00494   0.00525
     Eigenvalues ---    0.00540   0.00545   0.00567   0.01190   0.01307
     Eigenvalues ---    0.01436   0.01448   0.03521   0.03693   0.03776
     Eigenvalues ---    0.03815   0.03824   0.03860   0.03908   0.03912
     Eigenvalues ---    0.03927   0.04047   0.04577   0.04871   0.04883
     Eigenvalues ---    0.04898   0.04920   0.04968   0.04996   0.04997
     Eigenvalues ---    0.04999   0.05017   0.05018   0.05063   0.05223
     Eigenvalues ---    0.05245   0.05321   0.05376   0.05415   0.05686
     Eigenvalues ---    0.05742   0.05887   0.06132   0.07774   0.07908
     Eigenvalues ---    0.07924   0.07940   0.07979   0.08039   0.08058
     Eigenvalues ---    0.08115   0.08117   0.09657   0.10075   0.10467
     Eigenvalues ---    0.11588   0.11753   0.11873   0.11877   0.11885
     Eigenvalues ---    0.11915   0.11963   0.11982   0.12018   0.12037
     Eigenvalues ---    0.13978   0.16000   0.16000   0.16000   0.16000
     Eigenvalues ---    0.16000   0.16000   0.16000   0.16000   0.16000
     Eigenvalues ---    0.16000   0.16000   0.16000   0.16393   0.16923
     Eigenvalues ---    0.19032   0.20277   0.21813   0.21857   0.21858
     Eigenvalues ---    0.21866   0.21876   0.21884   0.21887   0.21889
     Eigenvalues ---    0.21895   0.22153   0.25000   0.25000   0.28205
     Eigenvalues ---    0.28394   0.28888   0.29153   0.30113   0.30113
     Eigenvalues ---    0.30236   0.30299   0.30315   0.30540   0.30646
     Eigenvalues ---    0.30685   0.30847   0.33856   0.33915   0.33931
     Eigenvalues ---    0.34014   0.34043   0.34049   0.34075   0.34084
     Eigenvalues ---    0.34117   0.34134   0.34140   0.34142   0.34145
     Eigenvalues ---    0.34151   0.34181   0.34197   0.34238   0.34258
     Eigenvalues ---    0.34286   0.34291   0.34295   0.34295   0.34297
     Eigenvalues ---    0.34372   0.34377   0.34412   0.34431   0.34454
     Eigenvalues ---    0.34458   0.34465   0.34471   0.34543   0.34699
     Eigenvalues ---    0.35498   0.39868   0.41121   0.42563   0.42693
 RFO step:  Lambda=-3.76085478D-02 EMin= 2.30000000D-03
 Linear search not attempted -- first point.
 Maximum step size (   0.300) exceeded in Quadratic search.
    -- Step size scaled by   0.864
 Iteration  1 RMS(Cart)=  0.22114676 RMS(Int)=  0.01361412
 Iteration  2 RMS(Cart)=  0.20256194 RMS(Int)=  0.00573075
 Iteration  3 RMS(Cart)=  0.01528074 RMS(Int)=  0.00025656
 Iteration  4 RMS(Cart)=  0.00003678 RMS(Int)=  0.00025541
 Iteration  5 RMS(Cart)=  0.00000002 RMS(Int)=  0.00025541
 Variable       Old X    -DE/DX   Delta X   Delta X   Delta X     New X
                                 (Linear)    (Quad)   (Total)
    R1        2.86693   0.01186   0.00000   0.02978   0.02978   2.89671
    R2        2.06641   0.00134   0.00000   0.00304   0.00304   2.06945
    R3        2.06831   0.00054   0.00000   0.00122   0.00122   2.06953
    R4        2.06841   0.00050   0.00000   0.00115   0.00115   2.06956
    R5        2.87738   0.00918   0.00000   0.02340   0.02340   2.90078
    R6        2.07104   0.00090   0.00000   0.00204   0.00204   2.07308
    R7        2.07087   0.00094   0.00000   0.00214   0.00214   2.07301
    R8        2.87495   0.01140   0.00000   0.02897   0.02897   2.90392
    R9        2.07257   0.00073   0.00000   0.00166   0.00166   2.07423
   R10        2.07204   0.00089   0.00000   0.00203   0.00203   2.07407
   R11        2.87339   0.01235   0.00000   0.03131   0.03131   2.90470
   R12        2.07248   0.00063   0.00000   0.00143   0.00143   2.07391
   R13        2.07133   0.00095   0.00000   0.00218   0.00218   2.07351
   R14        2.86617   0.01490   0.00000   0.03738   0.03738   2.90355
   R15        2.07188   0.00078   0.00000   0.00179   0.00179   2.07367
   R16        2.07076   0.00110   0.00000   0.00251   0.00251   2.07327
   R17        2.87372   0.01294   0.00000   0.03281   0.03281   2.90653
   R18        2.07446  -0.00002   0.00000  -0.00003  -0.00003   2.07442
   R19        2.07026   0.00127   0.00000   0.00290   0.00290   2.07315
   R20        2.86306   0.01678   0.00000   0.04188   0.04188   2.90494
   R21        2.07091   0.00111   0.00000   0.00252   0.00252   2.07343
   R22        2.06930   0.00144   0.00000   0.00326   0.00326   2.07256
   R23        2.87739   0.01130   0.00000   0.02882   0.02882   2.90620
   R24        2.06849  -0.00035   0.00000  -0.00079  -0.00079   2.06770
   R25        2.06836   0.00202   0.00000   0.00457   0.00457   2.07293
   R26        2.89685   0.01054   0.00000   0.02766   0.02766   2.92450
   R27        2.07573  -0.00051   0.00000  -0.00118  -0.00118   2.07456
   R28        2.06835   0.00224   0.00000   0.00508   0.00508   2.07344
   R29        2.91285  -0.00016   0.00000  -0.00043  -0.00043   2.91243
   R30        2.91693   0.00468   0.00000   0.01265   0.01265   2.92958
   R31        2.07095   0.00225   0.00000   0.00513   0.00513   2.07608
   R32        2.06609   0.00180   0.00000   0.00406   0.00406   2.07015
   R33        2.06552  -0.00055   0.00000  -0.00124  -0.00124   2.06427
   R34        2.06563  -0.00017   0.00000  -0.00038  -0.00038   2.06526
   R35        2.86899   0.00605   0.00000   0.01523   0.01523   2.88422
   R36        2.07475  -0.00065   0.00000  -0.00150  -0.00150   2.07324
   R37        2.06999   0.00089   0.00000   0.00203   0.00203   2.07202
   R38        2.68050   0.00392   0.00000   0.00728   0.00728   2.68778
   R39        2.04874   0.00442   0.00000   0.00973   0.00973   2.05847
   R40        2.06707   0.00572   0.00000   0.01296   0.01296   2.08002
   R41        2.71734  -0.01791   0.00000  -0.03546  -0.03546   2.68188
   R42        2.90236  -0.00149   0.00000  -0.00393  -0.00393   2.89843
   R43        2.70058  -0.01592   0.00000  -0.03065  -0.03065   2.66993
   R44        2.07307   0.00652   0.00000   0.01491   0.01491   2.08798
   R45        2.06898  -0.00039   0.00000  -0.00088  -0.00088   2.06809
   R46        2.06543  -0.00114   0.00000  -0.00257  -0.00257   2.06286
   R47        2.06166   0.00075   0.00000   0.00169   0.00169   2.06335
   R48        2.68213  -0.00500   0.00000  -0.00933  -0.00933   2.67280
   R49        2.06424   0.00002   0.00000   0.00004   0.00004   2.06428
   R50        2.06571   0.00245   0.00000   0.00554   0.00554   2.07126
   R51        2.06698   0.00405   0.00000   0.00917   0.00917   2.07615
    A1        1.92388   0.00517   0.00000   0.02389   0.02380   1.94768
    A2        1.93333   0.00083   0.00000   0.00300   0.00296   1.93629
    A3        1.93326   0.00083   0.00000   0.00299   0.00295   1.93621
    A4        1.89128  -0.00280   0.00000  -0.01103  -0.01111   1.88016
    A5        1.89118  -0.00279   0.00000  -0.01100  -0.01108   1.88011
    A6        1.88967  -0.00152   0.00000  -0.00903  -0.00902   1.88065
    A7        1.92896   0.01132   0.00000   0.04176   0.04172   1.97068
    A8        1.91255  -0.00264   0.00000  -0.00462  -0.00459   1.90797
    A9        1.91244  -0.00262   0.00000  -0.00450  -0.00447   1.90797
   A10        1.91781  -0.00372   0.00000  -0.01290  -0.01308   1.90472
   A11        1.91793  -0.00375   0.00000  -0.01307  -0.01325   1.90467
   A12        1.87333   0.00107   0.00000  -0.00828  -0.00849   1.86484
   A13        1.93200   0.01350   0.00000   0.04909   0.04907   1.98107
   A14        1.91793  -0.00416   0.00000  -0.01323  -0.01338   1.90455
   A15        1.91860  -0.00420   0.00000  -0.01361  -0.01375   1.90485
   A16        1.91164  -0.00362   0.00000  -0.00887  -0.00888   1.90275
   A17        1.91245  -0.00364   0.00000  -0.00916  -0.00916   1.90329
   A18        1.87019   0.00166   0.00000  -0.00623  -0.00649   1.86371
   A19        1.91677   0.01653   0.00000   0.05995   0.05994   1.97671
   A20        1.92077  -0.00492   0.00000  -0.01492  -0.01505   1.90572
   A21        1.92095  -0.00492   0.00000  -0.01486  -0.01500   1.90595
   A22        1.91648  -0.00471   0.00000  -0.01307  -0.01314   1.90334
   A23        1.91642  -0.00469   0.00000  -0.01290  -0.01297   1.90346
   A24        1.87201   0.00221   0.00000  -0.00623  -0.00660   1.86540
   A25        1.92144   0.01635   0.00000   0.05945   0.05942   1.98087
   A26        1.92030  -0.00503   0.00000  -0.01572  -0.01594   1.90436
   A27        1.92015  -0.00488   0.00000  -0.01532  -0.01547   1.90468
   A28        1.91278  -0.00433   0.00000  -0.01047  -0.01051   1.90227
   A29        1.91505  -0.00466   0.00000  -0.01277  -0.01279   1.90225
   A30        1.87354   0.00206   0.00000  -0.00721  -0.00758   1.86596
   A31        1.91612   0.01778   0.00000   0.06416   0.06416   1.98028
   A32        1.91626  -0.00480   0.00000  -0.01263  -0.01271   1.90355
   A33        1.92395  -0.00554   0.00000  -0.01724  -0.01733   1.90662
   A34        1.91883  -0.00550   0.00000  -0.01677  -0.01695   1.90188
   A35        1.91903  -0.00508   0.00000  -0.01481  -0.01486   1.90417
   A36        1.86919   0.00256   0.00000  -0.00499  -0.00542   1.86377
   A37        1.89917   0.01993   0.00000   0.07274   0.07268   1.97185
   A38        1.92805  -0.00671   0.00000  -0.02287  -0.02317   1.90489
   A39        1.91832  -0.00540   0.00000  -0.01505  -0.01533   1.90300
   A40        1.92291  -0.00504   0.00000  -0.01190  -0.01184   1.91107
   A41        1.91634  -0.00576   0.00000  -0.01543  -0.01560   1.90075
   A42        1.87909   0.00253   0.00000  -0.00904  -0.00959   1.86950
   A43        1.93647   0.01095   0.00000   0.04002   0.03996   1.97643
   A44        1.87209  -0.00132   0.00000   0.00586   0.00569   1.87778
   A45        1.92799  -0.00453   0.00000  -0.01915  -0.01899   1.90900
   A46        1.93218  -0.00344   0.00000  -0.00837  -0.00884   1.92334
   A47        1.91971  -0.00315   0.00000  -0.01323  -0.01309   1.90663
   A48        1.87393   0.00117   0.00000  -0.00642  -0.00654   1.86740
   A49        1.94168   0.02279   0.00000   0.08183   0.08182   2.02350
   A50        1.90257  -0.00690   0.00000  -0.02308  -0.02277   1.87980
   A51        1.91960  -0.00594   0.00000  -0.01162  -0.01197   1.90762
   A52        1.91070  -0.00726   0.00000  -0.02694  -0.02686   1.88384
   A53        1.92082  -0.00692   0.00000  -0.01871  -0.01938   1.90144
   A54        1.86685   0.00336   0.00000  -0.00533  -0.00603   1.86082
   A55        1.93571   0.00277   0.00000   0.01640   0.01641   1.95212
   A56        1.90366  -0.00198   0.00000  -0.00683  -0.00701   1.89665
   A57        1.89152  -0.00130   0.00000  -0.01387  -0.01397   1.87755
   A58        1.95971   0.00070   0.00000   0.00776   0.00776   1.96747
   A59        1.88335  -0.00011   0.00000   0.00358   0.00367   1.88703
   A60        1.88804  -0.00020   0.00000  -0.00837  -0.00849   1.87955
   A61        1.93687   0.00074   0.00000  -0.00016  -0.00018   1.93669
   A62        1.95706  -0.00194   0.00000  -0.00702  -0.00703   1.95003
   A63        1.96274  -0.00031   0.00000   0.00052   0.00053   1.96327
   A64        1.89260  -0.00024   0.00000  -0.00452  -0.00455   1.88806
   A65        1.89474  -0.00091   0.00000  -0.00659  -0.00659   1.88815
   A66        1.81445   0.00276   0.00000   0.01845   0.01845   1.83290
   A67        1.91520   0.02172   0.00000   0.07650   0.07664   1.99184
   A68        1.93242  -0.00874   0.00000  -0.03711  -0.03705   1.89537
   A69        1.93168  -0.00556   0.00000  -0.01269  -0.01313   1.91855
   A70        1.91260  -0.00588   0.00000  -0.01822  -0.01761   1.89500
   A71        1.92024  -0.00690   0.00000  -0.01707  -0.01745   1.90279
   A72        1.85084   0.00439   0.00000   0.00502   0.00440   1.85523
   A73        1.96816  -0.01813   0.00000  -0.06048  -0.06084   1.90731
   A74        1.85308   0.00811   0.00000   0.04359   0.04434   1.89743
   A75        1.92943   0.00188   0.00000  -0.01020  -0.01121   1.91822
   A76        1.87248   0.00815   0.00000   0.04889   0.04974   1.92222
   A77        1.92480   0.00487   0.00000  -0.00078  -0.00238   1.92242
   A78        1.91317  -0.00448   0.00000  -0.01714  -0.01711   1.89606
   A79        1.94244   0.02590   0.00000   0.07780   0.07780   2.02024
   A80        1.94622   0.01305   0.00000   0.04516   0.04528   1.99150
   A81        1.88093  -0.02127   0.00000  -0.09562  -0.09570   1.78523
   A82        1.88212   0.00081   0.00000   0.00925   0.00797   1.89009
   A83        1.92323   0.01015   0.00000   0.03185   0.03244   1.95568
   A84        1.93358  -0.00426   0.00000   0.00460   0.00394   1.93752
   A85        1.89601   0.00063   0.00000   0.00071  -0.00003   1.89597
   A86        1.91889  -0.00185   0.00000  -0.00815  -0.00820   1.91069
   A87        1.97247  -0.00140   0.00000  -0.00503  -0.00505   1.96742
   A88        1.96090  -0.00311   0.00000  -0.01466  -0.01473   1.94617
   A89        1.88178   0.00227   0.00000   0.01190   0.01190   1.89368
   A90        1.88920   0.00211   0.00000   0.00709   0.00699   1.89619
   A91        1.83619   0.00250   0.00000   0.01105   0.01102   1.84721
   A92        1.97862   0.00731   0.00000   0.02196   0.02196   2.00058
   A93        1.89311  -0.00768   0.00000  -0.03469  -0.03461   1.85850
   A94        1.93604   0.00642   0.00000   0.02996   0.02993   1.96597
   A95        1.93677   0.00277   0.00000   0.01133   0.01120   1.94798
   A96        1.86897   0.00208   0.00000   0.01081   0.01099   1.87996
   A97        1.90385  -0.00010   0.00000  -0.00424  -0.00427   1.89959
   A98        1.92332  -0.00368   0.00000  -0.01414  -0.01433   1.90898
    D1       -3.14153   0.00001   0.00000   0.00003   0.00003  -3.14150
    D2        1.02569  -0.00090   0.00000  -0.00774  -0.00778   1.01791
    D3       -1.02548   0.00089   0.00000   0.00765   0.00769  -1.01779
    D4        1.04858  -0.00040   0.00000  -0.00365  -0.00368   1.04491
    D5       -1.06738  -0.00130   0.00000  -0.01142  -0.01148  -1.07887
    D6       -3.11855   0.00049   0.00000   0.00397   0.00399  -3.11456
    D7       -1.04862   0.00041   0.00000   0.00374   0.00377  -1.04485
    D8        3.11860  -0.00050   0.00000  -0.00402  -0.00404   3.11456
    D9        1.06743   0.00130   0.00000   0.01137   0.01144   1.07886
   D10        3.14039   0.00002   0.00000   0.00025   0.00025   3.14064
   D11        1.02662  -0.00149   0.00000  -0.01187  -0.01180   1.01483
   D12       -1.02757   0.00149   0.00000   0.01181   0.01174  -1.01583
   D13       -1.02994   0.00161   0.00000   0.01308   0.01300  -1.01694
   D14        3.13948   0.00010   0.00000   0.00097   0.00095   3.14043
   D15        1.08528   0.00308   0.00000   0.02465   0.02449   1.10977
   D16        1.02760  -0.00158   0.00000  -0.01263  -0.01254   1.01506
   D17       -1.08616  -0.00309   0.00000  -0.02474  -0.02458  -1.11075
   D18       -3.14036  -0.00011   0.00000  -0.00106  -0.00105  -3.14141
   D19       -3.13881  -0.00004   0.00000  -0.00048  -0.00049  -3.13930
   D20        1.03257  -0.00165   0.00000  -0.01321  -0.01314   1.01943
   D21       -1.02697   0.00161   0.00000   0.01251   0.01244  -1.01452
   D22       -1.02133   0.00110   0.00000   0.00883   0.00884  -1.01249
   D23       -3.13312  -0.00052   0.00000  -0.00390  -0.00382  -3.13694
   D24        1.09052   0.00274   0.00000   0.02183   0.02177   1.11229
   D25        1.02552  -0.00112   0.00000  -0.00921  -0.00922   1.01630
   D26       -1.08628  -0.00274   0.00000  -0.02194  -0.02188  -1.10816
   D27        3.13736   0.00053   0.00000   0.00379   0.00371   3.14107
   D28        3.13526   0.00013   0.00000   0.00137   0.00136   3.13662
   D29        1.02535  -0.00177   0.00000  -0.01375  -0.01365   1.01171
   D30       -1.03530   0.00172   0.00000   0.01394   0.01385  -1.02144
   D31       -1.03354   0.00158   0.00000   0.01280   0.01277  -1.02078
   D32        3.13974  -0.00032   0.00000  -0.00231  -0.00224   3.13749
   D33        1.07909   0.00317   0.00000   0.02537   0.02526   1.10434
   D34        1.02070  -0.00133   0.00000  -0.01026  -0.01024   1.01046
   D35       -1.08921  -0.00323   0.00000  -0.02537  -0.02525  -1.11446
   D36        3.13332   0.00026   0.00000   0.00231   0.00225   3.13557
   D37       -3.13410  -0.00010   0.00000  -0.00091  -0.00088  -3.13498
   D38        1.03766  -0.00154   0.00000  -0.01290  -0.01289   1.02477
   D39       -1.01751   0.00156   0.00000   0.01122   0.01112  -1.00639
   D40       -1.01969   0.00130   0.00000   0.01074   0.01079  -1.00890
   D41       -3.13112  -0.00014   0.00000  -0.00125  -0.00122  -3.13234
   D42        1.09690   0.00295   0.00000   0.02286   0.02279   1.11969
   D43        1.03340  -0.00150   0.00000  -0.01173  -0.01167   1.02173
   D44       -1.07802  -0.00295   0.00000  -0.02372  -0.02368  -1.10170
   D45       -3.13319   0.00015   0.00000   0.00039   0.00033  -3.13286
   D46       -3.12932  -0.00010   0.00000  -0.00169  -0.00175  -3.13107
   D47        1.04080  -0.00247   0.00000  -0.01937  -0.01916   1.02164
   D48       -1.03030   0.00191   0.00000   0.01526   0.01520  -1.01510
   D49       -1.01945   0.00180   0.00000   0.01292   0.01274  -1.00671
   D50       -3.13252  -0.00057   0.00000  -0.00476  -0.00466  -3.13718
   D51        1.07957   0.00381   0.00000   0.02987   0.02969   1.10926
   D52        1.03432  -0.00142   0.00000  -0.01213  -0.01216   1.02216
   D53       -1.07875  -0.00379   0.00000  -0.02981  -0.02957  -1.10831
   D54        3.13334   0.00059   0.00000   0.00483   0.00479   3.13813
   D55        3.10914   0.00076   0.00000   0.01050   0.01061   3.11975
   D56        0.99681  -0.00068   0.00000  -0.00669  -0.00687   0.98994
   D57       -1.04034   0.00111   0.00000   0.00786   0.00776  -1.03258
   D58       -1.05783   0.00204   0.00000   0.02120   0.02139  -1.03644
   D59        3.11303   0.00060   0.00000   0.00400   0.00391   3.11694
   D60        1.07588   0.00239   0.00000   0.01856   0.01854   1.09442
   D61        1.00890  -0.00144   0.00000  -0.00658  -0.00639   1.00251
   D62       -1.10343  -0.00288   0.00000  -0.02378  -0.02387  -1.12730
   D63       -3.14058  -0.00109   0.00000  -0.00922  -0.00924   3.13337
   D64       -3.12607  -0.00227   0.00000  -0.02802  -0.02816   3.12896
   D65        1.04843  -0.00311   0.00000  -0.03107  -0.03098   1.01745
   D66       -0.99321   0.00025   0.00000  -0.00453  -0.00447  -0.99768
   D67       -1.04955   0.00090   0.00000  -0.00033  -0.00053  -1.05008
   D68        3.12495   0.00006   0.00000  -0.00338  -0.00335   3.12160
   D69        1.08331   0.00342   0.00000   0.02316   0.02316   1.10647
   D70        1.01860  -0.00176   0.00000  -0.02174  -0.02183   0.99677
   D71       -1.09008  -0.00261   0.00000  -0.02479  -0.02466  -1.11474
   D72       -3.13172   0.00076   0.00000   0.00175   0.00186  -3.12986
   D73        1.03637   0.00114   0.00000   0.01925   0.01932   1.05569
   D74       -3.07975   0.00253   0.00000   0.03543   0.03547  -3.04428
   D75       -1.02798   0.00046   0.00000   0.01383   0.01398  -1.01400
   D76        3.14027   0.00232   0.00000   0.02500   0.02476  -3.11815
   D77       -0.97585   0.00371   0.00000   0.04119   0.04091  -0.93494
   D78        1.07592   0.00164   0.00000   0.01958   0.01942   1.09534
   D79       -1.09578  -0.00196   0.00000  -0.00842  -0.00830  -1.10408
   D80        1.07128  -0.00057   0.00000   0.00776   0.00786   1.07913
   D81        3.12305  -0.00265   0.00000  -0.01384  -0.01364   3.10941
   D82        1.07599  -0.00001   0.00000   0.00542   0.00546   1.08145
   D83       -1.04349   0.00113   0.00000   0.01624   0.01626  -1.02723
   D84       -3.08095  -0.00088   0.00000  -0.00284  -0.00281  -3.08376
   D85       -1.05878   0.00003   0.00000  -0.00318  -0.00322  -1.06200
   D86        3.10491   0.00117   0.00000   0.00764   0.00758   3.11250
   D87        1.06745  -0.00083   0.00000  -0.01144  -0.01148   1.05597
   D88       -3.13789  -0.00006   0.00000   0.00019   0.00022  -3.13768
   D89        1.02580   0.00108   0.00000   0.01101   0.01102   1.03683
   D90       -1.01166  -0.00093   0.00000  -0.00807  -0.00805  -1.01970
   D91        3.09969  -0.00289   0.00000  -0.03898  -0.03921   3.06048
[...]
 -0.00768791,0.00229222,-0.08307065,0.07551077,0.00000025,0.00000031,-0
 .00000117,-0.00000097,-0.00000063,0.00000205,0.00000124,0.00000072,-0.
 00000280,-0.00000266,-0.00000099,0.00000359,0.00000243,0.00000122,-0.0
 0000585,-0.00000600,-0.00000195,0.00000731,0.00000645,0.00000201,-0.00
 001363,-0.00001612,0.00000010,0.00001696,0.00001328,0.00000760,-0.0000
 3656,-0.00001433,0.00001964,0.00008431,0.00000437,-0.00000326,-0.00003
 618,-0.00002421,-0.00010355,-0.00009398,0.00022543,-0.00033105,0.00109
 424,-0.00357303,-0.00224770,-0.00065440,-0.01073888,0.00713316,-0.0025
 6688,-0.03101061,0.00795314,-0.05117853,0.00039206,0.00064246,0.000041
 15,0.00046680,0.00021178,0.00021444,-0.00000109,0.00000015,-0.00000074
 ,-0.00000006,0.00000004,0.00000034,0.,-0.00000014,0.00000023,0.,0.0000
 0025,-0.00000024,-0.00000002,-0.00000007,-0.00000024,-0.00000020,-0.00
 000010,0.00000007,-0.00000022,0.00000007,0.00000012,0.,0.00000046,-0.0
 0000036,-0.00000002,-0.00000019,-0.00000045,-0.00000040,-0.00000020,0.
 00000012,-0.00000051,0.00000032,0.00000036,0.,0.00000082,-0.00000072,-
 0.00000009,-0.00000026,-0.00000070,-0.00000101,-0.00000052,0.00000044,
 -0.00000117,0.00000087,0.00000084,0.00000078,0.00000164,-0.00000206,0.
 00000012,-0.00000123,-0.00000130,0.00000357,0.00000026,0.00000117,-0.0
 0000329,0.00000413,0.00000133,0.00000288,-0.00000249,-0.00000211,0.000
 00168,0.00000113,0.00000361,-0.00001294,0.00001653,-0.00001288,-0.0000
 1466,-0.00001241,0.00002560,-0.00003646,0.00004455,-0.00000675,-0.0000
 1322,0.00003157,0.00000752,0.00030359,-0.00001514,0.00014053,-0.000029
 54,-0.00007708,-0.00006919,0.00069641,0.00027945,0.00007160,0.02720785
 ,-0.00845310,0.00542353,-0.01907129,0.00532593,-0.00307888,0.03540287,
 -0.01044009,0.05058646,0.00000012,0.00000021,-0.00000037,-0.00000042,-
 0.00000003,0.00000044,0.00000044,0.00000057,-0.00000106,-0.00000124,-0
 .00000018,0.00000114,0.00000105,0.00000134,-0.00000269,-0.00000357,-0.
 00000067,0.00000321,0.00000310,0.00000351,-0.00000794,-0.00001225,-0.0
 0000079,0.00000965,0.00000751,0.00001373,-0.00002966,-0.00004808,-0.00
 000725,0.00004132,-0.00000261,-0.00000474,-0.00000710,0.00003143,0.000
 07332,-0.00014047,-0.00020699,0.00009001,0.00046744,-0.00058875,0.0011
 7603,-0.00120861,-0.00327652,0.00155926,0.00204509,-0.00036776,0.00044
 840,-0.00047650,0.00064593,0.03248416,-0.02078203,-0.06376790,-0.05889
 718,0.04337589,-0.00000020,0.,0.,-0.00000002,0.00000001,0.,-0.00000010
 ,-0.00000016,0.00000005,-0.00000003,-0.00000014,0.00000006,0.00000002,
 0.,-0.00000008,-0.00000022,-0.00000032,0.00000007,-0.00000005,0.000000
 04,0.00000004,0.,-0.00000023,0.00000009,0.00000005,-0.00000001,-0.0000
 0020,-0.00000047,-0.00000064,0.00000016,-0.00000010,0.00000005,0.00000
 005,0.00000002,-0.00000038,0.00000017,0.00000015,-0.00000009,-0.000000
 55,-0.00000117,-0.00000149,0.00000040,-0.00000031,0.00000019,0.0000002
 1,0.00000043,-0.00000034,0.00000001,0.00000047,-0.00000038,-0.00000113
 ,-0.00000039,-0.00000290,0.00000100,-0.00000146,0.00000105,0.00000072,
 0.00000239,-0.00000083,-0.00000318,0.00000011,0.00000077,0.00000172,-0
 .00000349,0.00000597,-0.00000467,-0.00000495,-0.00000585,0.00000699,-0
 .00000218,-0.00001000,0.00000331,-0.00000075,0.00000265,0.00000437,0.0
 0000440,0.00005309,-0.00006382,0.00001037,-0.00002047,-0.00003800,0.00
 003524,-0.00018002,-0.00031367,0.00007305,-0.00007222,0.00000672,0.000
 35335,0.00014077,0.00009837,0.00046211,0.00015759,0.00006336,0.0716352
 7,-0.00000072,-0.00000069,0.00000193,0.00000118,0.00000055,-0.00000288
 ,-0.00000222,-0.00000157,0.00000404,0.00000341,0.00000092,-0.00000443,
 -0.00000391,-0.00000274,0.00000751,0.00000736,0.00000199,-0.00000893,-
 0.00000896,-0.00000517,0.00001640,0.00001993,0.00000076,-0.00001928,-0
 .00001613,-0.00001802,0.00004528,0.00004961,0.00001235,-0.00007208,-0.
 00000105,0.00000655,0.00001794,-0.00004871,-0.00005894,0.00015380,0.00
 007964,0.00004982,-0.00067761,0.00067587,-0.00088816,0.00123550,0.0019
 9046,0.00119692,-0.00340788,-0.00027897,-0.00010242,0.00041357,0.00515
 419,-0.02432141,0.01462466,-0.04928043,-0.20451906,0.11791334,0.000001
 64,-0.00000031,0.00000103,0.00000011,-0.00000014,-0.00000048,0.0000002
 6,0.00000066,-0.00000050,0.00000018,0.00000022,0.00000010,0.00000005,-
 0.00000005,0.00000037,0.00000062,0.00000080,-0.00000021,0.00000041,-0.
 00000028,-0.00000022,0.00000015,0.00000023,0.00000014,0.,0.00000002,0.
 00000053,0.00000110,0.00000128,-0.00000031,0.00000073,-0.00000045,-0.0
 0000037,0.00000018,0.00000027,0.00000032,-0.00000003,0.00000013,0.0000
 0107,0.00000234,0.00000242,-0.00000064,0.00000148,-0.00000100,-0.00000
 093,-0.00000104,0.00000012,0.00000090,-0.00000024,0.00000057,0.0000017
 2,-0.00000040,0.00000393,-0.00000157,0.00000356,-0.00000334,-0.0000013
 4,-0.00000332,-0.00000022,0.00000494,-0.00000187,-0.00000016,-0.000004
 71,0.00000863,-0.00001394,0.00001407,0.00001509,0.00001172,-0.00001703
 ,0.00000811,0.00001044,-0.00000513,0.00000326,-0.00000649,-0.00000657,
 -0.00001499,-0.00004897,0.00006470,-0.00001378,0.00001345,0.00007200,-
 0.00006185,0.00008476,0.00036841,0.00009015,-0.00002640,0.00001268,-0.
 00009331,-0.00013913,-0.00002886,0.00011448,-0.00004240,-0.00001236,0.
 04545208,0.22969294,0.00000032,0.00000054,-0.00000088,-0.00000065,-0.0
 0000008,0.00000138,0.00000111,0.00000130,-0.00000194,-0.00000172,-0.00
 000018,0.00000231,0.00000203,0.00000220,-0.00000370,-0.00000357,-0.000
 00074,0.00000440,0.00000481,0.00000402,-0.00000741,-0.00000811,-0.0000
 0029,0.00000867,0.00000871,0.00001024,-0.00001576,-0.00000874,-0.00000
 935,0.00002443,0.00000266,-0.00000200,-0.00000683,0.00002484,0.0000320
 4,-0.00001819,0.00010766,-0.00015524,0.00020350,-0.00041467,0.00045262
 ,0.00016431,0.00036572,-0.00101669,0.00046548,-0.00023683,0.00003768,0
 .00014956,-0.00223780,-0.00089826,0.00217012,0.03690412,0.12277454,-0.
 14265406,-0.00000075,0.00000016,-0.00000047,0.,-0.00000001,0.00000013,
 -0.00000022,-0.00000047,0.00000030,-0.00000012,-0.00000035,0.00000005,
 0.00000008,0.00000001,-0.00000035,-0.00000052,-0.00000069,0.00000027,-
 0.00000007,-0.00000005,-0.00000006,-0.00000011,-0.00000049,0.00000010,
 0.00000013,-0.00000003,-0.00000061,-0.00000091,-0.00000110,0.00000041,
 -0.00000024,-0.00000004,0.,-0.00000011,-0.00000073,0.00000007,0.000000
 22,0.00000005,-0.00000097,-0.00000181,-0.00000190,0.00000077,-0.000000
 61,-0.00000008,0.00000021,0.00000053,-0.00000113,-0.00000001,0.0000005
 1,0.00000006,-0.00000152,-0.00000134,-0.00000269,0.00000147,-0.0000020
 4,0.00000016,0.00000015,0.00000247,0.00000192,-0.00000250,0.,-0.000000
 10,0.00000250,-0.00000373,0.00000596,-0.00000646,-0.00000867,-0.000006
 64,0.00000663,-0.00000532,-0.00000459,0.00000345,-0.00000879,-0.000001
 41,0.00000241,-0.00000300,0.00002530,-0.00002775,0.00002349,0.00001648
 ,-0.00001557,-0.00024749,-0.00009099,0.00071292,0.00007335,0.00002005,
 0.00004558,0.00006252,0.00002029,0.00000779,0.00014450,0.00008494,-0.0
 0002380,-0.03942515,-0.13399893,0.14720375,0.00000087,0.00000069,-0.00
 000269,-0.00000162,-0.00000125,0.00000458,0.00000283,0.00000108,-0.000
 00529,-0.00000438,-0.00000210,0.00000656,0.00000441,0.00000164,-0.0000
 0908,-0.00000848,-0.00000373,0.00001189,0.00000933,0.00000196,-0.00001
 828,-0.00002076,-0.00000275,0.00002267,0.00001569,0.00001266,-0.000045
 42,-0.00003799,-0.00001429,0.00007920,-0.00000916,-0.00000743,-0.00002
 998,0.00003615,0.00004946,-0.00012494,0.00006969,-0.00013098,0.0006175
 4,-0.00047995,0.00157786,-0.00106796,-0.00070983,-0.00689496,0.0043076
 7,-0.00073049,0.00069175,-0.00043524,-0.03556389,0.00565143,-0.0096732
 5,-0.20276594,-0.09194074,-0.06747549,-0.00000263,0.00000047,-0.000001
 92,-0.00000016,0.00000004,0.00000091,-0.00000003,-0.00000040,0.0000007
 2,-0.00000011,0.00000051,-0.00000054,-0.00000009,-0.00000015,-0.000000
 53,-0.00000031,0.00000003,0.00000006,-0.00000060,0.00000021,0.00000034
 ,-0.00000006,0.00000110,-0.00000092,-0.00000011,-0.00000027,-0.0000007
 1,-0.00000034,0.00000015,0.00000008,-0.00000103,0.00000039,0.00000063,
 -0.00000006,0.00000216,-0.00000182,-0.00000020,-0.00000053,-0.00000115
 ,-0.00000038,0.00000069,0.00000022,-0.00000197,0.00000116,0.00000142,0
 .00000065,0.00000500,-0.00000469,-0.00000034,-0.00000128,-0.00000138,0
 .00000811,0.00000291,0.00000119,-0.00000529,0.00000392,0.00000241,0.00
 000362,0.00000288,-0.00000332,-0.00000101,0.00000335,0.00000810,-0.000
 00952,0.00002184,-0.00001855,-0.00001162,-0.00001661,0.00001791,0.0000
 2774,0.00000026,0.00001428,-0.00001350,0.00000714,0.00000987,0.0000197
 1,0.00016731,-0.00015547,-0.00000264,0.00001037,-0.00007331,0.00028968
 ,0.00049555,-0.00065640,0.00005597,-0.00006669,0.00007419,0.00060986,0
 .00037536,0.00021038,0.00097593,0.00004109,-0.00009695,-0.00478716,-0.
 00541342,-0.00321378,0.23779100,0.00000006,-0.00000021,-0.00000021,0.0
 0000015,-0.00000041,0.00000031,0.00000015,-0.00000057,-0.00000008,0.00
 000031,-0.00000050,0.,-0.00000012,-0.00000125,0.00000064,0.00000132,-0
 .00000067,-0.00000088,-0.00000082,-0.00000286,0.00000286,0.00000474,-0
 .00000110,-0.00000390,-0.00000303,-0.00000739,0.00001067,0.00001770,-0
 .00000290,-0.00001450,0.00000088,0.00000142,0.00000346,-0.00002020,-0.
 00003012,0.00004234,-0.00000608,-0.00015882,-0.00011346,0.00018869,-0.
 00070196,0.00049177,0.00146515,0.00376238,-0.00033470,0.00027502,-0.00
 021994,-0.00057108,0.02583381,0.00944095,0.00898069,-0.09592546,-0.107
 99187,-0.04078860,-0.00000029,0.00000003,-0.00000034,-0.00000011,0.000
 00012,0.00000029,0.00000014,0.00000015,0.,0.00000003,0.00000033,-0.000
 00020,-0.00000013,0.00000006,0.00000019,0.00000024,0.00000039,-0.00000
 017,-0.00000018,0.00000017,0.00000018,0.00000003,0.00000057,-0.0000003
 0,-0.00000014,0.00000005,0.00000035,0.00000051,0.00000074,-0.00000033,
 -0.00000027,0.00000030,0.00000026,0.00000004,0.00000105,-0.00000048,-0
 .00000026,0.00000010,0.00000078,0.00000113,0.00000145,-0.00000072,-0.0
 0000041,0.00000064,0.00000040,-0.00000012,0.00000164,-0.00000054,-0.00
 000055,0.00000024,0.00000179,0.00000174,0.00000221,-0.00000164,-0.0000
 0030,0.00000127,0.00000046,-0.00000129,0.00000111,0.00000473,0.0000002
 9,0.00000078,0.00000017,0.00000098,-0.00000181,0.00000066,0.00000273,0
 .00000222,-0.00000256,0.00000198,0.00000279,-0.00000674,-0.00000147,0.
 00000353,-0.00000049,0.00002963,-0.00002962,0.00008122,0.00000048,0.00
 001822,0.00002616,-0.00000037,-0.00040431,0.00012575,0.00000317,-0.000
 05077,0.00001389,-0.00008763,0.00043836,-0.00001370,-0.00004259,-0.001
 30020,0.00012961,-0.01926524,-0.01046524,-0.01017117,0.09546489,0.1109
 3248,0.,-0.00000009,-0.00000017,0.,-0.00000043,0.00000025,0.00000014,-
 0.00000038,-0.00000020,0.00000003,-0.00000070,0.00000017,0.00000006,-0
 .00000077,-0.00000003,0.00000041,-0.00000122,-0.00000035,-0.00000032,-
 0.00000154,0.00000058,0.00000139,-0.00000258,-0.00000180,-0.00000110,-
 0.00000166,0.00000259,0.00000380,-0.00000855,-0.00000656,-0.00000501,-
 0.00000007,0.00000012,0.00000058,0.00000584,0.00001398,-0.00002892,-0.
 00004700,-0.00009785,0.00015482,0.00030603,0.00006578,-0.00107455,-0.0
 0158986,0.00033887,-0.00037460,0.00007937,0.00017340,0.00083661,0.0047
 0989,0.00510530,-0.06817964,-0.04066015,-0.08280424,-0.00000021,-0.000
 00001,-0.00000023,-0.00000009,0.00000009,0.00000022,0.00000013,0.00000
 013,-0.00000003,0.00000005,0.00000031,-0.00000018,-0.00000008,0.000000
 06,0.00000017,0.00000021,0.00000033,-0.00000015,-0.00000017,0.00000013
 ,0.00000018,0.00000005,0.00000058,-0.00000027,-0.00000010,0.00000008,0
 .00000033,0.00000045,0.00000059,-0.00000030,-0.00000032,0.00000031,0.0
 0000032,0.00000002,0.00000109,-0.00000047,-0.00000023,0.00000021,0.000
 00081,0.00000115,0.00000116,-0.00000063,-0.00000058,0.00000067,0.00000
 056,-0.00000038,0.00000242,-0.00000099,-0.00000041,0.00000030,0.000001
 87,0.00000333,0.00000219,-0.00000150,-0.00000137,0.00000157,0.00000105
 ,-0.00000008,0.00000241,0.00000616,-0.00000143,0.00000284,0.00000137,0
 .00000103,0.00000092,0.00000004,0.00000326,-0.00000136,-0.00000222,0.0
 0001345,0.00000124,-0.00000340,-0.00000692,0.00000543,0.00000290,0.000
 00364,0.00004258,-0.00000253,-0.00001036,0.00001485,0.00003859,-0.0000
 1680,-0.00031904,-0.00025045,0.00011263,-0.00016056,-0.00007406,0.0002
 4958,-0.00003475,-0.00007378,0.00039120,0.00037303,0.00018066,0.015764
 64,0.00931912,0.00754969,0.07649844,0.04412624,0.08072847,0.00000030,0
 .00000060,-0.00000097,-0.00000082,-0.00000003,0.00000175,0.00000112,0.
 00000119,-0.00000216,-0.00000211,-0.00000020,0.00000297,0.00000200,0.0
 0000216,-0.00000432,-0.00000460,-0.00000050,0.00000591,0.00000492,0.00
 000373,-0.00000934,-0.00001089,0.00000158,0.00001294,0.00000902,0.0000
 1121,-0.00002239,-0.00001534,-0.00000053,0.00004367,0.00000185,-0.0000
 0225,-0.00001320,0.00002320,0.00001700,-0.00003603,0.00011257,-0.00013
 580,0.00025710,-0.00020726,0.00004582,-0.00049893,-0.00003932,-0.00482
 062,0.00478223,-0.00010372,0.00029205,-0.00054405,-0.01544590,0.022758
 78,0.02725295,-0.05371604,0.00751667,0.02503599,-0.00000090,0.00000019
 ,-0.00000060,0.00000006,-0.00000012,0.00000013,-0.00000018,-0.00000041
 ,0.00000035,-0.00000010,-0.00000022,0.,0.00000012,-0.00000015,-0.00000
 051,-0.00000049,-0.00000049,0.00000028,0.00000001,-0.00000017,-0.00000
 013,-0.00000006,-0.00000026,-0.00000003,0.00000012,-0.00000022,-0.0000
 0090,-0.00000087,-0.00000085,0.00000050,-0.00000002,-0.00000028,-0.000
 00012,0.,-0.00000048,-0.00000017,0.00000022,-0.00000033,-0.00000169,-0
 .00000192,-0.00000144,0.00000114,-0.00000003,-0.00000061,-0.00000010,0
 .00000072,-0.00000088,-0.00000090,0.00000053,-0.00000092,-0.00000377,-
 0.00000097,-0.00000163,0.00000292,-0.00000077,-0.00000172,-0.00000061,
 0.00000293,-0.00000074,-0.00001040,0.00000115,-0.00000251,0.00000222,-
 0.00000584,0.00000888,-0.00000896,-0.00000967,-0.00000715,0.00001063,-
 0.00000928,-0.00000106,0.00001340,-0.00000377,-0.00000885,0.00000328,0
 .00001882,0.00002141,-0.00005798,-0.00001390,0.00004851,-0.00010045,0.
 00063313,0.00008330,-0.00145695,-0.00010838,-0.00014943,-0.00007493,0.
 00027293,0.00020707,0.00003809,0.00015628,0.00008658,-0.00012546,-0.00
 018788,0.00155912,0.00810710,0.00525047,-0.00793892,-0.02433746,0.0633
 9854,0.00000007,-0.00000019,0.00000023,0.00000028,0.00000006,-0.000000
 70,-0.00000022,-0.00000022,0.00000052,0.00000062,0.00000022,-0.0000011
 7,-0.00000039,-0.00000028,0.00000121,0.00000120,0.00000037,-0.00000196
 ,-0.00000090,-0.00000016,0.00000266,0.00000311,-0.00000062,-0.00000455
 ,-0.00000168,-0.00000169,0.00000691,0.00000445,-0.00000234,-0.00001777
 ,0.00000483,-0.00000044,0.00000634,0.00000008,0.00001276,0.00003414,-0
 .00007346,0.00001744,-0.00014786,-0.00015033,-0.00006153,0.00061273,0.
 00143997,0.00370393,-0.00755065,-0.00024723,-0.00044404,0.00082501,0.0
 1589879,-0.01548697,-0.01718590,0.00688058,-0.07209245,-0.06453017,0.0
 0000031,-0.00000006,0.00000026,-0.00000008,0.00000010,-0.00000001,-0.0
 0000002,0.00000005,-0.00000009,0.00000001,-0.00000011,0.00000007,-0.00
 000007,0.00000017,0.00000025,0.00000002,-0.00000007,-0.00000004,-0.000
 00008,0.00000016,0.00000014,0.00000001,-0.00000028,0.00000013,0.,0.000
 00022,0.00000037,0.,-0.00000011,-0.00000005,-0.00000009,0.00000013,0.0
 0000008,0.00000002,-0.00000048,0.00000028,0.00000011,0.00000031,0.0000
 0054,-0.00000005,-0.00000037,-0.00000017,-0.00000027,0.00000025,0.0000
 0009,-0.00000003,-0.00000106,0.00000087,0.00000015,0.00000103,0.000001
 52,-0.00000145,-0.00000101,-0.00000071,-0.00000060,0.00000092,0.000000
 53,0.00000091,0.00000215,0.00000594,-0.00000260,0.00000199,0.00000020,
 0.00000230,-0.00000376,0.00000388,0.00000065,0.00000076,-0.00000541,-0
 .00000608,-0.00000188,-0.00000541,-0.00001484,0.00000701,-0.00000133,-
 0.00000500,-0.00002223,0.00003489,0.00003762,0.00000583,0.00010544,-0.
 00079352,0.00028557,0.00167472,0.00005854,0.00021849,0.00013688,-0.000
 13644,-0.00020753,-0.00001066,-0.00002111,0.00005937,-0.00010539,-0.00
 319225,0.00957289,0.02287583,-0.00009974,-0.00324321,-0.01617128,-0.01
 958609,0.07768092,0.00000021,-0.00000069,0.00000043,0.00000079,-0.0000
 0037,-0.00000184,-0.00000042,-0.00000131,0.00000119,0.00000192,-0.0000
 0034,-0.00000328,-0.00000099,-0.00000207,0.00000325,0.00000399,-0.0000
 0020,-0.00000604,-0.00000311,-0.00000319,0.00000786,0.00001093,-0.0000
 0275,-0.00001386,-0.00000569,-0.00001012,0.00002226,0.00002263,-0.0000
 0468,-0.00004872,0.00000389,0.00000045,0.00001180,-0.00000747,-0.00002
 587,0.00007480,0.00005861,-0.00013461,-0.00040532,-0.00017911,0.000006
 58,0.00093970,-0.00109365,0.00291517,0.00139926,0.00012075,-0.00025344
 ,0.00005839,0.00842891,-0.00544541,0.00370836,0.02885064,-0.06671601,-
 0.26456116,0.00000068,-0.00000020,0.00000052,-0.00000034,0.00000051,0.
 00000029,0.00000010,0.00000022,-0.00000035,0.00000011,0.00000006,0.,-0
 .00000034,0.00000061,0.00000104,0.00000036,0.00000017,-0.00000035,-0.0
 0000050,0.00000083,0.00000073,0.00000005,-0.00000004,0.00000004,-0.000
 00025,0.00000083,0.00000164,0.00000066,0.00000033,-0.00000060,-0.00000
 066,0.00000104,0.00000075,0.00000006,-0.00000004,0.00000025,-0.0000001
 7,0.00000105,0.00000261,0.00000142,0.00000032,-0.00000139,-0.00000106,
 0.00000182,0.00000095,-0.00000046,-0.00000028,0.00000119,-0.00000060,0
 .00000249,0.00000568,-0.00000003,-0.00000015,-0.00000345,-0.00000164,0
 .00000418,0.00000211,-0.00000172,0.00000585,0.00001591,-0.00000458,0.0
 0000529,0.00000050,0.00000594,-0.00000850,0.00000908,0.00000516,0.0000
 0364,-0.00001238,0.00000702,-0.00000053,-0.00001265,-0.00000575,0.0000
 1010,0.00000249,-0.00001020,-0.00000506,0.00005121,0.00000217,0.000042
 94,0.00006335,0.00022472,-0.00179402,0.00090400,-0.00001474,0.00016721
 ,-0.00001366,-0.00001680,-0.00013386,0.00002394,0.00002268,0.00000534,
 -0.00011821,0.00061014,-0.00602278,-0.01594401,0.00122782,-0.00201910,
 -0.01089203,-0.03826205,0.07940861,0.28472376\\0.00000114,-0.00000022,
 0.00000084,0.00000008,-0.00000036,0.00000145,0.00000102,0.00000023,-0.
 00000091,-0.00000127,-0.00000046,0.00000101,0.00000147,0.00000006,-0.0
 0000079,-0.00000123,-0.00000076,0.00000154,-0.00000183,0.00000084,-0.0
 0000264,0.00000106,-0.00000119,0.00000306,-0.00000179,-0.00000123,-0.0
 0000238,-0.00000013,0.00000357,0.00000006,-0.00000190,-0.00000779,-0.0
 0000063,0.00000306,-0.00000017,-0.00000106,-0.00000242,-0.00000194,-0.
 00000262,-0.00000024,-0.00000880,0.00000770,0.00000441,0.00000062,-0.0
 0000845,-0.00000057,-0.00000028,0.00000114,-0.00000535,0.00000852,0.00
 000082,0.00000105,0.00000043,-0.00000501,0.00000079,0.,0.00000058,-0.0
 0000024,0.00000031,0.00000040,-0.00000027,0.,0.00000052,0.00000029,0.0
 0000028,-0.00000033,0.00000010,-0.00000024,-0.00000028,-0.00000042,-0.
 00000025,0.00000079,-0.00000030,0.00000038,0.00000081,0.00000024,0.000
 00045,-0.00000042,0.00000024,-0.00000022,-0.00000044,-0.00000059,-0.00
 000023,0.00000075,-0.00000023,0.00000040,0.00000077,0.00000043,0.00000
 041,-0.00000057,0.00000018,-0.00000005,-0.00000045,-0.00000030,-0.0000
 0065,0.00000049,0.00000031,0.00000018,0.00000071,0.00000114,0.00000094
 ,-0.00000107,-0.00000030,0.00000037,-0.00000035,-0.00000007,0.00000002
 ,0.00000068,-0.00000008,0.00000059,-0.00000021,0.00000066,0.00000083,0
 .00000034,0.00000064,0.00000143,-0.00000040,-0.00000003,0.00000153,-0.
 00000063,0.00000068,0.00000061,-0.00000057,0.00000047,0.00000024,0.000
 00101,-0.00000033,0.00000083,0.00000014,-0.00000166,-0.00000044,0.0000
 0047,0.00000148,0.00000085,-0.00000087,-0.00000010,-0.00000193,0.00000
 105,0.00000131,0.00000158,0.00000087,0.00000125,-0.00000092,0.00000113
 ,0.00000116,-0.00000054,0.00000061,-0.00000167,0.00000077,-0.00000007,
 -0.00000121,0.00000082,0.00000079,-0.00000015,0.00000061,0.00000061\\\
 @


 THE REASON MAN'S BEST FRIEND IS A DOG IS BECAUSE
 HE WAGS HIS TAIL INSTEAD OF HIS TONGUE.
 Job cpu time:       0 days 18 hours 41 minutes 58.1 seconds.
 Elapsed time:       0 days  4 hours 40 minutes 31.1 seconds.
 File lengths (MBytes):  RWF=   1629 Int=      0 D2E=      0 Chk=     38 Scr=      1
 Normal termination of Gaussian 16 at Tue May 23 09:09:36 2023.
### All Done ###
