### Starting Gaussian ###
 Entering Gaussian System, Link 0=g16
 Initial command:
 /cluster/software/gaussian/gaussian-16-A.03/avx2/g16/l1.exe "/local/scratch/yxie/Gau-30702.inp" -scrdir="/local/scratch/yxie/"
 Entering Link 1 = /cluster/software/gaussian/gaussian-16-A.03/avx2/g16/l1.exe PID=     30703.
  
 Copyright (c) 1988,1990,1992,1993,1995,1998,2003,2009,2016,
            Gaussian, Inc.  All Rights Reserved.
  
 This is part of the Gaussian(R) 16 program.  It is based on
 the Gaussian(R) 09 system (copyright 2009, Gaussian, Inc.),
 the Gaussian(R) 03 system (copyright 2003, Gaussian, Inc.),
 the Gaussian(R) 98 system (copyright 1998, Gaussian, Inc.),
 the Gaussian(R) 94 system (copyright 1995, Gaussian, Inc.),
 the Gaussian 92(TM) system (copyright 1992, Gaussian, Inc.),
 the Gaussian 90(TM) system (copyright 1990, Gaussian, Inc.),
 the Gaussian 88(TM) system (copyright 1988, Gaussian, Inc.),
 the Gaussian 86(TM) system (copyright 1986, Carnegie Mellon
 University), and the Gaussian 82(TM) system (copyright 1983,
 Carnegie Mellon University). Gaussian is a federally registered
 trademark of Gaussian, Inc.
  
 This software contains proprietary and confidential information,
 including trade secrets, belonging to Gaussian, Inc.
  
 This software is provided under written license and may be
 used, copied, transmitted, or stored only in accord with that
 written license.
  
 The following legend is applicable only to US Government
 contracts under FAR:
  
                    RESTRICTED RIGHTS LEGEND
  
 Use, reproduction and disclosure by the US Government is
 subject to restrictions as set forth in subparagraphs (a)
 and (c) of the Commercial Computer Software - Restricted
 Rights clause in FAR 52.227-19.
  
 Gaussian, Inc.
 340 Quinnipiac St., Bldg. 40, Wallingford CT 06492
  
  
 ---------------------------------------------------------------
 Warning -- This program may not be used in any manner that
 competes with the business of Gaussian, Inc. or will provide
 assistance to any competitor of Gaussian, Inc.  The licensee
 of this program is prohibited from giving any competitor of
 Gaussian, Inc. access to this program.  By using this program,
 the user acknowledges that Gaussian, Inc. is engaged in the
 business of creating and licensing software in the field of
 computational chemistry and represents and warrants to the
 licensee that it is not a competitor of Gaussian, Inc. and that
 it will not use this program in any manner prohibited above.
 ---------------------------------------------------------------
  

 Cite this work as:
 Gaussian 16, Revision A.03,
 M. J. Frisch, G. W. Trucks, H. B. Schlegel, G. E. Scuseria, 
 M. A. Robb, J. R. Cheeseman, G. Scalmani, V. Barone, 
 G. A. Petersson, H. Nakatsuji, X. Li, M. Caricato, A. V. Marenich, 
 J. Bloino, B. G. Janesko, R. Gomperts, B. Mennucci, H. P. Hratchian, 
 J. V. Ortiz, A. F. Izmaylov, J. L. Sonnenberg, D. Williams-Young, 
 F. Ding, F. Lipparini, F. Egidi, J. Goings, B. Peng, A. Petrone, 
 T. Henderson, D. Ranasinghe, V. G. Zakrzewski, J. Gao, N. Rega, 
 G. Zheng, W. Liang, M. Hada, M. Ehara, K. Toyota, R. Fukuda, 
 J. Hasegawa, M. Ishida, T. Nakajima, Y. Honda, O. Kitao, H. Nakai, 
 T. Vreven, K. Throssell, J. A. Montgomery, Jr., J. E. Peralta, 
 F. Ogliaro, M. J. Bearpark, J. J. Heyd, E. N. Brothers, K. N. Kudin, 
 V. N. Staroverov, T. A. Keith, R. Kobayashi, J. Normand, 
 K. Raghavachari, A. P. Rendell, J. C. Burant, S. S. Iyengar, 
 J. Tomasi, M. Cossi, J. M. Millam, M. Klene, C. Adamo, R. Cammi, 
 J. W. Ochterski, R. L. Martin, K. Morokuma, O. Farkas, 
 J. B. Foresman, and D. J. Fox, Gaussian, Inc., Wallingford CT, 2016.
 
 ******************************************
 Gaussian 16:  ES64L-G16RevA.03 25-Dec-2016
                22-May-2023 
 ******************************************
 %chk=CCCCCCCCCCCqCrCCCCCOC.chk
 %NProcShared=20
 Will use up to   20 processors via shared memory.
 -----------------------------
 # opt freq b3lyp/6-31g(2df,p)
 -----------------------------
 1/18=20,19=15,26=3,38=1/1,3;
 2/9=110,12=2,17=6,18=5,40=1/2;
 3/5=1,6=6,7=104,11=2,25=1,30=1,71=1,74=-5/1,2,3;
 4//1;
 5/5=2,38=5/2;
 6/7=2,8=2,9=2,10=2,28=1/1;
 7//1,2,3,16;
 1/18=20,19=15,26=3/3(2);
 2/9=110/2;
 99//99;
 2/9=110/2;
 3/5=1,6=6,7=104,11=2,25=1,30=1,71=1,74=-5/1,2,3;
 4/5=5,16=3,69=1/1;
 5/5=2,38=5/2;
 7//1,2,3,16;
 1/18=20,19=15,26=3/3(-5);
 2/9=110/2;
 6/7=2,8=2,9=2,10=2,19=2,28=1/1;
 99/9=1/99;
 -------------------
 Title Card Required
 -------------------
 Symbolic Z-matrix:
 Charge =  0 Multiplicity = 1
 C                     0.94916  -0.10289  -0.08237 
 C                     2.46617  -0.09418  -0.07711 
 C                     2.99367   1.13686   0.64863 
 C                     4.51498   1.14472   0.65318 
 C                     5.03358   2.37697   1.37762 
 C                     6.55287   2.37645   1.37236 
 C                     7.07467   3.60797   2.0862 
 C                     8.59511   3.60966   2.07069 
 C                     9.08778   4.83931   2.8069 
 C                     10.60747   4.87259   2.86864 
 C                     11.10727   6.10324   3.63957 
 C                     10.58016   6.11243   5.08201 
 C                     12.64263   6.11828   3.60316 
 C                     13.20479   7.35613   4.2912 
 C                     14.72143   7.35188   4.27689 
 C                     15.24446   8.57655   5.01535 
 C                     16.76025   8.56555   5.0209 
 O                     17.22395   9.72232   5.70766 
 C                     18.64403   9.75231   5.72753 
 H                     0.57776  -0.98887  -0.6047 
 H                     0.55756   0.78496  -0.58875 
 H                     0.5575   -0.11607   0.93965 
 H                     2.83639  -0.10584  -1.10877 
 H                     2.83638  -1.00249   0.41204 
 H                     2.62266   1.1495    1.68065 
 H                     2.62252   2.04582   0.16004 
 H                     4.89239   1.13637  -0.37651 
 H                     4.89305   0.24068   1.14513 
 H                     4.66448   2.3888    2.41052 
 H                     4.65992   3.28486   0.88949 
 H                     6.92431   2.36275   0.34089 
 H                     6.92869   1.47382   1.86753 
 H                     6.7108    3.61893   3.12193 
 H                     6.6949    4.51513   1.60243 
 H                     8.96732   3.60905   1.03978 
 H                     8.97363   2.7056    2.5602 
 H                     8.6635    4.80853   3.81523 
 H                     8.71508   5.74769   2.32221 
 H                     11.00652   4.89164   1.84493 
 H                     10.98294   3.95611   3.33671 
 H                     10.73984   7.00214   3.1316 
 H                     10.92134   5.22797   5.62743 
 H                     9.48833   6.1418    5.11866 
 H                     10.90115   7.00232   5.62872 
 H                     12.98451   6.10188   2.55874 
 H                     13.03785   5.21318   4.07753 
 H                     12.88652   7.38944   5.33761 
 H                     12.82176   8.25765   3.80196 
 H                     15.08737   7.34558   3.24352 
 H                     15.09126   6.44136   4.76193 
 H                     14.87008   8.59394   6.04739 
 H                     14.87559   9.49656   4.54669 
 H                     17.13502   8.57322   3.99118 
 H                     17.12435   7.66568   5.52894 
 H                     18.96385   10.65169   6.25863 
 H                     19.03578   9.78569   4.70643 
 H                     19.03374   8.87401   6.25093 
 

 GradGradGradGradGradGradGradGradGradGradGradGradGradGradGradGradGradGrad
 Berny optimization.
 Initialization pass.
                           ----------------------------
                           !    Initial Parameters    !
                           ! (Angstroms and Degrees)  !
 --------------------------                            --------------------------
 ! Name  Definition              Value          Derivative Info.                !
 --------------------------------------------------------------------------------
 ! R1    R(1,2)                  1.517          estimate D2E/DX2                !
 ! R2    R(1,20)                 1.0935         estimate D2E/DX2                !
 ! R3    R(1,21)                 1.0946         estimate D2E/DX2                !
 ! R4    R(1,22)                 1.0946         estimate D2E/DX2                !
 ! R5    R(2,3)                  1.5233         estimate D2E/DX2                !
 ! R6    R(2,23)                 1.0961         estimate D2E/DX2                !
 ! R7    R(2,24)                 1.0961         estimate D2E/DX2                !
 ! R8    R(3,4)                  1.5213         estimate D2E/DX2                !
 ! R9    R(3,25)                 1.0968         estimate D2E/DX2                !
 ! R10   R(3,26)                 1.0967         estimate D2E/DX2                !
 ! R11   R(4,5)                  1.5206         estimate D2E/DX2                !
 ! R12   R(4,27)                 1.0967         estimate D2E/DX2                !
 ! R13   R(4,28)                 1.0965         estimate D2E/DX2                !
 ! R14   R(5,6)                  1.5193         estimate D2E/DX2                !
 ! R15   R(5,29)                 1.0969         estimate D2E/DX2                !
 ! R16   R(5,30)                 1.0964         estimate D2E/DX2                !
 ! R17   R(6,7)                  1.5161         estimate D2E/DX2                !
 ! R18   R(6,31)                 1.0964         estimate D2E/DX2                !
 ! R19   R(6,32)                 1.096          estimate D2E/DX2                !
 ! R20   R(7,8)                  1.5205         estimate D2E/DX2                !
 ! R21   R(7,33)                 1.0978         estimate D2E/DX2                !
 ! R22   R(7,34)                 1.096          estimate D2E/DX2                !
 ! R23   R(8,9)                  1.5155         estimate D2E/DX2                !
 ! R24   R(8,35)                 1.096          estimate D2E/DX2                !
 ! R25   R(8,36)                 1.0955         estimate D2E/DX2                !
 ! R26   R(9,10)                 1.5213         estimate D2E/DX2                !
 ! R27   R(9,37)                 1.0944         estimate D2E/DX2                !
 ! R28   R(9,38)                 1.095          estimate D2E/DX2                !
 ! R29   R(10,11)                1.5358         estimate D2E/DX2                !
 ! R30   R(10,39)                1.0989         estimate D2E/DX2                !
 ! R31   R(10,40)                1.0954         estimate D2E/DX2                !
 ! R32   R(11,12)                1.5358         estimate D2E/DX2                !
 ! R33   R(11,13)                1.5359         estimate D2E/DX2                !
 ! R34   R(11,41)                1.0959         estimate D2E/DX2                !
 ! R35   R(12,42)                1.0937         estimate D2E/DX2                !
 ! R36   R(12,43)                1.0928         estimate D2E/DX2                !
 ! R37   R(12,44)                1.0926         estimate D2E/DX2                !
 ! R38   R(13,14)                1.5237         estimate D2E/DX2                !
 ! R39   R(13,45)                1.0991         estimate D2E/DX2                !
 ! R40   R(13,46)                1.0956         estimate D2E/DX2                !
 ! R41   R(14,15)                1.5167         estimate D2E/DX2                !
 ! R42   R(14,47)                1.0942         estimate D2E/DX2                !
 ! R43   R(14,48)                1.0949         estimate D2E/DX2                !
 ! R44   R(15,16)                1.5227         estimate D2E/DX2                !
 ! R45   R(15,49)                1.0963         estimate D2E/DX2                !
 ! R46   R(15,50)                1.0959         estimate D2E/DX2                !
 ! R47   R(16,17)                1.5158         estimate D2E/DX2                !
 ! R48   R(16,51)                1.098          estimate D2E/DX2                !
 ! R49   R(16,52)                1.0964         estimate D2E/DX2                !
 ! R50   R(17,18)                1.4229         estimate D2E/DX2                !
 ! R51   R(17,53)                1.0958         estimate D2E/DX2                !
 ! R52   R(17,54)                1.0956         estimate D2E/DX2                !
 ! R53   R(18,19)                1.4205         estimate D2E/DX2                !
 ! R54   R(19,55)                1.0924         estimate D2E/DX2                !
 ! R55   R(19,56)                1.0942         estimate D2E/DX2                !
 ! R56   R(19,57)                1.0942         estimate D2E/DX2                !
 ! A1    A(2,1,20)             110.2396         estimate D2E/DX2                !
 ! A2    A(2,1,21)             110.7757         estimate D2E/DX2                !
 ! A3    A(2,1,22)             110.7715         estimate D2E/DX2                !
 ! A4    A(20,1,21)            108.3437         estimate D2E/DX2                !
 ! A5    A(20,1,22)            108.3439         estimate D2E/DX2                !
 ! A6    A(21,1,22)            108.2835         estimate D2E/DX2                !
 ! A7    A(1,2,3)              110.6448         estimate D2E/DX2                !
 ! A8    A(1,2,23)             109.5371         estimate D2E/DX2                !
 ! A9    A(1,2,24)             109.5449         estimate D2E/DX2                !
 ! A10   A(3,2,23)             109.8794         estimate D2E/DX2                !
 ! A11   A(3,2,24)             109.8847         estimate D2E/DX2                !
 ! A12   A(23,2,24)            107.2855         estimate D2E/DX2                !
 ! A13   A(2,3,4)              110.6026         estimate D2E/DX2                !
 ! A14   A(2,3,25)             109.9061         estimate D2E/DX2                !
 ! A15   A(2,3,26)             109.8991         estimate D2E/DX2                !
 ! A16   A(4,3,25)             109.5968         estimate D2E/DX2                !
 ! A17   A(4,3,26)             109.6016         estimate D2E/DX2                !
 ! A18   A(25,3,26)            107.1688         estimate D2E/DX2                !
 ! A19   A(3,4,5)              110.283          estimate D2E/DX2                !
 ! A20   A(3,4,27)             109.9546         estimate D2E/DX2                !
 ! A21   A(3,4,28)             109.9917         estimate D2E/DX2                !
 ! A22   A(5,4,27)             109.6401         estimate D2E/DX2                !
 ! A23   A(5,4,28)             109.6823         estimate D2E/DX2                !
 ! A24   A(27,4,28)            107.2364         estimate D2E/DX2                !
 ! A25   A(4,5,6)              109.8234         estimate D2E/DX2                !
 ! A26   A(4,5,29)             110.0348         estimate D2E/DX2                !
 ! A27   A(4,5,30)             110.0411         estimate D2E/DX2                !
 ! A28   A(6,5,29)             109.8614         estimate D2E/DX2                !
 ! A29   A(6,5,30)             109.8487         estimate D2E/DX2                !
 ! A30   A(29,5,30)            107.1941         estimate D2E/DX2                !
 ! A31   A(5,6,7)              110.0151         estimate D2E/DX2                !
 ! A32   A(5,6,31)             110.0013         estimate D2E/DX2                !
 ! A33   A(5,6,32)             109.9758         estimate D2E/DX2                !
 ! A34   A(7,6,31)             109.6646         estimate D2E/DX2                !
 ! A35   A(7,6,32)             109.7703         estimate D2E/DX2                !
 ! A36   A(31,6,32)            107.3728         estimate D2E/DX2                !
 ! A37   A(6,7,8)              109.8927         estimate D2E/DX2                !
 ! A38   A(6,7,33)             109.7699         estimate D2E/DX2                !
 ! A39   A(6,7,34)             110.1977         estimate D2E/DX2                !
 ! A40   A(8,7,33)             109.94           estimate D2E/DX2                !
 ! A41   A(8,7,34)             109.9419         estimate D2E/DX2                !
 ! A42   A(33,7,34)            107.0566         estimate D2E/DX2                !
 ! A43   A(7,8,9)              108.7243         estimate D2E/DX2                !
 ! A44   A(7,8,35)             110.4365         estimate D2E/DX2                !
 ! A45   A(7,8,36)             109.8778         estimate D2E/DX2                !
 ! A46   A(9,8,35)             110.3021         estimate D2E/DX2                !
 ! A47   A(9,8,36)             109.888          estimate D2E/DX2                !
 ! A48   A(35,8,36)            107.6062         estimate D2E/DX2                !
 ! A49   A(8,9,10)             111.2356         estimate D2E/DX2                !
 ! A50   A(8,9,37)             107.3814         estimate D2E/DX2                !
 ! A51   A(8,9,38)             110.33           estimate D2E/DX2                !
 ! A52   A(10,9,37)            110.5177         estimate D2E/DX2                !
 ! A53   A(10,9,38)            109.8662         estimate D2E/DX2                !
 ! A54   A(37,9,38)            107.4104         estimate D2E/DX2                !
 ! A55   A(9,10,11)            111.2841         estimate D2E/DX2                !
 ! A56   A(9,10,39)            108.9851         estimate D2E/DX2                !
 ! A57   A(9,10,40)            109.964          estimate D2E/DX2                !
 ! A58   A(11,10,39)           109.6067         estimate D2E/DX2                !
 ! A59   A(11,10,40)           110.1433         estimate D2E/DX2                !
 ! A60   A(39,10,40)           106.7435         estimate D2E/DX2                !
 ! A61   A(10,11,12)           111.3813         estimate D2E/DX2                !
 ! A62   A(10,11,13)           108.7401         estimate D2E/DX2                !
 ! A63   A(10,11,41)           108.3895         estimate D2E/DX2                !
 ! A64   A(12,11,13)           111.4272         estimate D2E/DX2                !
 ! A65   A(12,11,41)           108.3826         estimate D2E/DX2                !
 ! A66   A(13,11,41)           108.4295         estimate D2E/DX2                !
 ! A67   A(11,12,42)           110.8845         estimate D2E/DX2                !
 ! A68   A(11,12,43)           111.9975         estimate D2E/DX2                !
 ! A69   A(11,12,44)           111.9626         estimate D2E/DX2                !
 ! A70   A(42,12,43)           108.4619         estimate D2E/DX2                !
 ! A71   A(42,12,44)           108.5098         estimate D2E/DX2                !
 ! A72   A(43,12,44)           104.764          estimate D2E/DX2                !
 ! A73   A(11,13,14)           111.4735         estimate D2E/DX2                !
 ! A74   A(11,13,45)           109.4717         estimate D2E/DX2                !
 ! A75   A(11,13,46)           110.0139         estimate D2E/DX2                !
 ! A76   A(14,13,45)           109.054          estimate D2E/DX2                !
 ! A77   A(14,13,46)           110.0304         estimate D2E/DX2                !
 ! A78   A(45,13,46)           106.6723         estimate D2E/DX2                !
 ! A79   A(13,14,15)           111.2468         estimate D2E/DX2                !
 ! A80   A(13,14,47)           110.4405         estimate D2E/DX2                !
 ! A81   A(13,14,48)           109.7593         estimate D2E/DX2                !
 ! A82   A(15,14,47)           107.4546         estimate D2E/DX2                !
 ! A83   A(15,14,48)           110.3593         estimate D2E/DX2                !
 ! A84   A(47,14,48)           107.4867         estimate D2E/DX2                !
 ! A85   A(14,15,16)           109.6721         estimate D2E/DX2                !
 ! A86   A(14,15,49)           110.0414         estimate D2E/DX2                !
 ! A87   A(14,15,50)           109.6085         estimate D2E/DX2                !
 ! A88   A(16,15,49)           110.31           estimate D2E/DX2                !
 ! A89   A(16,15,50)           109.7336         estimate D2E/DX2                !
 ! A90   A(49,15,50)           107.4436         estimate D2E/DX2                !
 ! A91   A(15,16,17)           109.8409         estimate D2E/DX2                !
 ! A92   A(15,16,51)           110.5762         estimate D2E/DX2                !
 ! A93   A(15,16,52)           110.6102         estimate D2E/DX2                !
 ! A94   A(17,16,51)           109.7327         estimate D2E/DX2                !
 ! A95   A(17,16,52)           110.1254         estimate D2E/DX2                !
 ! A96   A(51,16,52)           105.8888         estimate D2E/DX2                !
 ! A97   A(16,17,18)           108.7676         estimate D2E/DX2                !
 ! A98   A(16,17,53)           109.7852         estimate D2E/DX2                !
 ! A99   A(16,17,54)           109.8746         estimate D2E/DX2                !
 ! A100  A(18,17,53)           109.6565         estimate D2E/DX2                !
 ! A101  A(18,17,54)           109.6087         estimate D2E/DX2                !
 ! A102  A(53,17,54)           109.1362         estimate D2E/DX2                !
 ! A103  A(17,18,19)           110.4679         estimate D2E/DX2                !
 ! A104  A(18,19,55)           108.4737         estimate D2E/DX2                !
 ! A105  A(18,19,56)           110.2127         estimate D2E/DX2                !
 ! A106  A(18,19,57)           110.2304         estimate D2E/DX2                !
 ! A107  A(55,19,56)           108.8919         estimate D2E/DX2                !
 ! A108  A(55,19,57)           108.9078         estimate D2E/DX2                !
 ! A109  A(56,19,57)           110.0823         estimate D2E/DX2                !
 ! D1    D(20,1,2,3)           179.9993         estimate D2E/DX2                !
 ! D2    D(20,1,2,23)           58.7159         estimate D2E/DX2                !
 ! D3    D(20,1,2,24)          -58.7057         estimate D2E/DX2                !
 ! D4    D(21,1,2,3)            60.0894         estimate D2E/DX2                !
 ! D5    D(21,1,2,23)          -61.1939         estimate D2E/DX2                !
 ! D6    D(21,1,2,24)         -178.6155         estimate D2E/DX2                !
 ! D7    D(22,1,2,3)           -60.0933         estimate D2E/DX2                !
 ! D8    D(22,1,2,23)          178.6234         estimate D2E/DX2                !
 ! D9    D(22,1,2,24)           61.2018         estimate D2E/DX2                !
 ! D10   D(1,2,3,4)           -179.9927         estimate D2E/DX2                !
 ! D11   D(1,2,3,25)            58.8617         estimate D2E/DX2                !
 ! D12   D(1,2,3,26)           -58.8458         estimate D2E/DX2                !
 ! D13   D(23,2,3,4)           -58.912          estimate D2E/DX2                !
 ! D14   D(23,2,3,25)          179.9424         estimate D2E/DX2                !
 ! D15   D(23,2,3,26)           62.235          estimate D2E/DX2                !
 ! D16   D(24,2,3,4)            58.9133         estimate D2E/DX2                !
 ! D17   D(24,2,3,25)          -62.2323         estimate D2E/DX2                !
 ! D18   D(24,2,3,26)         -179.9398         estimate D2E/DX2                !
 ! D19   D(2,3,4,5)            179.9303         estimate D2E/DX2                !
 ! D20   D(2,3,4,27)            58.9062         estimate D2E/DX2                !
 ! D21   D(2,3,4,28)           -58.9688         estimate D2E/DX2                !
 ! D22   D(25,3,4,5)           -58.7411         estimate D2E/DX2                !
 ! D23   D(25,3,4,27)         -179.7652         estimate D2E/DX2                !
 ! D24   D(25,3,4,28)           62.3599         estimate D2E/DX2                !
 ! D25   D(26,3,4,5)            58.6072         estimate D2E/DX2                !
 ! D26   D(26,3,4,27)          -62.4169         estimate D2E/DX2                !
 ! D27   D(26,3,4,28)          179.7081         estimate D2E/DX2                !
 ! D28   D(3,4,5,6)           -179.8312         estimate D2E/DX2                !
 ! D29   D(3,4,5,29)            59.1136         estimate D2E/DX2                !
 ! D30   D(3,4,5,30)           -58.7879         estimate D2E/DX2                !
 ! D31   D(27,4,5,6)           -58.6195         estimate D2E/DX2                !
 ! D32   D(27,4,5,29)         -179.6747         estimate D2E/DX2                !
 ! D33   D(27,4,5,30)           62.4239         estimate D2E/DX2                !
 ! D34   D(28,4,5,6)            58.8835         estimate D2E/DX2                !
 ! D35   D(28,4,5,29)          -62.1716         estimate D2E/DX2                !
 ! D36   D(28,4,5,30)          179.9269         estimate D2E/DX2                !
 ! D37   D(4,5,6,7)            179.648          estimate D2E/DX2                !
 ! D38   D(4,5,6,31)            58.7357         estimate D2E/DX2                !
 ! D39   D(4,5,6,32)           -59.3248         estimate D2E/DX2                !
 ! D40   D(29,5,6,7)           -59.1926         estimate D2E/DX2                !
 ! D41   D(29,5,6,31)          179.8951         estimate D2E/DX2                !
 ! D42   D(29,5,6,32)           61.8346         estimate D2E/DX2                !
 ! D43   D(30,5,6,7)            58.4888         estimate D2E/DX2                !
 ! D44   D(30,5,6,31)          -62.4234         estimate D2E/DX2                !
 ! D45   D(30,5,6,32)          179.5161         estimate D2E/DX2                !
 ! D46   D(5,6,7,8)           -179.6005         estimate D2E/DX2                !
 ! D47   D(5,6,7,33)            59.3719         estimate D2E/DX2                !
 ! D48   D(5,6,7,34)           -58.2954         estimate D2E/DX2                !
 ! D49   D(31,6,7,8)           -58.4862         estimate D2E/DX2                !
 ! D50   D(31,6,7,33)         -179.5138         estimate D2E/DX2                !
 ! D51   D(31,6,7,34)           62.8188         estimate D2E/DX2                !
 ! D52   D(32,6,7,8)            59.2491         estimate D2E/DX2                !
 ! D53   D(32,6,7,33)          -61.7785         estimate D2E/DX2                !
 ! D54   D(32,6,7,34)         -179.4459         estimate D2E/DX2                !
 ! D55   D(6,7,8,9)           -179.2022         estimate D2E/DX2                !
 ! D56   D(6,7,8,35)            59.6486         estimate D2E/DX2                !
 ! D57   D(6,7,8,36)           -58.9039         estimate D2E/DX2                !
 ! D58   D(33,7,8,9)           -58.2769         estimate D2E/DX2                !
 ! D59   D(33,7,8,35)         -179.4262         estimate D2E/DX2                !
 ! D60   D(33,7,8,36)           62.0213         estimate D2E/DX2                !
 ! D61   D(34,7,8,9)            59.3395         estimate D2E/DX2                !
 ! D62   D(34,7,8,35)          -61.8097         estimate D2E/DX2                !
 ! D63   D(34,7,8,36)          179.6378         estimate D2E/DX2                !
 ! D64   D(7,8,9,10)           177.9862         estimate D2E/DX2                !
 ! D65   D(7,8,9,37)            56.9446         estimate D2E/DX2                !
 ! D66   D(7,8,9,38)           -59.8206         estimate D2E/DX2                !
 ! D67   D(35,8,9,10)          -60.7821         estimate D2E/DX2                !
 ! D68   D(35,8,9,37)          178.1763         estimate D2E/DX2                !
 ! D69   D(35,8,9,38)           61.4111         estimate D2E/DX2                !
 ! D70   D(36,8,9,10)           57.6943         estimate D2E/DX2                !
 ! D71   D(36,8,9,37)          -63.3473         estimate D2E/DX2                !
 ! D72   D(36,8,9,38)          179.8875         estimate D2E/DX2                !
 ! D73   D(8,9,10,11)         -178.8288         estimate D2E/DX2                !
 ! D74   D(8,9,10,39)           60.1827         estimate D2E/DX2                !
 ! D75   D(8,9,10,40)          -56.504          estimate D2E/DX2                !
 ! D76   D(37,9,10,11)         -59.6442         estimate D2E/DX2                !
 ! D77   D(37,9,10,39)         179.3674         estimate D2E/DX2                !
 ! D78   D(37,9,10,40)          62.6807         estimate D2E/DX2                !
 ! D79   D(38,9,10,11)          58.7099         estimate D2E/DX2                !
 ! D80   D(38,9,10,39)         -62.2786         estimate D2E/DX2                !
 ! D81   D(38,9,10,40)        -178.9653         estimate D2E/DX2                !
 ! D82   D(9,10,11,12)          59.7621         estimate D2E/DX2                !
 ! D83   D(9,10,11,13)        -177.069          estimate D2E/DX2                !
 ! D84   D(9,10,11,41)         -59.3853         estimate D2E/DX2                !
 ! D85   D(39,10,11,12)       -179.6145         estimate D2E/DX2                !
 ! D86   D(39,10,11,13)        -56.4455         estimate D2E/DX2                !
 ! D87   D(39,10,11,41)         61.2382         estimate D2E/DX2                !
 ! D88   D(40,10,11,12)        -62.4591         estimate D2E/DX2                !
 ! D89   D(40,10,11,13)         60.7099         estimate D2E/DX2                !
 ! D90   D(40,10,11,41)        178.3935         estimate D2E/DX2                !
 ! D91   D(10,11,12,42)         60.6723         estimate D2E/DX2                !
 ! D92   D(10,11,12,43)        -60.6394         estimate D2E/DX2                !
 ! D93   D(10,11,12,44)       -177.979          estimate D2E/DX2                !
 ! D94   D(13,11,12,42)        -60.9481         estimate D2E/DX2                !
 ! D95   D(13,11,12,43)        177.7403         estimate D2E/DX2                !
 ! D96   D(13,11,12,44)         60.4006         estimate D2E/DX2                !
 ! D97   D(41,11,12,42)        179.8237         estimate D2E/DX2                !
 ! D98   D(41,11,12,43)         58.5121         estimate D2E/DX2                !
 ! D99   D(41,11,12,44)        -58.8275         estimate D2E/DX2                !
 ! D100  D(10,11,13,14)        177.0839         estimate D2E/DX2                !
 ! D101  D(10,11,13,45)         56.3418         estimate D2E/DX2                !
 ! D102  D(10,11,13,46)        -60.5716         estimate D2E/DX2                !
 ! D103  D(12,11,13,14)        -59.7747         estimate D2E/DX2                !
 ! D104  D(12,11,13,45)        179.4832         estimate D2E/DX2                !
 ! D105  D(12,11,13,46)         62.5698         estimate D2E/DX2                !
 ! D106  D(41,11,13,14)         59.4256         estimate D2E/DX2                !
 ! D107  D(41,11,13,45)        -61.3165         estimate D2E/DX2                !
 ! D108  D(41,11,13,46)       -178.2299         estimate D2E/DX2                !
 ! D109  D(11,13,14,15)        178.8544         estimate D2E/DX2                !
 ! D110  D(11,13,14,47)         59.6213         estimate D2E/DX2                !
 ! D111  D(11,13,14,48)        -58.7134         estimate D2E/DX2                !
 ! D112  D(45,13,14,15)        -60.1593         estimate D2E/DX2                !
 ! D113  D(45,13,14,47)       -179.3924         estimate D2E/DX2                !
 ! D114  D(45,13,14,48)         62.2729         estimate D2E/DX2                !
 ! D115  D(46,13,14,15)         56.5194         estimate D2E/DX2                !
 ! D116  D(46,13,14,47)        -62.7137         estimate D2E/DX2                !
 ! D117  D(46,13,14,48)        178.9516         estimate D2E/DX2                !
 ! D118  D(13,14,15,16)       -177.9949         estimate D2E/DX2                !
 ! D119  D(13,14,15,49)         60.4857         estimate D2E/DX2                !
 ! D120  D(13,14,15,50)        -57.4635         estimate D2E/DX2                !
 ! D121  D(47,14,15,16)        -56.9944         estimate D2E/DX2                !
 ! D122  D(47,14,15,49)       -178.5138         estimate D2E/DX2                !
 ! D123  D(47,14,15,50)         63.537          estimate D2E/DX2                !
 ! D124  D(48,14,15,16)         59.9199         estimate D2E/DX2                !
 ! D125  D(48,14,15,49)        -61.5994         estimate D2E/DX2                !
 ! D126  D(48,14,15,50)       -179.5487         estimate D2E/DX2                !
 ! D127  D(14,15,16,17)        179.1772         estimate D2E/DX2                !
 ! D128  D(14,15,16,51)         57.9217         estimate D2E/DX2                !
 ! D129  D(14,15,16,52)        -59.0534         estimate D2E/DX2                !
 ! D130  D(49,15,16,17)        -59.4649         estimate D2E/DX2                !
 ! D131  D(49,15,16,51)        179.2796         estimate D2E/DX2                !
 ! D132  D(49,15,16,52)         62.3045         estimate D2E/DX2                !
 ! D133  D(50,15,16,17)         58.7217         estimate D2E/DX2                !
 ! D134  D(50,15,16,51)        -62.5337         estimate D2E/DX2                !
 ! D135  D(50,15,16,52)       -179.5088         estimate D2E/DX2                !
 ! D136  D(15,16,17,18)        179.6165         estimate D2E/DX2                !
 ! D137  D(15,16,17,53)         59.6303         estimate D2E/DX2                !
 ! D138  D(15,16,17,54)        -60.4018         estimate D2E/DX2                !
 ! D139  D(51,16,17,18)        -58.623          estimate D2E/DX2                !
 ! D140  D(51,16,17,53)       -178.6092         estimate D2E/DX2                !
 ! D141  D(51,16,17,54)         61.3587         estimate D2E/DX2                !
 ! D142  D(52,16,17,18)         57.5581         estimate D2E/DX2                !
 ! D143  D(52,16,17,53)        -62.4282         estimate D2E/DX2                !
 ! D144  D(52,16,17,54)        177.5397         estimate D2E/DX2                !
 ! D145  D(16,17,18,19)       -179.6618         estimate D2E/DX2                !
 ! D146  D(53,17,18,19)        -59.5957         estimate D2E/DX2                !
 ! D147  D(54,17,18,19)         60.1918         estimate D2E/DX2                !
 ! D148  D(17,18,19,55)        179.8672         estimate D2E/DX2                !
 ! D149  D(17,18,19,56)         60.738          estimate D2E/DX2                !
 ! D150  D(17,18,19,57)        -60.9737         estimate D2E/DX2                !
 --------------------------------------------------------------------------------
 Trust Radius=3.00D-01 FncErr=1.00D-07 GrdErr=1.00D-06 EigMax=2.50D+02 EigMin=1.00D-04
 Number of steps in this run=    325 maximum allowed number of steps=    342.
 GradGradGradGradGradGradGradGradGradGradGradGradGradGradGradGradGradGrad

 Stoichiometry    C18H38O
 Framework group  C1[X(C18H38O)]
 Deg. of freedom   165
 Full point group                 C1      NOp   1
 Largest Abelian subgroup         C1      NOp   1
 Largest concise Abelian subgroup C1      NOp   1
                         Standard orientation:                         
 ---------------------------------------------------------------------
 Center     Atomic      Atomic             Coordinates (Angstroms)
 Number     Number       Type             X           Y           Z
 ---------------------------------------------------------------------
      1          6           0      -10.691393    0.262568   -0.143852
      2          6           0       -9.440360   -0.538155    0.164665
      3          6           0       -8.191170    0.272465   -0.156010
      4          6           0       -6.937232   -0.531450    0.153550
      5          6           0       -5.695134    0.283575   -0.170682
      6          6           0       -4.449836   -0.530111    0.138218
      7          6           0       -3.208573    0.275429   -0.191713
      8          6           0       -1.964248   -0.545011    0.109144
      9          6           0       -0.741264    0.290857   -0.210859
     10          6           0        0.540553   -0.460054    0.116943
     11          6           0        1.780045    0.396836   -0.179759
     12          6           0        1.774166    1.693674    0.642882
     13          6           0        3.037045   -0.439893    0.100808
     14          6           0        4.306989    0.329041   -0.242238
     15          6           0        5.545633   -0.491345    0.062964
     16          6           0        6.791754    0.327562   -0.245699
     17          6           0        8.032204   -0.481639    0.077177
     18          8           0        9.181190    0.300487   -0.227593
     19          6           0       10.367372   -0.428254    0.054949
     20          1           0      -11.583675   -0.325239    0.088620
     21          1           0      -10.725658    0.536514   -1.203016
     22          1           0      -10.720141    1.181793    0.449693
     23          1           0       -9.444215   -1.464473   -0.421374
     24          1           0       -9.438731   -0.822471    1.223207
     25          1           0       -8.187377    1.199921    0.429384
     26          1           0       -8.193087    0.557982   -1.214857
     27          1           0       -6.932985   -1.458652   -0.432153
     28          1           0       -6.926238   -0.815970    1.212402
     29          1           0       -5.689914    1.210246    0.416268
     30          1           0       -5.699502    0.570246   -1.228962
     31          1           0       -4.453634   -1.457912   -0.445954
     32          1           0       -4.439055   -0.810506    1.197670
     33          1           0       -3.198658    1.200886    0.398788
     34          1           0       -3.217038    0.568069   -1.247879
     35          1           0       -1.960831   -1.466632   -0.484083
     36          1           0       -1.953608   -0.831491    1.166517
     37          1           0       -0.809427    1.209535    0.379968
     38          1           0       -0.743597    0.579661   -1.267065
     39          1           0        0.577752   -1.381623   -0.480478
     40          1           0        0.536322   -0.765824    1.168841
     41          1           0        1.770574    0.662017   -1.243079
     42          1           0        1.780137    1.475583    1.714590
     43          1           0        0.903083    2.315204    0.421043
     44          1           0        2.634125    2.327296    0.413047
     45          1           0        3.003868   -1.362298   -0.495876
     46          1           0        3.056451   -0.746383    1.152529
     47          1           0        4.368422    1.248264    0.348214
     48          1           0        4.291481    0.616911   -1.298503
     49          1           0        5.540393   -1.414044   -0.528986
     50          1           0        5.544663   -0.779387    1.120374
     51          1           0        6.795116    1.259076    0.335540
     52          1           0        6.802962    0.631072   -1.299208
     53          1           0        8.042132   -1.399870   -0.520810
     54          1           0        8.038487   -0.745455    1.140568
     55          1           0       11.226454    0.199538   -0.192217
     56          1           0       10.406370   -1.337318   -0.552759
     57          1           0       10.409752   -0.684736    1.117801
 ---------------------------------------------------------------------
 Rotational constants (GHZ):           3.0798276           0.0458139           0.0454874
 Standard basis: 6-31G(2df,p) (6D, 7F)
 There are   779 symmetry adapted cartesian basis functions of A   symmetry.
 There are   722 symmetry adapted basis functions of A   symmetry.
   722 basis functions,  1102 primitive gaussians,   779 cartesian basis functions
    77 alpha electrons       77 beta electrons
       nuclear repulsion energy      1335.1886282990 Hartrees.
 NAtoms=   57 NActive=   57 NUniq=   57 SFac= 1.00D+00 NAtFMM=   60 NAOKFM=F Big=F
 Integral buffers will be    131072 words long.
 Raffenetti 2 integral format.
 Two-electron integral symmetry is turned on.
 One-electron integrals computed using PRISM.
 PrsmSu:  requested number of processors reduced to:  12 ShMem   1 Linda.
 NBasis=   722 RedAO= T EigKep=  4.19D-04  NBF=   722
 NBsUse=   722 1.00D-06 EigRej= -1.00D+00 NBFU=   722
 ExpMin= 1.61D-01 ExpMax= 5.48D+03 ExpMxC= 8.25D+02 IAcc=3 IRadAn=         5 AccDes= 0.00D+00
 Harris functional with IExCor=  402 and IRadAn=       5 diagonalized for initial guess.
 HarFok:  IExCor=  402 AccDes= 0.00D+00 IRadAn=         5 IDoV= 1 UseB2=F ITyADJ=14
 ICtDFT=  3500011 ScaDFX=  1.000000  1.000000  1.000000  1.000000
 FoFCou: FMM=F IPFlag=           0 FMFlag=      100000 FMFlg1=           0
         NFxFlg=           0 DoJE=T BraDBF=F KetDBF=T FulRan=T
         wScrn=  0.000000 ICntrl=       500 IOpCl=  0 I1Cent=   200000004 NGrid=           0
         NMat0=    1 NMatS0=      1 NMatT0=    0 NMatD0=    1 NMtDS0=    0 NMtDT0=    0
 Petite list used in FoFCou.
 Requested convergence on RMS density matrix=1.00D-08 within 128 cycles.
 Requested convergence on MAX density matrix=1.00D-06.
 Requested convergence on             energy=1.00D-06.
 No special actions if energy rises.
 Integral accuracy reduced to 1.0D-05 until final iterations.
 Initial convergence to 1.0D-05 achieved.  Increase integral accuracy.
 SCF Done:  E(RB3LYP) =  -784.099065472     A.U. after   12 cycles
            NFock= 12  Conv=0.29D-08     -V/T= 2.0082

 **********************************************************************

            Population analysis using the SCF density.

 **********************************************************************

 Orbital symmetries:
       Occupied  (A) (A) (A) (A) (A) (A) (A) (A) (A) (A) (A) (A)
                 (A) (A) (A) (A) (A) (A) (A) (A) (A) (A) (A) (A)
                 (A) (A) (A) (A) (A) (A) (A) (A) (A) (A) (A) (A)
                 (A) (A) (A) (A) (A) (A) (A) (A) (A) (A) (A) (A)
                 (A) (A) (A) (A) (A) (A) (A) (A) (A) (A) (A) (A)
                 (A) (A) (A) (A) (A) (A) (A) (A) (A) (A) (A) (A)
                 (A) (A) (A) (A) (A)
       Virtual   (A) (A) (A) (A) (A) (A) (A) (A) (A) (A) (A) (A)
                 (A) (A) (A) (A) (A) (A) (A) (A) (A) (A) (A) (A)
                 (A) (A) (A) (A) (A) (A) (A) (A) (A) (A) (A) (A)
                 (A) (A) (A) (A) (A) (A) (A) (A) (A) (A) (A) (A)
                 (A) (A) (A) (A) (A) (A) (A) (A) (A) (A) (A) (A)
                 (A) (A) (A) (A) (A) (A) (A) (A) (A) (A) (A) (A)
                 (A) (A) (A) (A) (A) (A) (A) (A) (A) (A) (A) (A)
                 (A) (A) (A) (A) (A) (A) (A) (A) (A) (A) (A) (A)
                 (A) (A) (A) (A) (A) (A) (A) (A) (A) (A) (A) (A)
                 (A) (A) (A) (A) (A) (A) (A) (A) (A) (A) (A) (A)
                 (A) (A) (A) (A) (A) (A) (A) (A) (A) (A) (A) (A)
                 (A) (A) (A) (A) (A) (A) (A) (A) (A) (A) (A) (A)
                 (A) (A) (A) (A) (A) (A) (A) (A) (A) (A) (A) (A)
                 (A) (A) (A) (A) (A) (A) (A) (A) (A) (A) (A) (A)
                 (A) (A) (A) (A) (A) (A) (A) (A) (A) (A) (A) (A)
                 (A) (A) (A) (A) (A) (A) (A) (A) (A) (A) (A) (A)
                 (A) (A) (A) (A) (A) (A) (A) (A) (A) (A) (A) (A)
                 (A) (A) (A) (A) (A) (A) (A) (A) (A) (A) (A) (A)
                 (A) (A) (A) (A) (A) (A) (A) (A) (A) (A) (A) (A)
                 (A) (A) (A) (A) (A) (A) (A) (A) (A) (A) (A) (A)
                 (A) (A) (A) (A) (A) (A) (A) (A) (A) (A) (A) (A)
                 (A) (A) (A) (A) (A) (A) (A) (A) (A) (A) (A) (A)
                 (A) (A) (A) (A) (A) (A) (A) (A) (A) (A) (A) (A)
                 (A) (A) (A) (A) (A) (A) (A) (A) (A) (A) (A) (A)
                 (A) (A) (A) (A) (A) (A) (A) (A) (A) (A) (A) (A)
                 (A) (A) (A) (A) (A) (A) (A) (A) (A) (A) (A) (A)
                 (A) (A) (A) (A) (A) (A) (A) (A) (A) (A) (A) (A)
                 (A) (A) (A) (A) (A) (A) (A) (A) (A) (A) (A) (A)
                 (A) (A) (A) (A) (A) (A) (A) (A) (A) (A) (A) (A)
                 (A) (A) (A) (A) (A) (A) (A) (A) (A) (A) (A) (A)
                 (A) (A) (A) (A) (A) (A) (A) (A) (A) (A) (A) (A)
                 (A) (A) (A) (A) (A) (A) (A) (A) (A) (A) (A) (A)
                 (A) (A) (A) (A) (A) (A) (A) (A) (A) (A) (A) (A)
                 (A) (A) (A) (A) (A) (A) (A) (A) (A) (A) (A) (A)
                 (A) (A) (A) (A) (A) (A) (A) (A) (A) (A) (A) (A)
                 (A) (A) (A) (A) (A) (A) (A) (A) (A) (A) (A) (A)
                 (A) (A) (A) (A) (A) (A) (A) (A) (A) (A) (A) (A)
                 (A) (A) (A) (A) (A) (A) (A) (A) (A) (A) (A) (A)
                 (A) (A) (A) (A) (A) (A) (A) (A) (A) (A) (A) (A)
                 (A) (A) (A) (A) (A) (A) (A) (A) (A) (A) (A) (A)
                 (A) (A) (A) (A) (A) (A) (A) (A) (A) (A) (A) (A)
                 (A) (A) (A) (A) (A) (A) (A) (A) (A) (A) (A) (A)
                 (A) (A) (A) (A) (A) (A) (A) (A) (A) (A) (A) (A)
                 (A) (A) (A) (A) (A) (A) (A) (A) (A) (A) (A) (A)
                 (A) (A) (A) (A) (A) (A) (A) (A) (A) (A) (A) (A)
                 (A) (A) (A) (A) (A) (A) (A) (A) (A) (A) (A) (A)
                 (A) (A) (A) (A) (A) (A) (A) (A) (A) (A) (A) (A)
                 (A) (A) (A) (A) (A) (A) (A) (A) (A) (A) (A) (A)
                 (A) (A) (A) (A) (A) (A) (A) (A) (A) (A) (A) (A)
                 (A) (A) (A) (A) (A) (A) (A) (A) (A) (A) (A) (A)
                 (A) (A) (A) (A) (A) (A) (A) (A) (A) (A) (A) (A)
                 (A) (A) (A) (A) (A) (A) (A) (A) (A) (A) (A) (A)
                 (A) (A) (A) (A) (A) (A) (A) (A) (A) (A) (A) (A)
                 (A) (A) (A) (A) (A) (A) (A) (A) (A)
 The electronic state is 1-A.
 Alpha  occ. eigenvalues --  -19.12916 -10.21656 -10.21618 -10.17538 -10.17221
 Alpha  occ. eigenvalues --  -10.17020 -10.16941 -10.16781 -10.16744 -10.16691
 Alpha  occ. eigenvalues --  -10.16599 -10.16577 -10.16560 -10.16533 -10.16504
 Alpha  occ. eigenvalues --  -10.16486 -10.16457 -10.16455 -10.16401  -1.01797
 Alpha  occ. eigenvalues --   -0.82142  -0.81137  -0.79885  -0.78590  -0.76269
 Alpha  occ. eigenvalues --   -0.73847  -0.71794  -0.68453  -0.68059  -0.65199
 Alpha  occ. eigenvalues --   -0.63336  -0.60330  -0.58467  -0.57720  -0.57465
 Alpha  occ. eigenvalues --   -0.56724  -0.56371  -0.54953  -0.48822  -0.48549
 Alpha  occ. eigenvalues --   -0.47302  -0.46930  -0.46429  -0.45168  -0.44717
 Alpha  occ. eigenvalues --   -0.43701  -0.43376  -0.42405  -0.42080  -0.41414
 Alpha  occ. eigenvalues --   -0.40739  -0.39776  -0.39065  -0.38180  -0.38005
 Alpha  occ. eigenvalues --   -0.37627  -0.36860  -0.35904  -0.35545  -0.34659
 Alpha  occ. eigenvalues --   -0.34324  -0.33964  -0.33366  -0.32865  -0.32778
 Alpha  occ. eigenvalues --   -0.32708  -0.32402  -0.32334  -0.31971  -0.31849
 Alpha  occ. eigenvalues --   -0.31590  -0.31545  -0.31028  -0.30885  -0.29022
 Alpha  occ. eigenvalues --   -0.26342  -0.24758
 Alpha virt. eigenvalues --    0.08437   0.08873   0.09293   0.09834   0.10340
 Alpha virt. eigenvalues --    0.10471   0.11223   0.11264   0.11518   0.12276
 Alpha virt. eigenvalues --    0.12684   0.13266   0.13644   0.14420   0.14492
 Alpha virt. eigenvalues --    0.14933   0.15499   0.15983   0.16718   0.16978
 Alpha virt. eigenvalues --    0.17049   0.17419   0.17892   0.17933   0.19086
 Alpha virt. eigenvalues --    0.19367   0.19744   0.20027   0.20316   0.20476
 Alpha virt. eigenvalues --    0.20521   0.20879   0.21007   0.21380   0.21585
 Alpha virt. eigenvalues --    0.21866   0.21984   0.22462   0.22560   0.22750
 Alpha virt. eigenvalues --    0.23190   0.23386   0.24013   0.24398   0.24617
 Alpha virt. eigenvalues --    0.25451   0.26095   0.26558   0.27561   0.27776
 Alpha virt. eigenvalues --    0.28228   0.29862   0.32044   0.32086   0.36825
 Alpha virt. eigenvalues --    0.37234   0.39734   0.41893   0.44105   0.46715
 Alpha virt. eigenvalues --    0.47478   0.48153   0.48731   0.49286   0.49467
 Alpha virt. eigenvalues --    0.50784   0.51757   0.52027   0.52553   0.52711
 Alpha virt. eigenvalues --    0.53023   0.53177   0.53411   0.53770   0.54275
 Alpha virt. eigenvalues --    0.54496   0.55487   0.56874   0.57484   0.57747
 Alpha virt. eigenvalues --    0.58585   0.59058   0.59598   0.60165   0.60855
 Alpha virt. eigenvalues --    0.61771   0.62404   0.62725   0.63439   0.64260
 Alpha virt. eigenvalues --    0.64639   0.64954   0.66133   0.66449   0.67326
 Alpha virt. eigenvalues --    0.67753   0.67883   0.68670   0.68787   0.69800
 Alpha virt. eigenvalues --    0.70687   0.70826   0.71342   0.71688   0.71943
 Alpha virt. eigenvalues --    0.72494   0.72877   0.73542   0.73637   0.73845
 Alpha virt. eigenvalues --    0.74214   0.74425   0.74504   0.74970   0.75350
 Alpha virt. eigenvalues --    0.75673   0.76017   0.76617   0.77264   0.77522
 Alpha virt. eigenvalues --    0.77864   0.78604   0.78931   0.79712   0.79958
 Alpha virt. eigenvalues --    0.80060   0.80143   0.80304   0.80670   0.80766
 Alpha virt. eigenvalues --    0.81388   0.82023   0.82472   0.82964   0.83413
 Alpha virt. eigenvalues --    0.83765   0.84255   0.85187   0.85886   0.87002
 Alpha virt. eigenvalues --    0.87258   0.87415   0.87658   0.88519   0.88732
 Alpha virt. eigenvalues --    0.89213   0.89248   0.89637   0.90302   0.90669
 Alpha virt. eigenvalues --    0.91089   0.92266   0.96198   0.96247   1.01617
 Alpha virt. eigenvalues --    1.02529   1.05187   1.05974   1.06856   1.07902
 Alpha virt. eigenvalues --    1.08424   1.08978   1.10069   1.10722   1.12380
 Alpha virt. eigenvalues --    1.13002   1.16002   1.18047   1.18882   1.19144
 Alpha virt. eigenvalues --    1.19884   1.20324   1.21185   1.21633   1.21749
 Alpha virt. eigenvalues --    1.22518   1.23612   1.23732   1.24903   1.25279
 Alpha virt. eigenvalues --    1.25373   1.26105   1.26359   1.27345   1.28057
 Alpha virt. eigenvalues --    1.28519   1.31966   1.32899   1.34462   1.35552
 Alpha virt. eigenvalues --    1.35775   1.36947   1.37548   1.37617   1.38267
 Alpha virt. eigenvalues --    1.38555   1.39294   1.40336   1.41244   1.41690
 Alpha virt. eigenvalues --    1.42296   1.42817   1.44392   1.45338   1.46126
 Alpha virt. eigenvalues --    1.47395   1.47688   1.49329   1.50361   1.53340
 Alpha virt. eigenvalues --    1.54099   1.54590   1.55401   1.57012   1.58323
 Alpha virt. eigenvalues --    1.58859   1.60963   1.61626   1.62425   1.63042
 Alpha virt. eigenvalues --    1.65260   1.65981   1.66396   1.67051   1.67748
 Alpha virt. eigenvalues --    1.68444   1.68893   1.70622   1.70794   1.71361
 Alpha virt. eigenvalues --    1.72545   1.73002   1.74053   1.75351   1.77040
 Alpha virt. eigenvalues --    1.79104   1.80482   1.82255   1.82682   1.83588
 Alpha virt. eigenvalues --    1.84603   1.84908   1.85461   1.87041   1.87579
 Alpha virt. eigenvalues --    1.87997   1.88405   1.88731   1.88948   1.89472
 Alpha virt. eigenvalues --    1.90075   1.90972   1.92126   1.92862   1.93347
 Alpha virt. eigenvalues --    1.93725   1.94460   1.95094   1.95789   1.96493
 Alpha virt. eigenvalues --    1.97158   1.97598   1.98319   1.99026   1.99628
 Alpha virt. eigenvalues --    2.02172   2.05804   2.13672   2.14256   2.14636
 Alpha virt. eigenvalues --    2.16233   2.17075   2.17272   2.18232   2.19682
 Alpha virt. eigenvalues --    2.19937   2.20297   2.20913   2.21421   2.21744
 Alpha virt. eigenvalues --    2.22336   2.23748   2.24623   2.27554   2.28348
 Alpha virt. eigenvalues --    2.29211   2.29779   2.30883   2.31477   2.32115
 Alpha virt. eigenvalues --    2.33763   2.35285   2.35868   2.36768   2.37704
 Alpha virt. eigenvalues --    2.38820   2.40192   2.40806   2.41693   2.43532
 Alpha virt. eigenvalues --    2.44062   2.45517   2.46162   2.48529   2.50708
 Alpha virt. eigenvalues --    2.53493   2.54853   2.58038   2.58538   2.59427
 Alpha virt. eigenvalues --    2.63133   2.64008   2.65891   2.68699   2.70527
 Alpha virt. eigenvalues --    2.71151   2.71538   2.72854   2.74042   2.74374
 Alpha virt. eigenvalues --    2.74735   2.75050   2.75372   2.76207   2.76349
 Alpha virt. eigenvalues --    2.76597   2.76782   2.77770   2.78218   2.78476
 Alpha virt. eigenvalues --    2.78554   2.79006   2.79509   2.80050   2.80531
 Alpha virt. eigenvalues --    2.81201   2.82361   2.82550   2.82691   2.82788
 Alpha virt. eigenvalues --    2.83408   2.83525   2.84053   2.84066   2.84804
 Alpha virt. eigenvalues --    2.85263   2.85654   2.86039   2.86927   2.87281
 Alpha virt. eigenvalues --    2.88722   2.89035   2.89273   2.90349   2.90661
 Alpha virt. eigenvalues --    2.91697   2.91995   2.92199   2.92883   2.93534
 Alpha virt. eigenvalues --    2.94231   2.94463   2.94654   2.95012   2.95523
 Alpha virt. eigenvalues --    2.96632   2.97140   2.97659   2.97740   2.97839
 Alpha virt. eigenvalues --    2.98295   2.99743   3.00182   3.00791   3.01637
 Alpha virt. eigenvalues --    3.01843   3.03010   3.03479   3.04927   3.07192
 Alpha virt. eigenvalues --    3.08293   3.09505   3.11609   3.12053   3.13843
 Alpha virt. eigenvalues --    3.14990   3.16872   3.17874   3.18207   3.18995
 Alpha virt. eigenvalues --    3.20176   3.22494   3.22974   3.23188   3.24201
 Alpha virt. eigenvalues --    3.24784   3.25533   3.27038   3.28106   3.28445
 Alpha virt. eigenvalues --    3.29174   3.31649   3.32233   3.34049   3.34678
 Alpha virt. eigenvalues --    3.35323   3.36824   3.38426   3.39314   3.39757
 Alpha virt. eigenvalues --    3.41012   3.42731   3.43922   3.45883   3.46538
 Alpha virt. eigenvalues --    3.46855   3.47947   3.48858   3.49565   3.50249
 Alpha virt. eigenvalues --    3.53141   3.54022   3.54286   3.55237   3.55519
 Alpha virt. eigenvalues --    3.55893   3.56137   3.56683   3.57815   3.58835
 Alpha virt. eigenvalues --    3.59554   3.59822   3.61008   3.62331   3.62599
 Alpha virt. eigenvalues --    3.63196   3.63903   3.65024   3.66211   3.66518
 Alpha virt. eigenvalues --    3.69317   3.69734   3.70490   3.71906   3.72336
 Alpha virt. eigenvalues --    3.73323   3.74129   3.74823   3.75476   3.76024
 Alpha virt. eigenvalues --    3.76189   3.76673   3.78901   3.79275   3.79546
 Alpha virt. eigenvalues --    3.80082   3.80425   3.81503   3.81732   3.82097
 Alpha virt. eigenvalues --    3.82492   3.82997   3.83552   3.85598   3.87933
 Alpha virt. eigenvalues --    3.88586   3.90073   3.90650   3.95168   3.96377
 Alpha virt. eigenvalues --    3.97136   3.97557   3.99281   4.01238   4.03209
 Alpha virt. eigenvalues --    4.10574   4.11924   4.14795   4.19249   4.23821
 Alpha virt. eigenvalues --    4.24742   4.28493   4.30824   4.33553   4.34499
 Alpha virt. eigenvalues --    4.37156   4.38448   4.38626   4.39234   4.39767
 Alpha virt. eigenvalues --    4.40464   4.40836   4.42734   4.43308   4.43854
 Alpha virt. eigenvalues --    4.45077   4.45469   4.46166   4.46454   4.47695
 Alpha virt. eigenvalues --    4.48513   4.49701   4.50024   4.50600   4.51575
 Alpha virt. eigenvalues --    4.53173   4.53805   4.54119   4.54294   4.54794
 Alpha virt. eigenvalues --    4.55063   4.56603   4.57134   4.57422   4.58274
 Alpha virt. eigenvalues --    4.58480   4.59056   4.59921   4.60071   4.60386
 Alpha virt. eigenvalues --    4.60479   4.60942   4.62082   4.62219   4.62745
 Alpha virt. eigenvalues --    4.63185   4.63479   4.64085   4.64526   4.65166
 Alpha virt. eigenvalues --    4.65564   4.66029   4.66700   4.66873   4.67356
 Alpha virt. eigenvalues --    4.67655   4.68156   4.69585   4.70281   4.70473
 Alpha virt. eigenvalues --    4.71563   4.71924   4.72887   4.73485   4.73964
 Alpha virt. eigenvalues --    4.74490   4.75153   4.75902   4.76645   4.77103
 Alpha virt. eigenvalues --    4.78064   4.78866   4.79039   4.79355   4.79681
 Alpha virt. eigenvalues --    4.80095   4.80769   4.81288   4.81868   4.83341
 Alpha virt. eigenvalues --    4.84107   4.84858   4.85412   4.86066   4.87063
 Alpha virt. eigenvalues --    4.88114   4.88860   4.90108   4.91403   4.91968
 Alpha virt. eigenvalues --    4.92354   4.92889   4.93857   4.94116   4.95609
 Alpha virt. eigenvalues --    4.95766   4.96534   4.96953   4.97465   4.97881
 Alpha virt. eigenvalues --    4.98863   5.00089   5.01434   5.02440   5.03407
 Alpha virt. eigenvalues --    5.05474   5.08059   5.13515   5.17419   5.19842
 Alpha virt. eigenvalues --    5.21317   5.22737   5.24496   5.25989   5.29699
 Alpha virt. eigenvalues --    5.31799   5.34066   5.35878   5.39425   5.41873
 Alpha virt. eigenvalues --    5.42712   5.46469   5.46851   5.48256   5.49546
 Alpha virt. eigenvalues --    5.50619   5.51299   5.52736   5.54777   5.55261
 Alpha virt. eigenvalues --    5.56433   5.59515   5.61309   5.64690   5.72856
 Alpha virt. eigenvalues --    5.74307   5.75431   5.85310   5.96241   6.01466
 Alpha virt. eigenvalues --    6.01906   6.15790   6.25176   6.30995   6.59581
 Alpha virt. eigenvalues --    7.03299  11.11753  11.16291  11.22387  11.31063
 Alpha virt. eigenvalues --   11.42821  11.58434  11.74070  11.80536  11.99155
 Alpha virt. eigenvalues --   12.04174  12.15337  12.26077  12.27991  12.34117
 Alpha virt. eigenvalues --   12.43870  12.48097  12.63943  12.79840  13.36994
          Condensed to atoms (all electrons):
 Mulliken charges:
               1
     1  C   -0.375567
     2  C   -0.159428
     3  C   -0.152183
     4  C   -0.172064
     5  C   -0.176915
     6  C   -0.173792
     7  C   -0.172031
     8  C   -0.180589
     9  C   -0.177212
    10  C   -0.190417
    11  C    0.036083
    12  C   -0.389996
    13  C   -0.190465
    14  C   -0.180593
    15  C   -0.178182
    16  C   -0.198048
    17  C   -0.045639
    18  O   -0.246590
    19  C   -0.223788
    20  H    0.103615
    21  H    0.110034
    22  H    0.110034
    23  H    0.090591
    24  H    0.090598
    25  H    0.088091
    26  H    0.088122
    27  H    0.088181
    28  H    0.088176
    29  H    0.087870
    30  H    0.087988
    31  H    0.087736
    32  H    0.087760
    33  H    0.087964
    34  H    0.088098
    35  H    0.086801
    36  H    0.088102
    37  H    0.094702
    38  H    0.086372
    39  H    0.083815
    40  H    0.085954
    41  H    0.064503
    42  H    0.106822
    43  H    0.114138
    44  H    0.113859
    45  H    0.084610
    46  H    0.086646
    47  H    0.097871
    48  H    0.089839
    49  H    0.090459
    50  H    0.091691
    51  H    0.102046
    52  H    0.102241
    53  H    0.081885
    54  H    0.081954
    55  H    0.123002
    56  H    0.102659
    57  H    0.102589
 Sum of Mulliken charges =  -0.00000
 Mulliken charges with hydrogens summed into heavy atoms:
               1
     1  C   -0.051884
     2  C    0.021760
     3  C    0.024030
     4  C    0.004293
     5  C   -0.001057
     6  C    0.001704
     7  C    0.004031
     8  C   -0.005686
     9  C    0.003863
    10  C   -0.020648
    11  C    0.100586
    12  C   -0.055178
    13  C   -0.019209
    14  C    0.007117
    15  C    0.003967
    16  C    0.006239
    17  C    0.118201
    18  O   -0.246590
    19  C    0.104462
 Electronic spatial extent (au):  <R**2>=          23183.9020
 Charge=             -0.0000 electrons
 Dipole moment (field-independent basis, Debye):
    X=             -0.1580    Y=             -0.9880    Z=              0.3410  Tot=              1.0570
 Quadrupole moment (field-independent basis, Debye-Ang):
   XX=           -131.6526   YY=           -126.6633   ZZ=           -123.5903
   XY=             -8.7153   XZ=              3.3465   YZ=              1.1370
 Traceless Quadrupole moment (field-independent basis, Debye-Ang):
   XX=             -4.3505   YY=              0.6388   ZZ=              3.7118
   XY=             -8.7153   XZ=              3.3465   YZ=              1.1370
 Octapole moment (field-independent basis, Debye-Ang**2):
  XXX=            135.9118  YYY=              1.3931  ZZZ=             -0.7878  XYY=             12.9487
  XXY=            -91.0925  XXZ=             35.8996  XZZ=             11.0167  YZZ=             -0.5440
  YYZ=             -1.9373  XYZ=             -0.2681
 Hexadecapole moment (field-independent basis, Debye-Ang**3):
 XXXX=         -30536.6152 YYYY=           -550.6484 ZZZZ=           -290.7081 XXXY=           -653.3371
 XXXZ=            246.9958 YYYX=             11.7923 YYYZ=              7.1332 ZZZX=             -1.8520
 ZZZY=             -4.2182 XXYY=          -5215.8204 XXZZ=          -5074.1507 YYZZ=           -140.8565
 XXYZ=             58.3343 YYXZ=            -10.6935 ZZXY=             -1.1962
 N-N= 1.335188628299D+03 E-N=-4.486284588152D+03  KE= 7.777242235732D+02
 PrsmSu:  requested number of processors reduced to:  12 ShMem   1 Linda.
 Calling FoFJK, ICntrl=      2127 FMM=F ISym2X=0 I1Cent= 0 IOpClX= 0 NMat=1 NMatS=1 NMatT=0.
 ***** Axes restored to original set *****
 -------------------------------------------------------------------
 Center     Atomic                   Forces (Hartrees/Bohr)
 Number     Number              X              Y              Z
 -------------------------------------------------------------------
      1        6          -0.004548903   -0.006261498   -0.003661558
      2        6          -0.007178509    0.004112101    0.002371926
      3        6           0.006587615   -0.010733961   -0.006201605
      4        6          -0.009367776    0.009508877    0.005411440
      5        6           0.007728797   -0.011275899   -0.006307598
      6        6          -0.009414400    0.010500694    0.005341642
      7        6           0.009077317   -0.011174170   -0.005874005
      8        6          -0.007945283    0.011873397    0.004344752
      9        6           0.009782780   -0.010135910   -0.001641115
     10        6          -0.005945443    0.012896240    0.002706084
     11        6           0.007927328   -0.012553380    0.000545752
     12        6          -0.003535339    0.005811166    0.000073731
     13        6          -0.008448591    0.010666088    0.001467739
     14        6           0.005855925   -0.010796407   -0.002133600
     15        6          -0.003844790    0.009511739    0.003124082
     16        6           0.007247016   -0.001177181   -0.000091146
     17        6          -0.004302909    0.017346236    0.009544337
     18        8           0.008471649   -0.003582556   -0.002184298
     19        6          -0.012610160    0.003953940    0.002331612
     20        1          -0.004077275    0.000034528    0.000020287
     21        1          -0.001577346    0.000014252    0.000125526
     22        1          -0.001577929    0.000115296   -0.000063462
     23        1           0.001729621   -0.000608249   -0.000201293
     24        1           0.001737303   -0.000512548   -0.000412568
     25        1          -0.001081886    0.000515203    0.000403328
     26        1          -0.001074320    0.000650711    0.000235503
     27        1           0.000387817   -0.000915235   -0.000515452
     28        1           0.000427304   -0.001010007   -0.000470638
     29        1          -0.000630759    0.000562793    0.000304640
     30        1          -0.000735196    0.000731051    0.000171192
     31        1           0.000321758   -0.001168487   -0.000713745
     32        1           0.000626006   -0.001229848   -0.000476806
     33        1           0.000096284    0.000727411   -0.000055266
     34        1          -0.000671805    0.000856949   -0.000153119
     35        1           0.000110074   -0.001464129   -0.001070989
     36        1           0.000987433   -0.001278082   -0.000464703
     37        1           0.000121396    0.002014787    0.000060400
     38        1          -0.001158435    0.001460127   -0.000365462
     39        1           0.000906804   -0.000138616    0.000915474
     40        1           0.000961452   -0.001055478    0.001539672
     41        1          -0.000448032    0.001626478   -0.001397671
     42        1           0.000234517   -0.001186724    0.001491028
     43        1           0.000077283   -0.002407163   -0.000482637
     44        1           0.002233413   -0.000999365    0.000488614
     45        1          -0.000496802   -0.000885102    0.000512671
     46        1          -0.000068411   -0.001542769    0.001200201
     47        1          -0.001657397    0.001058189   -0.000528760
     48        1          -0.000506356    0.001852133    0.000007265
     49        1           0.001495797   -0.000739779   -0.000629668
     50        1           0.000746622   -0.001454995   -0.000682272
     51        1           0.001430382   -0.001262384   -0.000443191
     52        1           0.001717381   -0.000013260   -0.001301486
     53        1           0.003114253   -0.002535049   -0.003623497
     54        1           0.002893906   -0.004623538   -0.000479861
     55        1          -0.001326545    0.000681159    0.000435359
     56        1           0.004597023   -0.001339449   -0.002699934
     57        1           0.004598345   -0.003020323    0.000153150
 -------------------------------------------------------------------
 Cartesian Forces:  Max     0.017346236 RMS     0.004570556

 GradGradGradGradGradGradGradGradGradGradGradGradGradGradGradGradGradGrad
 Berny optimization.
 FormGI is forming the generalized inverse of G from B-inverse, IUseBI=4.
 Internal  Forces:  Max     0.022464070 RMS     0.004850319
 Search for a local minimum.
 Step number   1 out of a maximum of  325
 All quantities printed in internal units (Hartrees-Bohrs-Radians)
 Mixed Optimization -- RFO/linear search
 Second derivative matrix not updated -- first step.
 ITU=  0
     Eigenvalues ---    0.00292   0.00293   0.00293   0.00452   0.00458
     Eigenvalues ---    0.00465   0.00484   0.00484   0.00494   0.00495
     Eigenvalues ---    0.00511   0.00540   0.00545   0.00553   0.00556
     Eigenvalues ---    0.00561   0.01388   0.01420   0.03622   0.03641
     Eigenvalues ---    0.03673   0.03791   0.03807   0.03820   0.03844
     Eigenvalues ---    0.03865   0.03866   0.03916   0.03920   0.03929
     Eigenvalues ---    0.03941   0.04051   0.04585   0.04866   0.04880
     Eigenvalues ---    0.04882   0.04968   0.04970   0.04982   0.04989
     Eigenvalues ---    0.04990   0.04997   0.05007   0.05017   0.05021
     Eigenvalues ---    0.05030   0.05062   0.05324   0.05382   0.05394
     Eigenvalues ---    0.05685   0.05742   0.05986   0.07761   0.07903
     Eigenvalues ---    0.07934   0.07961   0.07973   0.07993   0.07997
     Eigenvalues ---    0.08041   0.08058   0.08125   0.08148   0.08149
     Eigenvalues ---    0.08162   0.10234   0.10482   0.11226   0.11743
     Eigenvalues ---    0.11858   0.11882   0.11901   0.11908   0.11926
     Eigenvalues ---    0.11934   0.11970   0.11979   0.12045   0.12045
     Eigenvalues ---    0.12052   0.12066   0.13681   0.16000   0.16000
     Eigenvalues ---    0.16000   0.16000   0.16000   0.16000   0.16000
     Eigenvalues ---    0.16000   0.16000   0.16291   0.16816   0.21811
     Eigenvalues ---    0.21852   0.21860   0.21863   0.21870   0.21876
     Eigenvalues ---    0.21877   0.21881   0.21882   0.21883   0.21888
     Eigenvalues ---    0.21904   0.21908   0.22042   0.25000   0.28888
     Eigenvalues ---    0.28896   0.28898   0.30012   0.30052   0.30105
     Eigenvalues ---    0.30238   0.30241   0.30310   0.30317   0.30434
     Eigenvalues ---    0.30653   0.30685   0.30748   0.30771   0.30803
     Eigenvalues ---    0.33785   0.33804   0.33906   0.33922   0.34024
     Eigenvalues ---    0.34043   0.34049   0.34053   0.34076   0.34080
     Eigenvalues ---    0.34082   0.34084   0.34098   0.34113   0.34121
     Eigenvalues ---    0.34123   0.34129   0.34130   0.34135   0.34136
     Eigenvalues ---    0.34148   0.34168   0.34169   0.34179   0.34191
     Eigenvalues ---    0.34243   0.34252   0.34289   0.34292   0.34310
     Eigenvalues ---    0.34326   0.34334   0.34334   0.34390   0.34412
     Eigenvalues ---    0.34487   0.34511   0.34542   0.42020   0.42380
 RFO step:  Lambda=-3.04432701D-02 EMin= 2.91518367D-03
 Linear search not attempted -- first point.
 Maximum step size (   0.300) exceeded in Quadratic search.
    -- Step size scaled by   0.924
 Iteration  1 RMS(Cart)=  0.26259990 RMS(Int)=  0.00299675
 Iteration  2 RMS(Cart)=  0.01900963 RMS(Int)=  0.00016749
 Iteration  3 RMS(Cart)=  0.00011366 RMS(Int)=  0.00016675
 Iteration  4 RMS(Cart)=  0.00000002 RMS(Int)=  0.00016675
 Variable       Old X    -DE/DX   Delta X   Delta X   Delta X     New X
                                 (Linear)    (Quad)   (Total)
    R1        2.86680   0.01183   0.00000   0.03244   0.03244   2.89923
    R2        2.06640   0.00135   0.00000   0.00332   0.00332   2.06973
    R3        2.06841   0.00052   0.00000   0.00128   0.00128   2.06969
    R4        2.06845   0.00050   0.00000   0.00125   0.00125   2.06970
    R5        2.87860   0.00874   0.00000   0.02441   0.02441   2.90301
    R6        2.07140   0.00078   0.00000   0.00194   0.00194   2.07334
    R7        2.07126   0.00083   0.00000   0.00206   0.00206   2.07331
    R8        2.87491   0.01115   0.00000   0.03095   0.03095   2.90586
    R9        2.07257   0.00075   0.00000   0.00187   0.00187   2.07444
   R10        2.07240   0.00080   0.00000   0.00199   0.00199   2.07439
   R11        2.87350   0.01222   0.00000   0.03387   0.03387   2.90737
   R12        2.07248   0.00062   0.00000   0.00156   0.00156   2.07403
   R13        2.07202   0.00077   0.00000   0.00191   0.00191   2.07394
   R14        2.87106   0.01322   0.00000   0.03648   0.03648   2.90754
   R15        2.07290   0.00051   0.00000   0.00126   0.00126   2.07416
   R16        2.07195   0.00078   0.00000   0.00194   0.00194   2.07389
   R17        2.86497   0.01532   0.00000   0.04190   0.04190   2.90686
   R18        2.07189   0.00080   0.00000   0.00198   0.00198   2.07387
   R19        2.07110   0.00101   0.00000   0.00252   0.00252   2.07362
   R20        2.87337   0.01312   0.00000   0.03635   0.03635   2.90972
   R21        2.07462  -0.00008   0.00000  -0.00019  -0.00019   2.07443
   R22        2.07112   0.00101   0.00000   0.00251   0.00251   2.07363
   R23        2.86390   0.01639   0.00000   0.04475   0.04475   2.90865
   R24        2.07123   0.00105   0.00000   0.00260   0.00260   2.07383
   R25        2.07028   0.00119   0.00000   0.00295   0.00295   2.07323
   R26        2.87485   0.01201   0.00000   0.03335   0.03335   2.90821
   R27        2.06810  -0.00005   0.00000  -0.00012  -0.00012   2.06798
   R28        2.06921   0.00177   0.00000   0.00438   0.00438   2.07359
   R29        2.90221   0.00928   0.00000   0.02685   0.02685   2.92906
   R30        2.07662  -0.00053   0.00000  -0.00132  -0.00132   2.07531
   R31        2.07009   0.00187   0.00000   0.00464   0.00464   2.07474
   R32        2.90217   0.00182   0.00000   0.00527   0.00527   2.90744
   R33        2.90236   0.00893   0.00000   0.02583   0.02583   2.92820
   R34        2.07100   0.00213   0.00000   0.00530   0.00530   2.07630
   R35        2.06677   0.00178   0.00000   0.00438   0.00438   2.07116
   R36        2.06517  -0.00016   0.00000  -0.00039  -0.00039   2.06478
   R37        2.06476   0.00009   0.00000   0.00021   0.00021   2.06498
   R38        2.87940   0.01011   0.00000   0.02825   0.02825   2.90765
   R39        2.07695  -0.00063   0.00000  -0.00158  -0.00158   2.07537
   R40        2.07046   0.00177   0.00000   0.00439   0.00439   2.07486
   R41        2.86617   0.01416   0.00000   0.03880   0.03880   2.90497
   R42        2.06783   0.00001   0.00000   0.00002   0.00002   2.06785
   R43        2.06906   0.00170   0.00000   0.00421   0.00421   2.07327
   R44        2.87754   0.00979   0.00000   0.02730   0.02730   2.90484
   R45        2.07165   0.00110   0.00000   0.00273   0.00273   2.07438
   R46        2.07103   0.00116   0.00000   0.00288   0.00288   2.07391
   R47        2.86452   0.00540   0.00000   0.01475   0.01475   2.87927
   R48        2.07489  -0.00092   0.00000  -0.00231  -0.00231   2.07258
   R49        2.07192  -0.00003   0.00000  -0.00008  -0.00008   2.07184
   R50        2.68898  -0.00242   0.00000  -0.00496  -0.00496   2.68401
   R51        2.07081   0.00445   0.00000   0.01106   0.01106   2.08187
   R52        2.07047   0.00454   0.00000   0.01126   0.01126   2.08174
   R53        2.68442  -0.00473   0.00000  -0.00962  -0.00962   2.67480
   R54        2.06425   0.00038   0.00000   0.00094   0.00094   2.06519
   R55        2.06770   0.00412   0.00000   0.01020   0.01020   2.07789
   R56        2.06770   0.00414   0.00000   0.01022   0.01022   2.07793
    A1        1.92404   0.00508   0.00000   0.02618   0.02607   1.95012
    A2        1.93340   0.00085   0.00000   0.00335   0.00330   1.93670
    A3        1.93333   0.00086   0.00000   0.00341   0.00336   1.93668
    A4        1.89095  -0.00276   0.00000  -0.01191  -0.01201   1.87894
    A5        1.89096  -0.00276   0.00000  -0.01192  -0.01202   1.87893
    A6        1.88990  -0.00155   0.00000  -0.01041  -0.01040   1.87951
    A7        1.93112   0.01092   0.00000   0.04467   0.04461   1.97573
    A8        1.91178  -0.00248   0.00000  -0.00397  -0.00392   1.90786
    A9        1.91192  -0.00249   0.00000  -0.00407  -0.00403   1.90789
   A10        1.91776  -0.00366   0.00000  -0.01423  -0.01447   1.90329
   A11        1.91785  -0.00366   0.00000  -0.01422  -0.01446   1.90339
   A12        1.87249   0.00102   0.00000  -0.00998  -0.01022   1.86227
   A13        1.93038   0.01354   0.00000   0.05456   0.05452   1.98490
   A14        1.91822  -0.00419   0.00000  -0.01465  -0.01484   1.90338
   A15        1.91810  -0.00417   0.00000  -0.01452  -0.01471   1.90339
   A16        1.91283  -0.00364   0.00000  -0.00968  -0.00970   1.90313
   A17        1.91291  -0.00366   0.00000  -0.00980  -0.00983   1.90308
   A18        1.87045   0.00166   0.00000  -0.00812  -0.00844   1.86201
   A19        1.92480   0.01506   0.00000   0.06059   0.06055   1.98535
   A20        1.91907  -0.00447   0.00000  -0.01475  -0.01493   1.90414
   A21        1.91972  -0.00453   0.00000  -0.01525  -0.01542   1.90430
   A22        1.91358  -0.00421   0.00000  -0.01208  -0.01216   1.90142
   A23        1.91432  -0.00423   0.00000  -0.01236  -0.01242   1.90190
   A24        1.87163   0.00191   0.00000  -0.00842  -0.00880   1.86283
   A25        1.91678   0.01706   0.00000   0.06840   0.06837   1.98515
   A26        1.92047  -0.00506   0.00000  -0.01660  -0.01676   1.90371
   A27        1.92058  -0.00507   0.00000  -0.01653  -0.01671   1.90386
   A28        1.91744  -0.00493   0.00000  -0.01513  -0.01523   1.90221
   A29        1.91722  -0.00488   0.00000  -0.01471  -0.01482   1.90240
   A30        1.87089   0.00234   0.00000  -0.00782  -0.00830   1.86259
   A31        1.92013   0.01678   0.00000   0.06759   0.06753   1.98765
   A32        1.91989  -0.00511   0.00000  -0.01711  -0.01739   1.90250
   A33        1.91944  -0.00496   0.00000  -0.01665  -0.01685   1.90259
   A34        1.91401  -0.00450   0.00000  -0.01205  -0.01214   1.90187
   A35        1.91585  -0.00481   0.00000  -0.01445  -0.01451   1.90134
   A36        1.87401   0.00211   0.00000  -0.00961  -0.01009   1.86392
   A37        1.91799   0.01769   0.00000   0.07063   0.07062   1.98861
   A38        1.91585  -0.00476   0.00000  -0.01338  -0.01348   1.90236
   A39        1.92331  -0.00550   0.00000  -0.01860  -0.01871   1.90460
   A40        1.91881  -0.00550   0.00000  -0.01844  -0.01868   1.90013
   A41        1.91885  -0.00506   0.00000  -0.01612  -0.01621   1.90264
   A42        1.86849   0.00255   0.00000  -0.00670  -0.00722   1.86127
   A43        1.89760   0.02035   0.00000   0.08214   0.08205   1.97965
   A44        1.92748  -0.00675   0.00000  -0.02476  -0.02509   1.90239
   A45        1.91773  -0.00549   0.00000  -0.01614  -0.01648   1.90125
   A46        1.92513  -0.00532   0.00000  -0.01447  -0.01444   1.91070
   A47        1.91791  -0.00591   0.00000  -0.01740  -0.01766   1.90025
   A48        1.87808   0.00266   0.00000  -0.01116  -0.01185   1.86623
   A49        1.94143   0.01065   0.00000   0.04332   0.04322   1.98465
   A50        1.87416  -0.00137   0.00000   0.00634   0.00610   1.88026
   A51        1.92562  -0.00435   0.00000  -0.02040  -0.02022   1.90540
   A52        1.92890  -0.00329   0.00000  -0.00805  -0.00861   1.92029
   A53        1.91753  -0.00300   0.00000  -0.01377  -0.01361   1.90392
   A54        1.87466   0.00103   0.00000  -0.00899  -0.00913   1.86554
   A55        1.94227   0.02246   0.00000   0.08892   0.08891   2.03118
   A56        1.90215  -0.00660   0.00000  -0.02313  -0.02270   1.87945
   A57        1.91923  -0.00594   0.00000  -0.01234  -0.01269   1.90654
   A58        1.91300  -0.00738   0.00000  -0.03092  -0.03092   1.88208
   A59        1.92236  -0.00695   0.00000  -0.02140  -0.02221   1.90015
   A60        1.86302   0.00349   0.00000  -0.00555  -0.00640   1.85663
   A61        1.94397   0.00091   0.00000   0.01205   0.01187   1.95584
   A62        1.89787   0.00083   0.00000   0.00922   0.00899   1.90687
   A63        1.89175  -0.00135   0.00000  -0.01618  -0.01614   1.87562
   A64        1.94477   0.00052   0.00000   0.00997   0.00977   1.95454
   A65        1.89163   0.00022   0.00000  -0.00041  -0.00030   1.89133
   A66        1.89245  -0.00125   0.00000  -0.01631  -0.01627   1.87618
   A67        1.93530   0.00061   0.00000  -0.00054  -0.00055   1.93475
   A68        1.95473  -0.00045   0.00000  -0.00043  -0.00045   1.95428
   A69        1.95412  -0.00030   0.00000   0.00025   0.00024   1.95435
   A70        1.89302  -0.00077   0.00000  -0.00686  -0.00687   1.88615
   A71        1.89385  -0.00086   0.00000  -0.00739  -0.00740   1.88646
   A72        1.82848   0.00178   0.00000   0.01523   0.01521   1.84369
   A73        1.94558   0.02111   0.00000   0.08343   0.08343   2.02901
   A74        1.91064  -0.00686   0.00000  -0.02834  -0.02827   1.88237
   A75        1.92010  -0.00646   0.00000  -0.01924  -0.01991   1.90019
   A76        1.90335  -0.00631   0.00000  -0.02290  -0.02256   1.88079
   A77        1.92039  -0.00567   0.00000  -0.01248  -0.01283   1.90756
   A78        1.86178   0.00331   0.00000  -0.00482  -0.00556   1.85622
   A79        1.94162   0.00921   0.00000   0.03776   0.03766   1.97928
   A80        1.92755  -0.00282   0.00000  -0.00605  -0.00652   1.92103
   A81        1.91566  -0.00244   0.00000  -0.01121  -0.01106   1.90460
   A82        1.87544  -0.00101   0.00000   0.00697   0.00675   1.88219
   A83        1.92613  -0.00397   0.00000  -0.01944  -0.01930   1.90683
   A84        1.87600   0.00073   0.00000  -0.00941  -0.00950   1.86650
   A85        1.91414   0.01433   0.00000   0.05825   0.05818   1.97231
   A86        1.92058  -0.00367   0.00000  -0.00990  -0.00989   1.91070
   A87        1.91303  -0.00431   0.00000  -0.01292  -0.01313   1.89990
   A88        1.92527  -0.00479   0.00000  -0.01767  -0.01783   1.90744
   A89        1.91521  -0.00356   0.00000  -0.00902  -0.00920   1.90602
   A90        1.87525   0.00160   0.00000  -0.01055  -0.01089   1.86436
   A91        1.91709   0.01235   0.00000   0.04686   0.04698   1.96406
   A92        1.92992  -0.00373   0.00000  -0.01179  -0.01172   1.91820
   A93        1.93051  -0.00329   0.00000  -0.00963  -0.00947   1.92104
   A94        1.91520  -0.00408   0.00000  -0.01527  -0.01534   1.89986
   A95        1.92205  -0.00479   0.00000  -0.02034  -0.02041   1.90165
   A96        1.84811   0.00295   0.00000   0.00786   0.00760   1.85571
   A97        1.89835   0.00219   0.00000   0.01169   0.01161   1.90997
   A98        1.91611   0.00067   0.00000   0.00468   0.00463   1.92075
   A99        1.91767   0.00029   0.00000   0.00233   0.00230   1.91997
   A100       1.91387  -0.00059   0.00000   0.00072   0.00064   1.91451
   A101       1.91303  -0.00043   0.00000   0.00126   0.00120   1.91424
   A102       1.90479  -0.00212   0.00000  -0.02052  -0.02052   1.88427
   A103       1.92803   0.00916   0.00000   0.03017   0.03017   1.95820
   A104       1.89322  -0.00356   0.00000  -0.01750  -0.01744   1.87578
   A105       1.92358   0.00435   0.00000   0.02125   0.02119   1.94476
   A106       1.92388   0.00434   0.00000   0.02115   0.02109   1.94498
   A107       1.90052  -0.00044   0.00000  -0.00231  -0.00225   1.89827
   A108       1.90080  -0.00047   0.00000  -0.00255  -0.00249   1.89831
   A109       1.92130  -0.00432   0.00000  -0.02053  -0.02070   1.90060
    D1        3.14158  -0.00000   0.00000   0.00000   0.00000   3.14158
    D2        1.02479  -0.00083   0.00000  -0.00841  -0.00847   1.01632
[...]
 0.00011244,0.00007879,0.00004183,0.00002462,-0.00029238,-0.00012047,-0
 .00074884,0.00037699,0.00024054,-0.00004595,-0.00211436,-0.00079748,-0
 .00543852,0.00268430,0.00173137,-0.02299559,-0.03797394,-0.01299877,-0
 .06364153,-0.05423051,-0.02080336,-0.00000090,-0.00000067,-0.00000054,
 -0.00000007,0.00000078,-0.00000013,-0.00000019,0.00000032,0.00000065,0
 .00000004,0.00000005,-0.00000043,-0.00000001,-0.00000038,0.00000013,-0
 .00000038,0.00000013,0.00000057,-0.00000003,0.00000034,-0.00000035,0.0
 0000017,0.00000007,-0.00000065,0.00000011,-0.00000062,-0.00000015,-0.0
 0000061,0.00000015,0.00000041,-0.00000033,0.00000035,-0.00000067,0.000
 00014,-0.00000016,-0.00000092,0.,-0.00000060,-0.00000031,-0.00000076,0
 .00000015,0.00000032,-0.00000060,0.00000060,-0.00000078,0.00000032,-0.
 00000058,-0.00000107,0.00000018,-0.00000125,-0.00000007,-0.00000223,0.
 00000066,0.00000149,-0.00000111,0.00000130,-0.00000132,0.00000209,0.00
 000177,0.00000117,-0.00000030,-0.00000328,0.00000047,-0.00000285,0.000
 00384,-0.00000021,0.00000286,-0.00000202,0.00000186,-0.00001497,-0.000
 00308,0.00000602,0.00001032,-0.00000630,-0.00000992,0.00000281,-0.0000
 0060,-0.00000474,0.00000187,-0.00000839,0.00000284,-0.00000139,0.00000
 295,0.00001692,-0.00001108,0.00001285,-0.00001129,0.00001853,0.0000165
 3,-0.00001456,0.00002228,0.00000335,0.00001897,0.00003235,-0.00000171,
 0.00009715,0.00003376,0.00007080,-0.00007971,0.00001669,-0.00006378,-0
 .00042119,0.00007397,-0.00045663,0.00027502,0.08375826,-0.00000045,-0.
 00000240,-0.00000126,-0.00000088,0.00000177,0.00000110,0.00000108,-0.0
 0000166,-0.00000037,-0.00000294,0.00000171,0.00000136,0.00000185,-0.00
 000188,0.00000025,-0.00000300,0.00000253,0.00000175,0.00000303,-0.0000
 0351,-0.00000092,-0.00000515,0.00000614,0.00000253,0.00000453,-0.00000
 957,-0.00000312,-0.00001531,0.00001055,0.00000608,0.00001980,-0.000021
 57,-0.00000806,-0.00000874,0.00000266,-0.00000368,-0.00003222,0.000032
 83,0.00001859,0.00003059,-0.00007709,-0.00003694,-0.00007904,0.0001072
 6,0.00005411,0.00029658,-0.00001882,-0.00028918,-0.00001575,0.00224693
 ,0.00086193,-0.00439394,0.00098843,0.00070789,-0.06579154,-0.26616555,
 -0.08150851,-0.00000072,-0.00000035,-0.00000031,0.,0.00000098,-0.00000
 021,-0.00000009,0.00000035,0.00000088,0.00000021,-0.00000007,-0.000000
 85,-0.00000006,-0.00000056,0.00000018,-0.00000027,0.00000007,0.0000005
 9,0.00000020,0.00000033,-0.00000046,0.00000060,0.00000005,-0.00000126,
 0.00000020,-0.00000111,-0.00000028,-0.00000070,0.00000019,0.00000022,-
 0.00000010,0.00000015,-0.00000089,0.00000032,0.00000002,-0.00000127,0.
 00000015,-0.00000114,-0.00000048,-0.00000098,0.00000040,0.00000024,-0.
 00000012,-0.00000007,-0.00000082,0.00000011,-0.00000019,-0.00000054,0.
 00000070,-0.00000180,-0.00000018,-0.00000219,0.00000083,0.00000117,-0.
 00000064,0.00000012,-0.00000102,0.00000116,0.00000125,0.00000217,0.000
 00041,-0.00000264,-0.00000011,-0.00000269,0.00000158,0.00000037,0.0000
 0258,-0.00000115,0.00000106,-0.00001185,-0.00000189,0.00000379,0.00000
 769,-0.00000487,-0.00000786,0.00000120,-0.00000135,-0.00000027,0.00000
 105,-0.00000527,-0.00000102,-0.00000230,0.00000237,0.00000744,-0.00000
 586,0.00000402,-0.00000291,0.00000404,-0.00000615,-0.00000418,0.000008
 58,-0.00000545,-0.00000458,-0.00004899,-0.00000165,0.00003811,-0.00013
 184,0.00001249,0.00000057,0.00009013,-0.00002694,-0.00005752,0.0001601
 6,0.00038764,-0.00011085,0.07443193,0.28304040,-0.00000026,-0.00000074
 ,-0.00000035,-0.00000020,0.00000047,0.00000023,0.00000011,-0.00000050,
 -0.00000008,-0.00000114,0.00000034,0.00000042,0.00000044,-0.00000072,0
 .00000049,-0.00000094,0.00000055,0.00000074,0.00000077,-0.00000118,0.0
 0000050,-0.00000119,0.00000149,0.00000075,0.00000116,-0.00000252,0.000
 00017,-0.00000268,0.00000259,0.00000085,0.00000504,-0.00000394,0.00000
 075,-0.00000210,0.00000139,-0.00000087,-0.00000124,0.00000699,-0.00000
 283,0.00001020,-0.00000151,0.00000447,0.00005130,0.00000296,-0.0000067
 6,0.00019487,-0.00001939,0.00057306,0.00062038,0.00056008,0.00031968,0
 .00081811,0.00446510,0.00220742,-0.02556144,-0.08280296,-0.08135873,-0
 .00000010,-0.00000006,-0.00000009,0.00000004,0.00000028,-0.00000007,-0
 .00000009,0.00000012,0.00000024,0.00000007,0.,-0.00000020,0.,-0.000000
 21,0.00000006,-0.00000009,0.00000010,0.00000014,0.00000016,0.00000009,
 -0.00000011,0.00000032,0.00000002,-0.00000046,0.00000012,-0.00000029,-
 0.00000014,-0.00000016,0.00000016,-0.00000015,0.,0.00000019,-0.0000003
 5,0.00000032,-0.00000004,-0.00000063,0.00000004,-0.00000013,-0.0000002
 1,-0.00000016,0.00000021,-0.00000023,-0.00000010,0.00000028,-0.0000004
 4,0.00000022,-0.00000017,-0.00000036,0.00000018,-0.00000027,-0.0000001
 3,-0.00000045,0.00000037,0.00000008,-0.00000033,0.00000033,-0.00000050
 ,0.00000037,0.00000003,0.00000051,0.00000007,-0.00000044,-0.00000007,-
 0.00000096,0.00000077,-0.00000056,0.00000067,0.00000043,0.00000003,-0.
 00000320,-0.00000061,0.00000101,0.00000199,-0.00000219,-0.00000182,0.0
 0000040,-0.00000128,0.00000018,-0.00000007,-0.00000046,-0.00000011,0.0
 0000099,0.00000095,-0.00000211,-0.00000369,0.00000198,-0.00000230,0.00
 000558,-0.00000510,0.00000272,-0.00000429,-0.00000487,-0.00000020,-0.0
 0013724,0.00000120,-0.00000173,0.00005173,0.00000939,-0.00001784,0.000
 20476,0.00033852,0.00055939,-0.00003351,-0.00042039,0.00008781,0.02646
 367,0.08895612,0.08021453,0.00000101,0.00000038,0.00000022,-0.00000017
 ,0.00000068,0.00000065,0.00000056,-0.00000099,-0.00000070,-0.00000113,
 0.00000172,0.00000084,0.00000165,-0.00000277,-0.00000170,-0.00000330,0
 .00000314,0.00000166,0.00000360,-0.00000524,-0.00000258,-0.00000622,0.
 00000644,0.00000313,0.00000584,-0.00001177,-0.00000368,-0.00001740,0.0
 0001218,0.00000751,0.00001954,-0.00002764,-0.00000680,-0.00000776,0.00
 000573,-0.00000417,-0.00004097,0.00003865,0.00002170,0.00004410,-0.000
 07522,-0.00004913,-0.00012350,0.00013639,-0.00007204,-0.00009979,-0.00
 031467,-0.00031631,0.00335004,0.00668662,0.00475247,-0.03134852,-0.000
 11415,0.03708344,-0.06130895,0.00387090,0.04828090,-0.00000085,-0.0000
 0107,-0.00000074,-0.00000020,0.00000004,0.00000011,-0.00000023,0.00000
 006,-0.00000016,0.,-0.00000027,0.00000009,-0.00000014,0.00000016,-0.00
 000027,-0.00000012,-0.00000001,-0.00000037,-0.00000014,-0.00000009,0.0
 0000022,0.00000001,-0.00000036,0.00000030,-0.00000013,0.00000027,-0.00
 000010,-0.00000014,-0.00000002,-0.00000020,-0.00000017,0.00000016,0.00
 000023,0.00000017,-0.00000047,-0.00000010,-0.00000007,-0.00000013,-0.0
 0000003,-0.00000055,-0.00000004,0.00000011,-0.00000055,0.00000058,-0.0
 0000022,0.00000022,-0.00000080,-0.00000094,-0.00000008,-0.00000054,-0.
 00000020,-0.00000090,0.00000050,0.00000076,-0.00000080,0.00000102,-0.0
 0000051,0.00000148,0.00000056,-0.00000007,-0.00000038,-0.00000175,0.00
 000014,-0.00000186,0.00000249,0.00000070,0.00000267,-0.00000127,0.0000
 0096,-0.00001102,-0.00000224,0.00000376,0.00000672,-0.00000680,-0.0000
 0789,0.00000113,-0.00000282,-0.00000306,0.00000023,-0.00000543,-0.0000
 0011,0.00000442,0.00000777,0.00000456,-0.00001031,0.00000712,-0.000000
 77,-0.00003813,-0.00006939,-0.00004459,0.00000398,-0.00000583,0.000004
 41,0.00025610,-0.00000731,-0.00021129,0.00002675,0.00003864,0.00003700
 ,0.00065292,-0.00078017,-0.00203682,-0.00029432,-0.00084425,-0.0004271
 4,0.00369743,0.00045892,-0.00763562,0.07945223,-0.00000033,0.00000030,
 0.00000004,0.00000019,-0.00000043,-0.00000035,-0.00000050,0.00000080,0
 .00000034,0.00000074,-0.00000064,-0.00000036,-0.00000091,0.00000138,0.
 00000044,0.00000136,-0.00000119,-0.00000076,-0.00000163,0.00000241,0.0
 0000065,0.00000238,-0.00000253,-0.00000122,-0.00000251,0.00000501,0.00
 000095,0.00000644,-0.00000437,-0.00000224,-0.00000876,0.00001013,0.000
 00144,0.00000377,-0.00000253,0.00000167,0.00001093,-0.00001456,-0.0000
 0461,-0.00001164,0.00002768,-0.00000695,0.00001237,-0.00003347,0.,-0.0
 0016338,0.00001345,-0.00002876,-0.00021546,0.00114807,0.00314710,-0.00
 057960,0.00257415,-0.00052462,0.00541098,-0.05517726,-0.02346336,0.000
 00038,0.00000045,0.00000030,0.00000013,-0.00000028,0.00000005,0.000000
 09,-0.00000007,-0.00000008,-0.00000002,0.00000006,0.00000003,0.0000000
 6,-0.00000007,0.00000008,0.00000013,-0.00000003,-0.00000006,0.00000009
 ,-0.00000015,0.00000005,-0.00000004,0.00000007,-0.00000003,0.00000002,
 -0.00000007,0.00000010,0.00000018,-0.00000005,-0.00000003,0.00000017,-
 0.00000026,0.00000013,-0.00000012,0.00000019,0.00000014,0.00000003,-0.
 00000008,0.00000015,0.00000028,-0.00000005,-0.00000004,0.00000037,-0.0
 0000049,0.00000029,-0.00000018,0.00000039,0.00000024,0.00000003,0.,0.0
 0000024,0.00000069,-0.00000031,-0.00000038,0.00000061,-0.00000077,0.00
 000047,-0.00000073,-0.00000014,-0.00000061,0.00000016,0.00000049,0.000
 00023,0.00000152,-0.00000165,0.00000010,-0.00000099,0.00000068,-0.0000
 0026,0.00000490,0.00000104,-0.00000185,-0.00000292,0.00000261,0.000003
 30,-0.00000161,0.00000141,-0.00000024,-0.00000016,0.00000187,0.0000007
 1,0.00000895,-0.00000168,-0.00000087,0.00000505,-0.00000385,0.00000150
 ,-0.00001178,-0.00000957,-0.00002636,-0.00000187,0.00000577,0.00000062
 ,0.00000452,-0.00009210,-0.00007297,0.00003033,-0.00002001,-0.00000474
 ,0.00070812,0.00058744,-0.00039472,0.00007346,0.00001477,0.00007631,0.
 00666082,-0.00141725,-0.02810442,-0.00737244,0.04990064,0.00000010,0.0
 0000088,0.00000022,0.00000090,-0.00000061,-0.00000152,-0.00000045,0.00
 000173,-0.00000019,0.00000212,-0.00000145,-0.00000182,-0.00000114,0.00
 000249,-0.00000003,0.00000355,-0.00000287,-0.00000280,-0.00000262,0.00
 000442,0.00000112,0.00000575,-0.00000635,-0.00000443,-0.00000423,0.000
 01010,0.00000218,0.00001427,-0.00001069,-0.00000874,-0.00001359,0.0000
 2183,0.00000542,0.00000322,-0.00000345,0.00000179,0.00003587,-0.000033
 04,-0.00002654,-0.00002276,0.00007381,0.00002721,0.00015591,-0.0000663
 5,-0.00008207,-0.00009130,0.00040133,0.00060775,-0.00172795,-0.0018468
 0,0.00158927,0.01244284,-0.00016106,0.00273359,0.05211635,-0.02357111,
 -0.27264266,0.00000049,0.00000056,0.00000012,0.00000027,-0.00000067,0.
 00000004,-0.00000038,-0.00000011,0.00000042,-0.00000050,0.00000031,0.0
 0000101,0.00000027,-0.00000035,0.00000010,-0.00000043,0.00000004,0.000
 00077,0.00000028,-0.00000054,-0.00000005,-0.00000070,0.00000028,0.0000
 0129,0.00000017,0.00000008,0.00000006,-0.00000035,-0.00000009,0.000001
 12,0.00000019,-0.00000033,0.00000004,-0.00000069,0.00000032,0.00000196
 ,0.00000006,0.00000057,0.00000001,-0.00000018,-0.00000039,0.00000093,0
 .00000028,-0.00000029,0.00000010,-0.00000051,0.00000064,0.00000273,-0.
 00000017,0.00000121,-0.00000012,-0.00000081,-0.00000105,0.00000091,0.0
 0000077,-0.00000042,0.00000022,-0.00000149,0.00000030,0.00000368,0.000
 00054,0.00000148,-0.00000053,0.00000196,-0.00000210,0.00000056,-0.0000
 0236,-0.00000169,-0.00000013,0.00000924,0.00000102,-0.00000233,-0.0000
 0508,0.00000809,0.00000686,-0.00000097,0.00000417,0.00001102,0.0000001
 2,0.00000212,-0.00000065,-0.00000508,-0.00000045,0.00000507,0.00000948
 ,-0.00000730,0.00000180,0.00001915,0.00001343,0.00002670,0.00000427,0.
 00000113,-0.00000156,-0.00032472,-0.00007725,0.00000558,-0.00002171,-0
 .00002336,-0.00002006,0.00136351,0.00159986,0.00030757,-0.00014254,0.0
 0037845,-0.00048861,0.00126669,0.00009237,-0.00929560,-0.06779251,0.02
 568048,0.29485049,0.00000089,0.00000013,0.,-0.00000040,0.00000144,0.00
 000072,0.00000106,-0.00000076,-0.00000072,-0.00000104,0.00000247,0.000
 00075,0.00000195,-0.00000225,-0.00000231,-0.00000327,0.00000396,0.0000
 0098,0.00000370,-0.00000472,-0.00000380,-0.00000664,0.00000768,0.00000
 242,0.00000567,-0.00001185,-0.00000509,-0.00001903,0.00001413,0.000006
 43,0.00002068,-0.00002800,-0.00001153,-0.00000893,0.00000735,-0.000004
 93,-0.00004641,0.00004739,0.00001641,0.00004860,-0.00009451,-0.0000311
 9,-0.00012433,0.00005035,0.00016987,-0.00003986,-0.00057718,0.00004696
 ,0.00318583,0.00846627,0.00099942,-0.03914846,0.02238708,-0.01839012,-
 0.08606294,0.06499283,-0.05130022,-0.00000108,-0.00000094,-0.00000074,
 -0.00000003,-0.00000013,0.00000020,-0.00000017,0.00000010,0.,-0.000000
 08,-0.00000033,0.,-0.00000008,-0.00000021,-0.00000022,-0.00000014,-0.0
 0000015,-0.00000026,-0.00000012,-0.00000040,0.00000013,-0.00000026,-0.
 00000040,0.00000025,-0.00000013,-0.00000028,0.00000006,-0.00000031,-0.
 00000017,0.00000031,-0.00000012,-0.00000032,0.00000037,-0.00000023,-0.
 00000033,0.00000030,-0.00000002,-0.00000097,0.00000024,-0.00000083,-0.
 00000019,0.00000055,-0.00000024,-0.00000036,0.00000029,-0.00000010,-0.
 00000048,-0.00000034,-0.00000004,-0.00000167,0.00000025,-0.00000161,0.
 00000032,0.00000119,0.00000005,-0.00000023,0.00000009,0.00000116,0.000
 00171,0.00000142,-0.00000047,-0.00000363,0.00000102,-0.00000006,0.0000
 0017,0.00000290,0.00000256,-0.00000411,0.00000209,-0.00001158,-0.00000
 263,0.00000448,0.00000691,-0.00000598,-0.00000953,0.00000153,-0.000001
 17,-0.00000093,0.00000026,-0.00000953,0.00000211,-0.00000623,0.0000053
 0,0.00000697,0.00000210,0.00000778,0.00000140,0.00000084,-0.00000037,-
 0.00000784,-0.00003627,-0.00008860,-0.00000725,0.00002757,0.00005865,-
 0.00000523,0.00034654,-0.00012380,0.00008851,-0.00025836,-0.00088245,-
 0.00035355,0.00073569,-0.00214286,0.00064466,0.00533804,-0.00496945,0.
 00495719,0.00578599,-0.00457266,0.00270659,0.11026224,-0.00000035,0.00
 000085,0.00000059,0.00000082,-0.00000182,-0.00000050,-0.00000114,0.000
 00085,0.00000065,0.00000118,-0.00000214,-0.00000064,-0.00000157,0.0000
 0113,0.00000127,0.00000221,-0.00000318,-0.00000038,-0.00000265,0.00000
 253,0.00000285,0.00000445,-0.00000615,-0.00000113,-0.00000338,0.000007
 30,0.00000448,0.00001296,-0.00001066,-0.00000383,-0.00001426,0.0000175
 3,0.00000858,0.00000680,-0.00000598,0.00000354,0.00002996,-0.00003406,
 -0.00001083,-0.00001737,0.00005109,0.00004223,0.00011259,-0.00007666,-
 0.00002028,-0.00023395,0.00043741,-0.00004198,-0.00177167,0.00254669,-
 0.00233202,0.00498231,0.00475107,-0.00296418,0.06871433,-0.17804618,0.
 09509340,0.00000091,0.00000053,0.00000050,-0.00000016,-0.00000004,-0.0
 0000025,0.00000003,-0.00000031,-0.00000035,0.00000008,0.00000007,0.000
 00033,-0.00000004,0.00000068,-0.00000022,0.00000019,0.00000003,-0.0000
 0014,0.00000002,0.00000033,-0.00000002,0.00000013,0.00000009,0.0000003
 5,0.,0.00000089,-0.00000019,0.00000042,0.00000012,-0.00000035,0.000000
 02,0.00000052,-0.00000012,0.00000034,0.00000002,-0.00000001,-0.0000000
 5,0.00000148,-0.00000022,0.00000092,0.00000005,-0.00000071,-0.00000014
 ,0.00000091,-0.00000033,0.00000035,0.00000004,-0.00000008,-0.00000024,
 0.00000238,-0.00000047,0.00000165,-0.00000034,-0.00000128,-0.00000058,
 0.00000122,-0.00000039,-0.00000055,-0.00000169,-0.00000167,0.00000009,
 0.00000411,-0.00000129,-0.00000113,0.00000166,-0.00000329,-0.00000200,
 0.00000455,-0.00000193,0.00000825,0.00000163,-0.00000344,-0.00000467,0
 .00000378,0.00000768,-0.00000047,0.,-0.00000035,-0.00000088,0.00000992
 ,-0.00000276,0.00000487,-0.00000417,-0.00000744,0.00000514,0.00000221,
 -0.00000341,0.00000257,0.00000339,0.00000328,0.00000166,-0.00000514,0.
 00000029,0.00000861,-0.00002896,-0.00001067,-0.00019585,-0.00014663,-0
 .00000035,0.00001049,-0.00007912,0.00038129,0.00162251,0.00100482,0.00
 089589,0.01086249,-0.01907211,0.01702088,-0.00162519,0.00248465,-0.002
 48338,-0.08252107,0.18617880,0.00000008,-0.00000042,-0.00000025,-0.000
 00042,0.00000061,0.00000011,0.00000021,-0.00000017,-0.00000010,-0.0000
 0010,0.00000060,0.00000006,0.00000010,0.00000034,-0.00000011,-0.000000
 08,0.00000076,-0.00000038,0.00000015,0.00000046,-0.00000072,-0.0000003
 7,0.00000160,-0.00000053,-0.00000041,-0.00000022,-0.00000142,-0.000001
 88,0.00000303,-0.00000059,-0.00000014,-0.00000289,-0.00000204,-0.00000
 034,0.00000245,-0.00000075,-0.00000963,0.00001064,-0.00000197,0.000000
 67,-0.00002234,-0.00000251,-0.00008757,0.00004009,-0.00003628,0.000024
 79,-0.00041740,0.00012455,0.00042776,0.00074628,0.00035297,-0.00110472
 ,-0.00532911,0.00834935,-0.05297342,0.09578640,-0.12502836,-0.00000032
 ,-0.00000017,-0.00000015,0.00000012,0.00000006,0.00000015,0.00000010,0
 .00000020,0.00000012,0.00000003,0.00000011,-0.00000037,0.00000003,-0.0
 0000039,0.00000031,-0.00000001,0.00000004,0.00000009,0.00000008,-0.000
 00014,0.00000005,-0.00000004,0.00000013,-0.00000030,0.,-0.00000056,0.0
 0000022,-0.00000010,-0.00000006,0.00000010,0.00000019,-0.00000046,0.00
 000008,-0.00000028,0.00000021,0.,-0.00000001,-0.00000092,0.00000020,-0
 .00000031,0.,0.00000037,0.00000050,-0.00000084,0.00000027,-0.00000038,
 0.00000034,0.00000015,0.00000011,-0.00000157,0.00000055,-0.00000026,0.
 00000006,0.00000042,0.00000107,-0.00000135,0.00000051,-0.00000030,0.00
 000082,-0.00000014,-0.00000009,-0.00000254,0.00000152,0.00000250,-0.00
 000235,0.00000150,0.00000008,-0.00000228,0.00000134,-0.00000025,-0.000
 00007,0.00000050,-0.00000007,-0.00000051,-0.00000150,-0.00000069,0.000
 00163,-0.00000029,-0.00000044,-0.00000599,0.00000454,-0.00000029,0.000
 00100,0.00000146,0.00000925,-0.00000403,0.00000028,-0.00000455,0.00000
 299,0.00000331,-0.00000876,-0.00002219,0.00002039,0.00002943,0.0000013
 7,-0.00001185,0.00017751,-0.00000237,-0.00003058,0.00010401,0.00027891
 ,-0.00042875,-0.00058558,-0.00050437,-0.00021003,0.00511986,-0.0087109
 4,0.00671975,-0.01158507,0.02372273,-0.01761926,0.06046827,-0.10556723
 ,0.12779398\\-0.00000208,0.00000018,-0.00000007,0.00000248,-0.00000283
 ,-0.00000125,-0.00000314,0.00000236,0.00000124,0.00000329,-0.00000381,
 -0.00000150,-0.00000236,0.00000320,0.00000227,0.00000241,-0.00000420,-
 0.00000154,-0.00000354,0.00000361,0.00000187,0.00000634,-0.00000036,-0
 .00000149,-0.00000674,0.00000208,0.00000164,0.00000633,0.00000009,0.00
 000059,-0.00000018,0.00000167,-0.00000503,-0.00000035,-0.00000218,0.00
 000851,-0.00000156,-0.00000368,-0.00000190,-0.00000123,0.00000636,0.00
 000503,0.00000195,-0.00000240,-0.00000369,0.00000025,0.00000302,0.0000
 0173,0.00000771,-0.00000055,-0.00000088,-0.00000378,0.00000323,0.00000
 110,0.00000003,-0.00000723,-0.00000191,-0.00000023,-0.00000062,-0.0000
 0020,0.00000040,-0.00000060,-0.00000032,0.00000011,-0.00000021,-0.0000
 0025,-0.00000021,0.00000035,0.00000080,-0.00000033,0.00000070,0.000000
 61,0.00000060,-0.00000085,-0.00000086,0.00000095,-0.00000128,-0.000000
 60,-0.00000050,0.00000048,0.00000071,-0.00000062,0.00000080,0.00000047
 ,0.00000041,-0.00000039,-0.00000085,0.00000110,-0.00000101,-0.00000068
 ,-0.00000063,0.00000083,0.00000050,-0.00000069,0.00000072,0.00000025,0
 .00000048,-0.00000006,-0.00000078,0.00000167,-0.00000069,-0.00000078,-
 0.00000084,-0.00000084,0.00000033,-0.00000184,0.00000111,0.00000084,0.
 00000045,-0.00000024,0.00000127,0.00000171,-0.00000118,-0.00000005,-0.
 00000031,-0.00000050,-0.00000056,-0.00000113,0.00000088,0.00000033,0.0
 0000100,-0.00000010,-0.00000145,0.00000006,0.00000134,-0.00000222,-0.0
 0000064,0.00000041,-0.00000237,0.00000024,0.00000174,-0.00000208,0.000
 00030,-0.00000003,-0.00000063,-0.00000105,0.00000129,0.00000066,-0.000
 00029,-0.00000104,0.00000129,-0.00000023,-0.00000219,-0.00000033,0.000
 00096,0.00000037,0.00000049,-0.00000041,0.00000081,0.00000078,-0.00000
 070,0.00000062,-0.00000016,-0.00000033,-0.00000023,-0.00000058,-0.0000
 0123,-0.00000018,0.00000013,-0.00000140,0.00000034,0.00000063,-0.00000
 353,-0.00000038,0.00000014,0.00000060,0.00000055,0.00000011,0.00000029
 ,0.00000069,0.00000068\\\@


 ... I FELL INTO A REVERIE ... THE ATOMS WERE GAMBOLING BEFORE MY EYES
 ... I SAW HOW TWO SMALL ONES UNITED TO FORM A PAIR;
 HOW THE LARGER ONES SEIZED TWO OF THE SMALLER ONES;
 HOW STILL LARGER ONES KEPT HOLD OF THREE OR FOUR
 SMALLER ONES ... I SAW HOW THE LARGER ONES FORMED A CHAIN ...
 THIS WAS THE ORIGIN OF THE STRUCTURE THEORY.

                                   -- C.F.KEKULE VON STRADONITZ
 Job cpu time:       0 days 22 hours  2 minutes 35.6 seconds.
 Elapsed time:       0 days  5 hours 30 minutes 44.4 seconds.
 File lengths (MBytes):  RWF=   2000 Int=      0 D2E=      0 Chk=     44 Scr=      1
 Normal termination of Gaussian 16 at Tue May 23 06:11:40 2023.
### All Done ###
