### Starting Gaussian ###
 Entering Gaussian System, Link 0=g16
 Initial command:
 /cluster/software/gaussian/gaussian-16-A.03/avx2/g16/l1.exe "/local/scratch/linjian/Gau-26208.inp" -scrdir="/local/scratch/linjian/"
 Entering Link 1 = /cluster/software/gaussian/gaussian-16-A.03/avx2/g16/l1.exe PID=     26209.
  
 Copyright (c) 1988,1990,1992,1993,1995,1998,2003,2009,2016,
            Gaussian, Inc.  All Rights Reserved.
  
 This is part of the Gaussian(R) 16 program.  It is based on
 the Gaussian(R) 09 system (copyright 2009, Gaussian, Inc.),
 the Gaussian(R) 03 system (copyright 2003, Gaussian, Inc.),
 the Gaussian(R) 98 system (copyright 1998, Gaussian, Inc.),
 the Gaussian(R) 94 system (copyright 1995, Gaussian, Inc.),
 the Gaussian 92(TM) system (copyright 1992, Gaussian, Inc.),
 the Gaussian 90(TM) system (copyright 1990, Gaussian, Inc.),
 the Gaussian 88(TM) system (copyright 1988, Gaussian, Inc.),
 the Gaussian 86(TM) system (copyright 1986, Carnegie Mellon
 University), and the Gaussian 82(TM) system (copyright 1983,
 Carnegie Mellon University). Gaussian is a federally registered
 trademark of Gaussian, Inc.
  
 This software contains proprietary and confidential information,
 including trade secrets, belonging to Gaussian, Inc.
  
 This software is provided under written license and may be
 used, copied, transmitted, or stored only in accord with that
 written license.
  
 The following legend is applicable only to US Government
 contracts under FAR:
  
                    RESTRICTED RIGHTS LEGEND
  
 Use, reproduction and disclosure by the US Government is
 subject to restrictions as set forth in subparagraphs (a)
 and (c) of the Commercial Computer Software - Restricted
 Rights clause in FAR 52.227-19.
  
 Gaussian, Inc.
 340 Quinnipiac St., Bldg. 40, Wallingford CT 06492
  
  
 ---------------------------------------------------------------
 Warning -- This program may not be used in any manner that
 competes with the business of Gaussian, Inc. or will provide
 assistance to any competitor of Gaussian, Inc.  The licensee
 of this program is prohibited from giving any competitor of
 Gaussian, Inc. access to this program.  By using this program,
 the user acknowledges that Gaussian, Inc. is engaged in the
 business of creating and licensing software in the field of
 computational chemistry and represents and warrants to the
 licensee that it is not a competitor of Gaussian, Inc. and that
 it will not use this program in any manner prohibited above.
 ---------------------------------------------------------------
  

 Cite this work as:
 Gaussian 16, Revision A.03,
 M. J. Frisch, G. W. Trucks, H. B. Schlegel, G. E. Scuseria, 
 M. A. Robb, J. R. Cheeseman, G. Scalmani, V. Barone, 
 G. A. Petersson, H. Nakatsuji, X. Li, M. Caricato, A. V. Marenich, 
 J. Bloino, B. G. Janesko, R. Gomperts, B. Mennucci, H. P. Hratchian, 
 J. V. Ortiz, A. F. Izmaylov, J. L. Sonnenberg, D. Williams-Young, 
 F. Ding, F. Lipparini, F. Egidi, J. Goings, B. Peng, A. Petrone, 
 T. Henderson, D. Ranasinghe, V. G. Zakrzewski, J. Gao, N. Rega, 
 G. Zheng, W. Liang, M. Hada, M. Ehara, K. Toyota, R. Fukuda, 
 J. Hasegawa, M. Ishida, T. Nakajima, Y. Honda, O. Kitao, H. Nakai, 
 T. Vreven, K. Throssell, J. A. Montgomery, Jr., J. E. Peralta, 
 F. Ogliaro, M. J. Bearpark, J. J. Heyd, E. N. Brothers, K. N. Kudin, 
 V. N. Staroverov, T. A. Keith, R. Kobayashi, J. Normand, 
 K. Raghavachari, A. P. Rendell, J. C. Burant, S. S. Iyengar, 
 J. Tomasi, M. Cossi, J. M. Millam, M. Klene, C. Adamo, R. Cammi, 
 J. W. Ochterski, R. L. Martin, K. Morokuma, O. Farkas, 
 J. B. Foresman, and D. J. Fox, Gaussian, Inc., Wallingford CT, 2016.
 
 ******************************************
 Gaussian 16:  ES64L-G16RevA.03 25-Dec-2016
                22-May-2023 
 ******************************************
 %chk=CCCC1CCCCC1COCqCCrCC.chk
 %NProcShared=20
 Will use up to   20 processors via shared memory.
 -----------------------------
 # opt freq b3lyp/6-31g(2df,p)
 -----------------------------
 1/18=20,19=15,26=3,38=1/1,3;
 2/9=110,12=2,17=6,18=5,40=1/2;
 3/5=1,6=6,7=104,11=2,25=1,30=1,71=1,74=-5/1,2,3;
 4//1;
 5/5=2,38=5/2;
 6/7=2,8=2,9=2,10=2,28=1/1;
 7//1,2,3,16;
 1/18=20,19=15,26=3/3(2);
 2/9=110/2;
 99//99;
 2/9=110/2;
 3/5=1,6=6,7=104,11=2,25=1,30=1,71=1,74=-5/1,2,3;
 4/5=5,16=3,69=1/1;
 5/5=2,38=5/2;
 7//1,2,3,16;
 1/18=20,19=15,26=3/3(-5);
 2/9=110/2;
 6/7=2,8=2,9=2,10=2,19=2,28=1/1;
 99/9=1/99;
 -------------------
 Title Card Required
 -------------------
 Symbolic Z-matrix:
 Charge =  0 Multiplicity = 1
 C                     0.81643   0.06983  -0.06272 
 C                     2.32673   0.06428  -0.14641 
 C                     2.93038  -1.2271    0.40964 
 C                     4.47461  -1.18972   0.51576 
 C                     5.09252  -0.77736  -0.8331 
 C                     6.60961  -0.65681  -0.79339 
 C                     7.05055   0.32496   0.282 
 C                     6.51873  -0.11445   1.63108 
 C                     4.97942  -0.24453   1.62267 
 C                     4.58086  -0.70808   3.01579 
 O                     3.19253  -0.66053   3.27851 
 C                     2.84202  -1.18045   4.5701 
 C                     3.28731  -0.21792   5.69296 
 C                     4.78769  -0.09329   5.95123 
 C                     1.30484  -1.35831   4.5569 
 C                     0.74204  -1.91336   5.85868 
 H                     0.42613   0.96334  -0.5589 
 H                     0.48374   0.0805    0.97925 
 H                     0.40093  -0.81162  -0.55885 
 H                     2.70957   0.94256   0.38506 
 H                     2.60371   0.17171  -1.19974 
 H                     2.64079  -2.06987  -0.23016 
 H                     2.46783  -1.4601    1.37072 
 H                     4.81342  -2.20416   0.75876 
 H                     4.7106    0.20195  -1.13505 
 H                     4.79352  -1.49669  -1.60444 
 H                     6.96574  -0.30635  -1.76821 
 H                     7.05612  -1.63842  -0.60916 
 H                     6.68194   1.3318    0.0556 
 H                     8.14448   0.38235   0.31531 
 H                     6.82702   0.62036   2.3896 
 H                     6.97931  -1.06675   1.91784 
 H                     4.56252   0.75169   1.45982 
 H                     5.04291   0.05369   3.62963 
 H                     5.00001  -1.68494   3.25654 
 H                     3.29191  -2.17373   4.69585 
 H                     2.86665  -0.55613   6.64126 
 H                     2.88575   0.77872   5.47915 
 H                     5.29137  -1.06141   5.86598 
 H                     4.96314   0.31124   6.94925 
 H                     5.27598   0.63359   5.29799 
 H                     1.02152  -2.03171   3.73554 
 H                     0.82017  -0.40207   4.32284 
 H                     1.18788  -2.88512   6.09143 
 H                    -0.34274  -2.03991   5.78956 
 H                     0.92508  -1.23883   6.69898 
 

 GradGradGradGradGradGradGradGradGradGradGradGradGradGradGradGradGradGrad
 Berny optimization.
 Initialization pass.
                           ----------------------------
                           !    Initial Parameters    !
                           ! (Angstroms and Degrees)  !
 --------------------------                            --------------------------
 ! Name  Definition              Value          Derivative Info.                !
 --------------------------------------------------------------------------------
 ! R1    R(1,2)                  1.5126         estimate D2E/DX2                !
 ! R2    R(1,17)                 1.094          estimate D2E/DX2                !
 ! R3    R(1,18)                 1.0938         estimate D2E/DX2                !
 ! R4    R(1,19)                 1.0935         estimate D2E/DX2                !
 ! R5    R(2,3)                  1.5301         estimate D2E/DX2                !
 ! R6    R(2,20)                 1.0956         estimate D2E/DX2                !
 ! R7    R(2,21)                 1.0944         estimate D2E/DX2                !
 ! R8    R(3,4)                  1.5483         estimate D2E/DX2                !
 ! R9    R(3,22)                 1.097          estimate D2E/DX2                !
 ! R10   R(3,23)                 1.0917         estimate D2E/DX2                !
 ! R11   R(4,5)                  1.5399         estimate D2E/DX2                !
 ! R12   R(4,9)                  1.5406         estimate D2E/DX2                !
 ! R13   R(4,24)                 1.0968         estimate D2E/DX2                !
 ! R14   R(5,6)                  1.5224         estimate D2E/DX2                !
 ! R15   R(5,25)                 1.0937         estimate D2E/DX2                !
 ! R16   R(5,26)                 1.0963         estimate D2E/DX2                !
 ! R17   R(6,7)                  1.5214         estimate D2E/DX2                !
 ! R18   R(6,27)                 1.0954         estimate D2E/DX2                !
 ! R19   R(6,28)                 1.094          estimate D2E/DX2                !
 ! R20   R(7,8)                  1.5152         estimate D2E/DX2                !
 ! R21   R(7,29)                 1.0958         estimate D2E/DX2                !
 ! R22   R(7,30)                 1.0959         estimate D2E/DX2                !
 ! R23   R(8,9)                  1.5448         estimate D2E/DX2                !
 ! R24   R(8,31)                 1.1002         estimate D2E/DX2                !
 ! R25   R(8,32)                 1.096          estimate D2E/DX2                !
 ! R26   R(9,10)                 1.5214         estimate D2E/DX2                !
 ! R27   R(9,33)                 1.0921         estimate D2E/DX2                !
 ! R28   R(10,11)                1.4138         estimate D2E/DX2                !
 ! R29   R(10,34)                1.0819         estimate D2E/DX2                !
 ! R30   R(10,35)                1.0899         estimate D2E/DX2                !
 ! R31   R(11,12)                1.4358         estimate D2E/DX2                !
 ! R32   R(12,13)                1.5445         estimate D2E/DX2                !
 ! R33   R(12,15)                1.5475         estimate D2E/DX2                !
 ! R34   R(12,36)                1.0976         estimate D2E/DX2                !
 ! R35   R(13,14)                1.5275         estimate D2E/DX2                !
 ! R36   R(13,37)                1.0912         estimate D2E/DX2                !
 ! R37   R(13,38)                1.0956         estimate D2E/DX2                !
 ! R38   R(14,39)                1.0946         estimate D2E/DX2                !
 ! R39   R(14,40)                1.0911         estimate D2E/DX2                !
 ! R40   R(14,41)                1.0925         estimate D2E/DX2                !
 ! R41   R(15,16)                1.523          estimate D2E/DX2                !
 ! R42   R(15,42)                1.0993         estimate D2E/DX2                !
 ! R43   R(15,43)                1.0973         estimate D2E/DX2                !
 ! R44   R(16,44)                1.0942         estimate D2E/DX2                !
 ! R45   R(16,45)                1.0943         estimate D2E/DX2                !
 ! R46   R(16,46)                1.093          estimate D2E/DX2                !
 ! A1    A(2,1,17)             109.5185         estimate D2E/DX2                !
 ! A2    A(2,1,18)             110.8804         estimate D2E/DX2                !
 ! A3    A(2,1,19)             110.5686         estimate D2E/DX2                !
 ! A4    A(17,1,18)            108.3943         estimate D2E/DX2                !
 ! A5    A(17,1,19)            108.4823         estimate D2E/DX2                !
 ! A6    A(18,1,19)            108.9345         estimate D2E/DX2                !
 ! A7    A(1,2,3)              112.1416         estimate D2E/DX2                !
 ! A8    A(1,2,20)             108.609          estimate D2E/DX2                !
 ! A9    A(1,2,21)             107.7933         estimate D2E/DX2                !
 ! A10   A(3,2,20)             111.2487         estimate D2E/DX2                !
 ! A11   A(3,2,21)             109.4364         estimate D2E/DX2                !
 ! A12   A(20,2,21)            107.4424         estimate D2E/DX2                !
 ! A13   A(2,3,4)              113.4533         estimate D2E/DX2                !
 ! A14   A(2,3,22)             109.4075         estimate D2E/DX2                !
 ! A15   A(2,3,23)             109.4439         estimate D2E/DX2                !
 ! A16   A(4,3,22)             108.7717         estimate D2E/DX2                !
 ! A17   A(4,3,23)             111.5538         estimate D2E/DX2                !
 ! A18   A(22,3,23)            103.7457         estimate D2E/DX2                !
 ! A19   A(3,4,5)              110.2817         estimate D2E/DX2                !
 ! A20   A(3,4,9)              113.008          estimate D2E/DX2                !
 ! A21   A(3,4,24)             107.5148         estimate D2E/DX2                !
 ! A22   A(5,4,9)              109.4863         estimate D2E/DX2                !
 ! A23   A(5,4,24)             108.5296         estimate D2E/DX2                !
 ! A24   A(9,4,24)             107.8815         estimate D2E/DX2                !
 ! A25   A(4,5,6)              113.4674         estimate D2E/DX2                !
 ! A26   A(4,5,25)             109.9682         estimate D2E/DX2                !
 ! A27   A(4,5,26)             109.3395         estimate D2E/DX2                !
 ! A28   A(6,5,25)             106.5167         estimate D2E/DX2                !
 ! A29   A(6,5,26)             110.0052         estimate D2E/DX2                !
 ! A30   A(25,5,26)            107.3407         estimate D2E/DX2                !
 ! A31   A(5,6,7)              110.9985         estimate D2E/DX2                !
 ! A32   A(5,6,27)             109.0323         estimate D2E/DX2                !
 ! A33   A(5,6,28)             109.8806         estimate D2E/DX2                !
 ! A34   A(7,6,27)             109.168          estimate D2E/DX2                !
 ! A35   A(7,6,28)             109.9791         estimate D2E/DX2                !
 ! A36   A(27,6,28)            107.712          estimate D2E/DX2                !
 ! A37   A(6,7,8)              109.9053         estimate D2E/DX2                !
 ! A38   A(6,7,29)             110.4487         estimate D2E/DX2                !
 ! A39   A(6,7,30)             110.155          estimate D2E/DX2                !
 ! A40   A(8,7,29)             109.4101         estimate D2E/DX2                !
 ! A41   A(8,7,30)             109.7833         estimate D2E/DX2                !
 ! A42   A(29,7,30)            107.0929         estimate D2E/DX2                !
 ! A43   A(7,8,9)              111.6726         estimate D2E/DX2                !
 ! A44   A(7,8,31)             108.7729         estimate D2E/DX2                !
 ! A45   A(7,8,32)             109.7201         estimate D2E/DX2                !
 ! A46   A(9,8,31)             109.8293         estimate D2E/DX2                !
 ! A47   A(9,8,32)             110.3037         estimate D2E/DX2                !
 ! A48   A(31,8,32)            106.3907         estimate D2E/DX2                !
 ! A49   A(4,9,8)              112.4622         estimate D2E/DX2                !
 ! A50   A(4,9,10)             112.6531         estimate D2E/DX2                !
 ! A51   A(4,9,33)             109.1121         estimate D2E/DX2                !
 ! A52   A(8,9,10)             106.3626         estimate D2E/DX2                !
 ! A53   A(8,9,33)             107.7202         estimate D2E/DX2                !
 ! A54   A(10,9,33)            108.329          estimate D2E/DX2                !
 ! A55   A(9,10,11)            114.6568         estimate D2E/DX2                !
 ! A56   A(9,10,34)            101.135          estimate D2E/DX2                !
 ! A57   A(9,10,35)            112.0004         estimate D2E/DX2                !
 ! A58   A(11,10,34)           106.8737         estimate D2E/DX2                !
 ! A59   A(11,10,35)           111.5153         estimate D2E/DX2                !
 ! A60   A(34,10,35)           109.9679         estimate D2E/DX2                !
 ! A61   A(10,11,12)           113.2491         estimate D2E/DX2                !
 ! A62   A(11,12,13)           110.9739         estimate D2E/DX2                !
 ! A63   A(11,12,15)           106.0485         estimate D2E/DX2                !
 ! A64   A(11,12,36)           109.3108         estimate D2E/DX2                !
 ! A65   A(13,12,15)           111.3588         estimate D2E/DX2                !
 ! A66   A(13,12,36)           111.2527         estimate D2E/DX2                !
 ! A67   A(15,12,36)           107.7046         estimate D2E/DX2                !
 ! A68   A(12,13,14)           117.1897         estimate D2E/DX2                !
 ! A69   A(12,13,37)           109.1176         estimate D2E/DX2                !
 ! A70   A(12,13,38)           108.6246         estimate D2E/DX2                !
 ! A71   A(14,13,37)           104.8929         estimate D2E/DX2                !
 ! A72   A(14,13,38)           108.5899         estimate D2E/DX2                !
 ! A73   A(37,13,38)           108.0757         estimate D2E/DX2                !
 ! A74   A(13,14,39)           111.5079         estimate D2E/DX2                !
 ! A75   A(13,14,40)           110.0505         estimate D2E/DX2                !
 ! A76   A(13,14,41)           113.0913         estimate D2E/DX2                !
 ! A77   A(39,14,40)           108.9749         estimate D2E/DX2                !
 ! A78   A(39,14,41)           109.647          estimate D2E/DX2                !
 ! A79   A(40,14,41)           103.202          estimate D2E/DX2                !
 ! A80   A(12,15,16)           113.6829         estimate D2E/DX2                !
 ! A81   A(12,15,42)           109.4389         estimate D2E/DX2                !
 ! A82   A(12,15,43)           109.9017         estimate D2E/DX2                !
 ! A83   A(16,15,42)           108.6731         estimate D2E/DX2                !
 ! A84   A(16,15,43)           109.6759         estimate D2E/DX2                !
 ! A85   A(42,15,43)           105.1069         estimate D2E/DX2                !
 ! A86   A(15,16,44)           110.7884         estimate D2E/DX2                !
 ! A87   A(15,16,45)           110.7613         estimate D2E/DX2                !
 ! A88   A(15,16,46)           111.7371         estimate D2E/DX2                !
 ! A89   A(44,16,45)           108.339          estimate D2E/DX2                !
 ! A90   A(44,16,46)           108.4404         estimate D2E/DX2                !
 ! A91   A(45,16,46)           106.6149         estimate D2E/DX2                !
 ! D1    D(17,1,2,3)          -174.4461         estimate D2E/DX2                !
 ! D2    D(17,1,2,20)           62.1962         estimate D2E/DX2                !
 ! D3    D(17,1,2,21)          -53.9226         estimate D2E/DX2                !
 ! D4    D(18,1,2,3)            65.9797         estimate D2E/DX2                !
 ! D5    D(18,1,2,20)          -57.378          estimate D2E/DX2                !
 ! D6    D(18,1,2,21)         -173.4968         estimate D2E/DX2                !
 ! D7    D(19,1,2,3)           -54.9569         estimate D2E/DX2                !
 ! D8    D(19,1,2,20)         -178.3146         estimate D2E/DX2                !
 ! D9    D(19,1,2,21)           65.5666         estimate D2E/DX2                !
 ! D10   D(1,2,3,4)           -172.2324         estimate D2E/DX2                !
 ! D11   D(1,2,3,22)            66.1158         estimate D2E/DX2                !
 ! D12   D(1,2,3,23)           -46.9341         estimate D2E/DX2                !
 ! D13   D(20,2,3,4)           -50.3709         estimate D2E/DX2                !
 ! D14   D(20,2,3,22)         -172.0226         estimate D2E/DX2                !
 ! D15   D(20,2,3,23)           74.9274         estimate D2E/DX2                !
 ! D16   D(21,2,3,4)            68.201          estimate D2E/DX2                !
 ! D17   D(21,2,3,22)          -53.4508         estimate D2E/DX2                !
 ! D18   D(21,2,3,23)         -166.5007         estimate D2E/DX2                !
 ! D19   D(2,3,4,5)            -52.4884         estimate D2E/DX2                !
 ! D20   D(2,3,4,9)             70.4196         estimate D2E/DX2                !
 ! D21   D(2,3,4,24)          -170.6457         estimate D2E/DX2                !
 ! D22   D(22,3,4,5)            69.5178         estimate D2E/DX2                !
 ! D23   D(22,3,4,9)          -167.5742         estimate D2E/DX2                !
 ! D24   D(22,3,4,24)          -48.6395         estimate D2E/DX2                !
 ! D25   D(23,3,4,5)          -176.6486         estimate D2E/DX2                !
 ! D26   D(23,3,4,9)           -53.7407         estimate D2E/DX2                !
 ! D27   D(23,3,4,24)           65.194          estimate D2E/DX2                !
 ! D28   D(3,4,5,6)            177.4217         estimate D2E/DX2                !
 ! D29   D(3,4,5,25)            58.2457         estimate D2E/DX2                !
 ! D30   D(3,4,5,26)           -59.3741         estimate D2E/DX2                !
 ! D31   D(9,4,5,6)             52.4775         estimate D2E/DX2                !
 ! D32   D(9,4,5,25)           -66.6984         estimate D2E/DX2                !
 ! D33   D(9,4,5,26)           175.6817         estimate D2E/DX2                !
 ! D34   D(24,4,5,6)           -65.0461         estimate D2E/DX2                !
 ! D35   D(24,4,5,25)          175.778          estimate D2E/DX2                !
 ! D36   D(24,4,5,26)           58.1581         estimate D2E/DX2                !
 ! D37   D(3,4,9,8)           -174.6185         estimate D2E/DX2                !
 ! D38   D(3,4,9,10)            65.1911         estimate D2E/DX2                !
 ! D39   D(3,4,9,33)           -55.1574         estimate D2E/DX2                !
 ! D40   D(5,4,9,8)            -51.2698         estimate D2E/DX2                !
 ! D41   D(5,4,9,10)          -171.4601         estimate D2E/DX2                !
 ! D42   D(5,4,9,33)            68.1914         estimate D2E/DX2                !
 ! D43   D(24,4,9,8)            66.6594         estimate D2E/DX2                !
 ! D44   D(24,4,9,10)          -53.5309         estimate D2E/DX2                !
 ! D45   D(24,4,9,33)         -173.8794         estimate D2E/DX2                !
 ! D46   D(4,5,6,7)            -56.4932         estimate D2E/DX2                !
 ! D47   D(4,5,6,27)          -176.7873         estimate D2E/DX2                !
 ! D48   D(4,5,6,28)            65.3756         estimate D2E/DX2                !
 ! D49   D(25,5,6,7)            64.6414         estimate D2E/DX2                !
 ! D50   D(25,5,6,27)          -55.6527         estimate D2E/DX2                !
 ! D51   D(25,5,6,28)         -173.4899         estimate D2E/DX2                !
 ! D52   D(26,5,6,7)          -179.3312         estimate D2E/DX2                !
 ! D53   D(26,5,6,27)           60.3747         estimate D2E/DX2                !
 ! D54   D(26,5,6,28)          -57.4625         estimate D2E/DX2                !
 ! D55   D(5,6,7,8)             57.5112         estimate D2E/DX2                !
 ! D56   D(5,6,7,29)           -63.3011         estimate D2E/DX2                !
 ! D57   D(5,6,7,30)           178.5992         estimate D2E/DX2                !
 ! D58   D(27,6,7,8)           177.7248         estimate D2E/DX2                !
 ! D59   D(27,6,7,29)           56.9124         estimate D2E/DX2                !
 ! D60   D(27,6,7,30)          -61.1872         estimate D2E/DX2                !
 ! D61   D(28,6,7,8)           -64.3            estimate D2E/DX2                !
 ! D62   D(28,6,7,29)          174.8877         estimate D2E/DX2                !
 ! D63   D(28,6,7,30)           56.788          estimate D2E/DX2                !
 ! D64   D(6,7,8,9)            -57.2495         estimate D2E/DX2                !
 ! D65   D(6,7,8,31)          -178.6225         estimate D2E/DX2                !
 ! D66   D(6,7,8,32)            65.3728         estimate D2E/DX2                !
 ! D67   D(29,7,8,9)            64.1865         estimate D2E/DX2                !
 ! D68   D(29,7,8,31)          -57.1865         estimate D2E/DX2                !
 ! D69   D(29,7,8,32)         -173.1912         estimate D2E/DX2                !
 ! D70   D(30,7,8,9)          -178.5605         estimate D2E/DX2                !
 ! D71   D(30,7,8,31)           60.0665         estimate D2E/DX2                !
 ! D72   D(30,7,8,32)          -55.9382         estimate D2E/DX2                !
 ! D73   D(7,8,9,4)             55.3826         estimate D2E/DX2                !
 ! D74   D(7,8,9,10)           179.1451         estimate D2E/DX2                !
 ! D75   D(7,8,9,33)           -64.8857         estimate D2E/DX2                !
 ! D76   D(31,8,9,4)           176.1414         estimate D2E/DX2                !
 ! D77   D(31,8,9,10)          -60.0961         estimate D2E/DX2                !
 ! D78   D(31,8,9,33)           55.8731         estimate D2E/DX2                !
 ! D79   D(32,8,9,4)           -66.9055         estimate D2E/DX2                !
 ! D80   D(32,8,9,10)           56.857          estimate D2E/DX2                !
 ! D81   D(32,8,9,33)          172.8262         estimate D2E/DX2                !
 ! D82   D(4,9,10,11)          -66.9562         estimate D2E/DX2                !
 ! D83   D(4,9,10,34)          178.4702         estimate D2E/DX2                !
 ! D84   D(4,9,10,35)           61.4114         estimate D2E/DX2                !
 ! D85   D(8,9,10,11)          169.4002         estimate D2E/DX2                !
 ! D86   D(8,9,10,34)           54.8266         estimate D2E/DX2                !
 ! D87   D(8,9,10,35)          -62.2322         estimate D2E/DX2                !
 ! D88   D(33,9,10,11)          53.8415         estimate D2E/DX2                !
 ! D89   D(33,9,10,34)         -60.7321         estimate D2E/DX2                !
 ! D90   D(33,9,10,35)        -177.7909         estimate D2E/DX2                !
 ! D91   D(9,10,11,12)         176.4124         estimate D2E/DX2                !
 ! D92   D(34,10,11,12)        -72.408          estimate D2E/DX2                !
 ! D93   D(35,10,11,12)         47.8014         estimate D2E/DX2                !
 ! D94   D(10,11,12,13)         71.7726         estimate D2E/DX2                !
 ! D95   D(10,11,12,15)       -167.1536         estimate D2E/DX2                !
 ! D96   D(10,11,12,36)        -51.298          estimate D2E/DX2                !
 ! D97   D(11,12,13,14)        -70.2403         estimate D2E/DX2                !
 ! D98   D(11,12,13,37)        170.8212         estimate D2E/DX2                !
 ! D99   D(11,12,13,38)         53.2177         estimate D2E/DX2                !
 ! D100  D(15,12,13,14)        171.8672         estimate D2E/DX2                !
 ! D101  D(15,12,13,37)         52.9288         estimate D2E/DX2                !
 ! D102  D(15,12,13,38)        -64.6748         estimate D2E/DX2                !
 ! D103  D(36,12,13,14)         51.7041         estimate D2E/DX2                !
 ! D104  D(36,12,13,37)        -67.2344         estimate D2E/DX2                !
 ! D105  D(36,12,13,38)        175.1621         estimate D2E/DX2                !
 ! D106  D(11,12,15,16)        179.7657         estimate D2E/DX2                !
 ! D107  D(11,12,15,42)         58.0612         estimate D2E/DX2                !
 ! D108  D(11,12,15,43)        -56.8806         estimate D2E/DX2                !
 ! D109  D(13,12,15,16)        -59.4091         estimate D2E/DX2                !
 ! D110  D(13,12,15,42)        178.8864         estimate D2E/DX2                !
 ! D111  D(13,12,15,43)         63.9447         estimate D2E/DX2                !
 ! D112  D(36,12,15,16)         62.8268         estimate D2E/DX2                !
 ! D113  D(36,12,15,42)        -58.8778         estimate D2E/DX2                !
 ! D114  D(36,12,15,43)       -173.8195         estimate D2E/DX2                !
 ! D115  D(12,13,14,39)        -39.0533         estimate D2E/DX2                !
 ! D116  D(12,13,14,40)       -160.1084         estimate D2E/DX2                !
 ! D117  D(12,13,14,41)         85.0632         estimate D2E/DX2                !
 ! D118  D(37,13,14,39)         82.1188         estimate D2E/DX2                !
 ! D119  D(37,13,14,40)        -38.9363         estimate D2E/DX2                !
 ! D120  D(37,13,14,41)       -153.7647         estimate D2E/DX2                !
 ! D121  D(38,13,14,39)       -162.529          estimate D2E/DX2                !
 ! D122  D(38,13,14,40)         76.4159         estimate D2E/DX2                !
 ! D123  D(38,13,14,41)        -38.4125         estimate D2E/DX2                !
 ! D124  D(12,15,16,44)        -58.5234         estimate D2E/DX2                !
 ! D125  D(12,15,16,45)       -178.7775         estimate D2E/DX2                !
 ! D126  D(12,15,16,46)         62.5145         estimate D2E/DX2                !
 ! D127  D(42,15,16,44)         63.6059         estimate D2E/DX2                !
 ! D128  D(42,15,16,45)        -56.6482         estimate D2E/DX2                !
 ! D129  D(42,15,16,46)       -175.3562         estimate D2E/DX2                !
 ! D130  D(43,15,16,44)        177.9998         estimate D2E/DX2                !
 ! D131  D(43,15,16,45)         57.7457         estimate D2E/DX2                !
 ! D132  D(43,15,16,46)        -60.9624         estimate D2E/DX2                !
 --------------------------------------------------------------------------------
 Trust Radius=3.00D-01 FncErr=1.00D-07 GrdErr=1.00D-06 EigMax=2.50D+02 EigMin=1.00D-04
 Number of steps in this run=    276 maximum allowed number of steps=    276.
 GradGradGradGradGradGradGradGradGradGradGradGradGradGradGradGradGradGrad

                          Input orientation:                          
 ---------------------------------------------------------------------
 Center     Atomic      Atomic             Coordinates (Angstroms)
 Number     Number       Type             X           Y           Z
 ---------------------------------------------------------------------
      1          6           0        0.816430    0.069830   -0.062720
      2          6           0        2.326730    0.064280   -0.146410
      3          6           0        2.930380   -1.227100    0.409640
      4          6           0        4.474610   -1.189720    0.515760
      5          6           0        5.092520   -0.777360   -0.833100
      6          6           0        6.609610   -0.656810   -0.793390
      7          6           0        7.050550    0.324960    0.282000
      8          6           0        6.518730   -0.114450    1.631080
      9          6           0        4.979420   -0.244530    1.622670
     10          6           0        4.580860   -0.708080    3.015790
     11          8           0        3.192530   -0.660530    3.278510
     12          6           0        2.842020   -1.180450    4.570100
     13          6           0        3.287310   -0.217920    5.692960
     14          6           0        4.787690   -0.093290    5.951230
     15          6           0        1.304840   -1.358310    4.556900
     16          6           0        0.742040   -1.913360    5.858680
     17          1           0        0.426130    0.963340   -0.558900
     18          1           0        0.483740    0.080500    0.979250
     19          1           0        0.400930   -0.811620   -0.558850
     20          1           0        2.709570    0.942560    0.385060
     21          1           0        2.603710    0.171710   -1.199740
     22          1           0        2.640790   -2.069870   -0.230160
     23          1           0        2.467830   -1.460100    1.370720
     24          1           0        4.813420   -2.204160    0.758760
     25          1           0        4.710600    0.201950   -1.135050
     26          1           0        4.793520   -1.496690   -1.604440
     27          1           0        6.965740   -0.306350   -1.768210
     28          1           0        7.056120   -1.638420   -0.609160
     29          1           0        6.681940    1.331800    0.055600
     30          1           0        8.144480    0.382350    0.315310
     31          1           0        6.827020    0.620360    2.389600
     32          1           0        6.979310   -1.066750    1.917840
     33          1           0        4.562520    0.751690    1.459820
     34          1           0        5.042910    0.053690    3.629630
     35          1           0        5.000010   -1.684940    3.256540
     36          1           0        3.291910   -2.173730    4.695850
     37          1           0        2.866650   -0.556130    6.641260
     38          1           0        2.885750    0.778720    5.479150
     39          1           0        5.291370   -1.061410    5.865980
     40          1           0        4.963140    0.311240    6.949250
     41          1           0        5.275980    0.633590    5.297990
     42          1           0        1.021520   -2.031710    3.735540
     43          1           0        0.820170   -0.402070    4.322840
     44          1           0        1.187880   -2.885120    6.091430
     45          1           0       -0.342740   -2.039910    5.789560
     46          1           0        0.925080   -1.238830    6.698980
 ---------------------------------------------------------------------
                    Distance matrix (angstroms):
                    1          2          3          4          5
     1  C    0.000000
     2  C    1.512627   0.000000
     3  C    2.524666   1.530113   0.000000
     4  C    3.911954   2.573786   1.548323   0.000000
     5  C    4.426755   2.971447   2.534071   1.539895   0.000000
     6  C    5.884116   4.391084   3.912703   2.560487   1.522390
     7  C    6.248854   4.750365   4.404655   2.997393   2.508473
     8  C    5.951398   4.556784   3.950463   2.564872   2.923304
     9  C    4.502205   3.203400   2.575937   1.540606   2.515453
    10  C    4.924764   3.959438   3.128176   2.548218   3.883368
    11  O    4.164504   3.606250   2.936007   3.091368   4.530888
    12  C    5.208573   4.905134   4.161660   4.370710   5.867010
    13  C    6.270239   5.924575   5.390669   5.399766   6.794205
    14  C    7.208683   6.577413   5.953515   5.553784   6.825541
    15  C    4.859940   5.018879   4.456384   5.138743   6.613329
    16  C    6.245122   6.517930   5.912007   6.557631   8.062077
    17  H    1.094024   2.142601   3.465165   4.709645   4.988027
    18  H    1.093845   2.159626   2.832017   4.213707   5.026071
    19  H    1.093499   2.155461   2.740203   4.229966   4.699724
    20  H    2.132169   1.095629   2.181006   2.771113   3.181272
    21  H    2.120746   1.094424   2.157194   2.880399   2.688742
    22  H    2.816850   2.158760   1.097027   2.166554   2.836388
    23  H    2.668812   2.155302   1.091749   2.198005   3.494561
    24  H    4.671380   3.485510   2.149970   1.096782   2.155846
    25  H    4.041275   2.584414   2.756344   2.172006   1.093657
    26  H    4.544021   3.263056   2.756898   2.165914   1.096267
    27  H    6.392513   4.928287   4.677065   3.493221   2.145981
    28  H    6.492337   5.047817   4.269528   2.851486   2.155759
    29  H    6.000898   4.540404   4.554944   3.382620   2.786503
    30  H    7.344446   5.844704   5.457661   3.997440   3.460958
    31  H    6.514917   5.195496   4.745224   3.510199   3.917640
    32  H    6.572330   5.214102   4.323681   2.873060   3.348342
    33  H    4.100762   2.837475   2.771709   2.160567   2.806488
    34  H    5.612205   4.651475   4.058515   3.400768   4.539721
    35  H    5.621303   4.667576   3.549342   2.834284   4.190157
    36  H    5.814254   5.421046   4.404362   4.454235   5.980078
    37  H    7.038365   6.837316   6.267962   6.364646   7.801891
    38  H    5.957930   5.698232   5.452086   5.570859   6.865546
    39  H    7.513606   6.797433   5.947552   5.413725   6.708047
    40  H    8.149921   7.573641   7.018910   6.624299   7.859183
    41  H    6.995900   6.218013   5.732362   5.180384   6.294021
    42  H    4.345723   4.600683   3.918259   4.795807   6.246512
    43  H    4.410877   4.739346   4.521813   5.335652   6.706529
    44  H    6.836905   6.993324   6.169933   6.690670   8.224231
    45  H    6.328022   6.840280   6.349607   7.193236   8.660006
    46  H    6.888032   7.107889   6.601300   7.129782   8.620484
                    6          7          8          9         10
     6  C    0.000000
     7  C    1.521435   0.000000
     8  C    2.486055   1.515233   0.000000
     9  C    2.943610   2.532053   1.544819   0.000000
    10  C    4.316052   3.826245   2.454620   1.521352   0.000000
    11  O    5.315714   4.983431   3.751778   2.471404   1.413769
    12  C    6.575406   6.194012   4.826219   3.759224   2.379617
    13  C    7.300893   6.613258   5.191498   4.408084   3.013431
    14  C    7.009055   6.118467   4.654100   4.335443   3.006252
    15  C    7.566921   7.356722   6.106739   4.832468   3.678332
    16  C    8.958646   8.712447   7.380977   6.219659   4.926587
    17  H    6.396507   6.708024   6.563339   5.191401   5.730082
    18  H    6.419670   6.608246   6.073219   4.553106   4.642817
    19  H    6.215037   6.798256   6.535237   5.103253   5.500962
    20  H    4.376876   4.385905   4.144820   2.844834   3.625890
    21  H    4.110815   4.689715   4.839712   3.712580   4.738549
    22  H    4.250353   5.044155   4.725071   3.497719   4.019270
    23  H    4.741623   5.037169   4.276488   2.801638   2.781490
    24  H    2.833683   3.410058   2.834768   2.148033   2.717816
    25  H    2.111975   2.738344   3.319777   2.806533   4.251407
    26  H    2.159024   3.459949   3.918613   3.466512   4.691871
    27  H    1.095411   2.146883   3.433921   3.930312   5.360569
    28  H    1.094016   2.156167   2.762236   3.352115   4.486949
    29  H    2.163466   1.095836   2.144858   2.799839   4.163937
    30  H    2.159837   1.095941   2.149680   3.481347   4.602284
    31  H    3.436547   2.139908   1.100155   2.179413   2.683673
    32  H    2.766857   2.148931   1.096011   2.182368   2.662086
    33  H    3.354311   2.785615   2.146226   1.092145   2.133614
    34  H    4.745784   3.912906   2.490084   2.029989   1.081935
    35  H    4.477700   4.134284   2.723063   2.178242   1.089910
    36  H    6.590898   6.312915   4.903653   4.001742   2.575291
    37  H    8.324296   7.662997   6.215680   5.454094   4.013183
    38  H    7.434557   6.675464   5.366930   4.505878   3.339478
    39  H    6.800637   6.016442   4.509714   4.332469   2.958589
    40  H    7.974739   6.986393   5.557338   5.355521   4.081331
    41  H    6.367779   5.329588   3.943377   3.790385   2.737098
    42  H    7.323135   7.336895   6.190635   4.829410   3.865092
    43  H    7.730350   7.461541   6.308873   4.961360   3.993095
    44  H    9.042194   8.855789   7.482600   6.427932   5.070639
    45  H    9.673850   9.517697   8.251068   6.993693   5.805980
    46  H    9.422751   9.008022   7.631301   6.572308   5.216542
                   11         12         13         14         15
    11  O    0.000000
    12  C    1.435750   0.000000
    13  C    2.456513   1.544526   0.000000
    14  C    3.163816   2.622035   1.527539   0.000000
    15  C    2.384230   1.547492   2.553685   3.959126   0.000000
    16  C    3.772501   2.570508   3.062740   4.437173   1.522976
    17  H    5.001564   6.061271   6.976208   7.907052   5.686264
    18  H    3.629499   4.477241   5.492551   6.578356   3.942583
    19  H    4.747756   5.692195   6.911497   7.882944   5.223679
    20  H    3.342933   4.694601   5.463909   6.031071   4.967043
    21  H    4.592827   5.930951   6.937466   7.481735   6.096469
    22  H    3.821181   4.886109   6.239476   6.835615   5.020660
    23  H    2.191841   3.233304   4.571249   5.313284   3.393324
    24  H    3.370344   4.411430   5.533578   5.605192   5.239414
    25  H    4.746359   6.160467   6.987401   7.092847   6.814096
    26  H    5.206297   6.483310   7.560157   7.684902   7.081818
    27  H    6.311255   7.612049   8.319118   8.023656   8.553328
    28  H    5.567547   6.692765   7.479202   7.111394   7.735881
    29  H    5.150972   6.437165   6.760545   6.354331   7.510765
    30  H    5.864296   6.975791   7.271282   6.577071   8.234176
    31  H    3.954789   4.886484   4.913700   4.165738   6.253543
    32  H    4.044273   4.915748   5.348169   4.692447   6.264923
    33  H    2.679342   4.045631   4.526122   4.575747   4.965530
    34  H    2.014274   2.692861   2.722725   2.340207   4.102041
    35  H    2.077711   2.576213   3.319884   3.136843   3.930891
    36  H    2.075693   1.097643   2.195323   2.853343   2.152362
    37  H    3.380116   2.163351   1.091152   2.093026   2.725307
    38  H    2.647333   2.160239   1.095562   2.144909   2.813666
    39  H    3.355717   2.773588   2.181208   1.094631   4.206455
    40  H    4.189717   3.519182   2.160250   1.091087   4.679091
    41  H    3.177076   3.121654   2.199063   1.092476   4.504091
    42  H    2.608121   2.176087   3.500733   4.780250   1.099259
    43  H    2.604903   2.180571   2.828059   4.299792   1.097308
    44  H    4.108521   2.820731   3.417651   4.557697   2.167859
    45  H    4.550406   3.516881   4.062787   5.489697   2.167614
    46  H    4.144318   2.865344   2.763053   4.097700   2.178761
                   16         17         18         19         20
    16  C    0.000000
    17  H    7.039924   0.000000
    18  H    5.277408   1.774438   0.000000
    19  H    6.520343   1.775139   1.780024   0.000000
    20  H    6.479812   2.470949   2.459782   3.049251   0.000000
    21  H    7.591747   2.403998   3.041478   2.495980   1.765505
    22  H    6.379947   3.770033   3.277137   2.590020   3.075380
    23  H    4.829656   3.710126   2.542304   2.901007   2.608206
    24  H    6.532219   5.569344   4.900451   4.810960   3.803641
    25  H    8.314822   4.389573   4.727723   4.464592   2.619801
    26  H    8.502133   5.120449   5.266610   4.566993   3.775036
    27  H    9.974286   6.770601   7.050852   6.694369   4.930652
    28  H    9.043017   7.122391   6.976669   6.706540   5.151934
    29  H    8.915672   6.296708   6.390349   6.665049   4.004969
    30  H    9.528660   7.789398   7.695380   7.883672   5.464151
    31  H    7.448573   7.055684   6.520563   7.213775   4.590794
    32  H    7.426339   7.293811   6.662549   7.033788   4.961595
    33  H    6.406913   4.607575   4.161477   4.882397   2.150573
    34  H    5.228330   6.299675   5.273639   6.311902   4.094118
    35  H    4.995360   6.518539   5.357194   6.039158   4.516112
    36  H    2.814570   6.757685   5.174987   6.150202   5.351009
    37  H    2.639786   7.752885   6.175914   7.614896   6.435121
    38  H    3.462200   6.522412   5.148423   6.720190   5.099768
    39  H    4.628420   8.309588   6.949633   8.078195   6.381385
    40  H    4.894474   8.796705   7.467206   8.856983   6.968912
    41  H    5.230482   7.611369   6.474796   7.756115   5.551469
    42  H    2.144724   5.269443   3.513940   4.507276   4.787641
    43  H    2.156132   5.084388   3.394945   4.916746   4.569899
    44  H    1.094195   7.721256   5.951899   7.010344   7.037708
    45  H    1.094322   7.064957   5.321493   6.508767   6.886243
    46  H    1.092977   7.601008   5.886487   7.289262   6.914366
                   21         22         23         24         25
    21  H    0.000000
    22  H    2.442569   0.000000
    23  H    3.047709   1.721787   0.000000
    24  H    3.789894   2.390882   2.535727   0.000000
    25  H    2.108100   3.203764   3.751175   3.063732   0.000000
    26  H    2.782554   2.617523   3.776473   2.466906   1.764251
    27  H    4.424817   4.917397   5.604928   3.823577   2.396856
    28  H    4.842449   4.452519   5.000413   2.687186   3.027373
    29  H    4.421951   5.289982   5.223310   4.060642   2.565227
    30  H    5.748033   6.049919   6.060765   4.240595   3.731973
    31  H    5.560665   5.623611   4.936493   3.833032   4.132488
    32  H    5.513526   4.943977   4.561526   2.707074   4.009586
    33  H    3.353591   3.809236   3.047570   3.048194   2.656594
    34  H    5.411695   5.017735   3.745033   3.659569   4.778555
    35  H    5.389604   4.227430   3.165250   2.557989   4.788546
    36  H    6.382217   4.969942   3.499266   4.220971   6.454141
    37  H    7.879097   7.039804   5.362351   6.411686   8.027816
    38  H    6.712345   6.385193   4.697464   5.907247   6.885520
    39  H    7.659537   6.723503   5.323410   5.255284   7.137772
    40  H    8.484835   7.912454   6.362721   6.683698   8.088982
    41  H    7.040941   6.694279   5.262385   5.373211   6.472246
    42  H    5.631640   4.283721   2.830358   4.823843   6.505474
    43  H    5.831735   5.179384   3.542488   5.647676   6.729699
    44  H    8.031808   6.537437   5.094512   6.484259   8.611711
    45  H    7.900832   6.718585   5.268931   7.205686   8.860723
    46  H    8.197390   7.186603   5.551522   7.165003   8.819186
                   26         27         28         29         30
    26  H    0.000000
    27  H    2.482392   0.000000
    28  H    2.475889   1.768043   0.000000
    29  H    3.784471   2.467866   3.066614   0.000000
    30  H    4.294783   2.490942   2.474406   1.762932   0.000000
    31  H    4.956751   4.262091   3.761268   2.444330   2.468811
    32  H    4.167611   3.763689   2.591994   3.051132   2.454713
    33  H    3.807658   4.161141   4.026331   2.607739   3.778459
    34  H    5.464555   5.741392   4.988346   4.134450   4.551096
    35  H    4.869004   5.568906   4.378743   4.709100   4.776213
    36  H    6.512056   7.666042   6.526788   6.731490   7.019267
    37  H    8.519921   9.358638   8.443435   7.841660   8.291796
    38  H    7.680776   8.387367   7.765441   6.643181   7.380826
    39  H    7.499633   7.852037   6.736076   6.435966   6.405827
    40  H    8.744312   8.965820   8.081541   7.177620   7.357659
    41  H    7.239779   7.325978   6.574599   5.472374   5.754869
    42  H    6.559696   8.282625   7.446307   7.542911   8.262095
    43  H    7.219304   8.653212   8.046133   7.454931   8.385769
    44  H    8.611318  10.089978   8.993798   9.186858   9.614271
    45  H    9.019284  10.655468   9.790196   9.674340  10.385936
    46  H    9.163957  10.442816   9.547682   9.158825   9.772369
                   31         32         33         34         35
    31  H    0.000000
    32  H    1.758434   0.000000
    33  H    2.451469   3.058984   0.000000
    34  H    2.245404   2.816959   2.329389   0.000000
    35  H    3.066587   2.468178   3.058883   1.778727   0.000000
    36  H    5.061890   4.747596   4.543613   3.027247   2.286511
    37  H    5.928345   6.283741   5.606575   3.765356   4.157134
    38  H    5.010390   5.731136   4.355147   2.932530   3.934426
    39  H    4.155934   4.293830   4.820041   2.511263   2.698677
    40  H    4.935586   5.592753   5.521624   3.330551   4.197881
    41  H    3.296154   4.149446   3.905704   1.781581   3.101493
    42  H    6.522949   6.303209   5.046276   4.531191   4.022198
    43  H    6.392576   6.645362   4.851106   4.303463   4.500424
    44  H    7.602094   7.366545   6.787223   5.436756   4.899936
    45  H    8.369123   8.339645   7.113456   6.168767   5.923443
    46  H    7.540573   7.716386   6.681462   5.296040   5.352986
                   36         37         38         39         40
    36  H    0.000000
    37  H    2.565560   0.000000
    38  H    3.081475   1.769940   0.000000
    39  H    2.569883   2.595310   3.053314   0.000000
    40  H    3.747786   2.289642   2.587524   1.779151   0.000000
    41  H    3.490007   3.004110   2.401475   1.787701   1.711268
    42  H    2.469218   3.745003   3.796583   4.869484   5.599439
    43  H    3.063889   3.096270   2.645362   4.775734   4.956919
    44  H    2.623102   2.923145   4.084284   4.496151   5.020474
    45  H    3.797998   3.636919   4.296996   5.718959   5.918205
    46  H    3.238588   2.058909   3.066386   4.448579   4.332584
                   41         42         43         44         45
    41  H    0.000000
    42  H    5.257899   0.000000
    43  H    4.677366   1.743901   0.000000
    44  H    5.451920   2.511215   3.070612   0.000000
    45  H    6.241735   2.465821   2.487197   1.774346   0.000000
    46  H    4.939541   3.069191   2.521352   1.774388   1.753893
                   46
    46  H    0.000000
 Stoichiometry    C15H30O
 Framework group  C1[X(C15H30O)]
 Deg. of freedom   132
 Full point group                 C1      NOp   1
 Largest Abelian subgroup         C1      NOp   1
 Largest concise Abelian subgroup C1      NOp   1
                         Standard orientation:                         
 ---------------------------------------------------------------------
 Center     Atomic      Atomic             Coordinates (Angstroms)
 Number     Number       Type             X           Y           Z
 ---------------------------------------------------------------------
      1          6           0        0.602058    3.685510    0.941818
      2          6           0        1.421411    2.429955    0.741106
      3          6           0        1.104368    1.740704   -0.587676
      4          6           0        1.781364    0.356688   -0.740909
      5          6           0        3.294088    0.470184   -0.476216
      6          6           0        4.023702   -0.864112   -0.546844
      7          6           0        3.418301   -1.868512    0.422401
      8          6           0        1.945155   -2.053818    0.120023
      9          6           0        1.176541   -0.715384    0.185545
     10          6           0       -0.271156   -1.035375   -0.155471
     11          8           0       -1.180078    0.021553    0.080131
     12          6           0       -2.522380   -0.283785   -0.327758
     13          6           0       -3.168596   -1.314208    0.624185
     14          6           0       -2.635308   -2.744621    0.570352
     15          6           0       -3.290855    1.059295   -0.310077
     16          6           0       -4.750762    0.934287   -0.725409
     17          1           0        0.931082    4.195040    1.852318
     18          1           0       -0.460114    3.445518    1.045213
     19          1           0        0.731103    4.367619    0.096943
     20          1           0        1.245384    1.758381    1.588694
     21          1           0        2.478271    2.713515    0.761218
     22          1           0        1.423737    2.383693   -1.417156
     23          1           0        0.021924    1.673817   -0.713203
     24          1           0        1.632414    0.029279   -1.777030
     25          1           0        3.468821    0.867341    0.527686
     26          1           0        3.735273    1.177047   -1.188608
     27          1           0        5.077711   -0.708816   -0.292142
     28          1           0        3.982225   -1.257273   -1.566930
     29          1           0        3.537378   -1.523207    1.455572
     30          1           0        3.937253   -2.830479    0.342438
     31          1           0        1.521260   -2.763523    0.845952
     32          1           0        1.825320   -2.513231   -0.867813
     33          1           0        1.215782   -0.359691    1.217399
     34          1           0       -0.491305   -1.806634    0.570668
     35          1           0       -0.374419   -1.433903   -1.164636
     36          1           0       -2.512983   -0.649390   -1.362680
     37          1           0       -4.230390   -1.401714    0.388496
     38          1           0       -3.077767   -0.946057    1.652033
     39          1           0       -2.414658   -3.052278   -0.456720
     40          1           0       -3.366396   -3.432739    0.997522
     41          1           0       -1.753437   -2.896981    1.196925
     42          1           0       -2.793919    1.773980   -0.981383
     43          1           0       -3.227978    1.512524    0.687276
     44          1           0       -4.833373    0.516415   -1.733288
     45          1           0       -5.241605    1.912316   -0.716868
     46          1           0       -5.313561    0.296159   -0.039370
 ---------------------------------------------------------------------
 Rotational constants (GHZ):           0.6585349           0.3018392           0.2237913
 Standard basis: 6-31G(2df,p) (6D, 7F)
 There are   646 symmetry adapted cartesian basis functions of A   symmetry.
 There are   598 symmetry adapted basis functions of A   symmetry.
   598 basis functions,   914 primitive gaussians,   646 cartesian basis functions
    64 alpha electrons       64 beta electrons
       nuclear repulsion energy      1229.9048705569 Hartrees.
 NAtoms=   46 NActive=   46 NUniq=   46 SFac= 1.00D+00 NAtFMM=   60 NAOKFM=F Big=F
 Integral buffers will be    131072 words long.
 Raffenetti 2 integral format.
 Two-electron integral symmetry is turned on.
 One-electron integrals computed using PRISM.
 PrsmSu:  requested number of processors reduced to:  12 ShMem   1 Linda.
 NBasis=   598 RedAO= T EigKep=  4.99D-04  NBF=   598
 NBsUse=   598 1.00D-06 EigRej= -1.00D+00 NBFU=   598
 ExpMin= 1.61D-01 ExpMax= 5.48D+03 ExpMxC= 8.25D+02 IAcc=3 IRadAn=         5 AccDes= 0.00D+00
 Harris functional with IExCor=  402 and IRadAn=       5 diagonalized for initial guess.
 HarFok:  IExCor=  402 AccDes= 0.00D+00 IRadAn=         5 IDoV= 1 UseB2=F ITyADJ=14
 ICtDFT=  3500011 ScaDFX=  1.000000  1.000000  1.000000  1.000000
 FoFCou: FMM=F IPFlag=           0 FMFlag=      100000 FMFlg1=           0
         NFxFlg=           0 DoJE=T BraDBF=F KetDBF=T FulRan=T
         wScrn=  0.000000 ICntrl=       500 IOpCl=  0 I1Cent=   200000004 NGrid=           0
         NMat0=    1 NMatS0=      1 NMatT0=    0 NMatD0=    1 NMtDS0=    0 NMtDT0=    0
 Petite list used in FoFCou.
 Requested convergence on RMS density matrix=1.00D-08 within 128 cycles.
 Requested convergence on MAX density matrix=1.00D-06.
 Requested convergence on             energy=1.00D-06.
 No special actions if energy rises.
 Integral accuracy reduced to 1.0D-05 until final iterations.
 Initial convergence to 1.0D-05 achieved.  Increase integral accuracy.
 SCF Done:  E(RB3LYP) =  -664.938882272     A.U. after   12 cycles
            NFock= 12  Conv=0.52D-08     -V/T= 2.0082

 **********************************************************************

            Population analysis using the SCF density.

 **********************************************************************

 Orbital symmetries:
       Occupied  (A) (A) (A) (A) (A) (A) (A) (A) (A) (A) (A) (A)
                 (A) (A) (A) (A) (A) (A) (A) (A) (A) (A) (A) (A)
                 (A) (A) (A) (A) (A) (A) (A) (A) (A) (A) (A) (A)
                 (A) (A) (A) (A) (A) (A) (A) (A) (A) (A) (A) (A)
                 (A) (A) (A) (A) (A) (A) (A) (A) (A) (A) (A) (A)
                 (A) (A) (A) (A)
       Virtual   (A) (A) (A) (A) (A) (A) (A) (A) (A) (A) (A) (A)
                 (A) (A) (A) (A) (A) (A) (A) (A) (A) (A) (A) (A)
                 (A) (A) (A) (A) (A) (A) (A) (A) (A) (A) (A) (A)
                 (A) (A) (A) (A) (A) (A) (A) (A) (A) (A) (A) (A)
                 (A) (A) (A) (A) (A) (A) (A) (A) (A) (A) (A) (A)
                 (A) (A) (A) (A) (A) (A) (A) (A) (A) (A) (A) (A)
                 (A) (A) (A) (A) (A) (A) (A) (A) (A) (A) (A) (A)
                 (A) (A) (A) (A) (A) (A) (A) (A) (A) (A) (A) (A)
                 (A) (A) (A) (A) (A) (A) (A) (A) (A) (A) (A) (A)
                 (A) (A) (A) (A) (A) (A) (A) (A) (A) (A) (A) (A)
                 (A) (A) (A) (A) (A) (A) (A) (A) (A) (A) (A) (A)
                 (A) (A) (A) (A) (A) (A) (A) (A) (A) (A) (A) (A)
                 (A) (A) (A) (A) (A) (A) (A) (A) (A) (A) (A) (A)
                 (A) (A) (A) (A) (A) (A) (A) (A) (A) (A) (A) (A)
                 (A) (A) (A) (A) (A) (A) (A) (A) (A) (A) (A) (A)
                 (A) (A) (A) (A) (A) (A) (A) (A) (A) (A) (A) (A)
                 (A) (A) (A) (A) (A) (A) (A) (A) (A) (A) (A) (A)
                 (A) (A) (A) (A) (A) (A) (A) (A) (A) (A) (A) (A)
                 (A) (A) (A) (A) (A) (A) (A) (A) (A) (A) (A) (A)
                 (A) (A) (A) (A) (A) (A) (A) (A) (A) (A) (A) (A)
                 (A) (A) (A) (A) (A) (A) (A) (A) (A) (A) (A) (A)
                 (A) (A) (A) (A) (A) (A) (A) (A) (A) (A) (A) (A)
                 (A) (A) (A) (A) (A) (A) (A) (A) (A) (A) (A) (A)
                 (A) (A) (A) (A) (A) (A) (A) (A) (A) (A) (A) (A)
                 (A) (A) (A) (A) (A) (A) (A) (A) (A) (A) (A) (A)
                 (A) (A) (A) (A) (A) (A) (A) (A) (A) (A) (A) (A)
                 (A) (A) (A) (A) (A) (A) (A) (A) (A) (A) (A) (A)
                 (A) (A) (A) (A) (A) (A) (A) (A) (A) (A) (A) (A)
                 (A) (A) (A) (A) (A) (A) (A) (A) (A) (A) (A) (A)
                 (A) (A) (A) (A) (A) (A) (A) (A) (A) (A) (A) (A)
                 (A) (A) (A) (A) (A) (A) (A) (A) (A) (A) (A) (A)
                 (A) (A) (A) (A) (A) (A) (A) (A) (A) (A) (A) (A)
                 (A) (A) (A) (A) (A) (A) (A) (A) (A) (A) (A) (A)
                 (A) (A) (A) (A) (A) (A) (A) (A) (A) (A) (A) (A)
                 (A) (A) (A) (A) (A) (A) (A) (A) (A) (A) (A) (A)
                 (A) (A) (A) (A) (A) (A) (A) (A) (A) (A) (A) (A)
                 (A) (A) (A) (A) (A) (A) (A) (A) (A) (A) (A) (A)
                 (A) (A) (A) (A) (A) (A) (A) (A) (A) (A) (A) (A)
                 (A) (A) (A) (A) (A) (A) (A) (A) (A) (A) (A) (A)
                 (A) (A) (A) (A) (A) (A) (A) (A) (A) (A) (A) (A)
                 (A) (A) (A) (A) (A) (A) (A) (A) (A) (A) (A) (A)
                 (A) (A) (A) (A) (A) (A) (A) (A) (A) (A) (A) (A)
                 (A) (A) (A) (A) (A) (A) (A) (A) (A) (A) (A) (A)
                 (A) (A) (A) (A) (A) (A) (A) (A) (A) (A) (A) (A)
                 (A) (A) (A) (A) (A) (A)
 The electronic state is 1-A.
 Alpha  occ. eigenvalues --  -19.12861 -10.22786 -10.20679 -10.17663 -10.17618
 Alpha  occ. eigenvalues --  -10.17284 -10.17271 -10.17208 -10.17155 -10.16972
 Alpha  occ. eigenvalues --  -10.16928 -10.16639 -10.16263 -10.16093 -10.15754
 Alpha  occ. eigenvalues --  -10.15369  -1.02026  -0.83450  -0.79516  -0.77797
 Alpha  occ. eigenvalues --   -0.75567  -0.74928  -0.73253  -0.68793  -0.66124
 Alpha  occ. eigenvalues --   -0.62908  -0.61203  -0.59926  -0.57900  -0.56659
 Alpha  occ. eigenvalues --   -0.56354  -0.53298  -0.49530  -0.47083  -0.46294
 Alpha  occ. eigenvalues --   -0.44906  -0.44708  -0.43880  -0.43388  -0.42991
 Alpha  occ. eigenvalues --   -0.42210  -0.41754  -0.40271  -0.39519  -0.38350
 Alpha  occ. eigenvalues --   -0.37808  -0.37088  -0.36079  -0.35720  -0.35390
 Alpha  occ. eigenvalues --   -0.34801  -0.34307  -0.33977  -0.33381  -0.33282
 Alpha  occ. eigenvalues --   -0.32455  -0.32265  -0.31932  -0.30670  -0.30099
 Alpha  occ. eigenvalues --   -0.29345  -0.28157  -0.27624  -0.23457
 Alpha virt. eigenvalues --    0.08155   0.09201   0.09445   0.10064   0.10773
 Alpha virt. eigenvalues --    0.11157   0.11887   0.12744   0.13519   0.13667
 Alpha virt. eigenvalues --    0.14480   0.15353   0.15565   0.16420   0.16595
 Alpha virt. eigenvalues --    0.17103   0.17239   0.17568   0.17651   0.18085
 Alpha virt. eigenvalues --    0.18488   0.18847   0.19588   0.19742   0.20287
 Alpha virt. eigenvalues --    0.20783   0.21190   0.21837   0.22765   0.23229
 Alpha virt. eigenvalues --    0.23612   0.24088   0.24657   0.24777   0.25490
 Alpha virt. eigenvalues --    0.25997   0.26836   0.27369   0.27837   0.28468
 Alpha virt. eigenvalues --    0.28991   0.30080   0.30159   0.30499   0.31399
 Alpha virt. eigenvalues --    0.33753   0.43410   0.45240   0.45958   0.47479
 Alpha virt. eigenvalues --    0.47755   0.48254   0.48702   0.50028   0.50895
 Alpha virt. eigenvalues --    0.51325   0.51539   0.52132   0.52483   0.53377
 Alpha virt. eigenvalues --    0.53519   0.54215   0.54922   0.55852   0.56498
 Alpha virt. eigenvalues --    0.57904   0.58032   0.59018   0.59727   0.60467
 Alpha virt. eigenvalues --    0.60861   0.61864   0.62944   0.63228   0.63818
 Alpha virt. eigenvalues --    0.64281   0.65815   0.66800   0.67250   0.67754
 Alpha virt. eigenvalues --    0.68723   0.69491   0.69894   0.71820   0.72595
 Alpha virt. eigenvalues --    0.72834   0.73288   0.73610   0.74154   0.74864
 Alpha virt. eigenvalues --    0.75040   0.75313   0.75925   0.76082   0.76552
 Alpha virt. eigenvalues --    0.76719   0.77121   0.77658   0.78056   0.78650
 Alpha virt. eigenvalues --    0.78825   0.79304   0.79501   0.80807   0.81624
 Alpha virt. eigenvalues --    0.82074   0.82695   0.83168   0.83726   0.84452
 Alpha virt. eigenvalues --    0.85663   0.86093   0.86590   0.86904   0.87918
 Alpha virt. eigenvalues --    0.88336   0.89218   0.89665   0.90621   0.92611
 Alpha virt. eigenvalues --    0.93521   0.94029   0.94931   0.96552   0.98032
 Alpha virt. eigenvalues --    0.98796   0.99740   1.01272   1.03243   1.05747
 Alpha virt. eigenvalues --    1.07931   1.08755   1.10951   1.11960   1.14219
 Alpha virt. eigenvalues --    1.14788   1.16583   1.17587   1.18136   1.19183
 Alpha virt. eigenvalues --    1.20827   1.21617   1.23173   1.23991   1.25250
 Alpha virt. eigenvalues --    1.26210   1.26708   1.27901   1.29152   1.30303
 Alpha virt. eigenvalues --    1.31589   1.33145   1.33777   1.35298   1.35855
 Alpha virt. eigenvalues --    1.37121   1.38647   1.39396   1.40270   1.40511
 Alpha virt. eigenvalues --    1.42148   1.42823   1.43045   1.45778   1.46027
 Alpha virt. eigenvalues --    1.47362   1.48759   1.49594   1.50170   1.51736
 Alpha virt. eigenvalues --    1.52696   1.54120   1.55229   1.55629   1.56840
 Alpha virt. eigenvalues --    1.58040   1.58719   1.60389   1.61427   1.61596
 Alpha virt. eigenvalues --    1.62183   1.63089   1.64137   1.66189   1.67150
 Alpha virt. eigenvalues --    1.67958   1.68622   1.69605   1.70849   1.71809
 Alpha virt. eigenvalues --    1.73404   1.74028   1.75563   1.75958   1.77887
 Alpha virt. eigenvalues --    1.78818   1.80209   1.81709   1.82286   1.83959
 Alpha virt. eigenvalues --    1.84063   1.85868   1.86709   1.86744   1.88503
 Alpha virt. eigenvalues --    1.91133   1.92296   1.93126   1.94496   1.94600
 Alpha virt. eigenvalues --    1.95920   1.96758   1.97341   1.97502   1.98260
 Alpha virt. eigenvalues --    1.99837   2.00384   2.01135   2.03042   2.05140
 Alpha virt. eigenvalues --    2.06378   2.11552   2.16054   2.17879   2.18618
 Alpha virt. eigenvalues --    2.19158   2.22583   2.22926   2.23581   2.24052
 Alpha virt. eigenvalues --    2.25747   2.27231   2.28057   2.28200   2.28458
 Alpha virt. eigenvalues --    2.31240   2.31534   2.33915   2.35267   2.37504
 Alpha virt. eigenvalues --    2.38741   2.39144   2.39810   2.40708   2.42323
 Alpha virt. eigenvalues --    2.42858   2.44564   2.46353   2.46799   2.48171
 Alpha virt. eigenvalues --    2.49027   2.51411   2.53223   2.53790   2.55149
 Alpha virt. eigenvalues --    2.57355   2.58029   2.62876   2.63512   2.64620
 Alpha virt. eigenvalues --    2.68308   2.69734   2.70750   2.71973   2.72216
 Alpha virt. eigenvalues --    2.73519   2.74234   2.75054   2.75479   2.76149
 Alpha virt. eigenvalues --    2.77895   2.78156   2.78539   2.79042   2.79799
 Alpha virt. eigenvalues --    2.80174   2.81912   2.82590   2.82831   2.83309
 Alpha virt. eigenvalues --    2.83857   2.85274   2.86244   2.86929   2.87315
 Alpha virt. eigenvalues --    2.88655   2.89224   2.89831   2.90086   2.90523
 Alpha virt. eigenvalues --    2.91302   2.91859   2.92860   2.93324   2.93894
 Alpha virt. eigenvalues --    2.94343   2.95609   2.96775   2.97894   2.98308
 Alpha virt. eigenvalues --    2.99049   2.99580   3.00561   3.01796   3.02312
 Alpha virt. eigenvalues --    3.03981   3.05178   3.05453   3.06987   3.08389
 Alpha virt. eigenvalues --    3.09753   3.10559   3.11797   3.13765   3.14163
 Alpha virt. eigenvalues --    3.14589   3.15887   3.17077   3.18548   3.21935
 Alpha virt. eigenvalues --    3.22484   3.23735   3.24127   3.25562   3.27276
 Alpha virt. eigenvalues --    3.27888   3.29832   3.31238   3.32702   3.34569
 Alpha virt. eigenvalues --    3.36032   3.37027   3.37651   3.37989   3.41563
 Alpha virt. eigenvalues --    3.42673   3.43028   3.43943   3.45547   3.46077
 Alpha virt. eigenvalues --    3.46746   3.48329   3.49949   3.50867   3.51338
 Alpha virt. eigenvalues --    3.51816   3.52718   3.55211   3.57326   3.57657
 Alpha virt. eigenvalues --    3.57910   3.59082   3.59793   3.60935   3.61740
 Alpha virt. eigenvalues --    3.61991   3.63716   3.63881   3.65869   3.66375
 Alpha virt. eigenvalues --    3.69007   3.69448   3.70358   3.70706   3.70957
 Alpha virt. eigenvalues --    3.72507   3.73897   3.75193   3.77083   3.77715
 Alpha virt. eigenvalues --    3.78911   3.80215   3.81065   3.82752   3.83526
 Alpha virt. eigenvalues --    3.85091   3.85784   3.86752   3.87989   3.90267
 Alpha virt. eigenvalues --    3.90960   3.91573   3.92317   3.94390   3.97304
 Alpha virt. eigenvalues --    3.97651   3.98545   4.01398   4.02437   4.04107
 Alpha virt. eigenvalues --    4.06319   4.07761   4.10608   4.13925   4.16514
 Alpha virt. eigenvalues --    4.17299   4.20898   4.24108   4.28793   4.33193
 Alpha virt. eigenvalues --    4.36931   4.38545   4.39487   4.40132   4.42235
 Alpha virt. eigenvalues --    4.42924   4.43539   4.45053   4.45568   4.46482
 Alpha virt. eigenvalues --    4.47558   4.48712   4.49735   4.50939   4.51579
 Alpha virt. eigenvalues --    4.51621   4.53155   4.54626   4.55979   4.57406
 Alpha virt. eigenvalues --    4.57667   4.58064   4.58359   4.59242   4.59795
 Alpha virt. eigenvalues --    4.60686   4.61329   4.61868   4.62418   4.63671
 Alpha virt. eigenvalues --    4.64228   4.64792   4.65733   4.66320   4.67195
 Alpha virt. eigenvalues --    4.67629   4.68613   4.69344   4.69500   4.70772
 Alpha virt. eigenvalues --    4.71565   4.72561   4.73341   4.74534   4.75121
 Alpha virt. eigenvalues --    4.75661   4.76529   4.77146   4.77849   4.78338
 Alpha virt. eigenvalues --    4.78550   4.79358   4.80499   4.81206   4.83102
 Alpha virt. eigenvalues --    4.83323   4.84084   4.84520   4.85937   4.86317
 Alpha virt. eigenvalues --    4.87855   4.88075   4.88277   4.89376   4.89809
 Alpha virt. eigenvalues --    4.89961   4.90429   4.91228   4.92899   4.93352
 Alpha virt. eigenvalues --    4.95083   4.96199   4.96828   4.97639   4.98383
 Alpha virt. eigenvalues --    5.00018   5.00906   5.01522   5.05135   5.07405
 Alpha virt. eigenvalues --    5.09669   5.12102   5.14308   5.15862   5.20833
 Alpha virt. eigenvalues --    5.26554   5.30108   5.32459   5.35544   5.36655
 Alpha virt. eigenvalues --    5.37417   5.38683   5.40421   5.41033   5.43479
 Alpha virt. eigenvalues --    5.45664   5.47409   5.49404   5.50192   5.53028
 Alpha virt. eigenvalues --    5.53731   5.55957   5.57613   5.60573   5.66313
 Alpha virt. eigenvalues --    5.69286   5.73499   5.91736   5.93575   6.03621
 Alpha virt. eigenvalues --    6.06714   6.19785   6.21119   6.35481   6.43082
 Alpha virt. eigenvalues --    6.56957   6.83209   7.30617  11.19657  11.25750
 Alpha virt. eigenvalues --   11.42855  11.48698  11.85479  11.93826  12.01271
 Alpha virt. eigenvalues --   12.05741  12.20962  12.28944  12.46448  12.58177
 Alpha virt. eigenvalues --   12.62251  12.80438  13.06591  13.77281
          Condensed to atoms (all electrons):
               1          2          3          4          5          6
     1  C    4.965862   0.408125  -0.036210   0.002543   0.000431  -0.000015
     2  C    0.408125   4.740629   0.438025  -0.026208  -0.010028   0.000478
     3  C   -0.036210   0.438025   4.903304   0.406970  -0.036729   0.002739
     4  C    0.002543  -0.026208   0.406970   4.665388   0.414668  -0.020635
     5  C    0.000431  -0.010028  -0.036729   0.414668   4.866877   0.411237
     6  C   -0.000015   0.000478   0.002739  -0.020635   0.411237   4.838377
     7  C    0.000000  -0.000053   0.000442  -0.012649  -0.026738   0.422519
     8  C   -0.000005   0.000284   0.003381  -0.021889  -0.013751  -0.028405
     9  C    0.000290  -0.006954  -0.024880   0.426780  -0.023715  -0.014974
    10  C    0.000027  -0.000178  -0.002270  -0.019177   0.002558   0.000531
    11  O   -0.000363   0.001355  -0.017370  -0.000425   0.000026  -0.000002
    12  C    0.000013  -0.000040   0.000289   0.000417   0.000002   0.000000
    13  C   -0.000000   0.000001  -0.000035   0.000005   0.000000  -0.000000
    14  C    0.000000  -0.000000   0.000000  -0.000010   0.000000  -0.000000
    15  C   -0.000056   0.000021  -0.000160  -0.000015  -0.000000  -0.000000
    16  C    0.000001   0.000000  -0.000000  -0.000000   0.000000  -0.000000
    17  H    0.369984  -0.023280   0.003783  -0.000162   0.000008  -0.000000
    18  H    0.375354  -0.025759  -0.003754   0.000075   0.000003   0.000000
    19  H    0.377276  -0.030054  -0.004789   0.000211  -0.000012  -0.000000
    20  H   -0.034800   0.370986  -0.037031  -0.003290  -0.001571  -0.000011
    21  H   -0.037446   0.372204  -0.033192  -0.002163  -0.000066  -0.000035
    22  H   -0.002156  -0.036131   0.338485  -0.024596  -0.005021   0.000014
    23  H   -0.003463  -0.035143   0.347448  -0.014716   0.003855  -0.000151
    24  H   -0.000190   0.004026  -0.031769   0.339855  -0.045461  -0.001854
    25  H   -0.000193   0.002202  -0.007578  -0.027151   0.361051  -0.036522
    26  H   -0.000031  -0.001142  -0.001596  -0.028412   0.357637  -0.032790
    27  H   -0.000000   0.000011  -0.000166   0.003064  -0.026934   0.361157
    28  H    0.000000   0.000001   0.000057  -0.004585  -0.033240   0.363083
    29  H    0.000000  -0.000042   0.000028  -0.001140  -0.005923  -0.033891
    30  H   -0.000000   0.000001   0.000004   0.000556   0.003826  -0.030687
    31  H   -0.000000   0.000001  -0.000119   0.003996   0.000428   0.004390
    32  H    0.000000  -0.000006   0.000045  -0.007057  -0.000823  -0.004852
    33  H   -0.000334   0.000558  -0.007049  -0.046122  -0.004446  -0.000144
    34  H    0.000000  -0.000006   0.000020   0.005162  -0.000228  -0.000030
    35  H   -0.000002   0.000005   0.000021  -0.011590   0.000141  -0.000021
    36  H   -0.000002   0.000002   0.000045  -0.000121  -0.000000   0.000000
    37  H    0.000000  -0.000000   0.000000  -0.000000  -0.000000   0.000000
    38  H   -0.000000   0.000001   0.000001  -0.000002  -0.000000   0.000000
    39  H   -0.000000  -0.000000   0.000000  -0.000003   0.000000   0.000000
    40  H   -0.000000  -0.000000  -0.000000   0.000000  -0.000000  -0.000000
    41  H   -0.000000   0.000000  -0.000001  -0.000005   0.000000   0.000000
    42  H   -0.000014  -0.000020  -0.000293   0.000002   0.000000  -0.000000
    43  H   -0.000074   0.000006  -0.000007  -0.000002  -0.000000  -0.000000
    44  H   -0.000000   0.000000  -0.000000   0.000000  -0.000000  -0.000000
    45  H    0.000000  -0.000000   0.000000  -0.000000  -0.000000  -0.000000
    46  H   -0.000000   0.000000  -0.000000  -0.000000  -0.000000   0.000000
               7          8          9         10         11         12
     1  C    0.000000  -0.000005   0.000290   0.000027  -0.000363   0.000013
     2  C   -0.000053   0.000284  -0.006954  -0.000178   0.001355  -0.000040
     3  C    0.000442   0.003381  -0.024880  -0.002270  -0.017370   0.000289
     4  C   -0.012649  -0.021889   0.426780  -0.019177  -0.000425   0.000417
     5  C   -0.026738  -0.013751  -0.023715   0.002558   0.000026   0.000002
     6  C    0.422519  -0.028405  -0.014974   0.000531  -0.000002   0.000000
     7  C    4.827176   0.416789  -0.017286   0.001055  -0.000026  -0.000000
     8  C    0.416789   4.880537   0.386365  -0.036539   0.001501  -0.000142
     9  C   -0.017286   0.386365   4.716092   0.426549  -0.024319   0.002352
    10  C    0.001055  -0.036539   0.426549   4.775744   0.339761  -0.064895
    11  O   -0.000026   0.001501  -0.024319   0.339761   7.751030   0.347105
    12  C   -0.000000  -0.000142   0.002352  -0.064895   0.347105   4.612205
    13  C    0.000000   0.000020  -0.000033  -0.003558  -0.038796   0.387299
    14  C   -0.000000  -0.000045   0.000372  -0.008738   0.001036  -0.024190
    15  C   -0.000000   0.000001  -0.000187   0.003348  -0.028185   0.418620
    16  C    0.000000  -0.000000   0.000001  -0.000200   0.001983  -0.031397
    17  H   -0.000000  -0.000000  -0.000002  -0.000000  -0.000000   0.000000
    18  H    0.000000  -0.000000   0.000020  -0.000019   0.000521  -0.000071
    19  H   -0.000000   0.000000   0.000002  -0.000001   0.000002   0.000000
    20  H    0.000003  -0.000192   0.000171   0.000019   0.000523  -0.000015
    21  H    0.000012  -0.000007  -0.000178   0.000002   0.000000  -0.000000
    22  H    0.000000  -0.000160   0.004060  -0.000088   0.000492  -0.000020
    23  H    0.000000   0.000089  -0.007191  -0.003705   0.026144  -0.000021
    24  H   -0.000242  -0.004840  -0.044985  -0.006397  -0.000415  -0.000030
    25  H   -0.005749  -0.000899  -0.007636   0.000200  -0.000004   0.000000
    26  H    0.004502   0.000477   0.004010  -0.000144   0.000002  -0.000000
    27  H   -0.032687   0.004125   0.000610  -0.000002  -0.000000  -0.000000
    28  H   -0.035518  -0.005399  -0.001128   0.000039   0.000000   0.000000
    29  H    0.364486  -0.032659  -0.005541   0.000359   0.000000   0.000000
    30  H    0.363185  -0.028044   0.003031  -0.000132   0.000000  -0.000000
    31  H   -0.031688   0.357718  -0.027706  -0.005467   0.000081   0.000016
    32  H   -0.035816   0.360862  -0.032201  -0.003590   0.000000   0.000006
    33  H   -0.002343  -0.039107   0.341979  -0.028849   0.000200   0.000076
    34  H    0.000160  -0.005910  -0.029016   0.341233  -0.027410  -0.003740
    35  H    0.000025  -0.002141  -0.028570   0.346402  -0.034235  -0.007930
    36  H    0.000000   0.000030   0.000451  -0.006194  -0.032741   0.342171
    37  H    0.000000  -0.000000   0.000008  -0.000161   0.002649  -0.020980
    38  H    0.000000   0.000004  -0.000033   0.000366  -0.000195  -0.024108
    39  H   -0.000000   0.000011   0.000062  -0.000464  -0.000106  -0.006201
    40  H    0.000000   0.000000  -0.000019   0.000543  -0.000082   0.002794
    41  H    0.000001  -0.000025   0.000386  -0.008847   0.000700  -0.000943
    42  H    0.000000   0.000000  -0.000002   0.000184   0.000582  -0.019114
    43  H    0.000000   0.000000   0.000013   0.000155   0.001599  -0.023982
    44  H    0.000000   0.000000   0.000000   0.000006   0.000030  -0.003970
    45  H   -0.000000   0.000000  -0.000000   0.000000  -0.000038   0.002558
    46  H    0.000000   0.000000   0.000000   0.000001   0.000017  -0.005341
              13         14         15         16         17         18
     1  C   -0.000000   0.000000  -0.000056   0.000001   0.369984   0.375354
     2  C    0.000001  -0.000000   0.000021   0.000000  -0.023280  -0.025759
     3  C   -0.000035   0.000000  -0.000160  -0.000000   0.003783  -0.003754
     4  C    0.000005  -0.000010  -0.000015  -0.000000  -0.000162   0.000075
     5  C    0.000000   0.000000  -0.000000   0.000000   0.000008   0.000003
     6  C   -0.000000  -0.000000  -0.000000  -0.000000  -0.000000   0.000000
     7  C    0.000000  -0.000000  -0.000000   0.000000  -0.000000   0.000000
     8  C    0.000020  -0.000045   0.000001  -0.000000  -0.000000  -0.000000
     9  C   -0.000033   0.000372  -0.000187   0.000001  -0.000002   0.000020
    10  C   -0.003558  -0.008738   0.003348  -0.000200  -0.000000  -0.000019
    11  O   -0.038796   0.001036  -0.028185   0.001983  -0.000000   0.000521
    12  C    0.387299  -0.024190   0.418620  -0.031397   0.000000  -0.000071
    13  C    4.893086   0.399909  -0.034170  -0.001960   0.000000  -0.000001
    14  C    0.399909   4.984732   0.003533   0.000255  -0.000000  -0.000000
    15  C   -0.034170   0.003533   4.858372   0.373960   0.000000   0.000206
    16  C   -0.001960   0.000255   0.373960   4.986550  -0.000000   0.000001
    17  H    0.000000  -0.000000   0.000000  -0.000000   0.619510  -0.032175
    18  H   -0.000001  -0.000000   0.000206   0.000001  -0.032175   0.597457
    19  H    0.000000  -0.000000  -0.000002  -0.000000  -0.032438  -0.033103
    20  H    0.000001  -0.000000  -0.000001   0.000000  -0.001643  -0.005452
    21  H   -0.000000   0.000000  -0.000000   0.000000  -0.003854   0.005846
    22  H    0.000000  -0.000000   0.000002   0.000000  -0.000134  -0.000342
    23  H    0.000194  -0.000005  -0.000298   0.000028   0.000014   0.004394
    24  H    0.000000   0.000000   0.000000  -0.000000   0.000003  -0.000002
    25  H    0.000000   0.000000  -0.000000  -0.000000   0.000022   0.000001
    26  H   -0.000000  -0.000000   0.000000   0.000000   0.000000   0.000000
    27  H    0.000000   0.000000  -0.000000   0.000000   0.000000   0.000000
    28  H    0.000000   0.000000  -0.000000  -0.000000   0.000000  -0.000000
    29  H    0.000000   0.000000   0.000000  -0.000000   0.000000  -0.000000
    30  H    0.000000   0.000000   0.000000  -0.000000  -0.000000   0.000000
    31  H   -0.000005  -0.000124   0.000000   0.000000   0.000000   0.000000
    32  H   -0.000001   0.000012   0.000000   0.000000   0.000000   0.000000
    33  H   -0.000069   0.000042   0.000007   0.000000   0.000013   0.000019
    34  H    0.002717  -0.003370   0.000023   0.000020  -0.000000   0.000000
    35  H   -0.002822  -0.000337   0.000331   0.000016   0.000000   0.000002
    36  H   -0.068029  -0.006441  -0.040931  -0.001232  -0.000000   0.000005
    37  H    0.355136  -0.037691  -0.006562  -0.001396   0.000000   0.000000
    38  H    0.357327  -0.040137  -0.003630   0.000009   0.000000   0.000001
    39  H   -0.030215   0.377825   0.000176  -0.000015  -0.000000   0.000000
    40  H   -0.023579   0.365157  -0.000114   0.000015   0.000000   0.000000
    41  H   -0.025257   0.381813  -0.000147  -0.000002   0.000000   0.000000
    42  H    0.004313  -0.000157   0.361870  -0.034628  -0.000000   0.000264
    43  H   -0.009195   0.000021   0.363175  -0.035653  -0.000001   0.000656
    44  H   -0.000753  -0.000039  -0.029848   0.377980   0.000000   0.000000
    45  H    0.000189  -0.000004  -0.019592   0.373145  -0.000000  -0.000000
    46  H   -0.000794  -0.000258  -0.027607   0.378701   0.000000   0.000000
              19         20         21         22         23         24
     1  C    0.377276  -0.034800  -0.037446  -0.002156  -0.003463  -0.000190
     2  C   -0.030054   0.370986   0.372204  -0.036131  -0.035143   0.004026
     3  C   -0.004789  -0.037031  -0.033192   0.338485   0.347448  -0.031769
     4  C    0.000211  -0.003290  -0.002163  -0.024596  -0.014716   0.339855
     5  C   -0.000012  -0.001571  -0.000066  -0.005021   0.003855  -0.045461
     6  C   -0.000000  -0.000011  -0.000035   0.000014  -0.000151  -0.001854
     7  C   -0.000000   0.000003   0.000012   0.000000   0.000000  -0.000242
     8  C    0.000000  -0.000192  -0.000007  -0.000160   0.000089  -0.004840
     9  C    0.000002   0.000171  -0.000178   0.004060  -0.007191  -0.044985
    10  C   -0.000001   0.000019   0.000002  -0.000088  -0.003705  -0.006397
    11  O    0.000002   0.000523   0.000000   0.000492   0.026144  -0.000415
    12  C    0.000000  -0.000015  -0.000000  -0.000020  -0.000021  -0.000030
    13  C    0.000000   0.000001  -0.000000   0.000000   0.000194   0.000000
    14  C   -0.000000  -0.000000   0.000000  -0.000000  -0.000005   0.000000
    15  C   -0.000002  -0.000001  -0.000000   0.000002  -0.000298   0.000000
    16  C   -0.000000   0.000000   0.000000   0.000000   0.000028  -0.000000
    17  H   -0.032438  -0.001643  -0.003854  -0.000134   0.000014   0.000003
    18  H   -0.033103  -0.005452   0.005846  -0.000342   0.004394  -0.000002
[...]
 324,0.00002251,-0.00000333,0.00000717,0.00000586,-0.00000358,0.0000008
 9,-0.00000232,-0.00000190,0.00000622,0.00000034,-0.00000086,0.00001922
 ,0.00003982,0.00000672,0.00001419,0.00000428,-0.00000702,-0.00001216,-
 0.00003494,-0.00003284,0.00005860,0.00022874,-0.00007357,0.00003604,0.
 00000145,-0.00018396,-0.00017988,-0.00157838,-0.00361048,-0.00004470,0
 .00006099,-0.00018624,-0.00004773,0.00080250,-0.00092108,0.00005724,0.
 00015198,0.00021731,0.00011905,0.00000814,-0.00008261,0.00000555,-0.00
 001505,0.00002410,-0.00000286,-0.01291120,0.00435748,-0.00718579,0.241
 73769,-0.00003541,-0.00003457,0.00003512,-0.00004291,0.00001310,0.0000
 5027,0.00007659,0.00009057,-0.00008295,0.00003236,-0.00004642,0.000045
 31,-0.00002368,0.00001415,-0.00000362,0.00000253,-0.00000813,0.0000100
 5,0.00000418,0.00000331,0.00000725,-0.00000192,-0.00001211,-0.00002766
 ,0.00004904,0.00011312,0.00013414,0.00013317,-0.00029039,-0.00020495,0
 .00196754,0.00104888,-0.00048850,-0.02447356,0.00544679,-0.01391455,-0
 .00082593,0.00197700,-0.00024332,-0.00010345,0.00001935,-0.00001524,0.
 06129032,-0.06854588,0.03467790,0.01186379,-0.00474202,0.00709663,0.00
 000564,-0.00001344,-0.00000483,0.00004424,0.00001883,0.00003078,0.0000
 0561,0.00001717,-0.00003596,-0.00001230,-0.00001956,-0.00000487,0.0000
 0897,-0.00003519,-0.00000836,-0.00001027,-0.00001086,0.00000084,-0.000
 02664,0.00000470,0.00009077,0.00000597,0.00000070,0.00000091,-0.000000
 53,-0.00000505,0.00000149,-0.00000119,-0.00000039,-0.00000975,-0.00000
 707,0.00000132,-0.00000036,-0.00000020,0.00000072,0.00000013,0.0000004
 6,-0.00000009,-0.00000285,-0.00000206,-0.00000092,-0.00000451,-0.00000
 499,0.00000249,-0.00000473,-0.00000202,0.00000673,0.00000730,0.0000074
 3,0.00002155,-0.00002885,0.00017487,0.00000118,-0.00001194,0.00005481,
 0.00019922,0.00004976,-0.00364841,-0.00378783,-0.00061745,0.00012912,-
 0.00002687,-0.00009458,0.00026946,-0.00032971,0.00033711,0.00017696,-0
 .00003674,0.00012871,0.00009323,-0.00000033,0.00003843,0.00002097,0.00
 004064,-0.00001876,0.01828673,-0.00656887,0.01071414,-0.06367191,0.075
 11764,0.00000678,-0.00000765,-0.00003326,-0.00002005,0.00001172,0.0000
 3086,0.00006025,0.00008025,-0.00014203,-0.00000067,-0.00003328,0.00003
 134,-0.00001500,0.00001303,-0.00001104,0.00000033,-0.00000629,0.000003
 78,0.00000770,0.00000024,0.00000277,-0.00000631,-0.00000091,-0.0000070
 3,0.00001879,0.00008557,0.00012885,0.00044280,-0.00055758,-0.00038256,
 0.00002531,-0.00037820,0.00144194,-0.00438223,0.00138991,-0.00380164,-
 0.00019144,0.00065243,0.00005519,0.00018254,-0.00017459,0.00009516,-0.
 09982265,0.03324502,-0.10467614,-0.02420218,0.00923059,-0.01538736,-0.
 00000325,-0.00001573,0.00001787,-0.00001949,0.00003187,0.00000963,0.00
 000150,-0.00000026,-0.00001195,-0.00000531,-0.00000119,-0.00000330,0.0
 0000842,-0.00001942,0.00000001,-0.00000790,-0.00000905,0.00001339,0.00
 002531,-0.00000637,-0.00006879,0.00000334,-0.00000197,0.00000206,-0.00
 000007,-0.00000246,0.00000062,0.00000161,0.00000063,-0.00000382,-0.000
 00437,0.00000014,0.00000108,-0.00000026,-0.00000088,0.00000043,-0.0000
 0099,-0.00000112,-0.00000074,0.00000138,-0.00000042,-0.00000279,-0.000
 00159,0.00000294,-0.00000166,-0.00000378,0.00000023,0.00000175,0.00001
 412,0.00002890,-0.00003133,0.00006700,0.00004590,-0.00009327,0.0000312
 4,0.00026211,0.00004148,-0.00063188,-0.00073198,0.00050866,-0.00008355
 ,0.00003605,-0.00010546,0.00015250,-0.00052155,0.00020847,0.00012528,0
 .00011076,0.00005862,0.00000101,-0.00002973,0.00000346,0.00003451,0.00
 004235,-0.00000864,0.01537597,-0.00502115,0.00899606,0.11096894,-0.039
 42544,0.11572799,-0.00000398,-0.00000995,0.00000802,0.00000067,0.00000
 158,-0.00000084,-0.00001261,-0.00000811,0.00000933,-0.00000014,0.00000
 222,0.00000168,0.00000169,-0.00000251,0.00000337,-0.00000463,0.0000051
 2,-0.00000065,0.00000431,-0.00000596,0.00000234,-0.00000958,0.00000986
 ,-0.00001062,0.00001574,-0.00000098,0.00000486,-0.00013886,0.00006141,
 -0.00003661,0.00027342,0.00011425,-0.00008997,0.00072033,-0.00038161,0
 .00052037,0.00006079,0.00003326,0.00008595,-0.00004002,0.00000654,-0.0
 0009409,0.00773409,-0.00245657,0.00410397,-0.22309969,0.05881292,-0.10
 521398,0.00000102,0.00000325,0.00000054,0.00000284,0.00000545,-0.00000
 613,0.00000040,-0.00000104,-0.00000098,-0.00000030,-0.00000306,0.00000
 414,0.00000457,0.00000500,-0.00000509,0.00000074,0.00000012,-0.0000029
 6,0.00001396,0.00000753,-0.00001500,-0.00000069,-0.00000127,-0.0000001
 1,0.00000012,-0.00000030,-0.00000004,0.00000068,0.00000037,-0.00000107
 ,0.00000410,0.00000031,-0.00000278,0.00000040,-0.00000224,0.00000083,-
 0.00000147,0.00000008,0.00000003,0.00000673,0.00000016,-0.00000381,0.0
 0000283,0.00000220,0.00000280,0.00000016,-0.00000391,-0.00000176,0.000
 00167,-0.00000181,-0.00000325,0.00001369,0.00001036,0.00001717,-0.0000
 1582,-0.00000099,0.00001184,0.00029852,0.00045419,-0.00009610,-0.00006
 711,0.00000983,-0.00013307,-0.00002444,-0.00003338,0.00001592,0.000035
 06,0.00000698,0.00001695,0.00000375,0.00001481,0.00000758,0.00003130,0
 .00001736,0.00000742,0.00067055,0.00016742,-0.00069544,0.00075527,-0.0
 0145542,0.00179962,0.24137646,0.00001649,0.00000948,-0.00002637,0.0000
 0073,0.00000348,0.00001655,0.00001332,0.00001661,-0.00004063,0.0000212
 0,0.00000887,0.00001321,-0.00001444,0.00000038,-0.00000666,0.00000288,
 0.00000254,0.00000468,-0.00000128,-0.00000310,0.00000291,-0.00000153,0
 .00000900,-0.00000599,-0.00001085,-0.00002615,-0.00000934,-0.00003806,
 0.00013728,0.00013166,-0.00031549,0.00015461,-0.00059707,0.00211372,0.
 00051964,0.00084616,-0.00015368,-0.00025335,-0.00022277,0.00000989,-0.
 00002686,0.00007790,0.01191675,-0.00504645,0.00715770,0.05858782,-0.06
 661311,0.03430955,-0.00000283,-0.00000588,0.00000645,-0.00001141,0.000
 00098,0.00000868,-0.00000418,-0.00000186,0.00000441,0.00000114,-0.0000
 0767,-0.00000243,-0.00000592,-0.00000855,0.00000137,-0.00000483,-0.000
 00186,-0.00000007,0.00000663,-0.00000104,0.00000241,0.00000017,-0.0000
 0403,-0.00000373,0.00000099,-0.00000177,0.00000107,0.00000039,0.000000
 41,-0.00000648,-0.00000315,0.00000025,-0.00000120,-0.00000078,-0.00000
 165,-0.00000048,0.,-0.00000045,-0.00000023,0.00000091,0.00000076,-0.00
 000228,-0.00000795,-0.00000252,-0.00000347,0.00000267,-0.00000231,-0.0
 0000051,-0.00000326,-0.00000576,0.00000534,-0.00005253,-0.00002206,-0.
 00000903,0.00000699,-0.00006061,-0.00001436,-0.00081411,-0.00016620,-0
 .00024164,0.00010041,0.00005106,0.00009446,-0.00007650,0.00015715,-0.0
 0008247,-0.00005760,-0.00004030,-0.00002932,-0.00001370,0.00000893,-0.
 00000912,-0.00002491,-0.00001799,-0.00001344,-0.00048348,0.00051145,-0
 .00046391,-0.00119172,-0.00042392,0.00274774,-0.06420316,0.06866195,-0
 .00003930,-0.00002925,0.00005219,0.00001298,-0.00000280,-0.00002296,-0
 .00005053,-0.00005710,0.00009349,-0.00004062,0.00001798,-0.00002478,0.
 00002878,-0.00000660,0.00001355,-0.00000816,0.00000988,-0.00000960,0.0
 0000803,-0.00000719,-0.00000508,-0.00000536,0.00001716,0.00000417,0.00
 002734,-0.00001999,-0.00001587,-0.00017344,0.00009014,-0.00001458,0.00
 054556,-0.00034892,0.00035332,-0.00177476,-0.00121604,0.00049249,0.000
 13660,0.00005788,-0.00003139,-0.00004238,0.00003217,0.00007957,-0.0248
 8000,0.00896434,-0.01572890,-0.10476937,0.03419227,-0.10987249,0.00000
 745,0.00001851,-0.00001403,0.00003280,-0.00000418,-0.00001858,0.000006
 13,0.00000369,-0.00001064,-0.00000552,0.00000221,0.00000834,0.00000915
 ,0.00002106,-0.00001029,0.00001143,0.00000411,-0.00001395,-0.00000248,
 0.00002557,0.00000348,0.00000315,-0.00000646,0.00000104,-0.00000262,-0
 .00000073,-0.00000082,-0.00000008,0.00000059,0.00000897,0.00000990,-0.
 00000156,-0.00000022,0.00000215,-0.00000438,-0.00000022,-0.00000199,-0
 .00000220,0.00000271,0.00000639,0.00000124,0.,0.00001266,0.00000570,0.
 00000600,0.00000081,-0.00001116,-0.00000767,-0.00000433,-0.00000798,0.
 00001123,0.00008878,0.00002746,0.00003304,-0.00001816,-0.00000839,-0.0
 0004903,0.00101893,0.00051170,0.00050263,0.00003566,0.00008199,0.00005
 582,0.00010291,-0.00016020,0.00000978,0.00001953,0.00002501,0.00001705
 ,0.00001604,0.00002723,0.00000516,-0.00000551,-0.00001196,-0.00001010,
 -0.00016681,-0.00079171,0.00093323,0.00232116,0.00271077,-0.00479072,0
 .11579434,-0.04108080,0.12141773,0.00000236,0.00000867,-0.00000301,-0.
 00001005,-0.00000894,-0.00001486,0.00000904,0.00001256,-0.00001438,-0.
 00001681,-0.00003466,-0.00001417,0.00000835,0.00001072,0.00000312,0.00
 000059,-0.00001361,-0.00000189,-0.00001067,0.00001678,-0.00000953,0.00
 001434,-0.00002718,0.00003118,-0.00002463,0.00004955,-0.00001944,0.000
 30795,-0.00028113,-0.00020848,-0.00043469,-0.00083433,0.00057646,0.000
 52178,0.00048257,0.00149512,-0.00009007,0.00014413,0.00027597,0.000052
 13,-0.00006402,-0.00016145,-0.00501397,-0.00547375,-0.00131899,-0.1271
 4583,-0.11906095,-0.02440057,0.00000167,-0.00000518,0.00000123,-0.0000
 0815,-0.00000250,-0.00000086,0.00000482,-0.00000066,0.00000775,0.00000
 423,0.00002841,-0.00000288,0.00000173,-0.00000190,0.00001137,0.0000047
 1,-0.00000195,0.00002335,-0.00001632,-0.00002383,-0.00001701,-0.000002
 84,0.00001202,0.00000429,-0.00000027,0.00000162,-0.00000150,0.00000052
 ,-0.00000198,0.00001252,-0.00000339,0.00000010,0.00000756,-0.00000039,
 0.00000693,-0.00000050,0.00000200,-0.00000096,0.00000182,-0.00001107,-
 0.00000228,0.00000981,0.00000611,0.00000294,0.00000262,-0.00000498,0.0
 0000741,0.00000029,0.00000704,0.00000921,-0.00000332,-0.00001643,0.000
 04236,0.00000968,-0.00001955,0.00007615,0.00002153,0.00048367,0.000334
 53,0.00019095,0.00006513,-0.00011808,-0.00025340,0.00003265,-0.0000161
 6,-0.00005755,0.00001477,0.00001531,0.00001830,-0.00001282,-0.00004179
 ,-0.00000511,0.00004164,0.00006303,0.00001881,-0.00011374,0.00013861,-
 0.00015657,0.00053078,0.00023398,0.00028947,-0.01468801,-0.02244819,-0
 .00433112,0.13532168,-0.00000716,0.00000592,0.00000916,-0.00001852,-0.
 00000801,-0.00003551,0.00001220,0.00001089,-0.00001210,-0.00002853,-0.
 00002508,-0.00002626,0.00001592,0.00000986,-0.00000081,0.00000069,-0.0
 0001405,-0.00000567,-0.00001377,0.00002055,-0.00001682,0.00002182,-0.0
 0003413,0.00005892,-0.00006234,0.00006481,-0.00003927,0.00046601,-0.00
 037412,-0.00016847,-0.00120363,-0.00076300,0.00069575,0.00129565,0.001
 31074,0.00236104,0.00014817,0.00020616,-0.00043068,0.00003491,0.000060
 55,0.00015065,-0.00723542,-0.01131297,-0.00257559,-0.11930043,-0.22256
 534,-0.03594844,0.00000538,-0.00000327,-0.00000425,-0.00001551,-0.0000
 0778,-0.00001324,0.00000817,0.00000094,0.00001969,0.00001402,0.0000401
 4,-0.00000333,0.00000801,-0.00000170,0.00001640,0.00000557,-0.00000062
 ,0.00003819,-0.00003446,-0.00002998,-0.00002669,0.00000081,0.00000830,
 0.00000542,-0.00000218,0.00000069,-0.00000149,0.00000106,-0.00000077,0
 .00001956,-0.00000405,-0.00000185,0.00001182,0.00000057,0.00000667,-0.
 00000160,0.00000287,-0.00000208,0.00000266,-0.00001574,-0.00000207,0.0
 0001547,0.00000895,-0.00000029,0.00000265,-0.00000478,0.00000804,0.000
 00019,0.00001057,0.00001373,-0.00000887,-0.00006959,0.00002699,-0.0000
 0088,-0.00004191,0.00009015,0.00001758,-0.00009684,0.00007972,-0.00014
 080,-0.00018168,-0.00001442,0.00035441,-0.00004311,-0.00009340,0.00012
 106,-0.00001830,0.00000106,-0.00002043,-0.00000109,-0.00004007,-0.0000
 2487,-0.00006499,-0.00002913,0.00002184,0.00010341,0.00104038,0.000093
 83,0.00046641,0.00000349,-0.00011737,0.00561042,0.00827323,0.00134604,
 0.13175844,0.24059335,0.00001229,-0.00000079,-0.00001500,0.00000636,0.
 00000828,0.00002745,0.00000249,-0.00000291,-0.00000923,0.00002745,0.00
 002317,0.00002836,-0.00001592,-0.00000932,-0.00000431,0.00000037,0.000
 00874,0.00000567,0.00001827,-0.00001874,0.00001238,-0.00001570,0.00002
 662,-0.00006627,0.00009098,-0.00008530,0.00001145,-0.00057287,0.000588
 08,0.00022077,0.00202921,0.00182348,-0.00131256,-0.00116559,-0.0004541
 6,-0.00509601,0.00040555,-0.00008346,-0.00027711,-0.00016642,0.0001060
 1,0.00021444,0.01864482,0.02656035,0.00444195,-0.02512145,-0.03691581,
 -0.05236251,-0.00000557,0.00000161,0.00000141,0.00000176,0.00000122,0.
 00000972,-0.00000759,0.00000117,-0.00000625,-0.00000205,-0.00003856,0.
 00000486,-0.00000687,-0.00000350,-0.00000938,-0.00000572,0.00000263,-0
 .00002592,0.00002411,0.00002921,0.00002767,0.00000064,-0.00000897,-0.0
 0000683,0.00000102,-0.00000086,0.00000178,0.00000037,0.00000185,-0.000
 01430,0.00000052,0.00000012,-0.00000599,-0.00000003,-0.00000363,0.0000
 0003,-0.00000182,0.00000161,-0.00000207,0.00000988,0.00000337,-0.00001
 341,-0.00000599,0.00000148,0.00000036,0.00000530,-0.00000836,0.0000002
 1,-0.00001449,-0.00002528,0.00001633,0.00009622,-0.00004572,0.00000025
 ,0.00004651,-0.00015065,-0.00002929,0.00026584,-0.00014902,0.00014227,
 -0.00020320,0.00015998,0.00030431,-0.00002037,0.00000107,0.00007152,0.
 00002340,0.00000199,-0.00000367,0.00003812,0.00006506,0.00001705,-0.00
 004326,-0.00011313,-0.00002684,-0.00016762,-0.00064257,0.00144051,-0.0
 0065481,-0.00049054,0.00107755,-0.00773106,-0.01343518,-0.00334999,0.0
 2530853,0.03766276,0.05818924,0.00000175,-0.00000289,-0.00001201,0.000
 00130,0.00000995,0.00002128,0.00001113,0.00002185,-0.00003154,-0.00000
 246,0.00000163,0.00000561,-0.00000033,0.00000746,-0.00000021,0.0000000
 4,0.,0.00000256,-0.00000019,0.00000311,-0.00000263,0.00000374,0.000007
 75,-0.00000224,0.00002904,-0.00003530,-0.00001977,-0.00004248,0.000123
 22,-0.00000392,0.00004841,-0.00046774,-0.00014060,-0.00009128,0.001384
 66,0.00050396,-0.00029122,-0.00010854,0.00088580,0.00010445,-0.0001108
 1,-0.00040058,-0.00449407,0.00420530,0.00378217,-0.12055529,0.08630531
 ,0.07934542,0.00000349,-0.00001028,0.00000717,0.00000092,0.00000978,0.
 00000750,-0.00000041,-0.00000039,-0.00000545,-0.00000825,-0.00000133,-
 0.00000177,-0.00000241,-0.00001016,-0.00000106,0.00000067,-0.00000726,
 0.00000349,-0.00000874,-0.00000266,0.00000744,0.00000599,-0.00001058,-
 0.00000641,-0.00000155,-0.00000654,0.00000204,0.00000006,-0.00000047,0
 .00000218,-0.00000295,-0.00000039,0.00000363,0.00000035,-0.00000193,-0
 .00000149,-0.00000063,-0.00000471,0.00000289,-0.00000208,0.00000060,0.
 00000136,-0.00000172,0.00000329,-0.00000131,0.00000373,-0.00000775,-0.
 00000586,-0.00001334,-0.00001754,0.00002406,0.00000548,-0.00000189,0.0
 0000530,0.00004662,-0.00007746,-0.00006697,-0.00005353,-0.00002892,0.0
 0002058,0.00044897,-0.00060201,-0.00054100,0.00001963,0.00009512,-0.00
 022778,-0.00002726,-0.00001147,0.00002971,-0.00002231,-0.00002140,0.00
 000815,0.00011634,0.00016045,0.00000615,0.00086936,-0.00102997,0.00116
 475,0.00066371,-0.00058809,-0.00024276,-0.01392850,0.01714241,0.016063
 87,0.01020501,-0.01153599,-0.01113159,0.12696081,-0.00000257,-0.000004
 00,0.00000025,0.00000316,0.00000310,0.00001279,0.00000489,0.00000110,-
 0.00000596,0.00000571,0.00000401,0.00000360,-0.00000269,-0.00000269,-0
 .00000072,0.00000035,0.00000021,0.00000118,0.00000297,-0.00000536,0.00
 000359,0.00000117,0.00000253,-0.00001747,0.00003425,-0.00004335,-0.000
 00960,-0.00007408,0.00016115,0.00006791,0.00027086,-0.00003558,-0.0002
 7337,-0.00037982,0.00048698,-0.00029331,-0.00006933,-0.00059570,0.0004
 7203,-0.00004828,0.00001179,-0.00008230,-0.00832057,0.01050477,0.00852
 243,0.08688855,-0.14871437,-0.09459759,-0.00000002,0.00000339,0.000000
 37,0.00000650,0.00000140,0.00000223,-0.00000145,-0.00000061,-0.0000049
 2,-0.00000427,-0.00000932,0.00000098,-0.00000070,-0.00000096,-0.000004
 97,-0.00000173,-0.00000295,-0.00000227,-0.00000411,0.00001254,0.000001
 06,-0.00000014,-0.00000014,-0.00000203,0.00000059,0.00000138,0.0000006
 1,-0.00000039,-0.00000028,-0.00000359,0.00000057,0.00000104,-0.0000029
 9,-0.00000055,0.00000036,0.00000118,-0.00000062,0.00000255,-0.00000118
 ,0.00000262,0.00000020,-0.00000319,-0.00000304,-0.00000088,-0.00000063
 ,0.00000142,0.00000189,0.00000084,-0.00001031,-0.00000783,0.00001546,0
 .00000616,-0.00002903,-0.00001290,0.00004028,-0.00005984,-0.00002798,-
 0.00002879,-0.00003291,-0.00003974,-0.00058089,-0.00142403,0.00040556,
 -0.00002081,-0.00002377,0.00005335,0.00001508,-0.00000077,0.00000424,0
 .00000681,0.00003479,0.00000480,0.00001431,0.00002199,-0.00000465,-0.0
 0141164,-0.00044909,0.00318853,0.00022073,0.00077664,-0.00095380,0.003
 20924,-0.00578259,-0.00441507,0.01500801,-0.01655221,-0.01439343,-0.09
 477743,0.16174445,0.00001304,0.00001497,-0.00000212,0.00001955,-0.0000
 1983,-0.00002394,-0.00004389,-0.00004980,0.00007709,0.00001090,-0.0000
 0247,0.00000263,-0.00000360,-0.00001181,0.00000899,-0.00000294,0.00000
 820,-0.00000139,0.00000166,-0.00001097,0.00000891,-0.00002296,0.000009
 57,-0.00001133,-0.00003213,0.00007470,0.00007053,-0.00010340,-0.000299
 07,-0.00007920,0.00002194,0.00049419,0.00018454,-0.00054803,-0.0014834
 7,0.00013933,0.00052489,-0.00007171,-0.00074941,-0.00018645,0.00025211
 ,0.00045646,0.01557795,-0.01875333,-0.01732058,0.07886829,-0.09371294,
 -0.13348381,-0.00000971,0.00001944,-0.00000730,0.00000251,-0.00002102,
 -0.00000377,-0.00000439,-0.00000278,0.00000595,0.00000517,-0.00000670,
 0.00000412,-0.00000776,0.00002455,-0.00000158,0.00000044,0.00001373,-0
 .00002358,0.00004671,-0.00000422,-0.00000309,-0.00001665,0.00001930,0.
 00001070,0.00000525,0.00001056,-0.00000416,0.00000007,-0.00000057,-0.0
 0000956,0.00000796,0.00000191,-0.00000925,-0.00000148,0.00000012,0.000
 00280,-0.00000028,0.00000564,-0.00000335,0.00001086,-0.00000063,-0.000
 00782,0.00000330,0.00000008,0.00000337,-0.00000634,0.00000401,0.000004
 74,0.00002963,0.00003252,-0.00004761,0.00004119,0.00005849,0.00003374,
 -0.00007967,0.00021323,0.00010752,0.00010390,0.00016406,0.00008029,-0.
 00015551,0.00027516,0.00099479,-0.00006468,-0.00001640,0.00002640,-0.0
 0004675,-0.00002444,-0.00004427,0.00004630,0.00006343,0.00001076,-0.00
 014409,-0.00018300,-0.00001380,0.00148852,0.00347271,-0.00473319,-0.00
 069038,-0.00042325,0.00110447,-0.00827367,0.01087671,0.00989691,0.0026
 7486,-0.00340167,-0.00363062,-0.08906013,0.10239066,0.14697969\\-0.000
 00009,-0.00000109,0.00000239,-0.00000186,-0.00000371,0.00000015,-0.000
 00286,-0.00000383,-0.00000054,0.00000042,0.00000388,0.00000223,-0.0000
 0143,-0.00000304,0.00000278,-0.00000054,0.00000314,-0.00000134,0.00000
 275,0.00000052,-0.00000033,-0.00000567,0.00000366,0.00000129,0.0000037
 4,-0.00000240,-0.00000087,-0.00000635,-0.00000202,0.00000197,0.0000071
 8,-0.00000414,0.00000191,0.00000004,-0.00000296,0.00000485,-0.00000483
 ,0.00000416,0.00000083,-0.00000588,0.00000550,-0.00001216,0.00000390,0
 .00000275,-0.00001004,0.00000227,0.00000121,0.00000750,-0.00000251,-0.
 00000103,-0.00000102,-0.00000009,-0.00000038,0.00000106,-0.00000072,-0
 .00000218,0.00000013,-0.00000316,0.00000130,-0.00000272,0.00000010,0.0
 0000196,0.00000078,-0.00000117,0.00000240,0.00000014,0.00000027,0.0000
 0128,-0.00000128,0.00000176,-0.00000058,-0.00000088,-0.00000073,-0.000
 00091,-0.00000070,-0.00000076,0.00000121,-0.00000276,0.00000011,0.0000
 0097,0.00000019,-0.00000075,0.00000207,0.00000056,-0.00000146,0.000000
 83,-0.00000112,-0.00000107,0.00000224,-0.00000129,0.00000243,0.0000014
 9,-0.00000085,0.00000118,0.00000181,-0.00000085,-0.00000150,0.00000040
 ,-0.00000048,-0.00000287,0.00000113,-0.00000067,-0.00000185,0.00000257
 ,0.00000070,-0.00000063,-0.00000220,0.00000054,0.00000325,0.00000006,0
 .00000264,0.00000305,-0.00000281,0.00000185,0.00000160,-0.00000321,0.0
 0000198,0.00000034,-0.00000292,0.00000222,-0.00000010,-0.00000139,0.00
 000410,0.00000507,-0.00000389,-0.00000251,0.00000309,-0.00000067,0.000
 00337,0.00000199,-0.00000073,-0.00000109,0.00000396,0.00000112,-0.0000
 0251,0.00000037,-0.00000158,-0.00000017\\\@


 KEEP CLOSE TO NATURES HEART, YOURSELF;
 AND BREAK CLEAR AWAY, ONCE IN A WHILE, AND
 CLIMB A MOUNTAIN OR SPEND A WEEK IN THE
 WOODS.  WASH YOUR SPIRIT CLEAN...
                                         -- JOHN MUIR
 Job cpu time:       0 days 21 hours 36 minutes  0.8 seconds.
 Elapsed time:       0 days  5 hours 24 minutes 25.4 seconds.
 File lengths (MBytes):  RWF=   1114 Int=      0 D2E=      0 Chk=     31 Scr=      1
 Normal termination of Gaussian 16 at Tue May 23 06:32:57 2023.
### All Done ###
