### Starting Gaussian ###
 Entering Gaussian System, Link 0=g16
 Initial command:
 /cluster/software/gaussian/gaussian-16-A.03/avx2/g16/l1.exe "/local/scratch/yxie/Gau-4801.inp" -scrdir="/local/scratch/yxie/"
 Entering Link 1 = /cluster/software/gaussian/gaussian-16-A.03/avx2/g16/l1.exe PID=      4808.
  
 Copyright (c) 1988,1990,1992,1993,1995,1998,2003,2009,2016,
            Gaussian, Inc.  All Rights Reserved.
  
 This is part of the Gaussian(R) 16 program.  It is based on
 the Gaussian(R) 09 system (copyright 2009, Gaussian, Inc.),
 the Gaussian(R) 03 system (copyright 2003, Gaussian, Inc.),
 the Gaussian(R) 98 system (copyright 1998, Gaussian, Inc.),
 the Gaussian(R) 94 system (copyright 1995, Gaussian, Inc.),
 the Gaussian 92(TM) system (copyright 1992, Gaussian, Inc.),
 the Gaussian 90(TM) system (copyright 1990, Gaussian, Inc.),
 the Gaussian 88(TM) system (copyright 1988, Gaussian, Inc.),
 the Gaussian 86(TM) system (copyright 1986, Carnegie Mellon
 University), and the Gaussian 82(TM) system (copyright 1983,
 Carnegie Mellon University). Gaussian is a federally registered
 trademark of Gaussian, Inc.
  
 This software contains proprietary and confidential information,
 including trade secrets, belonging to Gaussian, Inc.
  
 This software is provided under written license and may be
 used, copied, transmitted, or stored only in accord with that
 written license.
  
 The following legend is applicable only to US Government
 contracts under FAR:
  
                    RESTRICTED RIGHTS LEGEND
  
 Use, reproduction and disclosure by the US Government is
 subject to restrictions as set forth in subparagraphs (a)
 and (c) of the Commercial Computer Software - Restricted
 Rights clause in FAR 52.227-19.
  
 Gaussian, Inc.
 340 Quinnipiac St., Bldg. 40, Wallingford CT 06492
  
  
 ---------------------------------------------------------------
 Warning -- This program may not be used in any manner that
 competes with the business of Gaussian, Inc. or will provide
 assistance to any competitor of Gaussian, Inc.  The licensee
 of this program is prohibited from giving any competitor of
 Gaussian, Inc. access to this program.  By using this program,
 the user acknowledges that Gaussian, Inc. is engaged in the
 business of creating and licensing software in the field of
 computational chemistry and represents and warrants to the
 licensee that it is not a competitor of Gaussian, Inc. and that
 it will not use this program in any manner prohibited above.
 ---------------------------------------------------------------
  

 Cite this work as:
 Gaussian 16, Revision A.03,
 M. J. Frisch, G. W. Trucks, H. B. Schlegel, G. E. Scuseria, 
 M. A. Robb, J. R. Cheeseman, G. Scalmani, V. Barone, 
 G. A. Petersson, H. Nakatsuji, X. Li, M. Caricato, A. V. Marenich, 
 J. Bloino, B. G. Janesko, R. Gomperts, B. Mennucci, H. P. Hratchian, 
 J. V. Ortiz, A. F. Izmaylov, J. L. Sonnenberg, D. Williams-Young, 
 F. Ding, F. Lipparini, F. Egidi, J. Goings, B. Peng, A. Petrone, 
 T. Henderson, D. Ranasinghe, V. G. Zakrzewski, J. Gao, N. Rega, 
 G. Zheng, W. Liang, M. Hada, M. Ehara, K. Toyota, R. Fukuda, 
 J. Hasegawa, M. Ishida, T. Nakajima, Y. Honda, O. Kitao, H. Nakai, 
 T. Vreven, K. Throssell, J. A. Montgomery, Jr., J. E. Peralta, 
 F. Ogliaro, M. J. Bearpark, J. J. Heyd, E. N. Brothers, K. N. Kudin, 
 V. N. Staroverov, T. A. Keith, R. Kobayashi, J. Normand, 
 K. Raghavachari, A. P. Rendell, J. C. Burant, S. S. Iyengar, 
 J. Tomasi, M. Cossi, J. M. Millam, M. Klene, C. Adamo, R. Cammi, 
 J. W. Ochterski, R. L. Martin, K. Morokuma, O. Farkas, 
 J. B. Foresman, and D. J. Fox, Gaussian, Inc., Wallingford CT, 2016.
 
 ******************************************
 Gaussian 16:  ES64L-G16RevA.03 25-Dec-2016
                25-May-2023 
 ******************************************
 %chk=CCCC1CC1CCC1CCCCCCO1.chk
 %NProcShared=20
 Will use up to   20 processors via shared memory.
 ----------------------------------------------------------------
 # opt freq b3lyp/6-31+g(2df,p) Geom=AllCheckpoint TD(NStates=10)
 ----------------------------------------------------------------
 1/18=20,19=15,26=3,29=7,38=1/1,3;
 2/9=110,12=2,40=1/2;
 3/5=1,6=6,7=114,11=9,14=-4,25=1,30=1,71=1,74=-5/1,2,3,8;
 4//1;
 5/5=2,38=5/2;
 8/6=1,10=2,108=10/1;
 9/15=2,41=10,42=1,70=2/14;
 10/5=4/2;
 6/7=2,8=2,9=2,10=2/1;
 7/12=6,13=5/1,2,3,16;
 1/18=20,19=15,26=3/3(2);
 2/9=110/2;
 99//99;
 2/9=110/2;
 3/5=1,6=6,7=114,11=9,14=-2,25=1,30=1,71=1,74=-5/1,2,3,8;
 4/5=5,16=3,69=1/1;
 5/5=2,38=5/2;
 8/6=1,10=2,108=10/1;
 9/15=2,41=10,42=1,49=4,70=2/14;
 10/5=4/2;
 7/12=6,13=5/1,2,3,16;
 1/18=20,19=15,26=3/3(-8);
 2/9=110/2;
 6/7=2,8=2,9=2,10=2/1;
 99//99;
 Structure from the checkpoint file:  "CCCC1CC1CCC1CCCCCCO1.chk"
 -------------------
 Title Card Required
 -------------------
 Charge =  0 Multiplicity = 1
 Redundant internal coordinates found in file.  (old form).
 C,0,0.7395914061,-0.1579746141,0.4398317426
 C,0,2.2004980046,-0.449772645,0.0874399392
 C,0,3.0831715375,-0.6855651713,1.3204701308
 C,0,4.5293646236,-0.9761797147,0.9786141242
 C,0,5.5024272221,0.1538437111,0.7276152437
 C,0,5.6420804339,-0.7055325259,1.9609996467
 C,0,6.8023030944,-1.6680597529,2.109842242
 C,0,6.485753448,-2.8225423219,3.0721443921
 C,0,7.6621467063,-3.7637888352,3.3798573771
 C,0,8.1506918943,-4.5215013866,2.1365496977
 C,0,9.1993810355,-5.6340393221,2.3464132872
 C,0,8.9834302019,-6.5481825519,3.5728642448
 C,0,9.7724553088,-6.1534967726,4.8337938685
 C,0,9.4666017876,-4.8051923055,5.5109178829
 C,0,9.7468838367,-3.538688345,4.6786710184
 O,0,8.6422240506,-2.9487030082,4.0090473882
 H,0,0.1345061554,0.0021964538,-0.4581761769
 H,0,0.6541129714,0.7397467275,1.0626368086
 H,0,0.2926714773,-0.9883712117,0.9982260238
 H,0,2.6151151651,0.3818126392,-0.4962191317
 H,0,2.2513342973,-1.3316357948,-0.5650492682
 H,0,2.667893983,-1.5168201389,1.9081916261
 H,0,3.0373578769,0.1974731855,1.9728622398
 H,0,4.6702737628,-1.8555772281,0.3514936087
 H,0,5.1419179267,1.1708221464,0.8488695031
 H,0,6.2394552563,0.0372097912,-0.0606954931
 H,0,5.3314119907,-0.2358062369,2.8929788164
 H,0,7.6869054397,-1.1356820157,2.476448839
 H,0,7.063454933,-2.0607924615,1.119206688
 H,0,5.6529244907,-3.4179099316,2.678059876
 H,0,6.1478495136,-2.4027886542,4.0272175218
 H,0,7.28831271,-4.5055727994,4.1008471947
 H,0,8.5338382511,-3.8061505751,1.4006761869
 H,0,7.2568767298,-4.9772569968,1.6889474851
 H,0,10.2048270591,-5.2019964182,2.3956854248
 H,0,9.1966606086,-6.24967638,1.4396143699
 H,0,9.2980531095,-7.5647379218,3.3093705838
 H,0,7.9128036789,-6.6255894119,3.8036199132
 H,0,10.8417821113,-6.1657380919,4.5784392556
 H,0,9.6383678849,-6.943908225,5.583109369
 H,0,10.1014431169,-4.7470382388,6.4034247332
 H,0,8.4365742221,-4.7732977003,5.8856361174
 H,0,10.5681106319,-3.7390849031,3.9732303801
 H,0,10.0983200544,-2.7439040462,5.3454952788
 Recover connectivity data from disk.

 GradGradGradGradGradGradGradGradGradGradGradGradGradGradGradGradGradGrad
 Berny optimization.
 Initialization pass.
                           ----------------------------
                           !    Initial Parameters    !
                           ! (Angstroms and Degrees)  !
 --------------------------                            --------------------------
 ! Name  Definition              Value          Derivative Info.                !
 --------------------------------------------------------------------------------
 ! R1    R(1,2)                  1.5309         estimate D2E/DX2                !
 ! R2    R(1,17)                 1.0946         estimate D2E/DX2                !
 ! R3    R(1,18)                 1.0959         estimate D2E/DX2                !
 ! R4    R(1,19)                 1.0959         estimate D2E/DX2                !
 ! R5    R(2,3)                  1.5346         estimate D2E/DX2                !
 ! R6    R(2,20)                 1.0973         estimate D2E/DX2                !
 ! R7    R(2,21)                 1.0982         estimate D2E/DX2                !
 ! R8    R(3,4)                  1.5142         estimate D2E/DX2                !
 ! R9    R(3,22)                 1.0995         estimate D2E/DX2                !
 ! R10   R(3,23)                 1.0988         estimate D2E/DX2                !
 ! R11   R(4,5)                  1.5122         estimate D2E/DX2                !
 ! R12   R(4,6)                  1.5088         estimate D2E/DX2                !
 ! R13   R(4,24)                 1.0893         estimate D2E/DX2                !
 ! R14   R(5,6)                  1.5097         estimate D2E/DX2                !
 ! R15   R(5,25)                 1.0858         estimate D2E/DX2                !
 ! R16   R(5,26)                 1.0855         estimate D2E/DX2                !
 ! R17   R(6,7)                  1.5148         estimate D2E/DX2                !
 ! R18   R(6,27)                 1.0889         estimate D2E/DX2                !
 ! R19   R(7,8)                  1.5359         estimate D2E/DX2                !
 ! R20   R(7,28)                 1.0956         estimate D2E/DX2                !
 ! R21   R(7,29)                 1.0972         estimate D2E/DX2                !
 ! R22   R(8,9)                  1.5377         estimate D2E/DX2                !
 ! R23   R(8,30)                 1.097          estimate D2E/DX2                !
 ! R24   R(8,31)                 1.0966         estimate D2E/DX2                !
 ! R25   R(9,10)                 1.5358         estimate D2E/DX2                !
 ! R26   R(9,16)                 1.4215         estimate D2E/DX2                !
 ! R27   R(9,32)                 1.0999         estimate D2E/DX2                !
 ! R28   R(10,11)                1.5432         estimate D2E/DX2                !
 ! R29   R(10,33)                1.0955         estimate D2E/DX2                !
 ! R30   R(10,34)                1.0986         estimate D2E/DX2                !
 ! R31   R(11,12)                1.5448         estimate D2E/DX2                !
 ! R32   R(11,35)                1.0954         estimate D2E/DX2                !
 ! R33   R(11,36)                1.096          estimate D2E/DX2                !
 ! R34   R(12,13)                1.5389         estimate D2E/DX2                !
 ! R35   R(12,37)                1.0963         estimate D2E/DX2                !
 ! R36   R(12,38)                1.0979         estimate D2E/DX2                !
 ! R37   R(13,14)                1.5395         estimate D2E/DX2                !
 ! R38   R(13,39)                1.0995         estimate D2E/DX2                !
 ! R39   R(13,40)                1.0974         estimate D2E/DX2                !
 ! R40   R(14,15)                1.5412         estimate D2E/DX2                !
 ! R41   R(14,41)                1.0968         estimate D2E/DX2                !
 ! R42   R(14,42)                1.0965         estimate D2E/DX2                !
 ! R43   R(15,16)                1.4201         estimate D2E/DX2                !
 ! R44   R(15,43)                1.101          estimate D2E/DX2                !
 ! R45   R(15,44)                1.0954         estimate D2E/DX2                !
 ! A1    A(2,1,17)             111.5038         estimate D2E/DX2                !
 ! A2    A(2,1,18)             111.1848         estimate D2E/DX2                !
 ! A3    A(2,1,19)             111.224          estimate D2E/DX2                !
 ! A4    A(17,1,18)            107.6519         estimate D2E/DX2                !
 ! A5    A(17,1,19)            107.6644         estimate D2E/DX2                !
 ! A6    A(18,1,19)            107.4157         estimate D2E/DX2                !
 ! A7    A(1,2,3)              113.155          estimate D2E/DX2                !
 ! A8    A(1,2,20)             109.7895         estimate D2E/DX2                !
 ! A9    A(1,2,21)             109.5121         estimate D2E/DX2                !
 ! A10   A(3,2,20)             109.0552         estimate D2E/DX2                !
 ! A11   A(3,2,21)             109.1097         estimate D2E/DX2                !
 ! A12   A(20,2,21)            105.9643         estimate D2E/DX2                !
 ! A13   A(2,3,4)              113.4177         estimate D2E/DX2                !
 ! A14   A(2,3,22)             109.1725         estimate D2E/DX2                !
 ! A15   A(2,3,23)             109.2429         estimate D2E/DX2                !
 ! A16   A(4,3,22)             109.6527         estimate D2E/DX2                !
 ! A17   A(4,3,23)             109.153          estimate D2E/DX2                !
 ! A18   A(22,3,23)            105.9292         estimate D2E/DX2                !
 ! A19   A(3,4,5)              120.572          estimate D2E/DX2                !
 ! A20   A(3,4,6)              121.5295         estimate D2E/DX2                !
 ! A21   A(3,4,24)             114.1097         estimate D2E/DX2                !
 ! A22   A(5,4,24)             115.1185         estimate D2E/DX2                !
 ! A23   A(6,4,24)             115.1051         estimate D2E/DX2                !
 ! A24   A(4,5,25)             117.8868         estimate D2E/DX2                !
 ! A25   A(4,5,26)             118.5            estimate D2E/DX2                !
 ! A26   A(6,5,25)             118.2057         estimate D2E/DX2                !
 ! A27   A(6,5,26)             117.9912         estimate D2E/DX2                !
 ! A28   A(25,5,26)            114.0284         estimate D2E/DX2                !
 ! A29   A(4,6,7)              120.9869         estimate D2E/DX2                !
 ! A30   A(4,6,27)             115.1025         estimate D2E/DX2                !
 ! A31   A(5,6,7)              120.851          estimate D2E/DX2                !
 ! A32   A(5,6,27)             115.295          estimate D2E/DX2                !
 ! A33   A(7,6,27)             114.1113         estimate D2E/DX2                !
 ! A34   A(6,7,8)              112.4149         estimate D2E/DX2                !
 ! A35   A(6,7,28)             110.0308         estimate D2E/DX2                !
 ! A36   A(6,7,29)             108.7251         estimate D2E/DX2                !
 ! A37   A(8,7,28)             108.7841         estimate D2E/DX2                !
 ! A38   A(8,7,29)             110.2241         estimate D2E/DX2                !
 ! A39   A(28,7,29)            106.4917         estimate D2E/DX2                !
 ! A40   A(7,8,9)              115.3281         estimate D2E/DX2                !
 ! A41   A(7,8,30)             109.8366         estimate D2E/DX2                !
 ! A42   A(7,8,31)             108.7512         estimate D2E/DX2                !
 ! A43   A(9,8,30)             108.6925         estimate D2E/DX2                !
 ! A44   A(9,8,31)             107.2026         estimate D2E/DX2                !
 ! A45   A(30,8,31)            106.6597         estimate D2E/DX2                !
 ! A46   A(8,9,10)             112.542          estimate D2E/DX2                !
 ! A47   A(8,9,16)             105.3697         estimate D2E/DX2                !
 ! A48   A(8,9,32)             106.497          estimate D2E/DX2                !
 ! A49   A(10,9,16)            114.954          estimate D2E/DX2                !
 ! A50   A(10,9,32)            107.8213         estimate D2E/DX2                !
 ! A51   A(16,9,32)            109.3224         estimate D2E/DX2                !
 ! A52   A(9,10,11)            117.5007         estimate D2E/DX2                !
 ! A53   A(9,10,33)            109.445          estimate D2E/DX2                !
 ! A54   A(9,10,34)            106.0037         estimate D2E/DX2                !
 ! A55   A(11,10,33)           108.9319         estimate D2E/DX2                !
 ! A56   A(11,10,34)           108.0111         estimate D2E/DX2                !
 ! A57   A(33,10,34)           106.3658         estimate D2E/DX2                !
 ! A58   A(10,11,12)           116.0766         estimate D2E/DX2                !
 ! A59   A(10,11,35)           110.2124         estimate D2E/DX2                !
 ! A60   A(10,11,36)           106.9021         estimate D2E/DX2                !
 ! A61   A(12,11,35)           109.0249         estimate D2E/DX2                !
 ! A62   A(12,11,36)           108.9116         estimate D2E/DX2                !
 ! A63   A(35,11,36)           105.1307         estimate D2E/DX2                !
 ! A64   A(11,12,13)           115.2812         estimate D2E/DX2                !
 ! A65   A(11,12,37)           108.5287         estimate D2E/DX2                !
 ! A66   A(11,12,38)           110.175          estimate D2E/DX2                !
 ! A67   A(13,12,37)           106.715          estimate D2E/DX2                !
 ! A68   A(13,12,38)           110.2326         estimate D2E/DX2                !
 ! A69   A(37,12,38)           105.3666         estimate D2E/DX2                !
 ! A70   A(12,13,14)           118.8912         estimate D2E/DX2                !
 ! A71   A(12,13,39)           107.7885         estimate D2E/DX2                !
 ! A72   A(12,13,40)           108.1862         estimate D2E/DX2                !
 ! A73   A(14,13,39)           107.7663         estimate D2E/DX2                !
 ! A74   A(14,13,40)           107.8319         estimate D2E/DX2                !
 ! A75   A(39,13,40)           105.6293         estimate D2E/DX2                !
 ! A76   A(13,14,15)           116.4926         estimate D2E/DX2                !
 ! A77   A(13,14,41)           106.8195         estimate D2E/DX2                !
 ! A78   A(13,14,42)           111.2481         estimate D2E/DX2                !
 ! A79   A(15,14,41)           106.8931         estimate D2E/DX2                !
 ! A80   A(15,14,42)           109.3578         estimate D2E/DX2                !
 ! A81   A(41,14,42)           105.3126         estimate D2E/DX2                !
 ! A82   A(14,15,16)           117.0371         estimate D2E/DX2                !
 ! A83   A(14,15,43)           109.3945         estimate D2E/DX2                !
 ! A84   A(14,15,44)           109.0188         estimate D2E/DX2                !
 ! A85   A(16,15,43)           110.7135         estimate D2E/DX2                !
 ! A86   A(16,15,44)           103.6018         estimate D2E/DX2                !
 ! A87   A(43,15,44)           106.4277         estimate D2E/DX2                !
 ! A88   A(9,16,15)            120.4499         estimate D2E/DX2                !
 ! D1    D(17,1,2,3)          -179.7998         estimate D2E/DX2                !
 ! D2    D(17,1,2,20)           58.1101         estimate D2E/DX2                !
 ! D3    D(17,1,2,21)          -57.8415         estimate D2E/DX2                !
 ! D4    D(18,1,2,3)            60.052          estimate D2E/DX2                !
 ! D5    D(18,1,2,20)          -62.038          estimate D2E/DX2                !
 ! D6    D(18,1,2,21)         -177.9897         estimate D2E/DX2                !
 ! D7    D(19,1,2,3)           -59.609          estimate D2E/DX2                !
 ! D8    D(19,1,2,20)          178.301          estimate D2E/DX2                !
 ! D9    D(19,1,2,21)           62.3493         estimate D2E/DX2                !
 ! D10   D(1,2,3,4)            179.9408         estimate D2E/DX2                !
 ! D11   D(1,2,3,22)            57.3511         estimate D2E/DX2                !
 ! D12   D(1,2,3,23)           -58.0614         estimate D2E/DX2                !
 ! D13   D(20,2,3,4)           -57.5595         estimate D2E/DX2                !
 ! D14   D(20,2,3,22)          179.8508         estimate D2E/DX2                !
 ! D15   D(20,2,3,23)           64.4382         estimate D2E/DX2                !
 ! D16   D(21,2,3,4)            57.7574         estimate D2E/DX2                !
 ! D17   D(21,2,3,22)          -64.8322         estimate D2E/DX2                !
 ! D18   D(21,2,3,23)          179.7552         estimate D2E/DX2                !
 ! D19   D(2,3,4,5)             84.1728         estimate D2E/DX2                !
 ! D20   D(2,3,4,6)            155.5346         estimate D2E/DX2                !
 ! D21   D(2,3,4,24)           -59.3909         estimate D2E/DX2                !
 ! D22   D(22,3,4,5)          -153.5036         estimate D2E/DX2                !
 ! D23   D(22,3,4,6)           -82.1418         estimate D2E/DX2                !
 ! D24   D(22,3,4,24)           62.9327         estimate D2E/DX2                !
 ! D25   D(23,3,4,5)           -37.875          estimate D2E/DX2                !
 ! D26   D(23,3,4,6)            33.4868         estimate D2E/DX2                !
 ! D27   D(23,3,4,24)          178.5613         estimate D2E/DX2                !
 ! D28   D(3,4,5,25)             2.9613         estimate D2E/DX2                !
 ! D29   D(3,4,5,26)          -141.2847         estimate D2E/DX2                !
 ! D30   D(24,4,5,25)          146.1816         estimate D2E/DX2                !
 ! D31   D(24,4,5,26)            1.9356         estimate D2E/DX2                !
 ! D32   D(3,4,6,7)            140.2785         estimate D2E/DX2                !
 ! D33   D(3,4,6,27)            -3.5805         estimate D2E/DX2                !
 ! D34   D(24,4,6,7)            -4.4757         estimate D2E/DX2                !
 ! D35   D(24,4,6,27)         -148.3347         estimate D2E/DX2                !
 ! D36   D(25,5,6,7)          -141.9898         estimate D2E/DX2                !
 ! D37   D(25,5,6,27)            1.9688         estimate D2E/DX2                !
 ! D38   D(26,5,6,7)             1.9432         estimate D2E/DX2                !
 ! D39   D(26,5,6,27)          145.9018         estimate D2E/DX2                !
 ! D40   D(4,6,7,8)            -84.5549         estimate D2E/DX2                !
 ! D41   D(4,6,7,28)           154.0373         estimate D2E/DX2                !
 ! D42   D(4,6,7,29)            37.766          estimate D2E/DX2                !
 ! D43   D(5,6,7,8)           -156.0144         estimate D2E/DX2                !
 ! D44   D(5,6,7,28)            82.5778         estimate D2E/DX2                !
 ! D45   D(5,6,7,29)           -33.6935         estimate D2E/DX2                !
 ! D46   D(27,6,7,8)            59.6336         estimate D2E/DX2                !
 ! D47   D(27,6,7,28)          -61.7742         estimate D2E/DX2                !
 ! D48   D(27,6,7,29)         -178.0455         estimate D2E/DX2                !
 ! D49   D(6,7,8,9)           -174.2759         estimate D2E/DX2                !
 ! D50   D(6,7,8,30)            62.5162         estimate D2E/DX2                !
 ! D51   D(6,7,8,31)           -53.8635         estimate D2E/DX2                !
 ! D52   D(28,7,8,9)           -52.1587         estimate D2E/DX2                !
 ! D53   D(28,7,8,30)         -175.3666         estimate D2E/DX2                !
 ! D54   D(28,7,8,31)           68.2537         estimate D2E/DX2                !
 ! D55   D(29,7,8,9)            64.255          estimate D2E/DX2                !
 ! D56   D(29,7,8,30)          -58.9529         estimate D2E/DX2                !
 ! D57   D(29,7,8,31)         -175.3326         estimate D2E/DX2                !
 ! D58   D(7,8,9,10)           -64.0021         estimate D2E/DX2                !
 ! D59   D(7,8,9,16)            62.0009         estimate D2E/DX2                !
 ! D60   D(7,8,9,32)           178.0598         estimate D2E/DX2                !
 ! D61   D(30,8,9,10)           59.8097         estimate D2E/DX2                !
 ! D62   D(30,8,9,16)         -174.1873         estimate D2E/DX2                !
 ! D63   D(30,8,9,32)          -58.1284         estimate D2E/DX2                !
 ! D64   D(31,8,9,10)          174.7437         estimate D2E/DX2                !
 ! D65   D(31,8,9,16)          -59.2533         estimate D2E/DX2                !
 ! D66   D(31,8,9,32)           56.8056         estimate D2E/DX2                !
 ! D67   D(8,9,10,11)         -172.0434         estimate D2E/DX2                !
 ! D68   D(8,9,10,33)           63.0887         estimate D2E/DX2                !
 ! D69   D(8,9,10,34)          -51.2493         estimate D2E/DX2                !
 ! D70   D(16,9,10,11)          67.315          estimate D2E/DX2                !
 ! D71   D(16,9,10,33)         -57.5529         estimate D2E/DX2                !
 ! D72   D(16,9,10,34)        -171.8908         estimate D2E/DX2                !
 ! D73   D(32,9,10,11)         -54.8892         estimate D2E/DX2                !
 ! D74   D(32,9,10,33)        -179.7571         estimate D2E/DX2                !
 ! D75   D(32,9,10,34)          65.9049         estimate D2E/DX2                !
 ! D76   D(8,9,16,15)          166.8443         estimate D2E/DX2                !
 ! D77   D(10,9,16,15)         -68.6544         estimate D2E/DX2                !
 ! D78   D(32,9,16,15)          52.7363         estimate D2E/DX2                !
 ! D79   D(9,10,11,12)          41.336          estimate D2E/DX2                !
 ! D80   D(9,10,11,35)         -83.1995         estimate D2E/DX2                !
 ! D81   D(9,10,11,36)         163.0607         estimate D2E/DX2                !
 ! D82   D(33,10,11,12)        166.459          estimate D2E/DX2                !
 ! D83   D(33,10,11,35)         41.9234         estimate D2E/DX2                !
 ! D84   D(33,10,11,36)        -71.8163         estimate D2E/DX2                !
 ! D85   D(34,10,11,12)        -78.406          estimate D2E/DX2                !
 ! D86   D(34,10,11,35)        157.0585         estimate D2E/DX2                !
 ! D87   D(34,10,11,36)         43.3187         estimate D2E/DX2                !
 ! D88   D(10,11,12,13)        -96.1648         estimate D2E/DX2                !
 ! D89   D(10,11,12,37)        144.2474         estimate D2E/DX2                !
 ! D90   D(10,11,12,38)         29.3562         estimate D2E/DX2                !
 ! D91   D(35,11,12,13)         28.9789         estimate D2E/DX2                !
 ! D92   D(35,11,12,37)        -90.609          estimate D2E/DX2                !
 ! D93   D(35,11,12,38)        154.4999         estimate D2E/DX2                !
 ! D94   D(36,11,12,13)        143.1832         estimate D2E/DX2                !
 ! D95   D(36,11,12,37)         23.5954         estimate D2E/DX2                !
 ! D96   D(36,11,12,38)        -91.2958         estimate D2E/DX2                !
 ! D97   D(11,12,13,14)         63.9533         estimate D2E/DX2                !
 ! D98   D(11,12,13,39)        -58.939          estimate D2E/DX2                !
 ! D99   D(11,12,13,40)       -172.7187         estimate D2E/DX2                !
 ! D100  D(37,12,13,14)       -175.4644         estimate D2E/DX2                !
 ! D101  D(37,12,13,39)         61.6432         estimate D2E/DX2                !
 ! D102  D(37,12,13,40)        -52.1364         estimate D2E/DX2                !
 ! D103  D(38,12,13,14)        -61.538          estimate D2E/DX2                !
 ! D104  D(38,12,13,39)        175.5697         estimate D2E/DX2                !
 ! D105  D(38,12,13,40)         61.7901         estimate D2E/DX2                !
 ! D106  D(12,13,14,15)        -63.1449         estimate D2E/DX2                !
 ! D107  D(12,13,14,41)        177.5237         estimate D2E/DX2                !
 ! D108  D(12,13,14,42)         63.0955         estimate D2E/DX2                !
 ! D109  D(39,13,14,15)         59.7584         estimate D2E/DX2                !
 ! D110  D(39,13,14,41)        -59.5729         estimate D2E/DX2                !
 ! D111  D(39,13,14,42)       -174.0012         estimate D2E/DX2                !
 ! D112  D(40,13,14,15)        173.3524         estimate D2E/DX2                !
 ! D113  D(40,13,14,41)         54.0211         estimate D2E/DX2                !
 ! D114  D(40,13,14,42)        -60.4071         estimate D2E/DX2                !
 ! D115  D(13,14,15,16)         97.8028         estimate D2E/DX2                !
 ! D116  D(13,14,15,43)        -29.1135         estimate D2E/DX2                !
 ! D117  D(13,14,15,44)       -145.1204         estimate D2E/DX2                !
 ! D118  D(41,14,15,16)       -142.9056         estimate D2E/DX2                !
 ! D119  D(41,14,15,43)         90.1782         estimate D2E/DX2                !
 ! D120  D(41,14,15,44)        -25.8288         estimate D2E/DX2                !
 ! D121  D(42,14,15,16)        -29.3757         estimate D2E/DX2                !
 ! D122  D(42,14,15,43)       -156.2919         estimate D2E/DX2                !
 ! D123  D(42,14,15,44)         87.7012         estimate D2E/DX2                !
 ! D124  D(14,15,16,9)         -40.033          estimate D2E/DX2                !
 ! D125  D(43,15,16,9)          86.2347         estimate D2E/DX2                !
 ! D126  D(44,15,16,9)        -160.0265         estimate D2E/DX2                !
 --------------------------------------------------------------------------------
 Trust Radius=3.00D-01 FncErr=1.00D-07 GrdErr=1.00D-06 EigMax=2.50D+02 EigMin=1.00D-04
 Number of steps in this run=    264 maximum allowed number of steps=    264.
 GradGradGradGradGradGradGradGradGradGradGradGradGradGradGradGradGradGrad

                          Input orientation:                          
 ---------------------------------------------------------------------
 Center     Atomic      Atomic             Coordinates (Angstroms)
 Number     Number       Type             X           Y           Z
 ---------------------------------------------------------------------
      1          6           0        0.739591   -0.157975    0.439832
      2          6           0        2.200498   -0.449773    0.087440
      3          6           0        3.083172   -0.685565    1.320470
      4          6           0        4.529365   -0.976180    0.978614
      5          6           0        5.502427    0.153844    0.727615
      6          6           0        5.642080   -0.705533    1.961000
      7          6           0        6.802303   -1.668060    2.109842
      8          6           0        6.485753   -2.822542    3.072144
      9          6           0        7.662147   -3.763789    3.379857
     10          6           0        8.150692   -4.521501    2.136550
     11          6           0        9.199381   -5.634039    2.346413
     12          6           0        8.983430   -6.548183    3.572864
     13          6           0        9.772455   -6.153497    4.833794
     14          6           0        9.466602   -4.805192    5.510918
     15          6           0        9.746884   -3.538688    4.678671
     16          8           0        8.642224   -2.948703    4.009047
     17          1           0        0.134506    0.002196   -0.458176
     18          1           0        0.654113    0.739747    1.062637
     19          1           0        0.292671   -0.988371    0.998226
     20          1           0        2.615115    0.381813   -0.496219
     21          1           0        2.251334   -1.331636   -0.565049
     22          1           0        2.667894   -1.516820    1.908192
     23          1           0        3.037358    0.197473    1.972862
     24          1           0        4.670274   -1.855577    0.351494
     25          1           0        5.141918    1.170822    0.848870
     26          1           0        6.239455    0.037210   -0.060695
     27          1           0        5.331412   -0.235806    2.892979
     28          1           0        7.686905   -1.135682    2.476449
     29          1           0        7.063455   -2.060792    1.119207
     30          1           0        5.652924   -3.417910    2.678060
     31          1           0        6.147850   -2.402789    4.027218
     32          1           0        7.288313   -4.505573    4.100847
     33          1           0        8.533838   -3.806151    1.400676
     34          1           0        7.256877   -4.977257    1.688947
     35          1           0       10.204827   -5.201996    2.395685
     36          1           0        9.196661   -6.249676    1.439614
     37          1           0        9.298053   -7.564738    3.309371
     38          1           0        7.912804   -6.625589    3.803620
     39          1           0       10.841782   -6.165738    4.578439
     40          1           0        9.638368   -6.943908    5.583109
     41          1           0       10.101443   -4.747038    6.403425
     42          1           0        8.436574   -4.773298    5.885636
     43          1           0       10.568111   -3.739085    3.973230
     44          1           0       10.098320   -2.743904    5.345495
 ---------------------------------------------------------------------
                    Distance matrix (angstroms):
                    1          2          3          4          5
     1  C    0.000000
     2  C    1.530874   0.000000
     3  C    2.558563   1.534625   0.000000
     4  C    3.914349   2.548512   1.514198   0.000000
     5  C    4.781700   3.417150   2.628475   1.512218   0.000000
     6  C    5.162187   3.926847   2.637933   1.508797   1.509724
     7  C    6.467284   5.172132   3.926875   2.631468   2.630506
     8  C    6.859108   5.736019   4.383218   3.408721   3.914412
     9  C    8.340709   7.186955   5.889274   4.832293   5.200637
    10  C    8.766050   7.495508   6.407820   5.198474   5.554931
    11  C   10.256236   8.997997   7.933976   6.736140   7.056030
    12  C   10.890892   9.764577   8.617228   7.590524   8.070315
    13  C   11.698112  10.601645   9.326748   8.316070   8.653114
    14  C   11.111852  10.058830   8.676368   7.718771   7.949006
    15  C   10.513244   9.357817   7.988923   6.890528   6.874667
    16  O    9.109285   7.944778   6.576725   5.476311   5.500174
    17  H    1.094624   2.184101   3.511585   4.726137   5.499425
    18  H    1.095945   2.181117   2.828130   4.238990   4.895066
    19  H    1.095947   2.181610   2.825318   4.236756   5.340360
    20  H    2.164521   1.097315   2.158410   2.771936   3.144251
    21  H    2.161627   1.098184   2.159756   2.774647   3.800952
    22  H    2.778649   2.161524   1.099480   2.149763   3.495634
    23  H    2.785006   2.161962   1.098850   2.142913   2.762084
    24  H    4.282514   2.854085   2.196984   1.089255   2.207197
    25  H    4.616654   3.443552   2.811942   2.236442   1.085778
    26  H    5.526041   4.070906   3.520248   2.243108   1.085471
    27  H    5.206612   4.209448   2.780225   2.203684   2.206779
    28  H    7.305402   6.023164   4.767941   3.498430   3.081110
    29  H    6.638789   5.225732   4.215971   2.760030   2.737657
    30  H    6.306955   5.238358   3.989033   3.180023   4.072384
    31  H    6.867152   5.909120   4.434816   3.734794   4.223780
    32  H    8.671240   7.644790   6.325043   5.460472   6.023142
    33  H    8.659255   7.287047   6.281262   4.921654   5.032298
    34  H    8.201267   6.973515   5.997850   4.894131   5.507309
    35  H   10.902211   9.590668   8.501307   7.216404   7.319839
    36  H   10.470454   9.187685   8.267302   7.057332   7.426936
    37  H   11.676543  10.553618   9.481745   8.460610   8.980464
    38  H   10.227418   9.196801   8.048308   7.165483   7.825116
    39  H   12.460961  11.292171  10.042046   8.929550   9.125496
    40  H   12.316267  11.300358  10.015366   9.105881   9.542532
    41  H   12.011170  10.990136   9.570169   8.642685   8.796841
    42  H   10.497692   9.549900   8.136905   7.332343   7.713049
    43  H   11.041243   9.794686   8.507963   7.284767   7.165896
    44  H   10.878344   9.761443   8.345651   7.294365   7.130497
                    6          7          8          9         10
     6  C    0.000000
     7  C    1.514836   0.000000
     8  C    2.535381   1.535923   0.000000
     9  C    3.930236   2.596989   1.537704   0.000000
    10  C    4.570073   3.156104   2.556134   1.535780   0.000000
    11  C    6.090411   4.640145   3.974289   2.632287   1.543221
    12  C    6.920931   5.541962   4.513259   3.088024   2.619903
    13  C    7.415744   6.029997   5.000108   3.504003   3.545229
    14  C    6.635970   5.339233   4.331740   2.980268   3.632968
    15  C    5.679958   4.332284   3.705235   2.466519   3.158501
    16  O    4.269330   2.938084   2.354585   1.421547   2.494303
    17  H    6.056952   7.337846   7.796195   9.250866   9.563246
    18  H    5.270266   6.685388   7.122925   8.646611   9.221319
    19  H    5.442711   6.638748   6.783774   8.227045   8.690643
    20  H    4.047563   5.340981   6.163031   7.594900   7.849622
    21  H    4.274352   5.289569   5.777741   7.124223   7.230235
    22  H    3.083304   4.142086   4.199494   5.670734   6.256303
    23  H    2.756835   4.204021   4.713846   6.249792   6.960007
    24  H    2.203978   2.769928   3.410708   4.665143   4.733591
    25  H    2.237790   3.522241   4.764011   6.091620   6.566079
    26  H    2.235123   2.817086   4.248945   5.320625   5.409488
    27  H    1.088918   2.197311   2.838276   4.256294   5.185336
    28  H    2.152214   1.095604   2.154789   2.779156   3.434298
    29  H    2.136738   1.097177   2.174389   2.892952   2.876136
    30  H    2.805581   2.169313   1.096982   2.156183   2.783880
    31  H    2.721348   2.155102   1.096602   2.136467   3.474902
    32  H    4.661473   3.500255   2.129536   1.099919   2.145324
    33  H    4.276688   2.841226   2.820628   2.163053   1.095462
    34  H    4.574845   3.366686   2.674072   2.120360   1.098620
    35  H    6.420732   4.914019   4.466644   3.082573   2.179380
    36  H    6.606392   5.212808   4.664699   3.506981   2.136904
    37  H    7.888786   6.514480   5.518489   4.138644   3.457345
    38  H    6.602917   5.355296   4.127311   2.903843   2.694977
    39  H    7.981337   6.529967   5.693933   4.161255   3.988522
    40  H    8.246655   6.923975   5.764510   4.344298   4.467663
    41  H    7.480296   6.228907   5.279614   4.007356   4.697076
    42  H    6.305448   5.154606   3.940417   2.810298   3.768392
    43  H    6.125136   4.684300   4.279912   2.966029   3.135201
    44  H    5.955488   4.742428   4.269068   3.292239   4.153365
                   11         12         13         14         15
    11  C    0.000000
    12  C    1.544822   0.000000
    13  C    2.604863   1.538922   0.000000
    14  C    3.282146   2.650947   1.539470   0.000000
    15  C    3.182716   3.295865   2.619531   1.541177   0.000000
    16  O    3.207149   3.641831   3.496903   2.526216   1.420124
    17  H   11.036523  11.724343  12.601094  12.075971  11.459619
    18  H   10.737543  11.348686  12.036719  11.322257  10.679850
    19  H   10.135547  10.633417  11.456719  10.912997  10.460971
    20  H    9.360747  10.253668  11.061050  10.484922   9.644270
    21  H    8.675405   9.468675  10.438636  10.052018   9.410151
    22  H    7.733295   8.244498   8.974002   8.367524   7.866105
    23  H    8.492150   9.133436   9.689236   8.881423   8.142361
    24  H    6.226499   7.141505   8.037125   7.637058   6.879629
    25  H    8.062989   9.042146   9.537670   8.726416   7.619224
    26  H    6.835086   8.006219   8.646558   8.056439   6.895701
    27  H    6.663395   7.324314   7.649097   6.695722   5.796043
    28  H    4.747600   5.672589   5.923264   5.083368   3.855870
    29  H    4.340082   5.462912   6.155247   5.709113   4.696249
    30  H    4.195065   4.657419   5.394549   4.949118   4.558238
    31  H    4.751624   5.042940   5.277892   4.357411   3.829844
    32  H    2.829074   2.706371   3.069826   2.612090   2.704315
    33  H    2.162994   3.526935   4.339413   4.331538   3.505462
    34  H    2.153357   2.999656   4.195442   4.418139   4.148260
    35  H    1.095450   2.165589   2.652672   3.226004   2.861526
    36  H    1.096039   2.164562   3.444016   4.328385   4.259541
    37  H    2.159773   1.096267   2.130851   3.534163   4.276156
    38  H    2.182179   1.097944   2.177713   2.939898   3.695744
    39  H    2.821724   2.147305   1.099462   2.147492   2.847848
    40  H    3.519186   2.150960   1.097362   2.146816   3.524955
    41  H    4.249686   3.536403   2.133096   1.096802   2.135555
    42  H    3.721404   2.966173   2.189954   1.096534   2.167472
    43  H    2.847948   3.250005   2.683845   2.171265   1.101008
    44  H    4.260923   4.342549   3.463141   2.162254   1.095374
                   16         17         18         19         20
    16  O    0.000000
    17  H   10.052122   0.000000
    18  H    9.278788   1.768288   0.000000
    19  H    9.089718   1.768431   1.766686   0.000000
    20  H    8.228961   2.509776   2.530549   3.082939   0.000000
    21  H    8.023761   2.504295   3.080763   2.529431   1.752992
    22  H    6.492804   3.784860   3.140441   2.597879   3.064112
    23  H    6.742329   3.791389   2.608146   3.144749   2.511699
    24  H    5.508994   4.967905   4.834354   4.509292   3.154078
    25  H    6.261737   5.305490   4.513526   5.310331   2.969264
    26  H    5.590329   6.117975   5.740338   6.126775   3.666643
    27  H    4.423448   6.188272   5.116540   5.435563   4.387070
    28  H    2.559011   8.182025   7.414598   7.541985   6.071458
    29  H    3.410583   7.399621   6.994704   6.856255   5.325753
    30  H    3.305691   7.210135   6.699539   6.120197   5.808806
    31  H    2.553479   7.878008   6.988949   6.742290   6.379318
    32  H    2.065272   9.606333   8.986473   8.422349   8.176694
    33  H    2.747829   9.407849   9.103270   8.718869   7.494567
    34  H    3.378917   8.951718   8.756305   8.055337   7.418931
    35  H    3.181508  11.689291  11.326847  10.860864   9.856255
    36  H    4.219693  11.171847  11.043970  10.351675   9.541532
    37  H    4.714598  12.466896  12.195490  11.388015  11.058564
    38  H    3.754164  11.072144  10.698119   9.885084   9.780481
    39  H    3.938474  13.343788  12.799812  12.284412  11.674786
    40  H    4.408133  13.231360  12.656621  11.992982  11.830068
    41  H    3.331122  12.999101  12.160628  11.813372  11.399794
    42  H    2.625457  11.487978  10.687455  10.224265  10.059454
    43  H    2.082072  11.937112  11.261387  11.045439  10.010390
    44  H    1.987021  11.853323  10.939458  10.868827   9.994703
                   21         22         23         24         25
    21  H    0.000000
    22  H    2.514903   0.000000
    23  H    3.065453   1.754847   0.000000
    24  H    2.639287   2.558826   3.083872   0.000000
    25  H    4.076388   3.803469   2.576808   3.103051   0.000000
    26  H    4.246554   4.364353   3.796639   2.492965   1.821256
    27  H    4.758748   3.115306   2.509388   3.085435   2.488553
    28  H    6.231737   5.065438   4.863044   3.759488   3.800781
    29  H    5.150232   4.498818   4.694459   2.521669   3.769446
    30  H    5.142092   3.621774   4.517686   2.969747   4.966239
    31  H    6.117116   4.169568   4.544986   3.999202   4.887176
    32  H    7.564101   5.923567   6.687120   5.285287   6.885044
    33  H    7.032578   6.317271   6.824053   4.453386   6.048130
    34  H    6.589879   5.751648   6.683022   4.268979   6.555735
    35  H    9.327577   8.403781   8.983633   6.782958   8.284836
    36  H    8.743189   8.077394   8.932363   6.401585   8.476657
    37  H   10.174426   9.082930  10.061535   7.922114   9.981860
    38  H    8.897384   7.563151   8.583463   6.721919   8.785920
    39  H   11.118445   9.775229  10.401371   8.633196  10.011157
    40  H   11.129498   9.567958  10.373358   8.828526  10.415370
    41  H   11.038515   9.268176   9.694296   8.630412   9.511627
    42  H    9.576720   7.726732   8.316844   7.302386   8.459098
    43  H    9.775508   8.462640   8.729845   7.172800   7.956908
    44  H    9.924929   8.278407   8.359638   7.429190   7.753106
                   26         27         28         29         30
    26  H    0.000000
    27  H    3.102140   0.000000
    28  H    3.147680   2.555704   0.000000
    29  H    2.544162   3.078444   1.756880   0.000000
    30  H    4.447769   3.205518   3.063705   2.502276   0.000000
    31  H    4.761619   2.578542   2.525695   3.067869   1.759445
    32  H    6.249433   4.849671   3.762142   3.862343   2.425248
    33  H    4.708632   5.022933   3.000997   2.299462   3.175233
    34  H    5.407520   5.257229   3.944969   2.977882   2.445929
    35  H    7.014789   6.975709   4.783447   4.622205   4.897195
    36  H    7.107808   7.295139   5.432065   4.711685   4.702203
    37  H    8.860134   8.343912   6.679994   6.331166   5.557130
    38  H    7.882000   6.951416   5.652565   5.363286   4.082052
    39  H    9.009969   8.268558   6.298657   6.564497   6.171405
    40  H    9.599018   8.413400   6.869864   7.099396   6.062651
    41  H    8.921257   7.444974   5.856025   6.660950   5.952667
    42  H    7.957837   6.259941   5.041509   5.653494   4.458063
    43  H    7.019275   6.392411   4.161659   4.821279   5.093101
    44  H    7.200856   5.918514   4.078324   5.247720   5.227909
                   31         32         33         34         35
    31  H    0.000000
    32  H    2.393278   0.000000
    33  H    3.815899   3.054742   0.000000
    34  H    3.650388   2.457791   1.756480   0.000000
    35  H    5.191968   3.449440   2.393874   3.039802   0.000000
    36  H    5.548827   3.710236   2.532127   2.333234   1.740145
    37  H    6.089730   3.744861   4.284171   3.672496   2.690652
    38  H    4.582260   2.229978   3.756203   2.760268   3.043397
    39  H    6.041245   3.951125   4.581750   4.755333   2.469600
    40  H    5.935174   3.696666   5.343993   4.970283   3.676249
    41  H    5.174241   3.643332   5.326363   5.510976   4.034805
    42  H    3.783027   2.139078   4.589085   4.364113   3.935766
    43  H    4.618150   3.370588   3.280365   4.208953   2.181910
    44  H    4.178568   3.542424   4.374651   5.141207   3.841216
                   36         37         38         39         40
    36  H    0.000000
    37  H    2.288156   0.000000
    38  H    2.716270   1.745050   0.000000
    39  H    3.544812   2.439433   3.064429   0.000000
    40  H    4.224407   2.381414   2.499096   1.750176   0.000000
    41  H    5.264596   4.261225   3.883051   2.427217   2.390312
    42  H    4.746002   3.895052   2.835509   3.071267   2.499476
    43  H    3.821407   4.085263   3.925727   2.515913   3.705000
    44  H    5.325348   5.294022   4.713952   3.584698   4.231791
                   41         42         43         44
    41  H    0.000000
    42  H    1.743727   0.000000
    43  H    2.672002   3.044723   0.000000
    44  H    2.265341   2.677982   1.759034   0.000000
 Stoichiometry    C15H28O
 Framework group  C1[X(C15H28O)]
 Deg. of freedom   126
 Full point group                 C1      NOp   1
 Largest Abelian subgroup         C1      NOp   1
 Largest concise Abelian subgroup C1      NOp   1
                         Standard orientation:                         
 ---------------------------------------------------------------------
 Center     Atomic      Atomic             Coordinates (Angstroms)
 Number     Number       Type             X           Y           Z
 ---------------------------------------------------------------------
      1          6           0       -6.660330    1.051974   -0.999704
      2          6           0       -5.558038    0.793724    0.030749
      3          6           0       -4.293935    0.174206   -0.580248
      4          6           0       -3.199050   -0.082462    0.433726
      5          6           0       -3.197006   -1.349363    1.259417
      6          6           0       -2.140420   -1.132495    0.203074
      7          6           0       -0.696850   -0.882327    0.588108
      8          6           0        0.078125   -0.128632   -0.502954
      9          6           0        1.584123    0.040567   -0.242423
     10          6           0        1.874347    0.902065    0.995401
     11          6           0        3.341523    1.303032    1.256464
     12          6           0        4.162476    1.720193    0.016106
     13          6           0        5.022730    0.606916   -0.607477
     14          6           0        4.322500   -0.622820   -1.213609
     15          6           0        3.510183   -1.500214   -0.241218
     16          8           0        2.108183   -1.279832   -0.190428
     17          1           0       -7.546715    1.496594   -0.536200
     18          1           0       -6.971928    0.121582   -1.487938
     19          1           0       -6.317324    1.735451   -1.784756
     20          1           0       -5.935461    0.132058    0.820590
     21          1           0       -5.292354    1.736305    0.527701
     22          1           0       -3.915592    0.834439   -1.373852
     23          1           0       -4.556587   -0.771469   -1.074397
     24          1           0       -2.858196    0.810489    0.956155
     25          1           0       -3.973473   -2.083144    1.065562
     26          1           0       -2.896431   -1.288488    2.300664
     27          1           0       -2.263057   -1.720407   -0.705256
     28          1           0       -0.191149   -1.833731    0.786714
     29          1           0       -0.675959   -0.316385    1.527827
     30          1           0       -0.365521    0.862692   -0.657303
     31          1           0       -0.028233   -0.671539   -1.449779
     32          1           0        1.996197    0.561416   -1.119197
     33          1           0        1.477823    0.404475    1.887147
     34          1           0        1.288166    1.822468    0.868056
     35          1           0        3.867454    0.495821    1.777825
     36          1           0        3.322250    2.137511    1.966797
     37          1           0        4.849153    2.523735    0.306962
     38          1           0        3.503520    2.161258   -0.743314
     39          1           0        5.720235    0.249638    0.163662
     40          1           0        5.649801    1.055437   -1.388383
     41          1           0        5.109089   -1.259679   -1.636295
     42          1           0        3.689966   -0.341052   -2.063841
     43          1           0        3.951328   -1.435188    0.765451
     44          1           0        3.595268   -2.547820   -0.549643
 ---------------------------------------------------------------------
 Rotational constants (GHZ):           1.2710768           0.1566552           0.1517177
 Standard basis: 6-31+G(2df,p) (6D, 7F)
 There are   700 symmetry adapted cartesian basis functions of A   symmetry.
 There are   652 symmetry adapted basis functions of A   symmetry.
   652 basis functions,   964 primitive gaussians,   700 cartesian basis functions
    63 alpha electrons       63 beta electrons
       nuclear repulsion energy      1130.2354132574 Hartrees.
 NAtoms=   44 NActive=   44 NUniq=   44 SFac= 1.00D+00 NAtFMM=   60 NAOKFM=F Big=F
 Integral buffers will be    131072 words long.
 Regular integral format.
 Two-electron integral symmetry is turned on.
 One-electron integrals computed using PRISM.
 PrsmSu:  requested number of processors reduced to:  12 ShMem   1 Linda.
 NBasis=   652 RedAO= T EigKep=  3.20D-06  NBF=   652
 NBsUse=   652 1.00D-06 EigRej= -1.00D+00 NBFU=   652
 ExpMin= 4.38D-02 ExpMax= 5.48D+03 ExpMxC= 8.25D+02 IAcc=3 IRadAn=         5 AccDes= 0.00D+00
 Harris functional with IExCor=  402 and IRadAn=       5 diagonalized for initial guess.
 HarFok:  IExCor=  402 AccDes= 0.00D+00 IRadAn=         5 IDoV= 1 UseB2=F ITyADJ=14
 ICtDFT=  3500011 ScaDFX=  1.000000  1.000000  1.000000  1.000000
 FoFCou: FMM=F IPFlag=           0 FMFlag=      100000 FMFlg1=           0
         NFxFlg=           0 DoJE=T BraDBF=F KetDBF=T FulRan=T
         wScrn=  0.000000 ICntrl=       500 IOpCl=  0 I1Cent=   200000004 NGrid=           0
         NMat0=    1 NMatS0=      1 NMatT0=    0 NMatD0=    1 NMtDS0=    0 NMtDT0=    0
 Petite list used in FoFCou.
 Requested convergence on RMS density matrix=1.00D-08 within 128 cycles.
 Requested convergence on MAX density matrix=1.00D-06.
 Requested convergence on             energy=1.00D-06.
 No special actions if energy rises.
 SCF Done:  E(RB3LYP) =  -663.720514311     A.U. after   13 cycles
            NFock= 13  Conv=0.14D-08     -V/T= 2.0088
 DoSCS=F DFT=T ScalE2(SS,OS)=  1.000000  1.000000
 ExpMin= 4.38D-02 ExpMax= 5.48D+03 ExpMxC= 8.25D+02 IAcc=3 IRadAn=         5 AccDes= 0.00D+00
 HarFok:  IExCor=  205 AccDes= 0.00D+00 IRadAn=         5 IDoV=-2 UseB2=F ITyADJ=14
 ICtDFT= 12500011 ScaDFX=  1.000000  1.000000  1.000000  1.000000
 Range of M.O.s used for correlation:    17   652
 NBasis=   652 NAE=    63 NBE=    63 NFC=    16 NFV=     0
 NROrb=    636 NOA=    47 NOB=    47 NVA=   589 NVB=   589

 **** Warning!!: The largest alpha MO coefficient is  0.87084042D+02

 Orbital symmetries:
       Occupied  (A) (A) (A) (A) (A) (A) (A) (A) (A) (A) (A) (A)
                 (A) (A) (A) (A) (A) (A) (A) (A) (A) (A) (A) (A)
                 (A) (A) (A) (A) (A) (A) (A) (A) (A) (A) (A) (A)
                 (A) (A) (A) (A) (A) (A) (A) (A) (A) (A) (A) (A)
                 (A) (A) (A) (A) (A) (A) (A) (A) (A) (A) (A) (A)
                 (A) (A) (A)
       Virtual   (A) (A) (A) (A) (A) (A) (A) (A) (A) (A) (A) (A)
                 (A) (A) (A) (A) (A) (A) (A) (A) (A) (A) (A) (A)
                 (A) (A) (A) (A) (A) (A) (A) (A) (A) (A) (A) (A)
                 (A) (A) (A) (A) (A) (A) (A) (A) (A) (A) (A) (A)
                 (A) (A) (A) (A) (A) (A) (A) (A) (A) (A) (A) (A)
                 (A) (A) (A) (A) (A) (A) (A) (A) (A) (A) (A) (A)
                 (A) (A) (A) (A) (A) (A) (A) (A) (A) (A) (A) (A)
                 (A) (A) (A) (A) (A) (A) (A) (A) (A) (A) (A) (A)
                 (A) (A) (A) (A) (A) (A) (A) (A) (A) (A) (A) (A)
                 (A) (A) (A) (A) (A) (A) (A) (A) (A) (A) (A) (A)
                 (A) (A) (A) (A) (A) (A) (A) (A) (A) (A) (A) (A)
                 (A) (A) (A) (A) (A) (A) (A) (A) (A) (A) (A) (A)
                 (A) (A) (A) (A) (A) (A) (A) (A) (A) (A) (A) (A)
                 (A) (A) (A) (A) (A) (A) (A) (A) (A) (A) (A) (A)
                 (A) (A) (A) (A) (A) (A) (A) (A) (A) (A) (A) (A)
                 (A) (A) (A) (A) (A) (A) (A) (A) (A) (A) (A) (A)
                 (A) (A) (A) (A) (A) (A) (A) (A) (A) (A) (A) (A)
                 (A) (A) (A) (A) (A) (A) (A) (A) (A) (A) (A) (A)
                 (A) (A) (A) (A) (A) (A) (A) (A) (A) (A) (A) (A)
                 (A) (A) (A) (A) (A) (A) (A) (A) (A) (A) (A) (A)
                 (A) (A) (A) (A) (A) (A) (A) (A) (A) (A) (A) (A)
                 (A) (A) (A) (A) (A) (A) (A) (A) (A) (A) (A) (A)
                 (A) (A) (A) (A) (A) (A) (A) (A) (A) (A) (A) (A)
                 (A) (A) (A) (A) (A) (A) (A) (A) (A) (A) (A) (A)
                 (A) (A) (A) (A) (A) (A) (A) (A) (A) (A) (A) (A)
                 (A) (A) (A) (A) (A) (A) (A) (A) (A) (A) (A) (A)
                 (A) (A) (A) (A) (A) (A) (A) (A) (A) (A) (A) (A)
                 (A) (A) (A) (A) (A) (A) (A) (A) (A) (A) (A) (A)
                 (A) (A) (A) (A) (A) (A) (A) (A) (A) (A) (A) (A)
                 (A) (A) (A) (A) (A) (A) (A) (A) (A) (A) (A) (A)
                 (A) (A) (A) (A) (A) (A) (A) (A) (A) (A) (A) (A)
                 (A) (A) (A) (A) (A) (A) (A) (A) (A) (A) (A) (A)
                 (A) (A) (A) (A) (A) (A) (A) (A) (A) (A) (A) (A)
                 (A) (A) (A) (A) (A) (A) (A) (A) (A) (A) (A) (A)
                 (A) (A) (A) (A) (A) (A) (A) (A) (A) (A) (A) (A)
                 (A) (A) (A) (A) (A) (A) (A) (A) (A) (A) (A) (A)
                 (A) (A) (A) (A) (A) (A) (A) (A) (A) (A) (A) (A)
                 (A) (A) (A) (A) (A) (A) (A) (A) (A) (A) (A) (A)
                 (A) (A) (A) (A) (A) (A) (A) (A) (A) (A) (A) (A)
                 (A) (A) (A) (A) (A) (A) (A) (A) (A) (A) (A) (A)
                 (A) (A) (A) (A) (A) (A) (A) (A) (A) (A) (A) (A)
                 (A) (A) (A) (A) (A) (A) (A) (A) (A) (A) (A) (A)
                 (A) (A) (A) (A) (A) (A) (A) (A) (A) (A) (A) (A)
                 (A) (A) (A) (A) (A) (A) (A) (A) (A) (A) (A) (A)
                 (A) (A) (A) (A) (A) (A) (A) (A) (A) (A) (A) (A)
                 (A) (A) (A) (A) (A) (A) (A) (A) (A) (A) (A) (A)
                 (A) (A) (A) (A) (A) (A) (A) (A) (A) (A) (A) (A)
                 (A) (A) (A) (A) (A) (A) (A) (A) (A) (A) (A) (A)
                 (A) (A) (A) (A) (A) (A) (A) (A) (A) (A) (A) (A)
                 (A)
    40 initial guesses have been made.
 Convergence on wavefunction:    0.000001000000000
 Iteration     1 Dimension    40 NMult     0 NNew     40
 CISAX will form     2 AO SS matrices at one time.
 New state      6 was old state      7
 New state      7 was old state      6
 New state      8 was old state     10
 New state     10 was old state      8
 Iteration     2 Dimension    60 NMult    40 NNew     20
 Iteration     3 Dimension    80 NMult    60 NNew     20
 Iteration     4 Dimension   100 NMult    80 NNew     20
 Iteration     5 Dimension   120 NMult   100 NNew     20
 Iteration     6 Dimension   140 NMult   120 NNew     20
 Iteration     7 Dimension   160 NMult   140 NNew     20
 Iteration     8 Dimension   180 NMult   160 NNew     20
 Iteration     9 Dimension   200 NMult   180 NNew     20
slurmstepd: error: *** JOB 27500707 ON lewis4-r630-hpc4-node539 CANCELLED AT 2023-05-26T00:16:55 DUE TO TIME LIMIT ***
