### Starting Gaussian ###
 Entering Gaussian System, Link 0=g16
 Initial command:
 /cluster/software/gaussian/gaussian-16-A.03/avx2/g16/l1.exe "/local/scratch/yxie/Gau-15301.inp" -scrdir="/local/scratch/yxie/"
 Entering Link 1 = /cluster/software/gaussian/gaussian-16-A.03/avx2/g16/l1.exe PID=     15302.
  
 Copyright (c) 1988,1990,1992,1993,1995,1998,2003,2009,2016,
            Gaussian, Inc.  All Rights Reserved.
  
 This is part of the Gaussian(R) 16 program.  It is based on
 the Gaussian(R) 09 system (copyright 2009, Gaussian, Inc.),
 the Gaussian(R) 03 system (copyright 2003, Gaussian, Inc.),
 the Gaussian(R) 98 system (copyright 1998, Gaussian, Inc.),
 the Gaussian(R) 94 system (copyright 1995, Gaussian, Inc.),
 the Gaussian 92(TM) system (copyright 1992, Gaussian, Inc.),
 the Gaussian 90(TM) system (copyright 1990, Gaussian, Inc.),
 the Gaussian 88(TM) system (copyright 1988, Gaussian, Inc.),
 the Gaussian 86(TM) system (copyright 1986, Carnegie Mellon
 University), and the Gaussian 82(TM) system (copyright 1983,
 Carnegie Mellon University). Gaussian is a federally registered
 trademark of Gaussian, Inc.
  
 This software contains proprietary and confidential information,
 including trade secrets, belonging to Gaussian, Inc.
  
 This software is provided under written license and may be
 used, copied, transmitted, or stored only in accord with that
 written license.
  
 The following legend is applicable only to US Government
 contracts under FAR:
  
                    RESTRICTED RIGHTS LEGEND
  
 Use, reproduction and disclosure by the US Government is
 subject to restrictions as set forth in subparagraphs (a)
 and (c) of the Commercial Computer Software - Restricted
 Rights clause in FAR 52.227-19.
  
 Gaussian, Inc.
 340 Quinnipiac St., Bldg. 40, Wallingford CT 06492
  
  
 ---------------------------------------------------------------
 Warning -- This program may not be used in any manner that
 competes with the business of Gaussian, Inc. or will provide
 assistance to any competitor of Gaussian, Inc.  The licensee
 of this program is prohibited from giving any competitor of
 Gaussian, Inc. access to this program.  By using this program,
 the user acknowledges that Gaussian, Inc. is engaged in the
 business of creating and licensing software in the field of
 computational chemistry and represents and warrants to the
 licensee that it is not a competitor of Gaussian, Inc. and that
 it will not use this program in any manner prohibited above.
 ---------------------------------------------------------------
  

 Cite this work as:
 Gaussian 16, Revision A.03,
 M. J. Frisch, G. W. Trucks, H. B. Schlegel, G. E. Scuseria, 
 M. A. Robb, J. R. Cheeseman, G. Scalmani, V. Barone, 
 G. A. Petersson, H. Nakatsuji, X. Li, M. Caricato, A. V. Marenich, 
 J. Bloino, B. G. Janesko, R. Gomperts, B. Mennucci, H. P. Hratchian, 
 J. V. Ortiz, A. F. Izmaylov, J. L. Sonnenberg, D. Williams-Young, 
 F. Ding, F. Lipparini, F. Egidi, J. Goings, B. Peng, A. Petrone, 
 T. Henderson, D. Ranasinghe, V. G. Zakrzewski, J. Gao, N. Rega, 
 G. Zheng, W. Liang, M. Hada, M. Ehara, K. Toyota, R. Fukuda, 
 J. Hasegawa, M. Ishida, T. Nakajima, Y. Honda, O. Kitao, H. Nakai, 
 T. Vreven, K. Throssell, J. A. Montgomery, Jr., J. E. Peralta, 
 F. Ogliaro, M. J. Bearpark, J. J. Heyd, E. N. Brothers, K. N. Kudin, 
 V. N. Staroverov, T. A. Keith, R. Kobayashi, J. Normand, 
 K. Raghavachari, A. P. Rendell, J. C. Burant, S. S. Iyengar, 
 J. Tomasi, M. Cossi, J. M. Millam, M. Klene, C. Adamo, R. Cammi, 
 J. W. Ochterski, R. L. Martin, K. Morokuma, O. Farkas, 
 J. B. Foresman, and D. J. Fox, Gaussian, Inc., Wallingford CT, 2016.
 
 ******************************************
 Gaussian 16:  ES64L-G16RevA.03 25-Dec-2016
                23-May-2023 
 ******************************************
 %chk=CCCCqCrqCCrNNqOrCO.chk
 %NProcShared=20
 Will use up to   20 processors via shared memory.
 -----------------------------
 # opt freq b3lyp/6-31g(2df,p)
 -----------------------------
 1/18=20,19=15,26=3,38=1/1,3;
 2/9=110,12=2,17=6,18=5,40=1/2;
 3/5=1,6=6,7=104,11=2,25=1,30=1,71=1,74=-5/1,2,3;
 4//1;
 5/5=2,38=5/2;
 6/7=2,8=2,9=2,10=2,28=1/1;
 7//1,2,3,16;
 1/18=20,19=15,26=3/3(2);
 2/9=110/2;
 99//99;
 2/9=110/2;
 3/5=1,6=6,7=104,11=2,25=1,30=1,71=1,74=-5/1,2,3;
 4/5=5,16=3,69=1/1;
 5/5=2,38=5/2;
 7//1,2,3,16;
 1/18=20,19=15,26=3/3(-5);
 2/9=110/2;
 6/7=2,8=2,9=2,10=2,19=2,28=1/1;
 99/9=1/99;
 -------------------
 Title Card Required
 -------------------
 Symbolic Z-matrix:
 Charge =  0 Multiplicity = 1
 C                     0.80903  -0.11307   0.02987 
 C                     2.31988  -0.07904  -0.01472 
 C                     3.04043  -0.5488    1.25428 
 C                     4.6111   -0.44326   1.19262 
 C                     5.14154  -1.36827   0.07633 
 C                     5.05565   1.04759   1.00035 
 C                     4.77261   1.79795  -0.29675 
 N                     5.1037   -0.96876   2.52555 
 N                     6.56663  -1.06535   2.61267 
 O                     7.15588   0.25512   2.75711 
 C                     6.97321  -1.71282   3.87459 
 O                     8.39168  -1.8362    3.92387 
 H                     0.42732   0.31868  -0.90415 
 H                     0.43712   0.50763   0.85053 
 H                     0.42369  -1.12789   0.12743 
 H                     2.52344   0.96856  -0.16945 
 H                     2.67409  -0.62266  -0.89468 
 H                     2.74366  -1.58852   1.45493 
 H                     2.67458   0.04073   2.10663 
 H                     4.80865  -1.05433  -0.91557 
 H                     4.79657  -2.4001    0.2213 
 H                     6.23605  -1.38636   0.04566 
 H                     6.13954   1.09496   1.02513 
 H                     4.69068   1.64475   1.84675 
 H                     4.91924   1.16755  -1.17601 
 H                     5.46139   2.64552  -0.37673 
 H                     3.78854   2.2645   -0.3236 
 H                     4.70267  -1.90536   2.64412 
 H                     7.64848   0.31189   1.9156 
 H                     6.56829  -2.72613   3.94794 
 H                     6.64951  -1.13962   4.75093 
 H                     8.63767  -2.08698   3.02006 
 

 GradGradGradGradGradGradGradGradGradGradGradGradGradGradGradGradGradGrad
 Berny optimization.
 Initialization pass.
                           ----------------------------
                           !    Initial Parameters    !
                           ! (Angstroms and Degrees)  !
 --------------------------                            --------------------------
 ! Name  Definition              Value          Derivative Info.                !
 --------------------------------------------------------------------------------
 ! R1    R(1,2)                  1.5119         estimate D2E/DX2                !
 ! R2    R(1,13)                 1.0975         estimate D2E/DX2                !
 ! R3    R(1,14)                 1.0941         estimate D2E/DX2                !
 ! R4    R(1,15)                 1.0899         estimate D2E/DX2                !
 ! R5    R(2,3)                  1.533          estimate D2E/DX2                !
 ! R6    R(2,16)                 1.0784         estimate D2E/DX2                !
 ! R7    R(2,17)                 1.0933         estimate D2E/DX2                !
 ! R8    R(3,4)                  1.5754         estimate D2E/DX2                !
 ! R9    R(3,18)                 1.0997         estimate D2E/DX2                !
 ! R10   R(3,19)                 1.099          estimate D2E/DX2                !
 ! R11   R(4,5)                  1.5437         estimate D2E/DX2                !
 ! R12   R(4,6)                  1.5676         estimate D2E/DX2                !
 ! R13   R(4,8)                  1.5151         estimate D2E/DX2                !
 ! R14   R(5,20)                 1.0924         estimate D2E/DX2                !
 ! R15   R(5,21)                 1.0976         estimate D2E/DX2                !
 ! R16   R(5,22)                 1.0951         estimate D2E/DX2                !
 ! R17   R(6,7)                  1.525          estimate D2E/DX2                !
 ! R18   R(6,23)                 1.0852         estimate D2E/DX2                !
 ! R19   R(6,24)                 1.0983         estimate D2E/DX2                !
 ! R20   R(7,25)                 1.0918         estimate D2E/DX2                !
 ! R21   R(7,26)                 1.0951         estimate D2E/DX2                !
 ! R22   R(7,27)                 1.0894         estimate D2E/DX2                !
 ! R23   R(8,9)                  1.4687         estimate D2E/DX2                !
 ! R24   R(8,28)                 1.0257         estimate D2E/DX2                !
 ! R25   R(9,10)                 1.4532         estimate D2E/DX2                !
 ! R26   R(9,11)                 1.4755         estimate D2E/DX2                !
 ! R27   R(10,29)                0.9767         estimate D2E/DX2                !
 ! R28   R(11,12)                1.4247         estimate D2E/DX2                !
 ! R29   R(11,30)                1.0937         estimate D2E/DX2                !
 ! R30   R(11,31)                1.096          estimate D2E/DX2                !
 ! R31   R(12,32)                0.9697         estimate D2E/DX2                !
 ! A1    A(2,1,13)             108.2767         estimate D2E/DX2                !
 ! A2    A(2,1,14)             110.4286         estimate D2E/DX2                !
 ! A3    A(2,1,15)             112.1426         estimate D2E/DX2                !
 ! A4    A(13,1,14)            107.2741         estimate D2E/DX2                !
 ! A5    A(13,1,15)            108.6333         estimate D2E/DX2                !
 ! A6    A(14,1,15)            109.9325         estimate D2E/DX2                !
 ! A7    A(1,2,3)              116.0005         estimate D2E/DX2                !
 ! A8    A(1,2,16)             102.4001         estimate D2E/DX2                !
 ! A9    A(1,2,17)             109.6518         estimate D2E/DX2                !
 ! A10   A(3,2,16)             109.1313         estimate D2E/DX2                !
 ! A11   A(3,2,17)             111.1985         estimate D2E/DX2                !
 ! A12   A(16,2,17)            107.8425         estimate D2E/DX2                !
 ! A13   A(2,3,4)              114.5615         estimate D2E/DX2                !
 ! A14   A(2,3,18)             108.2945         estimate D2E/DX2                !
 ! A15   A(2,3,19)             108.7318         estimate D2E/DX2                !
 ! A16   A(4,3,18)             109.8482         estimate D2E/DX2                !
 ! A17   A(4,3,19)             109.0441         estimate D2E/DX2                !
 ! A18   A(18,3,19)            106.0102         estimate D2E/DX2                !
 ! A19   A(3,4,5)              109.3133         estimate D2E/DX2                !
 ! A20   A(3,4,6)              110.564          estimate D2E/DX2                !
 ! A21   A(3,4,8)              105.4549         estimate D2E/DX2                !
 ! A22   A(5,4,6)              112.5657         estimate D2E/DX2                !
 ! A23   A(5,4,8)              108.4588         estimate D2E/DX2                !
 ! A24   A(6,4,8)              110.2169         estimate D2E/DX2                !
 ! A25   A(4,5,20)             112.3144         estimate D2E/DX2                !
 ! A26   A(4,5,21)             111.0879         estimate D2E/DX2                !
 ! A27   A(4,5,22)             111.9364         estimate D2E/DX2                !
 ! A28   A(20,5,21)            107.1175         estimate D2E/DX2                !
 ! A29   A(20,5,22)            106.4931         estimate D2E/DX2                !
 ! A30   A(21,5,22)            107.5959         estimate D2E/DX2                !
 ! A31   A(4,6,7)              121.309          estimate D2E/DX2                !
 ! A32   A(4,6,23)             108.7818         estimate D2E/DX2                !
 ! A33   A(4,6,24)             109.1688         estimate D2E/DX2                !
 ! A34   A(7,6,23)             100.5631         estimate D2E/DX2                !
 ! A35   A(7,6,24)             109.0434         estimate D2E/DX2                !
 ! A36   A(23,6,24)            106.8926         estimate D2E/DX2                !
 ! A37   A(6,7,25)             112.0835         estimate D2E/DX2                !
 ! A38   A(6,7,26)             109.0391         estimate D2E/DX2                !
 ! A39   A(6,7,27)             113.5371         estimate D2E/DX2                !
 ! A40   A(25,7,26)            107.6743         estimate D2E/DX2                !
 ! A41   A(25,7,27)            110.4108         estimate D2E/DX2                !
 ! A42   A(26,7,27)            103.5856         estimate D2E/DX2                !
 ! A43   A(4,8,9)              113.5061         estimate D2E/DX2                !
 ! A44   A(4,8,28)             106.9351         estimate D2E/DX2                !
 ! A45   A(9,8,28)             108.8159         estimate D2E/DX2                !
 ! A46   A(8,9,10)             110.4894         estimate D2E/DX2                !
 ! A47   A(8,9,11)             110.7366         estimate D2E/DX2                !
 ! A48   A(10,9,11)            101.6542         estimate D2E/DX2                !
 ! A49   A(9,10,29)             99.8856         estimate D2E/DX2                !
 ! A50   A(9,11,12)            109.9957         estimate D2E/DX2                !
 ! A51   A(9,11,30)            111.218          estimate D2E/DX2                !
 ! A52   A(9,11,31)            111.8981         estimate D2E/DX2                !
 ! A53   A(12,11,30)           106.6225         estimate D2E/DX2                !
 ! A54   A(12,11,31)           108.1606         estimate D2E/DX2                !
 ! A55   A(30,11,31)           108.7581         estimate D2E/DX2                !
 ! A56   A(11,12,32)           104.0479         estimate D2E/DX2                !
 ! D1    D(13,1,2,3)           175.6589         estimate D2E/DX2                !
 ! D2    D(13,1,2,16)           56.9352         estimate D2E/DX2                !
 ! D3    D(13,1,2,17)          -57.3726         estimate D2E/DX2                !
 ! D4    D(14,1,2,3)            58.4833         estimate D2E/DX2                !
 ! D5    D(14,1,2,16)          -60.2405         estimate D2E/DX2                !
 ! D6    D(14,1,2,17)         -174.5482         estimate D2E/DX2                !
 ! D7    D(15,1,2,3)           -64.4951         estimate D2E/DX2                !
 ! D8    D(15,1,2,16)          176.7811         estimate D2E/DX2                !
 ! D9    D(15,1,2,17)           62.4734         estimate D2E/DX2                !
 ! D10   D(1,2,3,4)           -177.5896         estimate D2E/DX2                !
 ! D11   D(1,2,3,18)            59.435          estimate D2E/DX2                !
 ! D12   D(1,2,3,19)           -55.327          estimate D2E/DX2                !
 ! D13   D(16,2,3,4)           -62.6237         estimate D2E/DX2                !
 ! D14   D(16,2,3,18)          174.401          estimate D2E/DX2                !
 ! D15   D(16,2,3,19)           59.639          estimate D2E/DX2                !
 ! D16   D(17,2,3,4)            56.218          estimate D2E/DX2                !
 ! D17   D(17,2,3,18)          -66.7573         estimate D2E/DX2                !
 ! D18   D(17,2,3,19)          178.4807         estimate D2E/DX2                !
 ! D19   D(2,3,4,5)            -62.9058         estimate D2E/DX2                !
 ! D20   D(2,3,4,6)             61.5504         estimate D2E/DX2                !
 ! D21   D(2,3,4,8)           -179.3281         estimate D2E/DX2                !
 ! D22   D(18,3,4,5)            59.2281         estimate D2E/DX2                !
 ! D23   D(18,3,4,6)          -176.3157         estimate D2E/DX2                !
 ! D24   D(18,3,4,8)           -57.1941         estimate D2E/DX2                !
 ! D25   D(19,3,4,5)           175.0013         estimate D2E/DX2                !
 ! D26   D(19,3,4,6)           -60.5425         estimate D2E/DX2                !
 ! D27   D(19,3,4,8)            58.5791         estimate D2E/DX2                !
 ! D28   D(3,4,5,20)            64.5908         estimate D2E/DX2                !
 ! D29   D(3,4,5,21)           -55.3606         estimate D2E/DX2                !
 ! D30   D(3,4,5,22)          -175.6651         estimate D2E/DX2                !
 ! D31   D(6,4,5,20)           -58.6866         estimate D2E/DX2                !
 ! D32   D(6,4,5,21)          -178.638          estimate D2E/DX2                !
 ! D33   D(6,4,5,22)            61.0575         estimate D2E/DX2                !
 ! D34   D(8,4,5,20)           179.0891         estimate D2E/DX2                !
 ! D35   D(8,4,5,21)            59.1377         estimate D2E/DX2                !
 ! D36   D(8,4,5,22)           -61.1668         estimate D2E/DX2                !
 ! D37   D(3,4,6,7)            -67.8719         estimate D2E/DX2                !
 ! D38   D(3,4,6,23)           176.4399         estimate D2E/DX2                !
 ! D39   D(3,4,6,24)            60.1345         estimate D2E/DX2                !
 ! D40   D(5,4,6,7)             54.7048         estimate D2E/DX2                !
 ! D41   D(5,4,6,23)           -60.9834         estimate D2E/DX2                !
 ! D42   D(5,4,6,24)          -177.2888         estimate D2E/DX2                !
 ! D43   D(8,4,6,7)            175.9311         estimate D2E/DX2                !
 ! D44   D(8,4,6,23)            60.2429         estimate D2E/DX2                !
 ! D45   D(8,4,6,24)           -56.0625         estimate D2E/DX2                !
 ! D46   D(3,4,8,9)            174.6832         estimate D2E/DX2                !
 ! D47   D(3,4,8,28)            54.6769         estimate D2E/DX2                !
 ! D48   D(5,4,8,9)             57.6801         estimate D2E/DX2                !
 ! D49   D(5,4,8,28)           -62.3262         estimate D2E/DX2                !
 ! D50   D(6,4,8,9)            -65.9648         estimate D2E/DX2                !
 ! D51   D(6,4,8,28)           174.029          estimate D2E/DX2                !
 ! D52   D(4,6,7,25)           -39.8678         estimate D2E/DX2                !
 ! D53   D(4,6,7,26)          -158.9861         estimate D2E/DX2                !
 ! D54   D(4,6,7,27)            86.0935         estimate D2E/DX2                !
 ! D55   D(23,6,7,25)           79.918          estimate D2E/DX2                !
 ! D56   D(23,6,7,26)          -39.2004         estimate D2E/DX2                !
 ! D57   D(23,6,7,27)         -154.1207         estimate D2E/DX2                !
 ! D58   D(24,6,7,25)         -167.9298         estimate D2E/DX2                !
 ! D59   D(24,6,7,26)           72.9519         estimate D2E/DX2                !
 ! D60   D(24,6,7,27)          -41.9684         estimate D2E/DX2                !
 ! D61   D(4,8,9,10)            74.0886         estimate D2E/DX2                !
 ! D62   D(4,8,9,11)          -174.0689         estimate D2E/DX2                !
 ! D63   D(28,8,9,10)         -166.9787         estimate D2E/DX2                !
 ! D64   D(28,8,9,11)          -55.1362         estimate D2E/DX2                !
 ! D65   D(8,9,10,29)         -114.8168         estimate D2E/DX2                !
 ! D66   D(11,9,10,29)         127.6015         estimate D2E/DX2                !
 ! D67   D(8,9,11,12)          178.1884         estimate D2E/DX2                !
 ! D68   D(8,9,11,30)           60.2951         estimate D2E/DX2                !
 ! D69   D(8,9,11,31)          -61.5643         estimate D2E/DX2                !
 ! D70   D(10,9,11,12)         -64.4086         estimate D2E/DX2                !
 ! D71   D(10,9,11,30)         177.6982         estimate D2E/DX2                !
 ! D72   D(10,9,11,31)          55.8388         estimate D2E/DX2                !
 ! D73   D(9,11,12,32)         -40.1515         estimate D2E/DX2                !
 ! D74   D(30,11,12,32)         80.55           estimate D2E/DX2                !
 ! D75   D(31,11,12,32)       -162.6345         estimate D2E/DX2                !
 --------------------------------------------------------------------------------
 Trust Radius=3.00D-01 FncErr=1.00D-07 GrdErr=1.00D-06 EigMax=2.50D+02 EigMin=1.00D-04
 Number of steps in this run=    172 maximum allowed number of steps=    192.
 GradGradGradGradGradGradGradGradGradGradGradGradGradGradGradGradGradGrad

                          Input orientation:                          
 ---------------------------------------------------------------------
 Center     Atomic      Atomic             Coordinates (Angstroms)
 Number     Number       Type             X           Y           Z
 ---------------------------------------------------------------------
      1          6           0        0.809030   -0.113070    0.029870
      2          6           0        2.319880   -0.079040   -0.014720
      3          6           0        3.040430   -0.548800    1.254280
      4          6           0        4.611100   -0.443260    1.192620
      5          6           0        5.141540   -1.368270    0.076330
      6          6           0        5.055650    1.047590    1.000350
      7          6           0        4.772610    1.797950   -0.296750
      8          7           0        5.103700   -0.968760    2.525550
      9          7           0        6.566630   -1.065350    2.612670
     10          8           0        7.155880    0.255120    2.757110
     11          6           0        6.973210   -1.712820    3.874590
     12          8           0        8.391680   -1.836200    3.923870
     13          1           0        0.427320    0.318680   -0.904150
     14          1           0        0.437120    0.507630    0.850530
     15          1           0        0.423690   -1.127890    0.127430
     16          1           0        2.523440    0.968560   -0.169450
     17          1           0        2.674090   -0.622660   -0.894680
     18          1           0        2.743660   -1.588520    1.454930
     19          1           0        2.674580    0.040730    2.106630
     20          1           0        4.808650   -1.054330   -0.915570
     21          1           0        4.796570   -2.400100    0.221300
     22          1           0        6.236050   -1.386360    0.045660
     23          1           0        6.139540    1.094960    1.025130
     24          1           0        4.690680    1.644750    1.846750
     25          1           0        4.919240    1.167550   -1.176010
     26          1           0        5.461390    2.645520   -0.376730
     27          1           0        3.788540    2.264500   -0.323600
     28          1           0        4.702670   -1.905360    2.644120
     29          1           0        7.648480    0.311890    1.915600
     30          1           0        6.568290   -2.726130    3.947940
     31          1           0        6.649510   -1.139620    4.750930
     32          1           0        8.637670   -2.086980    3.020060
 ---------------------------------------------------------------------
                    Distance matrix (angstroms):
                    1          2          3          4          5
     1  C    0.000000
     2  C    1.511891   0.000000
     3  C    2.582283   1.533045   0.000000
     4  C    3.989580   2.615342   1.575419   0.000000
     5  C    4.510912   3.103574   2.544359   1.543734   0.000000
     6  C    4.508075   3.127955   2.583419   1.567554   2.587966
     7  C    4.412329   3.101373   3.303540   2.695799   3.209400
     8  N    5.040319   3.872238   2.459589   1.515093   2.481878
     9  N    6.381822   5.090272   3.813939   2.495523   2.925006
    10  O    6.917796   5.584049   4.454404   3.067779   3.725526
    11  C    7.438964   6.280880   4.867004   3.792665   4.230899
    12  O    8.696493   7.447608   6.117188   4.867524   5.058254
    13  H    1.097499   2.128626   3.498526   4.741415   5.102060
    14  H    1.094106   2.153514   2.838359   4.294569   5.123471
    15  H    1.089892   2.171596   2.907312   4.374671   4.724246
    16  H    2.036873   1.078352   2.143984   2.864750   3.517901
    17  H    2.143111   1.093306   2.181213   2.853246   2.754470
    18  H    2.819671   2.148951   1.099705   2.206300   2.774685
    19  H    2.795865   2.154132   1.099042   2.195398   3.491889
    20  H    4.216253   2.820762   2.844365   2.203837   1.092355
    21  H    4.600829   3.402502   2.752887   2.192506   1.097585
    22  H    5.574411   4.129058   3.517706   2.201231   1.095089
    23  H    5.555557   4.129088   3.515528   2.174926   2.822008
    24  H    4.632299   3.472350   2.808204   2.189522   3.523628
    25  H    4.470790   3.107934   3.518820   2.880984   2.836927
    26  H    5.423983   4.174130   4.327230   3.567410   4.051923
    27  H    3.828219   2.782903   3.311198   3.210528   3.897123
    28  H    5.020661   4.010307   2.556355   2.062274   2.659815
    29  H    7.107366   5.680928   4.734158   3.212262   3.534204
    30  H    7.439653   6.384258   4.943922   4.078465   4.343819
    31  H    7.579803   6.525484   5.059752   4.159520   4.917127
    32  H    8.609597   7.290829   6.067378   4.717480   4.626555
                    6          7          8          9         10
     6  C    0.000000
     7  C    1.524998   0.000000
     8  N    2.528678   3.966066   0.000000
     9  N    3.057311   4.458892   1.468701   0.000000
    10  O    2.850470   4.169696   2.400613   1.453176   0.000000
    11  C    4.422460   5.879475   2.422520   1.475455   2.270444
    12  O    5.290776   6.642164   3.676760   2.375766   2.694838
    13  H    5.057654   4.630197   5.940444   7.209347   7.660443
    14  H    4.652400   4.666653   5.173238   6.568889   6.988601
    15  H    5.191315   5.258667   5.261064   6.626918   7.358690
    16  H    2.790478   2.400595   4.204043   5.312661   5.525690
    17  H    3.471700   3.258935   4.209604   5.258265   5.847436
    18  H    3.535678   4.318935   2.664605   4.028544   4.956043
    19  H    2.811960   3.642223   2.663679   4.077688   4.533336
    20  H    2.854790   2.918859   3.454806   3.941966   4.551124
    21  H    3.544095   4.229961   2.729951   3.260877   4.364272
    22  H    2.868604   3.521183   2.757981   2.608040   3.300380
    23  H    1.085208   2.027328   2.753755   2.714706   2.176702
    24  H    1.098270   2.150529   2.731628   3.383853   2.972716
    25  H    2.183928   1.091789   4.277779   4.696151   4.615682
    26  H    2.148105   1.095075   4.649107   4.891689   4.290252
    27  H    2.199837   1.089396   4.505693   5.237114   4.986718
    28  H    3.398012   4.729494   1.025721   2.044738   3.270884
    29  H    2.846349   3.920905   2.913419   1.884966   0.976738
    30  H    5.021686   6.458263   2.693801   2.130995   3.263616
    31  H    4.625054   6.134423   2.714966   2.141154   2.485363
    32  H    5.170650   6.405669   3.739505   2.344974   2.783932
                   11         12         13         14         15
    11  C    0.000000
    12  O    1.424678   0.000000
    13  H    8.355359   9.559514   0.000000
    14  H    7.536299   8.843867   1.764851   0.000000
    15  H    7.568326   8.854576   1.776720   1.788290   0.000000
    16  H    6.583655   7.684933   2.314270   2.367604   2.981978
    17  H    6.512820   7.575087   2.436018   3.054071   2.522750
    18  H    4.874351   6.169047   3.816818   3.174787   2.712323
    19  H    4.967780   6.285735   3.767258   2.608066   3.217050
    20  H    5.297600   6.072035   4.591442   4.966800   4.507897
    21  H    4.307742   5.191515   5.267708   5.277843   4.555152
    22  H    3.912887   4.459777   6.127858   6.153260   5.818679
    23  H    4.086326   4.697502   6.078996   5.735245   6.198215
    24  H    4.538211   5.488975   5.244249   4.514230   5.371294
    25  H    6.166351   6.862152   4.579501   4.963039   5.213250
    26  H    6.273312   6.867865   5.570836   5.596430   6.314366
    27  H    6.601969   7.486364   3.926965   3.961968   4.799370
    28  H    2.589687   3.905296   5.984579   5.218659   5.024725
    29  H    2.897082   3.033115   7.752173   7.292215   7.580772
    30  H    1.093681   2.029115   8.397926   7.592259   7.409911
    31  H    1.096044   2.050465   8.533593   7.518001   7.754852
    32  H    1.908047   0.969677   9.412570   8.870619   8.761086
                   16         17         18         19         20
    16  H    0.000000
    17  H    1.755174   0.000000
    18  H    3.037395   2.541337   0.000000
    19  H    2.462570   3.073751   1.756115   0.000000
    20  H    3.141809   2.177871   3.188858   3.858381   0.000000
    21  H    4.082606   2.984900   2.528823   3.743656   1.761737
    22  H    4.401749   3.762318   3.771432   4.355256   1.752620
    23  H    3.810404   4.318013   4.349459   3.779814   3.187010
    24  H    3.036318   4.089404   3.794528   2.589416   3.863853
    25  H    2.606265   2.885255   4.387587   4.133273   2.239824
    26  H    3.389205   4.326467   5.354263   4.551738   3.795433
    27  H    1.817609   3.147034   4.370435   3.477366   3.522171
    28  H    4.574345   4.275928   2.313500   2.861697   3.661540
    29  H    5.571776   5.789267   5.280249   4.984947   4.236356
    30  H    6.853061   6.560514   4.705003   5.119269   5.435529
    31  H    6.758625   6.924170   5.130379   4.917887   5.958629
    32  H    7.542752   7.282425   6.118615   6.396870   5.587213
                   21         22         23         24         25
    21  H    0.000000
    22  H    1.769356   0.000000
    23  H    3.829511   2.669387   0.000000
    24  H    4.360517   3.849639   1.754002   0.000000
    25  H    3.833491   3.122326   2.517820   3.068719   0.000000
    26  H    5.124247   4.127295   2.197575   2.557225   1.765551
    27  H    4.803284   4.410832   2.951965   2.430713   1.791196
    28  H    2.474599   3.061472   3.699682   3.638574   4.907451
    29  H    4.284733   2.894078   1.919124   3.244971   4.211764
    30  H    4.139219   4.139222   4.829842   5.200482   6.643416
    31  H    5.053686   4.729841   4.374357   4.474818   6.591319
    32  H    4.762893   3.886606   4.510559   5.557085   6.482722
                   26         27         28         29         30
    26  H    0.000000
    27  H    1.716516   0.000000
    28  H    5.514680   5.199108   0.000000
    29  H    3.934967   4.870918   3.758289   0.000000
    30  H    6.984456   7.132983   2.419535   3.811402   0.000000
    31  H    6.483195   6.747150   2.969039   3.338251   1.780001
    32  H    6.635020   7.323217   3.957088   2.820090   2.356227
                   31         32
    31  H    0.000000
    32  H    2.801104   0.000000
 Stoichiometry    C8H20N2O2
 Framework group  C1[X(C8H20N2O2)]
 Deg. of freedom    90
 Full point group                 C1      NOp   1
 Largest Abelian subgroup         C1      NOp   1
 Largest concise Abelian subgroup C1      NOp   1
                         Standard orientation:                         
 ---------------------------------------------------------------------
 Center     Atomic      Atomic             Coordinates (Angstroms)
 Number     Number       Type             X           Y           Z
 ---------------------------------------------------------------------
      1          6           0        4.279746   -1.193065   -0.390986
      2          6           0        3.083286   -0.414116    0.106544
      3          6           0        1.710745   -0.938471   -0.330962
      4          6           0        0.491416   -0.068094    0.156506
      5          6           0        0.440796   -0.078974    1.699371
      6          6           0        0.579740    1.382008   -0.432248
      7          6           0        1.676947    2.348087    0.001857
      8          7           0       -0.742926   -0.772235   -0.368940
      9          7           0       -2.001151   -0.170884    0.091854
     10          8           0       -2.249867    1.082001   -0.601066
     11          6           0       -3.156052   -0.982925   -0.336817
     12          8           0       -4.364172   -0.408762    0.153583
     13          1           0        5.189166   -0.668138   -0.071752
     14          1           0        4.288472   -1.222324   -1.484666
     15          1           0        4.304667   -2.206978    0.008040
     16          1           0        3.244286    0.559830   -0.327450
     17          1           0        3.138548   -0.309819    1.193460
     18          1           0        1.602836   -1.970090    0.034373
     19          1           0        1.690371   -1.001709   -1.427994
     20          1           0        1.314003    0.401564    2.146398
     21          1           0        0.403631   -1.105518    2.086047
     22          1           0       -0.436781    0.451505    2.083650
     23          1           0       -0.303567    1.935812   -0.131008
     24          1           0        0.563603    1.327510   -1.529046
     25          1           0        1.880378    2.283846    1.072601
     26          1           0        1.357036    3.372717   -0.214895
     27          1           0        2.599852    2.242362   -0.567223
     28          1           0       -0.698257   -1.741540   -0.036443
     29          1           0       -2.187862    1.703925    0.149522
     30          1           0       -3.101939   -1.995453    0.073056
     31          1           0       -3.227298   -1.047984   -1.428606
     32          1           0       -4.140032   -0.120301    1.051818
 ---------------------------------------------------------------------
 Rotational constants (GHZ):           1.7473811           0.4199585           0.3771256
 Standard basis: 6-31G(2df,p) (6D, 7F)
 There are   472 symmetry adapted cartesian basis functions of A   symmetry.
 There are   436 symmetry adapted basis functions of A   symmetry.
   436 basis functions,   668 primitive gaussians,   472 cartesian basis functions
    49 alpha electrons       49 beta electrons
       nuclear repulsion energy       799.8899029595 Hartrees.
 NAtoms=   32 NActive=   32 NUniq=   32 SFac= 1.00D+00 NAtFMM=   60 NAOKFM=F Big=F
 Integral buffers will be    131072 words long.
 Raffenetti 2 integral format.
 Two-electron integral symmetry is turned on.
 One-electron integrals computed using PRISM.
 PrsmSu:  requested number of processors reduced to:  12 ShMem   1 Linda.
 NBasis=   436 RedAO= T EigKep=  2.71D-04  NBF=   436
 NBsUse=   436 1.00D-06 EigRej= -1.00D+00 NBFU=   436
 ExpMin= 1.61D-01 ExpMax= 5.48D+03 ExpMxC= 8.25D+02 IAcc=3 IRadAn=         5 AccDes= 0.00D+00
 Harris functional with IExCor=  402 and IRadAn=       5 diagonalized for initial guess.
 HarFok:  IExCor=  402 AccDes= 0.00D+00 IRadAn=         5 IDoV= 1 UseB2=F ITyADJ=14
 ICtDFT=  3500011 ScaDFX=  1.000000  1.000000  1.000000  1.000000
 FoFCou: FMM=F IPFlag=           0 FMFlag=      100000 FMFlg1=           0
         NFxFlg=           0 DoJE=T BraDBF=F KetDBF=T FulRan=T
         wScrn=  0.000000 ICntrl=       500 IOpCl=  0 I1Cent=   200000004 NGrid=           0
         NMat0=    1 NMatS0=      1 NMatT0=    0 NMatD0=    1 NMtDS0=    0 NMtDT0=    0
 Petite list used in FoFCou.
 Requested convergence on RMS density matrix=1.00D-08 within 128 cycles.
 Requested convergence on MAX density matrix=1.00D-06.
 Requested convergence on             energy=1.00D-06.
 No special actions if energy rises.
 Integral accuracy reduced to 1.0D-05 until final iterations.
 Initial convergence to 1.0D-05 achieved.  Increase integral accuracy.
 SCF Done:  E(RB3LYP) =  -576.765082843     A.U. after   13 cycles
            NFock= 13  Conv=0.50D-08     -V/T= 2.0078

 **********************************************************************

            Population analysis using the SCF density.

 **********************************************************************

 Orbital symmetries:
       Occupied  (A) (A) (A) (A) (A) (A) (A) (A) (A) (A) (A) (A)
                 (A) (A) (A) (A) (A) (A) (A) (A) (A) (A) (A) (A)
                 (A) (A) (A) (A) (A) (A) (A) (A) (A) (A) (A) (A)
                 (A) (A) (A) (A) (A) (A) (A) (A) (A) (A) (A) (A)
                 (A)
       Virtual   (A) (A) (A) (A) (A) (A) (A) (A) (A) (A) (A) (A)
                 (A) (A) (A) (A) (A) (A) (A) (A) (A) (A) (A) (A)
                 (A) (A) (A) (A) (A) (A) (A) (A) (A) (A) (A) (A)
                 (A) (A) (A) (A) (A) (A) (A) (A) (A) (A) (A) (A)
                 (A) (A) (A) (A) (A) (A) (A) (A) (A) (A) (A) (A)
                 (A) (A) (A) (A) (A) (A) (A) (A) (A) (A) (A) (A)
                 (A) (A) (A) (A) (A) (A) (A) (A) (A) (A) (A) (A)
                 (A) (A) (A) (A) (A) (A) (A) (A) (A) (A) (A) (A)
                 (A) (A) (A) (A) (A) (A) (A) (A) (A) (A) (A) (A)
                 (A) (A) (A) (A) (A) (A) (A) (A) (A) (A) (A) (A)
                 (A) (A) (A) (A) (A) (A) (A) (A) (A) (A) (A) (A)
                 (A) (A) (A) (A) (A) (A) (A) (A) (A) (A) (A) (A)
                 (A) (A) (A) (A) (A) (A) (A) (A) (A) (A) (A) (A)
                 (A) (A) (A) (A) (A) (A) (A) (A) (A) (A) (A) (A)
                 (A) (A) (A) (A) (A) (A) (A) (A) (A) (A) (A) (A)
                 (A) (A) (A) (A) (A) (A) (A) (A) (A) (A) (A) (A)
                 (A) (A) (A) (A) (A) (A) (A) (A) (A) (A) (A) (A)
                 (A) (A) (A) (A) (A) (A) (A) (A) (A) (A) (A) (A)
                 (A) (A) (A) (A) (A) (A) (A) (A) (A) (A) (A) (A)
                 (A) (A) (A) (A) (A) (A) (A) (A) (A) (A) (A) (A)
                 (A) (A) (A) (A) (A) (A) (A) (A) (A) (A) (A) (A)
                 (A) (A) (A) (A) (A) (A) (A) (A) (A) (A) (A) (A)
                 (A) (A) (A) (A) (A) (A) (A) (A) (A) (A) (A) (A)
                 (A) (A) (A) (A) (A) (A) (A) (A) (A) (A) (A) (A)
                 (A) (A) (A) (A) (A) (A) (A) (A) (A) (A) (A) (A)
                 (A) (A) (A) (A) (A) (A) (A) (A) (A) (A) (A) (A)
                 (A) (A) (A) (A) (A) (A) (A) (A) (A) (A) (A) (A)
                 (A) (A) (A) (A) (A) (A) (A) (A) (A) (A) (A) (A)
                 (A) (A) (A) (A) (A) (A) (A) (A) (A) (A) (A) (A)
                 (A) (A) (A) (A) (A) (A) (A) (A) (A) (A) (A) (A)
                 (A) (A) (A) (A) (A) (A) (A) (A) (A) (A) (A) (A)
                 (A) (A) (A) (A) (A) (A) (A) (A) (A) (A) (A) (A)
                 (A) (A) (A)
 The electronic state is 1-A.
 Alpha  occ. eigenvalues --  -19.16439 -19.13366 -14.40000 -14.34332 -10.25158
 Alpha  occ. eigenvalues --  -10.22626 -10.18129 -10.17428 -10.17331 -10.17164
 Alpha  occ. eigenvalues --  -10.17139 -10.17092  -1.06788  -1.00882  -0.91905
 Alpha  occ. eigenvalues --   -0.82051  -0.77419  -0.75250  -0.71315  -0.68038
 Alpha  occ. eigenvalues --   -0.63741  -0.63104  -0.58539  -0.54652  -0.52166
 Alpha  occ. eigenvalues --   -0.50612  -0.47666  -0.47244  -0.45665  -0.44710
 Alpha  occ. eigenvalues --   -0.43011  -0.42693  -0.41807  -0.41064  -0.39887
 Alpha  occ. eigenvalues --   -0.38662  -0.38090  -0.36522  -0.35791  -0.35398
 Alpha  occ. eigenvalues --   -0.34557  -0.33272  -0.32690  -0.32596  -0.30590
 Alpha  occ. eigenvalues --   -0.29730  -0.27501  -0.26981  -0.19810
 Alpha virt. eigenvalues --    0.05040   0.07849   0.08477   0.09641   0.10558
 Alpha virt. eigenvalues --    0.11410   0.12100   0.12786   0.13606   0.14459
 Alpha virt. eigenvalues --    0.15531   0.16389   0.16547   0.16771   0.17640
 Alpha virt. eigenvalues --    0.18169   0.18624   0.19405   0.20362   0.20947
 Alpha virt. eigenvalues --    0.21733   0.22199   0.22721   0.23623   0.23811
 Alpha virt. eigenvalues --    0.24400   0.25888   0.27365   0.28200   0.29463
 Alpha virt. eigenvalues --    0.30145   0.43381   0.44460   0.45137   0.46085
 Alpha virt. eigenvalues --    0.47014   0.48257   0.49138   0.49457   0.51634
 Alpha virt. eigenvalues --    0.51905   0.52922   0.54694   0.56855   0.57002
 Alpha virt. eigenvalues --    0.58860   0.59257   0.60443   0.61253   0.63234
 Alpha virt. eigenvalues --    0.63605   0.64674   0.65941   0.67432   0.68147
 Alpha virt. eigenvalues --    0.68525   0.70094   0.71334   0.71436   0.72479
 Alpha virt. eigenvalues --    0.72916   0.73273   0.74193   0.74393   0.75254
 Alpha virt. eigenvalues --    0.75745   0.76760   0.76981   0.77676   0.78048
 Alpha virt. eigenvalues --    0.79612   0.80147   0.81969   0.82186   0.83438
 Alpha virt. eigenvalues --    0.84189   0.85027   0.85299   0.85782   0.87741
 Alpha virt. eigenvalues --    0.88001   0.89151   0.89803   0.91490   0.92310
 Alpha virt. eigenvalues --    0.92838   0.93751   0.96311   0.97454   0.98548
 Alpha virt. eigenvalues --    0.98908   1.01741   1.02050   1.03660   1.07260
 Alpha virt. eigenvalues --    1.08613   1.11793   1.12546   1.15575   1.17513
 Alpha virt. eigenvalues --    1.17958   1.19509   1.22278   1.22876   1.24730
 Alpha virt. eigenvalues --    1.25685   1.28710   1.30687   1.31830   1.33738
 Alpha virt. eigenvalues --    1.35283   1.36793   1.37394   1.39416   1.39830
 Alpha virt. eigenvalues --    1.40583   1.41806   1.44545   1.45649   1.47666
 Alpha virt. eigenvalues --    1.50320   1.50822   1.51855   1.53189   1.55003
 Alpha virt. eigenvalues --    1.55552   1.57136   1.58761   1.59274   1.61082
 Alpha virt. eigenvalues --    1.62682   1.63434   1.64285   1.65749   1.66998
 Alpha virt. eigenvalues --    1.68593   1.71028   1.73655   1.75132   1.77945
 Alpha virt. eigenvalues --    1.79324   1.81798   1.83739   1.85182   1.86230
 Alpha virt. eigenvalues --    1.87726   1.88323   1.89826   1.90732   1.93273
 Alpha virt. eigenvalues --    1.94097   1.95143   1.96110   1.97886   1.98320
 Alpha virt. eigenvalues --    1.99000   2.01158   2.05808   2.07264   2.08689
 Alpha virt. eigenvalues --    2.14445   2.16239   2.18688   2.21892   2.23490
 Alpha virt. eigenvalues --    2.26086   2.28243   2.29745   2.30836   2.31057
 Alpha virt. eigenvalues --    2.32052   2.36734   2.37624   2.39318   2.40209
 Alpha virt. eigenvalues --    2.41512   2.46150   2.48956   2.51461   2.52388
 Alpha virt. eigenvalues --    2.54380   2.55157   2.56427   2.59042   2.61033
 Alpha virt. eigenvalues --    2.63415   2.65281   2.68680   2.71376   2.72531
 Alpha virt. eigenvalues --    2.74941   2.76157   2.77430   2.78681   2.79821
 Alpha virt. eigenvalues --    2.80769   2.81926   2.82233   2.83823   2.85460
 Alpha virt. eigenvalues --    2.86902   2.88082   2.88670   2.89750   2.90935
 Alpha virt. eigenvalues --    2.92226   2.92681   2.93988   2.94364   2.94720
 Alpha virt. eigenvalues --    2.94807   2.97058   2.97649   2.98896   2.99527
 Alpha virt. eigenvalues --    3.01391   3.03674   3.04723   3.05494   3.07245
 Alpha virt. eigenvalues --    3.10962   3.12706   3.13626   3.15675   3.17501
 Alpha virt. eigenvalues --    3.21563   3.23841   3.28049   3.29285   3.32112
 Alpha virt. eigenvalues --    3.34524   3.35402   3.36402   3.37016   3.38117
 Alpha virt. eigenvalues --    3.39563   3.39946   3.41884   3.43704   3.46897
 Alpha virt. eigenvalues --    3.48054   3.49309   3.51630   3.53709   3.56395
 Alpha virt. eigenvalues --    3.58544   3.59346   3.60689   3.62629   3.63152
 Alpha virt. eigenvalues --    3.64576   3.66327   3.67273   3.68430   3.70073
 Alpha virt. eigenvalues --    3.73527   3.73999   3.76587   3.77427   3.78907
 Alpha virt. eigenvalues --    3.82211   3.83791   3.88822   3.90408   3.92173
 Alpha virt. eigenvalues --    3.93490   3.95963   3.97301   3.98962   4.04746
 Alpha virt. eigenvalues --    4.05815   4.09556   4.14493   4.15837   4.16833
 Alpha virt. eigenvalues --    4.19209   4.22189   4.25518   4.25983   4.26792
 Alpha virt. eigenvalues --    4.28403   4.29277   4.34122   4.36020   4.37732
 Alpha virt. eigenvalues --    4.38298   4.39224   4.40657   4.42082   4.43255
 Alpha virt. eigenvalues --    4.43803   4.44721   4.46464   4.47282   4.49422
 Alpha virt. eigenvalues --    4.50961   4.51185   4.52975   4.53534   4.55373
 Alpha virt. eigenvalues --    4.57781   4.58283   4.59545   4.60660   4.61371
 Alpha virt. eigenvalues --    4.63276   4.64321   4.64711   4.65685   4.66709
 Alpha virt. eigenvalues --    4.68643   4.69368   4.70287   4.71359   4.72182
 Alpha virt. eigenvalues --    4.73376   4.76054   4.77395   4.77500   4.78485
 Alpha virt. eigenvalues --    4.79604   4.80993   4.82404   4.83274   4.84696
 Alpha virt. eigenvalues --    4.86497   4.87107   4.87715   4.89628   4.89858
 Alpha virt. eigenvalues --    4.92556   4.94972   4.95969   4.97094   4.97564
 Alpha virt. eigenvalues --    5.00236   5.03235   5.04715   5.06677   5.11328
 Alpha virt. eigenvalues --    5.17474   5.18805   5.19450   5.23883   5.27068
 Alpha virt. eigenvalues --    5.30639   5.32524   5.34072   5.39242   5.40572
 Alpha virt. eigenvalues --    5.43582   5.45613   5.46387   5.47048   5.48841
 Alpha virt. eigenvalues --    5.50887   5.54448   5.55972   5.56942   5.60984
 Alpha virt. eigenvalues --    5.63699   5.66663   5.73329   5.86783   5.94464
 Alpha virt. eigenvalues --    5.97779   6.04908   6.06309   6.08498   6.19599
 Alpha virt. eigenvalues --    6.30296   7.00652   7.05131  11.03252  11.20561
 Alpha virt. eigenvalues --   11.38062  11.49072  11.54249  11.75699  12.02380
 Alpha virt. eigenvalues --   12.24599  12.38946  12.73396  13.02714  13.12396
 Alpha virt. eigenvalues --   14.03120  17.28067
          Condensed to atoms (all electrons):
               1          2          3          4          5          6
     1  C    4.973514   0.403216  -0.032919   0.001567   0.000279   0.000179
     2  C    0.403216   4.776891   0.424045  -0.027942   0.000454  -0.008409
     3  C   -0.032919   0.424045   4.921204   0.404569  -0.051687  -0.027860
     4  C    0.001567  -0.027942   0.404569   4.485858   0.366401   0.412709
     5  C    0.000279   0.000454  -0.051687   0.366401   5.145928  -0.066014
     6  C    0.000179  -0.008409  -0.027860   0.412709  -0.066014   4.870076
     7  C   -0.000008  -0.006887  -0.005117  -0.022661  -0.004164   0.364672
     8  N   -0.000054   0.001774  -0.032416   0.365083  -0.063702  -0.031105
     9  N    0.000000  -0.000042   0.001027  -0.041563   0.000073  -0.004057
    10  O   -0.000000  -0.000000   0.000024  -0.005744  -0.001072  -0.013358
    11  C   -0.000000   0.000000  -0.000197   0.000386   0.000570   0.000440
    12  O    0.000000  -0.000000   0.000000  -0.000071   0.000001   0.000000
    13  H    0.374137  -0.022468   0.003282  -0.000110   0.000008  -0.000002
    14  H    0.377838  -0.027759  -0.004196   0.000111   0.000001  -0.000019
    15  H    0.374870  -0.028031  -0.003453   0.000049  -0.000001  -0.000001
    16  H   -0.040185   0.375615  -0.033645  -0.003138  -0.000452  -0.000261
    17  H   -0.038975   0.373057  -0.032557  -0.003121   0.001028  -0.000640
    18  H   -0.003702  -0.037688   0.344373  -0.020687  -0.008441   0.004859
    19  H   -0.002783  -0.033000   0.348914  -0.018419   0.006323  -0.007885
    20  H   -0.000080  -0.001650  -0.003469  -0.014630   0.358105  -0.002561
    21  H   -0.000042  -0.000225  -0.005347  -0.017154   0.359074   0.004503
    22  H   -0.000002   0.000309   0.004676  -0.017499   0.363411  -0.003275
    23  H    0.000001   0.000017   0.004382  -0.022994  -0.006002   0.350895
    24  H   -0.000015   0.000496  -0.006795  -0.016844   0.006016   0.359863
    25  H    0.000021  -0.000121  -0.000160  -0.008308   0.002833  -0.022859
    26  H   -0.000014   0.000470   0.000017   0.002906   0.000046  -0.025482
    27  H    0.000444  -0.008047   0.000809  -0.000426   0.000051  -0.023141
    28  H   -0.000001  -0.000384  -0.001463  -0.043353  -0.005364   0.005506
    29  H    0.000000   0.000000   0.000036   0.001748   0.000181  -0.002191
    30  H    0.000000  -0.000000   0.000013  -0.000042   0.000023  -0.000006
    31  H    0.000000   0.000000   0.000027  -0.000146   0.000048  -0.000020
    32  H    0.000000   0.000000   0.000001  -0.000021  -0.000011   0.000000
               7          8          9         10         11         12
     1  C   -0.000008  -0.000054   0.000000  -0.000000  -0.000000   0.000000
     2  C   -0.006887   0.001774  -0.000042  -0.000000   0.000000  -0.000000
     3  C   -0.005117  -0.032416   0.001027   0.000024  -0.000197   0.000000
     4  C   -0.022661   0.365083  -0.041563  -0.005744   0.000386  -0.000071
     5  C   -0.004164  -0.063702   0.000073  -0.001072   0.000570   0.000001
     6  C    0.364672  -0.031105  -0.004057  -0.013358   0.000440   0.000000
     7  C    5.047573   0.002346   0.000044   0.000680   0.000004  -0.000000
     8  N    0.002346   6.611717   0.206852  -0.035207  -0.060212   0.001756
     9  N    0.000044   0.206852   6.585464   0.173742   0.350726  -0.047571
    10  O    0.000680  -0.035207   0.173742   7.964354  -0.042180  -0.004061
    11  C    0.000004  -0.060212   0.350726  -0.042180   4.709121   0.367849
    12  O   -0.000000   0.001756  -0.047571  -0.004061   0.367849   7.852955
    13  H    0.000034   0.000000  -0.000000   0.000000   0.000000  -0.000000
    14  H    0.000029   0.000000   0.000000  -0.000000   0.000000   0.000000
    15  H   -0.000004   0.000000   0.000000  -0.000000   0.000000  -0.000000
    16  H   -0.000659   0.000068   0.000003  -0.000000   0.000000  -0.000000
    17  H    0.000586   0.000106   0.000002   0.000000   0.000000   0.000000
    18  H   -0.000026  -0.003722   0.000149  -0.000000   0.000006   0.000000
    19  H    0.000177   0.003307   0.000082  -0.000016   0.000010   0.000000
    20  H   -0.000955   0.004194   0.000072   0.000006  -0.000009  -0.000000
    21  H    0.000164  -0.001860   0.000249   0.000035  -0.000056   0.000000
    22  H    0.000281  -0.008302   0.012759  -0.000209  -0.000448  -0.000010
    23  H   -0.045385  -0.006657  -0.001010   0.016688   0.000174  -0.000003
    24  H   -0.043479   0.001791   0.000345   0.000941  -0.000015   0.000000
    25  H    0.371913   0.000040  -0.000006  -0.000001   0.000000   0.000000
    26  H    0.371989  -0.000034  -0.000002   0.000026   0.000000   0.000000
    27  H    0.374228  -0.000065   0.000001  -0.000011  -0.000000  -0.000000
    28  H   -0.000130   0.325853  -0.032782   0.003132  -0.000519  -0.000013
    29  H   -0.000381   0.001994  -0.046647   0.295507  -0.001973   0.001814
    30  H   -0.000000   0.003557  -0.036834   0.003822   0.356935  -0.031845
    31  H    0.000001   0.006343  -0.024189   0.001497   0.344827  -0.022925
    32  H    0.000000   0.000069   0.012895   0.001302  -0.071062   0.297962
              13         14         15         16         17         18
     1  C    0.374137   0.377838   0.374870  -0.040185  -0.038975  -0.003702
     2  C   -0.022468  -0.027759  -0.028031   0.375615   0.373057  -0.037688
     3  C    0.003282  -0.004196  -0.003453  -0.033645  -0.032557   0.344373
     4  C   -0.000110   0.000111   0.000049  -0.003138  -0.003121  -0.020687
     5  C    0.000008   0.000001  -0.000001  -0.000452   0.001028  -0.008441
     6  C   -0.000002  -0.000019  -0.000001  -0.000261  -0.000640   0.004859
     7  C    0.000034   0.000029  -0.000004  -0.000659   0.000586  -0.000026
     8  N    0.000000   0.000000   0.000000   0.000068   0.000106  -0.003722
     9  N   -0.000000   0.000000   0.000000   0.000003   0.000002   0.000149
    10  O    0.000000  -0.000000  -0.000000  -0.000000   0.000000  -0.000000
    11  C    0.000000   0.000000   0.000000   0.000000   0.000000   0.000006
    12  O   -0.000000   0.000000  -0.000000  -0.000000   0.000000   0.000000
    13  H    0.605167  -0.032117  -0.031883  -0.004200  -0.002567  -0.000101
    14  H   -0.032117   0.601200  -0.032514  -0.005717   0.005806  -0.000379
    15  H   -0.031883  -0.032514   0.607128   0.006175  -0.003992   0.004588
    16  H   -0.004200  -0.005717   0.006175   0.629804  -0.041669   0.006517
    17  H   -0.002567   0.005806  -0.003992  -0.041669   0.642901  -0.004111
    18  H   -0.000101  -0.000379   0.004588   0.006517  -0.004111   0.668635
    19  H   -0.000056   0.004833  -0.000328  -0.005903   0.006105  -0.040910
    20  H    0.000002   0.000002   0.000006   0.000343   0.004525   0.000195
    21  H    0.000001   0.000000   0.000004   0.000053   0.000548   0.004660
    22  H   -0.000000   0.000000  -0.000000  -0.000020  -0.000205  -0.000109
    23  H   -0.000000  -0.000000  -0.000000   0.000006  -0.000025  -0.000215
    24  H    0.000001  -0.000001   0.000000   0.000087   0.000011  -0.000056
    25  H   -0.000002  -0.000001  -0.000001   0.000389  -0.000447  -0.000026
    26  H   -0.000000  -0.000000   0.000000   0.000132   0.000003   0.000006
    27  H   -0.000012   0.000006  -0.000006   0.006879   0.000135  -0.000051
    28  H   -0.000000   0.000001   0.000001   0.000014   0.000015   0.006805
    29  H   -0.000000  -0.000000  -0.000000   0.000000  -0.000000  -0.000001
    30  H   -0.000000  -0.000000  -0.000000  -0.000000  -0.000000  -0.000009
    31  H    0.000000  -0.000000   0.000000   0.000000  -0.000000   0.000001
    32  H    0.000000  -0.000000   0.000000   0.000000  -0.000000  -0.000000
              19         20         21         22         23         24
     1  C   -0.002783  -0.000080  -0.000042  -0.000002   0.000001  -0.000015
     2  C   -0.033000  -0.001650  -0.000225   0.000309   0.000017   0.000496
     3  C    0.348914  -0.003469  -0.005347   0.004676   0.004382  -0.006795
     4  C   -0.018419  -0.014630  -0.017154  -0.017499  -0.022994  -0.016844
     5  C    0.006323   0.358105   0.359074   0.363411  -0.006002   0.006016
     6  C   -0.007885  -0.002561   0.004503  -0.003275   0.350895   0.359863
     7  C    0.000177  -0.000955   0.000164   0.000281  -0.045385  -0.043479
     8  N    0.003307   0.004194  -0.001860  -0.008302  -0.006657   0.001791
     9  N    0.000082   0.000072   0.000249   0.012759  -0.001010   0.000345
    10  O   -0.000016   0.000006   0.000035  -0.000209   0.016688   0.000941
    11  C    0.000010  -0.000009  -0.000056  -0.000448   0.000174  -0.000015
    12  O    0.000000  -0.000000   0.000000  -0.000010  -0.000003   0.000000
    13  H   -0.000056   0.000002   0.000001  -0.000000  -0.000000   0.000001
    14  H    0.004833   0.000002   0.000000   0.000000  -0.000000  -0.000001
    15  H   -0.000328   0.000006   0.000004  -0.000000  -0.000000   0.000000
    16  H   -0.005903   0.000343   0.000053  -0.000020   0.000006   0.000087
    17  H    0.006105   0.004525   0.000548  -0.000205  -0.000025   0.000011
    18  H   -0.040910   0.000195   0.004660  -0.000109  -0.000215  -0.000056
    19  H    0.631730  -0.000100  -0.000045  -0.000159  -0.000095   0.004452
    20  H   -0.000100   0.599787  -0.030342  -0.034018   0.000205  -0.000079
    21  H   -0.000045  -0.030342   0.612723  -0.032143  -0.000095  -0.000171
    22  H   -0.000159  -0.034018  -0.032143   0.600177   0.003102   0.000007
    23  H   -0.000095   0.000205  -0.000095   0.003102   0.662555  -0.035656
    24  H    0.004452  -0.000079  -0.000171   0.000007  -0.035656   0.625284
    25  H    0.000034   0.004757  -0.000232   0.000286  -0.000198   0.005485
    26  H   -0.000009  -0.000039   0.000002  -0.000054  -0.012079   0.000386
    27  H    0.000047   0.000060  -0.000007   0.000016   0.005834  -0.006941
    28  H   -0.000224  -0.000063   0.004546   0.000065   0.000021  -0.000122
    29  H    0.000001  -0.000059  -0.000017   0.000795   0.006232  -0.000006
    30  H    0.000000  -0.000000   0.000013  -0.000001  -0.000016  -0.000001
    31  H    0.000008   0.000000  -0.000000   0.000033  -0.000014   0.000036
    32  H    0.000000  -0.000000  -0.000001   0.000167  -0.000021   0.000001
              25         26         27         28         29         30
     1  C    0.000021  -0.000014   0.000444  -0.000001   0.000000   0.000000
     2  C   -0.000121   0.000470  -0.008047  -0.000384   0.000000  -0.000000
     3  C   -0.000160   0.000017   0.000809  -0.001463   0.000036   0.000013
     4  C   -0.008308   0.002906  -0.000426  -0.043353   0.001748  -0.000042
     5  C    0.002833   0.000046   0.000051  -0.005364   0.000181   0.000023
     6  C   -0.022859  -0.025482  -0.023141   0.005506  -0.002191  -0.000006
     7  C    0.371913   0.371989   0.374228  -0.000130  -0.000381  -0.000000
     8  N    0.000040  -0.000034  -0.000065   0.325853   0.001994   0.003557
     9  N   -0.000006  -0.000002   0.000001  -0.032782  -0.046647  -0.036834
    10  O   -0.000001   0.000026  -0.000011   0.003132   0.295507   0.003822
    11  C    0.000000   0.000000  -0.000000  -0.000519  -0.001973   0.356935
    12  O    0.000000   0.000000  -0.000000  -0.000013   0.001814  -0.031845
    13  H   -0.000002  -0.000000  -0.000012  -0.000000  -0.000000  -0.000000
    14  H   -0.000001  -0.000000   0.000006   0.000001  -0.000000  -0.000000
    15  H   -0.000001   0.000000  -0.000006   0.000001  -0.000000  -0.000000
    16  H    0.000389   0.000132   0.006879   0.000014   0.000000  -0.000000
    17  H   -0.000447   0.000003   0.000135   0.000015  -0.000000  -0.000000
    18  H   -0.000026   0.000006  -0.000051   0.006805  -0.000001  -0.000009
    19  H    0.000034  -0.000009   0.000047  -0.000224   0.000001   0.000000
    20  H    0.004757  -0.000039   0.000060  -0.000063  -0.000059  -0.000000
    21  H   -0.000232   0.000002  -0.000007   0.004546  -0.000017   0.000013
    22  H    0.000286  -0.000054   0.000016   0.000065   0.000795  -0.000001
    23  H   -0.000198  -0.012079   0.005834   0.000021   0.006232  -0.000016
    24  H    0.005485   0.000386  -0.006941  -0.000122  -0.000006  -0.000001
    25  H    0.597190  -0.031935  -0.033576  -0.000002   0.000011  -0.000000
    26  H   -0.031935   0.621819  -0.034779   0.000003  -0.000049  -0.000000
    27  H   -0.033576  -0.034779   0.593866   0.000000   0.000007   0.000000
    28  H   -0.000002   0.000003   0.000000   0.506456  -0.000375   0.003502
    29  H    0.000011  -0.000049   0.000007  -0.000375   0.443054  -0.000259
    30  H   -0.000000  -0.000000   0.000000   0.003502  -0.000259   0.665406
    31  H   -0.000000   0.000000  -0.000000  -0.000184  -0.000069  -0.052330
    32  H   -0.000000   0.000000   0.000000  -0.000036   0.000501  -0.001457
              31         32
     1  C    0.000000   0.000000
     2  C    0.000000   0.000000
     3  C    0.000027   0.000001
     4  C   -0.000146  -0.000021
     5  C    0.000048  -0.000011
     6  C   -0.000020   0.000000
     7  C    0.000001   0.000000
     8  N    0.006343   0.000069
     9  N   -0.024189   0.012895
    10  O    0.001497   0.001302
    11  C    0.344827  -0.071062
    12  O   -0.022925   0.297962
    13  H    0.000000   0.000000
    14  H   -0.000000  -0.000000
    15  H    0.000000   0.000000
    16  H    0.000000   0.000000
    17  H   -0.000000  -0.000000
    18  H    0.000001  -0.000000
    19  H    0.000008   0.000000
    20  H    0.000000  -0.000000
    21  H   -0.000000  -0.000001
    22  H    0.000033   0.000167
    23  H   -0.000014  -0.000021
    24  H    0.000036   0.000001
    25  H   -0.000000  -0.000000
    26  H    0.000000   0.000000
    27  H   -0.000000   0.000000
    28  H   -0.000184  -0.000036
    29  H   -0.000069   0.000501
    30  H   -0.052330  -0.001457
    31  H    0.616293   0.008957
    32  H    0.008957   0.477617
 Mulliken charges:
               1
     1  C   -0.387286
     2  C   -0.153691
     3  C   -0.216116
     4  C    0.243487
     5  C   -0.403943
     6  C   -0.134556
     7  C   -0.404864
     8  N   -0.293515
     9  N   -0.109783
    10  O   -0.359897
    11  C    0.045623
    12  O   -0.415837
    13  H    0.110887
    14  H    0.112876
    15  H    0.107393
    16  H    0.109763
    17  H    0.093481
    18  H    0.079438
    19  H    0.103911
    20  H    0.115794
    21  H    0.101162
    22  H    0.110368
    23  H    0.080356
    24  H    0.104978
    25  H    0.114915
    26  H    0.106669
    27  H    0.124678
    28  H    0.229092
    29  H    0.300144
    30  H    0.089530
    31  H    0.121806
    32  H    0.273137
 Sum of Mulliken charges =  -0.00000
 Mulliken charges with hydrogens summed into heavy atoms:
               1
     1  C   -0.056130
     2  C    0.049553
     3  C   -0.032767
     4  C    0.243487
     5  C   -0.076619
     6  C    0.050777
     7  C   -0.058602
     8  N   -0.064423
     9  N   -0.109783
    10  O   -0.059753
    11  C    0.256959
    12  O   -0.142700
 Electronic spatial extent (au):  <R**2>=           3104.4597
 Charge=             -0.0000 electrons
 Dipole moment (field-independent basis, Debye):
    X=              1.8960    Y=             -0.1871    Z=              2.0152  Tot=              2.7732
 Quadrupole moment (field-independent basis, Debye-Ang):
   XX=            -86.6198   YY=            -71.2008   ZZ=            -76.3482
   XY=              0.4289   XZ=             -5.8070   YZ=              1.0572
 Traceless Quadrupole moment (field-independent basis, Debye-Ang):
   XX=             -8.5636   YY=              6.8555   ZZ=              1.7081
   XY=              0.4289   XZ=             -5.8070   YZ=              1.0572
 Octapole moment (field-independent basis, Debye-Ang**2):
  XXX=             23.0128  YYY=              1.3374  ZZZ=             -1.8448  XYY=            -22.9134
  XXY=              7.5445  XXZ=             17.8545  XZZ=            -16.0680  YZZ=              0.8409
  YYZ=              2.8182  XYZ=             -7.5416
 Hexadecapole moment (field-independent basis, Debye-Ang**3):
 XXXX=          -3356.8378 YYYY=           -674.1879 ZZZZ=           -316.8922 XXXY=             -7.3487
 XXXZ=            -67.4169 YYYX=            -10.6053 YYYZ=             -7.3552 ZZZX=             -9.1770
 ZZZY=             -0.7039 XXYY=           -610.0033 XXZZ=           -514.5107 YYZZ=           -171.7630
 XXYZ=             12.7407 YYXZ=             -4.1306 ZZXY=              3.8265
 N-N= 7.998899029595D+02 E-N=-2.943599955393D+03  KE= 5.723060591761D+02
 PrsmSu:  requested number of processors reduced to:  13 ShMem   1 Linda.
 Calling FoFJK, ICntrl=      2127 FMM=F ISym2X=0 I1Cent= 0 IOpClX= 0 NMat=1 NMatS=1 NMatT=0.
 ***** Axes restored to original set *****
 -------------------------------------------------------------------
 Center     Atomic                   Forces (Hartrees/Bohr)
 Number     Number              X              Y              Z
 -------------------------------------------------------------------
      1        6          -0.006087800   -0.003169464   -0.001443041
      2        6           0.001474708    0.003109446    0.001408281
      3        6           0.006323247    0.001047888    0.002116267
      4        6          -0.004955596   -0.009253702   -0.002780078
      5        6           0.002383841    0.003829383   -0.006358122
      6        6           0.006884293   -0.002219786    0.003380558
      7        6          -0.006206033    0.007360621   -0.004611144
      8        7          -0.004999479    0.028874222    0.004139571
      9        7           0.009420287   -0.015496181   -0.001277323
     10        8          -0.006707483   -0.004904127   -0.009556471
     11        6           0.010970314   -0.006433663    0.002360689
     12        8          -0.011895643    0.005499120   -0.007873545
     13        1          -0.002679529   -0.002464241    0.001755177
     14        1          -0.002520066   -0.002301904    0.001673884
     15        1          -0.004634718   -0.002179520    0.001903424
     16        1           0.008552568    0.003995494   -0.003738339
     17        1           0.000856173   -0.000281145   -0.000411606
     18        1           0.002606226   -0.001187994    0.000976548
     19        1           0.002695153   -0.000772662   -0.000134266
     20        1          -0.000890238   -0.000077117   -0.000800482
     21        1          -0.000207967    0.001718539    0.001280669
     22        1          -0.000978243    0.000223222    0.003157656
     23        1           0.000084667   -0.004913068    0.008854413
     24        1           0.002700468   -0.004132887    0.000540243
     25        1          -0.002332573    0.001717030   -0.002531940
     26        1           0.003699867   -0.001915654    0.000053990
     27        1          -0.002385937   -0.002636656   -0.004159246
     28        1           0.012060048    0.003957087   -0.000114378
     29        1          -0.004113105    0.001380763    0.014084957
     30        1          -0.012091523   -0.000374876   -0.006183177
     31        1           0.001847248    0.002504686   -0.000944172
     32        1           0.001126826   -0.000502853    0.005231004
 -------------------------------------------------------------------
 Cartesian Forces:  Max     0.028874222 RMS     0.005794417

 GradGradGradGradGradGradGradGradGradGradGradGradGradGradGradGradGradGrad
 Berny optimization.
 FormGI is forming the generalized inverse of G from B-inverse, IUseBI=4.
 Internal  Forces:  Max     0.030364112 RMS     0.006397017
 Search for a local minimum.
 Step number   1 out of a maximum of  172
 All quantities printed in internal units (Hartrees-Bohrs-Radians)
 Mixed Optimization -- RFO/linear search
 Second derivative matrix not updated -- first step.
 ITU=  0
     Eigenvalues ---    0.00230   0.00230   0.00230   0.00230   0.00329
     Eigenvalues ---    0.00386   0.00435   0.00591   0.00609   0.00694
     Eigenvalues ---    0.01365   0.02741   0.02807   0.03275   0.03293
     Eigenvalues ---    0.04181   0.04669   0.04718   0.04734   0.04893
     Eigenvalues ---    0.05094   0.05096   0.05250   0.05326   0.05563
     Eigenvalues ---    0.05799   0.06020   0.06046   0.06324   0.07129
     Eigenvalues ---    0.08629   0.08903   0.09718   0.11595   0.11689
     Eigenvalues ---    0.12423   0.12626   0.13191   0.13967   0.14977
     Eigenvalues ---    0.15155   0.16000   0.16000   0.16000   0.16000
     Eigenvalues ---    0.16000   0.16000   0.16000   0.16000   0.16000
     Eigenvalues ---    0.16000   0.16000   0.16500   0.19956   0.21929
     Eigenvalues ---    0.22029   0.22068   0.22086   0.23568   0.25598
     Eigenvalues ---    0.26211   0.28191   0.29144   0.29890   0.30844
     Eigenvalues ---    0.31161   0.33715   0.33788   0.33874   0.33951
     Eigenvalues ---    0.33960   0.34123   0.34231   0.34233   0.34342
     Eigenvalues ---    0.34391   0.34433   0.34542   0.34607   0.34825
     Eigenvalues ---    0.34883   0.35095   0.35372   0.35896   0.36194
     Eigenvalues ---    0.37832   0.41764   0.43438   0.52024   0.53443
 RFO step:  Lambda=-3.89855381D-02 EMin= 2.30000000D-03
 Linear search not attempted -- first point.
 Maximum step size (   0.300) exceeded in Quadratic search.
    -- Step size scaled by   0.910
 Iteration  1 RMS(Cart)=  0.23906349 RMS(Int)=  0.01396373
 Iteration  2 RMS(Cart)=  0.04986198 RMS(Int)=  0.00073443
 Iteration  3 RMS(Cart)=  0.00096314 RMS(Int)=  0.00059073
 Iteration  4 RMS(Cart)=  0.00000076 RMS(Int)=  0.00059073
 Variable       Old X    -DE/DX   Delta X   Delta X   Delta X     New X
                                 (Linear)    (Quad)   (Total)
    R1        2.85706   0.01625   0.00000   0.04221   0.04221   2.89927
    R2        2.07397  -0.00153   0.00000  -0.00368  -0.00368   2.07029
    R3        2.06756   0.00081   0.00000   0.00192   0.00192   2.06948
    R4        2.05960   0.00384   0.00000   0.00902   0.00902   2.06862
    R5        2.89704   0.00041   0.00000   0.00113   0.00113   2.89817
    R6        2.03779   0.00603   0.00000   0.01370   0.01370   2.05149
    R7        2.06605   0.00075   0.00000   0.00178   0.00178   2.06783
    R8        2.97711  -0.00612   0.00000  -0.01890  -0.01890   2.95821
    R9        2.07814   0.00060   0.00000   0.00145   0.00145   2.07959
   R10        2.07689  -0.00142   0.00000  -0.00342  -0.00342   2.07347
   R11        2.91723  -0.00134   0.00000  -0.00380  -0.00380   2.91343
   R12        2.96225  -0.00590   0.00000  -0.01785  -0.01785   2.94440
   R13        2.86311  -0.00657   0.00000  -0.01723  -0.01723   2.84589
   R14        2.06425   0.00098   0.00000   0.00231   0.00231   2.06656
   R15        2.07414  -0.00138   0.00000  -0.00332  -0.00332   2.07081
   R16        2.06942  -0.00107   0.00000  -0.00255  -0.00255   2.06686
   R17        2.88183   0.01313   0.00000   0.03539   0.03539   2.91722
   R18        2.05075   0.00007   0.00000   0.00017   0.00017   2.05091
   R19        2.07543  -0.00273   0.00000  -0.00658  -0.00658   2.06885
   R20        2.06318   0.00073   0.00000   0.00173   0.00173   2.06492
   R21        2.06939   0.00084   0.00000   0.00201   0.00201   2.07140
   R22        2.05866   0.00113   0.00000   0.00265   0.00265   2.06131
   R23        2.77544  -0.01044   0.00000  -0.02388  -0.02388   2.75156
   R24        1.93833  -0.00834   0.00000  -0.01604  -0.01604   1.92229
   R25        2.74610  -0.00714   0.00000  -0.01558  -0.01558   2.73053
   R26        2.78821  -0.00941   0.00000  -0.02197  -0.02197   2.76624
   R27        1.84577  -0.01413   0.00000  -0.02300  -0.02300   1.82276
   R28        2.69225  -0.01125   0.00000  -0.02242  -0.02242   2.66983
   R29        2.06676   0.00441   0.00000   0.01049   0.01049   2.07724
   R30        2.07122   0.00001   0.00000   0.00002   0.00002   2.07124
   R31        1.83242  -0.00446   0.00000  -0.00708  -0.00708   1.82534
    A1        1.88978   0.00439   0.00000   0.02333   0.02312   1.91290
    A2        1.92734   0.00192   0.00000   0.00791   0.00781   1.93516
    A3        1.95726   0.00316   0.00000   0.01196   0.01188   1.96914
    A4        1.87229  -0.00171   0.00000  -0.00270  -0.00292   1.86937
    A5        1.89601  -0.00359   0.00000  -0.01507  -0.01524   1.88077
    A6        1.91868  -0.00434   0.00000  -0.02565  -0.02562   1.89306
    A7        2.02459  -0.01422   0.00000  -0.04947  -0.04966   1.97493
    A8        1.78722   0.01036   0.00000   0.06426   0.06459   1.85181
    A9        1.91379   0.00321   0.00000  -0.00141  -0.00243   1.91135
   A10        1.90470   0.00128   0.00000   0.00945   0.01042   1.91512
   A11        1.94078   0.00384   0.00000  -0.00198  -0.00279   1.93799
   A12        1.88221  -0.00364   0.00000  -0.01427  -0.01450   1.86770
   A13        1.99948   0.02466   0.00000   0.09134   0.09120   2.09068
   A14        1.89010  -0.00751   0.00000  -0.02933  -0.02787   1.86223
   A15        1.89773  -0.00443   0.00000   0.00485   0.00410   1.90183
   A16        1.91721  -0.00998   0.00000  -0.05003  -0.04962   1.86759
   A17        1.90318  -0.00804   0.00000  -0.02192  -0.02402   1.87916
   A18        1.85023   0.00398   0.00000  -0.00098  -0.00192   1.84831
   A19        1.90788   0.00161   0.00000   0.01211   0.01185   1.91972
   A20        1.92971   0.01143   0.00000   0.06220   0.06187   1.99157
   A21        1.84054  -0.01432   0.00000  -0.09361  -0.09306   1.74747
   A22        1.96464  -0.00783   0.00000  -0.01584  -0.01693   1.94772
   A23        1.89296   0.00759   0.00000   0.02873   0.02849   1.92145
   A24        1.92365   0.00109   0.00000   0.00111   0.00244   1.92609
   A25        1.96026   0.00133   0.00000   0.00868   0.00872   1.96898
   A26        1.93885  -0.00211   0.00000  -0.01178  -0.01187   1.92699
   A27        1.95366  -0.00325   0.00000  -0.01535  -0.01543   1.93823
   A28        1.86955   0.00067   0.00000   0.00403   0.00406   1.87361
   A29        1.85866   0.00199   0.00000   0.01301   0.01306   1.87171
   A30        1.87790   0.00170   0.00000   0.00293   0.00273   1.88064
   A31        2.11724  -0.00022   0.00000   0.00349   0.00362   2.12086
   A32        1.89860  -0.00570   0.00000  -0.03423  -0.03459   1.86401
   A33        1.90536  -0.00180   0.00000  -0.01668  -0.01690   1.88845
   A34        1.75516   0.00711   0.00000   0.04820   0.04826   1.80342
   A35        1.90317   0.00221   0.00000   0.01625   0.01625   1.91941
   A36        1.86563  -0.00144   0.00000  -0.01706  -0.01817   1.84746
   A37        1.95623   0.00353   0.00000   0.01205   0.01206   1.96828
   A38        1.90309  -0.00353   0.00000  -0.01393  -0.01390   1.88919
   A39        1.98160   0.00317   0.00000   0.01626   0.01625   1.99785
   A40        1.87927  -0.00095   0.00000  -0.00821  -0.00817   1.87110
   A41        1.92703  -0.00495   0.00000  -0.02620  -0.02622   1.90081
   A42        1.80791   0.00239   0.00000   0.01918   0.01919   1.82710
   A43        1.98106   0.03036   0.00000   0.08566   0.08658   2.06764
   A44        1.86637  -0.00889   0.00000  -0.05613  -0.05410   1.81227
   A45        1.89920  -0.01739   0.00000  -0.11063  -0.10899   1.79021
   A46        1.92840  -0.00430   0.00000  -0.03997  -0.04113   1.88727
   A47        1.93272  -0.01713   0.00000  -0.08073  -0.08161   1.85111
   A48        1.77420   0.00897   0.00000   0.01374   0.01090   1.78510
   A49        1.74333   0.00639   0.00000   0.02925   0.02925   1.77259
   A50        1.91979   0.00025   0.00000   0.00197   0.00212   1.92191
   A51        1.94112  -0.01063   0.00000  -0.05592  -0.05615   1.88497
   A52        1.95299  -0.00042   0.00000  -0.00927  -0.00956   1.94343
   A53        1.86091   0.00982   0.00000   0.05949   0.05959   1.92050
   A54        1.88776  -0.00099   0.00000  -0.00331  -0.00343   1.88433
   A55        1.89819   0.00271   0.00000   0.01170   0.01069   1.90888
   A56        1.81598   0.00459   0.00000   0.02099   0.02099   1.83697
    D1        3.06583   0.00203   0.00000   0.02951   0.02914   3.09497
    D2        0.99371   0.00082   0.00000   0.00005   0.00041   0.99412
    D3       -1.00134  -0.00143   0.00000  -0.01473  -0.01468  -1.01602
    D4        1.02073   0.00043   0.00000   0.01460   0.01415   1.03488
    D5       -1.05139  -0.00078   0.00000  -0.01486  -0.01458  -1.06597
    D6       -3.04644  -0.00303   0.00000  -0.02965  -0.02967  -3.07612
    D7       -1.12565   0.00241   0.00000   0.03351   0.03317  -1.09248
    D8        3.08541   0.00119   0.00000   0.00405   0.00445   3.08986
    D9        1.09037  -0.00106   0.00000  -0.01074  -0.01065   1.07972
   D10       -3.09952  -0.00536   0.00000  -0.06824  -0.06856   3.11510
   D11        1.03734  -0.00372   0.00000  -0.04410  -0.04401   0.99333
   D12       -0.96564  -0.00214   0.00000  -0.03005  -0.02939  -0.99503
   D13       -1.09299   0.00001   0.00000  -0.01026  -0.01069  -1.10368
   D14        3.04387   0.00165   0.00000   0.01388   0.01386   3.05773
   D15        1.04090   0.00323   0.00000   0.02793   0.02848   1.06937
   D16        0.98119  -0.00133   0.00000  -0.02308  -0.02372   0.95747
   D17       -1.16514   0.00031   0.00000   0.00106   0.00084  -1.16430
   D18        3.11508   0.00189   0.00000   0.01511   0.01545   3.13053
   D19       -1.09791   0.00413   0.00000   0.03851   0.03849  -1.05943
   D20        1.07426   0.00313   0.00000   0.06930   0.07053   1.14478
   D21       -3.12987   0.00208   0.00000   0.04870   0.04819  -3.08168
   D22        1.03373   0.00422   0.00000   0.02689   0.02597   1.05969
   D23       -3.07729   0.00322   0.00000   0.05768   0.05800  -3.01929
   D24       -0.99823   0.00217   0.00000   0.03707   0.03567  -0.96256
   D25        3.05435  -0.00114   0.00000  -0.01462  -0.01444   3.03991
   D26       -1.05667  -0.00214   0.00000   0.01617   0.01760  -1.03906
   D27        1.02240  -0.00319   0.00000  -0.00443  -0.00474   1.01766
   D28        1.12732   0.00739   0.00000   0.05700   0.05678   1.18411
   D29       -0.96623   0.00709   0.00000   0.05414   0.05398  -0.91225
   D30       -3.06593   0.00859   0.00000   0.06902   0.06873  -2.99720
   D31       -1.02427  -0.00306   0.00000  -0.02078  -0.02036  -1.04464
   D32       -3.11782  -0.00335   0.00000  -0.02364  -0.02317  -3.14099
   D33        1.06565  -0.00185   0.00000  -0.00876  -0.00841   1.05724
   D34        3.12569  -0.00463   0.00000  -0.03195  -0.03213   3.09356
   D35        1.03215  -0.00493   0.00000  -0.03481  -0.03494   0.99721
   D36       -1.06756  -0.00342   0.00000  -0.01993  -0.02019  -1.08775
   D37       -1.18459  -0.00415   0.00000  -0.03980  -0.03989  -1.22448
   D38        3.07946  -0.00882   0.00000  -0.07844  -0.07813   3.00133
   D39        1.04955  -0.00294   0.00000  -0.02986  -0.03011   1.01943
   D40        0.95478   0.00075   0.00000   0.01021   0.01025   0.96503
   D41       -1.06436  -0.00392   0.00000  -0.02842  -0.02799  -1.09235
   D42       -3.09427   0.00196   0.00000   0.02016   0.02003  -3.07425
   D43        3.07058   0.00590   0.00000   0.03697   0.03680   3.10737
   D44        1.05144   0.00123   0.00000  -0.00166  -0.00145   1.04999
   D45       -0.97848   0.00710   0.00000   0.04692   0.04657  -0.93191
   D46        3.04880  -0.00970   0.00000  -0.12915  -0.12997   2.91882
   D47        0.95429  -0.00031   0.00000  -0.00487  -0.00529   0.94900
   D48        1.00671  -0.00783   0.00000  -0.10873  -0.10884   0.89787
   D49       -1.08780   0.00157   0.00000   0.01555   0.01585  -1.07195
   D50       -1.15130  -0.00383   0.00000  -0.10880  -0.10846  -1.25976
   D51        3.03738   0.00557   0.00000   0.01548   0.01622   3.05360
   D52       -0.69582   0.00049   0.00000   0.00217   0.00208  -0.69375
   D53       -2.77483   0.00180   0.00000   0.01405   0.01398  -2.76085
   D54        1.50262  -0.00074   0.00000  -0.01022  -0.01029   1.49233
   D55        1.39483  -0.00129   0.00000  -0.00140  -0.00144   1.39339
   D56       -0.68418   0.00002   0.00000   0.01048   0.01046  -0.67371
   D57       -2.68991  -0.00252   0.00000  -0.01379  -0.01381  -2.70373
   D58       -2.93093   0.00105   0.00000   0.00681   0.00690  -2.92403
   D59        1.27325   0.00237   0.00000   0.01870   0.01881   1.29206
   D60       -0.73249  -0.00017   0.00000  -0.00558  -0.00547  -0.73795
   D61        1.29309   0.00979   0.00000   0.22561   0.22499   1.51808
   D62       -3.03808   0.00870   0.00000   0.17511   0.17704  -2.86103
   D63       -2.91433   0.00580   0.00000   0.13305   0.13112  -2.78321
   D64       -0.96231   0.00471   0.00000   0.08255   0.08317  -0.87914
   D65       -2.00393  -0.01055   0.00000  -0.09490  -0.09518  -2.09911
   D66        2.22707   0.00625   0.00000   0.00778   0.00806   2.23513
   D67        3.10997   0.00428   0.00000   0.01647   0.01631   3.12629
   D68        1.05235  -0.00147   0.00000  -0.02388  -0.02356   1.02879
   D69       -1.07450   0.00292   0.00000   0.00756   0.00721  -1.06729
   D70       -1.12414  -0.00323   0.00000  -0.05684  -0.05688  -1.18102
   D71        3.10142  -0.00898   0.00000  -0.09719  -0.09675   3.00467
   D72        0.97457  -0.00459   0.00000  -0.06576  -0.06598   0.90859
   D73       -0.70078   0.00094   0.00000  -0.01087  -0.01089  -0.71167
   D74        1.40586  -0.00582   0.00000  -0.04137  -0.04163   1.36423
   D75       -2.83851   0.00194   0.00000   0.00145   0.00173  -2.83677
         Item               Value     Threshold  Converged?
 Maximum Force            0.030364     0.000450     NO 
 RMS     Force            0.006397     0.000300     NO 
 Maximum Displacement     0.906167     0.001800     NO 
 RMS     Displacement     0.275934     0.001200     NO 
 Predicted change in Energy=-2.556542D-02
 GradGradGradGradGradGradGradGradGradGradGradGradGradGradGradGradGradGrad

                          Input orientation:                          
 ---------------------------------------------------------------------
 Center     Atomic      Atomic             Coordinates (Angstroms)
 Number     Number       Type             X           Y           Z
 ---------------------------------------------------------------------
      1          6           0        0.764767   -0.400979    0.336332
      2          6           0        2.246078   -0.144592    0.030002
      3          6           0        3.168505   -0.446491    1.217455
      4          6           0        4.716574   -0.272355    1.063550
      5          6           0        5.245027   -1.208554   -0.041520
      6          6           0        5.171695    1.200001    0.833911
      7          6           0        4.878069    1.938308   -0.489636
      8          7           0        5.173055   -0.757172    2.414307
      9          7           0        6.589507   -1.031148    2.611080
     10          8           0        7.235571    0.200491    3.002865
     11          6           0        6.681062   -1.832893    3.832400
[...]
 9266,0.00007824,0.00010617,-0.00008983,-0.00000923,0.00007108,-0.00004
 759,0.00010203,-0.00012365,0.00001377,-0.00004811,0.00005098,-0.000020
 98,0.00003419,-0.00000073,-0.00000140,0.00000028,0.00005324,-0.0000089
 5,-0.00016874,0.00001165,0.00006851,-0.00072180,-0.00168903,0.00085008
 ,-0.00011263,-0.00028522,0.00009276,0.00013449,0.00004096,0.00004366,0
 .00003871,0.00005416,-0.00008257,-0.00009264,-0.00000741,-0.00002257,0
 .00001570,0.00011167,-0.00003098,0.00007935,-0.00007033,0.00002058,0.0
 0157643,0.00042194,-0.00140676,0.00064509,-0.00023187,-0.00040155,-0.0
 0628144,0.00056340,-0.00023769,-0.01680431,0.00451733,-0.00021535,0.32
 067781,-0.00017876,0.00023104,-0.00019494,-0.00067149,-0.00092906,0.00
 092469,0.00011085,-0.00011255,0.00035141,0.00126688,0.00050193,-0.0005
 4172,-0.00023291,-0.00028258,-0.00003239,0.01351478,-0.00360634,-0.000
 02541,0.06260314,-0.06275055,0.00297857,-0.00015825,0.00003449,0.00005
 556,-0.00005303,-0.00007670,0.00013064,-0.00003437,-0.00008793,-0.0000
 2098,-0.00008533,0.00005372,0.00002480,-0.00000689,-0.00001348,0.00000
 151,0.00000603,-0.00000634,0.00002155,0.00000463,-0.00004142,0.0000043
 7,0.00017792,0.00001676,-0.00006810,-0.00126822,-0.00110773,-0.0007676
 4,0.00016815,0.00029537,-0.00021752,-0.00011892,0.00011409,-0.00018654
 ,-0.00006837,0.00001728,0.00014578,0.00020930,0.00003074,0.00003164,0.
 00000288,-0.00012079,0.00011034,-0.00013449,0.00013694,-0.00005690,0.0
 0031818,-0.00011596,0.00264985,-0.00086098,0.00058566,-0.00029236,0.01
 998672,-0.00521210,0.00154996,-0.02689743,0.00736848,-0.00121350,-0.06
 763520,0.06515623,0.00003718,0.00010102,0.00002699,0.00016562,-0.00005
 321,0.00014325,0.00000222,0.00077010,0.00013972,-0.00031483,-0.0006857
 9,0.00088828,-0.00001839,-0.00011574,-0.00010699,-0.03088412,0.0066438
 4,-0.00142623,-0.01251968,0.00271867,-0.04804258,-0.00010160,-0.000240
 44,0.00009334,-0.00002277,0.00031058,-0.00031739,0.00001917,0.00012878
 ,0.00001827,0.00021998,-0.00017996,-0.00008512,-0.00004903,0.00004740,
 -0.00000308,-0.00001539,-0.00004122,-0.00001558,0.00006621,-0.00002347
 ,-0.00001266,0.00000590,-0.00002109,-0.00001894,-0.00007258,-0.0000599
 0,0.00041492,-0.00006145,-0.00007791,-0.00002385,0.00009090,-0.0002426
 8,-0.00007044,0.00015315,-0.00016094,-0.00035213,0.00012961,0.00007904
 ,0.00011683,0.00000464,0.00003241,0.00012904,0.00001446,-0.00006443,-0
 .00011514,-0.00111196,0.00305187,-0.00529255,0.00032634,-0.00076109,0.
 00146336,0.02431599,-0.00458316,0.00141213,0.00311092,-0.00125439,-0.0
 0073867,0.01647703,-0.00537107,0.05175008,-0.00005514,0.00005033,-0.00
 003076,-0.00040447,-0.00046737,0.00029510,0.00223948,0.00362999,-0.003
 26803,0.00455526,0.00573454,-0.00184194,-0.00065242,0.00023563,-0.0002
 2090,-0.00111765,0.00128757,-0.00260766,0.00059466,0.00070465,-0.00017
 835,-0.12822963,-0.13204513,0.05758104,-0.04092334,-0.02528556,0.01254
 409,-0.00112882,0.00099430,0.00169682,0.00028328,-0.00473898,0.0006295
 9,0.00156935,0.00076061,-0.00045215,0.00001140,-0.00001148,0.00002814,
 -0.00001281,0.00000455,-0.00000808,-0.00006134,-0.00003464,-0.00000748
 ,0.00014240,-0.00000159,0.00029725,0.00005968,0.00005987,0.00005071,-0
 .00137352,-0.00114640,-0.00016366,-0.00021254,0.00001846,0.00010363,0.
 00009713,-0.00001519,-0.00034744,0.00017436,0.00007197,0.00032214,-0.0
 0007121,-0.00007732,-0.00002919,-0.00013841,-0.00005482,-0.00014835,-0
 .00003946,-0.00009458,-0.00002532,0.00000163,-0.00004060,-0.00001901,-
 0.00004996,0.00019774,-0.00026706,-0.00006053,0.00004737,-0.00000715,0
 .16438459,0.00005584,-0.00001184,0.00000726,0.00048726,0.00049346,-0.0
 0030288,-0.00044755,-0.00015296,-0.00035058,-0.00291192,-0.01011849,-0
 .00734669,0.00008772,0.00148849,-0.00106954,0.00202556,-0.00018312,0.0
 0416631,-0.00107791,-0.00073685,-0.00011817,-0.16277944,-0.24360317,0.
 15549709,0.01492072,0.00446262,-0.00656854,-0.00378776,-0.00156937,0.0
 0064636,0.00471649,0.00160577,-0.00373033,-0.00072573,-0.00072985,0.00
 035407,-0.00001858,-0.00000209,-0.00003029,0.00001709,-0.00002323,0.00
 002335,0.00004042,0.00003732,0.00001977,-0.00022060,-0.00000444,-0.000
 35882,-0.00005307,-0.00007549,-0.00011377,0.00116064,0.00107704,0.0001
 4893,0.00013477,-0.00030613,0.00026257,0.00000022,-0.00039974,-0.00013
 723,-0.00027140,0.00006306,0.00014444,0.00022548,-0.00007077,-0.000051
 07,0.00008080,0.00022857,-0.00022114,0.00015450,0.00034460,0.00010408,
 -0.00000773,-0.00000421,0.00013311,0.00011473,-0.00020888,0.00044201,0
 .00011744,-0.00007939,0.00003019,0.14906961,0.24759919,-0.00007224,-0.
 00001366,0.00002915,-0.00016541,-0.00055963,0.00005462,0.00224727,0.00
 068865,-0.00018656,0.01533151,0.02628515,-0.01448993,0.00036317,0.0012
 7594,0.00064172,-0.00260654,-0.00081443,-0.00482734,0.00104226,0.00124
 090,0.00072479,0.04814890,0.12599104,-0.09883797,0.00627391,-0.0069449
 1,0.00379668,-0.00416178,-0.00143404,-0.00044463,-0.00233067,-0.001608
 29,0.00453853,-0.00105124,0.00045563,-0.00106524,0.00002835,0.00000295
 ,0.00000071,0.00002753,-0.00002760,-0.00000401,-0.00003008,0.00000702,
 -0.00000602,0.00018505,-0.00000863,0.00025842,-0.00004624,-0.00002515,
 -0.00009328,-0.00171593,-0.00052492,0.00088244,0.00009194,-0.00049024,
 0.00034897,-0.00006158,-0.00047468,0.00030369,-0.00019065,-0.00109188,
 -0.00040028,0.00021999,-0.00012086,0.00000428,0.00016713,-0.00020137,0
 .00005219,-0.00019046,0.00004502,0.00022937,0.00002666,-0.00009336,-0.
 00004041,-0.00016450,0.00022409,-0.00052966,-0.00006378,0.00003752,-0.
 00000579,-0.06253771,-0.14063371,0.11225870,-0.00000639,0.00000545,0.0
 0001034,0.00000525,-0.00001014,-0.00001482,0.00003921,0.00003332,0.000
 06422,0.00023734,-0.00088018,0.00025297,-0.00022781,0.00011188,-0.0002
 4576,-0.00009930,-0.00002737,0.00005672,0.00007869,0.00003789,-0.00003
 888,-0.00231653,-0.00133290,-0.00521735,-0.01001720,0.00561666,0.00539
 038,-0.49618194,-0.04156979,0.02915800,0.00247717,-0.00235876,0.001366
 10,-0.00243974,0.00063957,0.00044684,0.00001234,-0.00000057,0.00000586
 ,0.00000230,-0.00000494,-0.00000311,0.00000024,0.00000041,-0.00000373,
 -0.00000034,-0.00000250,0.00000238,-0.00000198,-0.00000371,-0.00000559
 ,0.00000779,-0.00000475,0.00000304,0.00001234,-0.00001947,0.00000089,0
 .00009080,-0.00008887,-0.00006429,0.00000425,0.00000931,0.00001156,0.0
 0008219,-0.00004018,-0.00016693,0.00007097,0.00010985,-0.00022820,-0.0
 0007349,0.00001955,-0.00000966,0.00000272,0.00000694,0.00002164,-0.000
 00614,-0.00000992,-0.00000704,0.00002336,-0.00002059,0.00004233,0.0004
 8176,-0.00008095,-0.00037593,0.50804767,0.00000089,0.00000238,0.000000
 58,0.00001887,0.00004496,-0.00000221,-0.00003786,-0.00002776,0.0000329
 5,-0.00006912,-0.00052909,0.00007878,-0.00016822,-0.00001289,-0.000120
 31,0.00024628,-0.00010345,0.00002411,-0.00005207,-0.00001639,0.0000264
 6,-0.00376534,-0.00183645,-0.00312438,-0.02625552,-0.00511928,-0.00217
 128,-0.00476720,-0.01846710,-0.02038296,-0.00719236,-0.00343734,-0.001
 46250,0.00260713,0.00319220,0.00086449,0.00000228,0.00000068,0.0000010
 5,0.00000693,-0.00000618,-0.00000465,-0.00000526,-0.00000370,0.0000045
 7,0.00000450,-0.00000311,0.00001641,-0.00000329,-0.00001900,-0.0000094
 5,-0.00003237,-0.00001409,-0.00000086,0.00001539,-0.00000300,-0.000031
 69,0.00006594,-0.00003706,-0.00003192,-0.00004685,-0.00005494,-0.00000
 743,0.00006915,0.00004879,-0.00007883,-0.00006452,0.00018370,0.0001397
 2,0.00007448,-0.00001060,-0.00006382,0.00000114,-0.00000951,-0.0000459
 3,0.00000289,-0.00004461,0.00004816,-0.00002426,0.00001386,-0.00003115
 ,-0.00053444,-0.00044640,-0.00043734,0.03840814,0.02711373,-0.00001265
 ,-0.00000626,-0.00003133,-0.00006830,0.00005973,0.00005259,-0.00012382
 ,0.00009058,-0.00026769,-0.00073365,-0.00125917,0.00073122,-0.00025306
 ,0.00014390,-0.00015692,-0.00038782,0.00002394,0.00005122,0.00017176,0
 .00006959,-0.00005740,-0.00766599,-0.00394631,-0.00631233,-0.03449811,
 -0.00108800,0.00188582,0.07316764,-0.01866246,-0.03587042,-0.00041420,
 -0.00128505,0.00175569,0.00057230,0.00093725,-0.00123353,-0.00000669,-
 0.00000080,0.00000657,0.00000200,-0.00000166,-0.00000031,0.00000632,0.
 00000384,-0.00000381,-0.00001440,0.00000566,-0.00002859,0.00000310,-0.
 00000812,-0.00000273,0.00008045,0.00005619,-0.00005702,-0.00002311,0.0
 0001354,-0.00001447,0.00013130,-0.00006574,-0.00010187,0.00003868,0.00
 007700,0.00002135,0.00011715,-0.00009712,-0.00012716,0.00015306,0.0000
 8302,-0.00028985,-0.00002080,0.00000760,0.00000158,-0.00001157,-0.0000
 0060,0.00002581,-0.00002110,0.00002995,-0.00003625,0.00005605,-0.00004
 430,0.00007757,-0.00034973,-0.00096357,-0.00134787,-0.03040268,0.02723
 123,0.04237741,0.00000218,0.00000316,0.00000004,-0.00000203,-0.0000102
 9,0.00000692,0.00002643,0.00004922,0.00002304,0.00005928,-0.00022059,0
 .00000695,0.00013734,0.00040461,-0.00039318,-0.00003603,-0.00000667,0.
 00002254,0.00002854,-0.00000362,-0.00001138,0.00028875,0.00160188,0.00
 071536,0.00354555,0.00250164,0.00439548,0.00098455,0.00352309,-0.00010
 961,-0.07055199,-0.05028801,-0.04504527,-0.03185507,-0.02193935,-0.025
 37121,-0.00000164,-0.00000117,-0.00000159,-0.00000148,0.00000027,0.000
 00193,-0.00000194,-0.00000032,0.00000144,0.00000320,-0.00000334,0.0000
 0055,0.00000025,0.00000527,-0.00000337,-0.00000764,-0.00000701,0.00001
 132,-0.00000577,-0.00000842,0.00001138,-0.00012311,0.00001600,-0.00001
 124,-0.00006466,-0.00002160,-0.00022674,-0.00018678,-0.00014832,0.0000
 6278,0.00001385,0.00000627,-0.00001733,-0.00000299,-0.00001300,-0.0000
 0220,-0.00000343,0.00000038,0.00000169,0.00000032,0.00000870,-0.000003
 00,0.00000067,-0.00000128,0.00000592,-0.00015073,0.00064344,0.00007509
 ,-0.00053138,0.00066147,-0.00000220,0.09025477,0.00001847,0.00001541,0
 .00001584,0.00003697,-0.00004941,-0.00001307,0.00004974,0.00006061,0.0
 0021979,0.00052776,-0.00025058,-0.00026827,0.00019815,-0.00012969,-0.0
 0013124,-0.00009838,-0.00000769,0.00002202,0.00006442,0.00001654,-0.00
 002835,-0.00140971,0.00178360,0.00030460,-0.00917065,-0.02464400,-0.02
 290959,0.00032075,-0.00857951,0.00054720,-0.04837466,-0.15758539,-0.10
 329185,-0.00033240,0.00714188,0.00253167,-0.00000230,-0.00000126,-0.00
 000560,-0.00001510,0.00000845,0.00000517,-0.00000345,-0.00000355,0.000
 00217,0.00000054,-0.00000627,0.00000247,0.00002701,0.00003818,0.000029
 01,0.00000196,-0.00000196,-0.00001674,-0.00007218,0.00004291,0.0000071
 8,-0.00024388,0.00028835,-0.00000399,0.00038420,0.00025523,0.00006999,
 -0.00037726,-0.00030883,0.00024331,0.00003843,-0.00000176,-0.00009067,
 -0.00006533,0.00009927,-0.00000797,-0.00000552,-0.00000609,0.00006335,
 -0.00000223,0.00002999,-0.00001264,0.00000245,-0.00000457,0.00002306,0
 .00110650,-0.00007147,-0.00061607,0.00073074,0.00011025,-0.00002811,0.
 05570771,0.17633934,0.00000149,-0.00000510,0.00000761,0.00001003,0.000
 00567,-0.00000976,-0.00000673,-0.00006204,0.00005560,0.00016992,-0.000
 07471,0.00004159,-0.00033553,0.00014344,-0.00039515,-0.00006085,-0.000
 00828,-0.00005803,0.00002632,0.00002075,-0.00001074,0.00020749,0.00055
 587,0.00110407,0.00189653,0.00890726,0.00424697,-0.00039821,0.00134877
 ,0.00309163,-0.04750871,-0.11333767,-0.17090832,-0.00686053,-0.0007144
 6,0.00373991,-0.00000034,-0.00000010,-0.00000171,-0.00000172,0.0000061
 1,0.00000030,0.00000548,0.00000031,-0.00000413,-0.00000465,0.00000340,
 -0.00000901,-0.00000409,0.00000229,0.00001154,0.00002726,0.00002070,-0
 .00003132,0.00000246,0.00002210,-0.00000808,-0.00002768,0.00008981,-0.
 00003979,-0.00000370,0.00014886,-0.00016144,-0.00011816,0.00013590,-0.
 00028392,0.00002319,0.00000478,-0.00002442,-0.00001221,-0.00001014,-0.
 00000379,-0.00000307,0.00000397,0.00000083,0.00000104,0.00000991,-0.00
 001120,0.00000322,-0.00000567,0.00000613,0.00053473,-0.00008398,-0.000
 52959,-0.00009794,0.00020523,-0.00014330,0.06084866,0.11956247,0.17462
 009,0.00000192,0.00000147,0.00000171,0.00000655,0.00000039,-0.00000051
 ,-0.00004489,-0.00001492,0.00003285,0.00015770,-0.00034412,-0.00003346
 ,0.00001671,-0.00000277,0.00003264,0.00003799,0.00012478,-0.00014237,-
 0.00010488,0.00000040,0.00003780,0.00450989,0.00064517,-0.00005736,0.0
 0408296,0.00656524,-0.01073864,-0.00080958,-0.00137152,0.00043829,-0.0
 7929664,-0.01542797,0.07427155,-0.02986629,-0.00470636,0.03513293,-0.0
 0000124,-0.00000011,-0.00000155,-0.00000074,0.00000024,0.00000049,-0.0
 0000019,0.00000012,0.00000028,0.00000068,0.00000134,-0.00000086,0.0000
 0112,0.00000125,0.00000268,-0.00001292,0.00000577,-0.00001186,-0.00000
 461,0.00000370,-0.00000175,-0.00003364,0.00003795,-0.00000875,0.000039
 98,0.00002133,0.00001283,-0.00005191,0.00001390,0.00003149,-0.00011714
 ,-0.00006958,0.00004982,0.00002033,0.00000490,0.00000677,-0.00000087,-
 0.00000584,-0.00000384,0.00000068,0.00000587,0.00000767,-0.00000952,0.
 00001941,-0.00003503,-0.00028986,-0.00163531,0.00122972,-0.00011592,0.
 00018698,0.00029957,0.00627062,0.00165376,-0.00798563,0.10296093,0.000
 00171,0.00001254,0.00002900,0.00003909,-0.00003066,-0.00004647,0.00001
 555,0.00005750,0.00016303,0.00033523,-0.00020174,-0.00018652,0.0000204
 4,0.00001034,-0.00010845,-0.00023268,-0.00004076,0.00025702,0.00018093
 ,0.00001341,-0.00008532,-0.00510999,0.00038538,-0.00156749,-0.00508198
 ,-0.02217913,0.03714400,0.00096383,0.00633353,0.00026689,-0.01596483,-
 0.05596288,0.02714916,0.00103694,0.00275555,-0.00072141,0.00001749,-0.
 00000142,0.00000396,-0.00000406,-0.00000225,-0.00000010,-0.00000112,0.
 00000124,-0.00000338,0.00000008,-0.00000651,0.00000622,0.00000995,0.00
 001648,0.00000763,-0.00000898,0.00001494,-0.00001064,-0.00002285,-0.00
 001212,0.00001690,-0.00004826,0.00008322,-0.00000509,0.00016889,0.0001
 0720,0.00002424,-0.00013378,-0.00017485,-0.00002846,0.00025594,0.00017
 955,-0.00017953,0.00003111,0.00000358,-0.00000764,-0.00000423,0.000002
 87,0.00003305,-0.00001231,-0.00000388,0.00000237,0.00003080,-0.0000317
 9,0.00007904,0.00111084,0.00145248,-0.00033736,0.00008976,-0.00010506,
 -0.00003400,0.00705761,0.00526354,-0.01842694,0.01503778,0.06078100,0.
 00001199,0.00000765,-0.00003762,-0.00004224,-0.00000624,0.00005659,0.0
 0003122,0.00007707,-0.00018848,-0.00036373,-0.00034763,-0.00010331,0.0
 0012536,-0.00000392,0.00000551,0.00022370,0.00000372,0.00012134,-0.000
 11277,-0.00005821,0.00003873,0.00130095,-0.00041426,0.00184998,0.00197
 539,0.01189694,-0.01635426,-0.00070395,-0.00196131,0.00522118,0.086932
 56,0.03228700,-0.25703168,0.00073741,-0.00106629,0.00530756,-0.0000226
 1,-0.00000124,-0.00000343,-0.00000435,0.00000335,0.00000389,-0.0000108
 9,-0.00000938,0.00001099,0.00000758,-0.00000267,0.00001243,0.00000922,
 0.00000805,-0.00000177,-0.00002759,-0.00004890,0.00003460,-0.00002167,
 0.00000937,0.00000640,-0.00006556,0.00003546,-0.00003284,0.00001596,0.
 00001586,-0.00001131,-0.00007684,0.00004683,0.00016179,-0.00015904,-0.
 00016331,0.00012312,-0.00002257,0.00003221,0.00000557,0.00000218,-0.00
 000437,-0.00000439,0.00001074,0.00000580,0.00001047,-0.00003332,0.0000
 2972,-0.00005217,-0.00176831,0.00000655,-0.00110155,-0.00040741,0.0000
 5032,-0.00050925,0.00683501,0.00365745,-0.01549648,-0.09245493,-0.0441
 5994,0.27585279,-0.00001715,0.00000101,0.00004555,0.00002258,-0.000004
 87,-0.00007425,-0.00002916,-0.00004107,0.00011442,-0.00011806,0.000381
 69,-0.00037026,-0.00028139,-0.00005381,0.00019481,0.00000630,0.0000437
 3,-0.00001586,-0.00000724,0.00000050,-0.00002815,0.00095557,-0.0008693
 0,-0.00092385,0.00254571,0.00052830,0.00034031,0.00015463,-0.00072406,
 -0.00054974,-0.03008186,-0.00576806,0.04723261,-0.10714303,-0.01409669
 ,0.13133774,0.00003930,0.00000198,0.00001646,0.00000678,-0.00000787,-0
 .00001014,0.00000099,0.00000332,-0.00001094,0.00000587,-0.00000431,0.0
 0001860,-0.00000942,-0.00000904,-0.00000103,-0.00002522,-0.00000697,0.
 00000297,0.00003030,-0.00001727,-0.00000961,0.00013905,-0.00001444,0.0
 0009323,-0.00002649,-0.00001914,-0.00002454,0.00008682,0.00005707,-0.0
 0028101,0.00003224,0.00009131,-0.00006454,0.00000434,-0.00001119,-0.00
 001161,0.00001117,0.00001877,0.00000439,-0.00000614,-0.00005232,0.0000
 2450,0.00002213,-0.00000972,0.00002640,0.00037688,-0.00003477,0.000306
 24,0.00034177,0.00064625,0.00021052,0.00191036,-0.00069651,-0.00032806
 ,-0.00734722,0.00022110,-0.00192146,0.13839957,0.00000579,-0.00001113,
 -0.00004348,-0.00002318,0.00004794,0.00006159,0.00001859,-0.00004715,-
 0.00013124,0.00007833,-0.00008523,0.00047703,0.00005975,0.00001161,-0.
 00009795,0.00018356,-0.00004301,-0.00005698,-0.00006090,0.00000103,0.0
 0005674,0.00020056,-0.00044286,0.00064008,-0.00051021,0.00209632,-0.00
 242533,0.00007192,-0.00160723,0.00028717,0.00061049,-0.00001704,-0.000
 88423,-0.02071922,-0.01196340,0.04866515,-0.00003036,0.00000147,-0.000
 01182,0.00000566,-0.00000243,0.00000301,-0.00000248,-0.00000133,0.0000
 1247,-0.00000100,0.00000198,-0.00000724,-0.00000770,-0.00002301,-0.000
 02050,0.00000027,0.00000218,0.00001688,0.00002312,-0.00001043,-0.00000
 863,0.00001568,-0.00008041,-0.00006556,-0.00017004,-0.00008611,0.00000
 303,0.00008140,0.00019951,0.00007075,-0.00006885,-0.00007053,0.0000967
 5,-0.00001398,-0.00003753,0.00000254,0.00000717,-0.00000655,-0.0000381
 3,0.00001099,-0.00000031,-0.00000735,-0.00004049,0.00002268,-0.0000483
 8,-0.00053642,-0.00005471,0.00020425,0.00063614,-0.00040358,-0.0013417
 5,0.00048227,0.00015849,0.00153149,-0.00075323,0.00127871,0.00007428,0
 .02044639,0.01117205,-0.00000582,-0.00000742,-0.00001209,-0.00001680,0
 .00001979,0.00001688,-0.00001311,-0.00004455,-0.00008979,0.00008881,0.
 00003470,0.00045195,-0.00032421,-0.00004885,-0.00007500,-0.00005495,0.
 00000038,-0.00006958,0.00002235,0.00002478,0.00001018,-0.00119248,0.00
 079888,-0.00033992,-0.00124648,-0.00123605,0.00109725,0.00009683,-0.00
 012834,-0.00094194,-0.00585252,-0.00032729,0.00223207,0.18484099,0.047
 68879,-0.43507593,-0.00000465,0.00000070,0.00000062,0.00000523,-0.0000
 0245,-0.00000107,0.00000333,0.00000229,-0.00000107,-0.00000431,0.00000
 446,-0.00000910,-0.00000733,-0.00001741,-0.00001059,0.00002781,0.00001
 277,-0.00000744,0.00003539,-0.00000981,-0.00000905,0.00007944,-0.00001
 167,-0.00003733,0.00004378,0.00002389,0.00000700,0.00006999,0.00002680
 ,-0.00002614,0.00001882,0.00003314,0.00002678,0.00002518,-0.00003636,-
 0.00000571,-0.00000879,-0.00000312,-0.00002678,-0.00000284,0.00000487,
 -0.00000836,0.00000926,-0.00000884,-0.00000060,0.00019505,0.00009424,-
 0.00021416,0.00045602,-0.00071733,-0.00039472,-0.00182777,0.00011740,0
 .00120388,-0.00011250,0.00072623,0.00210561,-0.17534369,-0.04701462,0.
 43020417\\-0.00000097,-0.00000002,-0.00000103,0.00000145,0.00000108,0.
 00000141,-0.00000289,-0.00000210,-0.00000085,0.00000684,-0.00000264,-0
 .00000404,0.00000156,-0.00000013,-0.00000058,-0.00000053,0.00000059,0.
 00000369,-0.00000239,0.00000369,-0.00000119,-0.00001221,0.00001083,0.0
 0000667,0.00002121,0.00000421,-0.00000080,-0.00000172,-0.00000839,-0.0
 0000316,0.00000538,-0.00000652,0.00001067,-0.00001288,0.00000836,-0.00
 000548,0.00000028,0.00000021,-0.00000111,-0.00000029,-0.00000048,0.000
 00022,0.00000085,-0.00000035,-0.00000184,0.00000074,-0.00000099,-0.000
 00353,0.00000128,-0.00000038,-0.00000047,-0.00000085,0.00000002,0.0000
 0006,-0.00000021,-0.00000080,-0.00000065,-0.00000149,0.00000180,0.0000
 0209,0.00000111,-0.00000100,-0.00000062,-0.00000071,0.00000028,0.00000
 084,0.00000054,0.00000007,-0.00000106,0.00000192,0.00000021,-0.0000000
 8,0.00000296,0.00000049,0.00000095,0.00000015,0.00000203,0.00000198,0.
 00000158,-0.00000226,-0.00000142,-0.00000015,-0.00000441,0.00000012,-0
 .00001062,-0.00000167,0.00000006,-0.00000108,0.00000248,-0.00000216,-0
 .00000173,0.00000081,-0.00000002,0.00000290,-0.00000503,0.00000134\\\@


 EVERYTHING'S GOT A MORAL, IF ONLY YOU CAN FIND IT.

                                    -- LEWIS CARROL, ALICE IN WONDERLAND
 Job cpu time:       0 days  6 hours  5 minutes 39.4 seconds.
 Elapsed time:       0 days  1 hours 31 minutes 26.4 seconds.
 File lengths (MBytes):  RWF=    441 Int=      0 D2E=      0 Chk=     17 Scr=      1
 Normal termination of Gaussian 16 at Tue May 23 14:49:58 2023.
### All Done ###
