### Starting Gaussian ###
 Entering Gaussian System, Link 0=g16
 Initial command:
 /cluster/software/gaussian/gaussian-16-A.03/avx2/g16/l1.exe "/local/scratch/yxie/Gau-2578.inp" -scrdir="/local/scratch/yxie/"
 Entering Link 1 = /cluster/software/gaussian/gaussian-16-A.03/avx2/g16/l1.exe PID=      2608.
  
 Copyright (c) 1988,1990,1992,1993,1995,1998,2003,2009,2016,
            Gaussian, Inc.  All Rights Reserved.
  
 This is part of the Gaussian(R) 16 program.  It is based on
 the Gaussian(R) 09 system (copyright 2009, Gaussian, Inc.),
 the Gaussian(R) 03 system (copyright 2003, Gaussian, Inc.),
 the Gaussian(R) 98 system (copyright 1998, Gaussian, Inc.),
 the Gaussian(R) 94 system (copyright 1995, Gaussian, Inc.),
 the Gaussian 92(TM) system (copyright 1992, Gaussian, Inc.),
 the Gaussian 90(TM) system (copyright 1990, Gaussian, Inc.),
 the Gaussian 88(TM) system (copyright 1988, Gaussian, Inc.),
 the Gaussian 86(TM) system (copyright 1986, Carnegie Mellon
 University), and the Gaussian 82(TM) system (copyright 1983,
 Carnegie Mellon University). Gaussian is a federally registered
 trademark of Gaussian, Inc.
  
 This software contains proprietary and confidential information,
 including trade secrets, belonging to Gaussian, Inc.
  
 This software is provided under written license and may be
 used, copied, transmitted, or stored only in accord with that
 written license.
  
 The following legend is applicable only to US Government
 contracts under FAR:
  
                    RESTRICTED RIGHTS LEGEND
  
 Use, reproduction and disclosure by the US Government is
 subject to restrictions as set forth in subparagraphs (a)
 and (c) of the Commercial Computer Software - Restricted
 Rights clause in FAR 52.227-19.
  
 Gaussian, Inc.
 340 Quinnipiac St., Bldg. 40, Wallingford CT 06492
  
  
 ---------------------------------------------------------------
 Warning -- This program may not be used in any manner that
 competes with the business of Gaussian, Inc. or will provide
 assistance to any competitor of Gaussian, Inc.  The licensee
 of this program is prohibited from giving any competitor of
 Gaussian, Inc. access to this program.  By using this program,
 the user acknowledges that Gaussian, Inc. is engaged in the
 business of creating and licensing software in the field of
 computational chemistry and represents and warrants to the
 licensee that it is not a competitor of Gaussian, Inc. and that
 it will not use this program in any manner prohibited above.
 ---------------------------------------------------------------
  

 Cite this work as:
 Gaussian 16, Revision A.03,
 M. J. Frisch, G. W. Trucks, H. B. Schlegel, G. E. Scuseria, 
 M. A. Robb, J. R. Cheeseman, G. Scalmani, V. Barone, 
 G. A. Petersson, H. Nakatsuji, X. Li, M. Caricato, A. V. Marenich, 
 J. Bloino, B. G. Janesko, R. Gomperts, B. Mennucci, H. P. Hratchian, 
 J. V. Ortiz, A. F. Izmaylov, J. L. Sonnenberg, D. Williams-Young, 
 F. Ding, F. Lipparini, F. Egidi, J. Goings, B. Peng, A. Petrone, 
 T. Henderson, D. Ranasinghe, V. G. Zakrzewski, J. Gao, N. Rega, 
 G. Zheng, W. Liang, M. Hada, M. Ehara, K. Toyota, R. Fukuda, 
 J. Hasegawa, M. Ishida, T. Nakajima, Y. Honda, O. Kitao, H. Nakai, 
 T. Vreven, K. Throssell, J. A. Montgomery, Jr., J. E. Peralta, 
 F. Ogliaro, M. J. Bearpark, J. J. Heyd, E. N. Brothers, K. N. Kudin, 
 V. N. Staroverov, T. A. Keith, R. Kobayashi, J. Normand, 
 K. Raghavachari, A. P. Rendell, J. C. Burant, S. S. Iyengar, 
 J. Tomasi, M. Cossi, J. M. Millam, M. Klene, C. Adamo, R. Cammi, 
 J. W. Ochterski, R. L. Martin, K. Morokuma, O. Farkas, 
 J. B. Foresman, and D. J. Fox, Gaussian, Inc., Wallingford CT, 2016.
 
 ******************************************
 Gaussian 16:  ES64L-G16RevA.03 25-Dec-2016
                25-May-2023 
 ******************************************
 %chk=CCCCCCqCCqCrOrCqCrO.chk
 %NProcShared=20
 Will use up to   20 processors via shared memory.
 ----------------------------------------------------------------
 # opt freq b3lyp/6-31+g(2df,p) Geom=AllCheckpoint TD(NStates=10)
 ----------------------------------------------------------------
 1/18=20,19=15,26=3,29=7,38=1/1,3;
 2/9=110,12=2,40=1/2;
 3/5=1,6=6,7=114,11=9,14=-4,25=1,30=1,71=1,74=-5/1,2,3,8;
 4//1;
 5/5=2,38=5/2;
 8/6=1,10=2,108=10/1;
 9/15=2,41=10,42=1,70=2/14;
 10/5=4/2;
 6/7=2,8=2,9=2,10=2/1;
 7/12=6,13=5/1,2,3,16;
 1/18=20,19=15,26=3/3(2);
 2/9=110/2;
 99//99;
 2/9=110/2;
 3/5=1,6=6,7=114,11=9,14=-2,25=1,30=1,71=1,74=-5/1,2,3,8;
 4/5=5,16=3,69=1/1;
 5/5=2,38=5/2;
 8/6=1,10=2,108=10/1;
 9/15=2,41=10,42=1,49=4,70=2/14;
 10/5=4/2;
 7/12=6,13=5/1,2,3,16;
 1/18=20,19=15,26=3/3(-8);
 2/9=110/2;
 6/7=2,8=2,9=2,10=2/1;
 99//99;
 Structure from the checkpoint file:  "CCCCCCqCCqCrOrCqCrO.chk"
 -------------------
 Title Card Required
 -------------------
 Charge =  0 Multiplicity = 1
 Redundant internal coordinates found in file.  (old form).
 C,0,0.3496978659,0.6338402828,-0.9400537539
 C,0,1.8662697706,0.8035602971,-1.063860835
 C,0,2.5880492718,-0.4882019193,-1.4629148973
 C,0,4.1066165715,-0.3268774068,-1.5908650993
 C,0,4.8242189205,-1.6318877432,-1.9623078015
 C,0,6.3637538694,-1.5221684398,-2.1272140173
 C,0,7.1167294809,-2.722033134,-1.5056869076
 C,0,7.5007456241,-2.5826768718,-0.0236107972
 C,0,6.3288056353,-2.5219827292,0.9580175943
 O,0,8.4045788548,-3.6228820932,0.3493302527
 C,0,6.7789653485,-1.3654244222,-3.6127734541
 C,0,6.117553164,-0.1968549687,-4.346039296
 O,0,8.1969886788,-1.2755415608,-3.7499088646
 H,0,-0.1365710981,1.5718040403,-0.6541265859
 H,0,0.0958649749,-0.1167514307,-0.1831390374
 H,0,-0.0908009122,0.306324885,-1.8884566229
 H,0,2.2737177549,1.1654070458,-0.1104159419
 H,0,2.0886237151,1.5850325772,-1.8027237904
 H,0,2.1792016792,-0.8516481001,-2.4164514032
 H,0,2.3657348844,-1.2709440013,-0.7238594047
 H,0,4.5125557042,0.0448058453,-0.6391559616
 H,0,4.3253033461,0.4526150677,-2.3305858211
 H,0,4.3898873692,-2.0382275334,-2.8866065641
 H,0,4.5959450874,-2.3739663553,-1.1903862997
 H,0,6.7012768509,-0.6072950457,-1.6124119023
 H,0,8.0538314591,-2.8678973989,-2.0480850273
 H,0,6.5201482105,-3.6372888457,-1.6395146023
 H,0,8.0940912613,-1.6651546937,0.0858239091
 H,0,5.6951153888,-3.4133302766,0.8662848675
 H,0,5.6980875967,-1.6437627345,0.7909272916
 H,0,6.7097213171,-2.4813392982,1.9823294464
 H,0,7.9372582421,-4.4601469756,0.2530999572
 H,0,6.5203044741,-2.298238508,-4.1320128309
 H,0,6.3342653642,0.7537410076,-3.8423258432
 H,0,5.0316009563,-0.3039409204,-4.4080103233
 H,0,6.5142852819,-0.1388087777,-5.3632948879
 H,0,8.4757980358,-0.4421288641,-3.3537147451
 Recover connectivity data from disk.

 GradGradGradGradGradGradGradGradGradGradGradGradGradGradGradGradGradGrad
 Berny optimization.
 Initialization pass.
                           ----------------------------
                           !    Initial Parameters    !
                           ! (Angstroms and Degrees)  !
 --------------------------                            --------------------------
 ! Name  Definition              Value          Derivative Info.                !
 --------------------------------------------------------------------------------
 ! R1    R(1,2)                  1.5311         estimate D2E/DX2                !
 ! R2    R(1,14)                 1.0945         estimate D2E/DX2                !
 ! R3    R(1,15)                 1.0958         estimate D2E/DX2                !
 ! R4    R(1,16)                 1.0958         estimate D2E/DX2                !
 ! R5    R(2,3)                  1.5326         estimate D2E/DX2                !
 ! R6    R(2,17)                 1.0982         estimate D2E/DX2                !
 ! R7    R(2,18)                 1.0982         estimate D2E/DX2                !
 ! R8    R(3,4)                  1.5325         estimate D2E/DX2                !
 ! R9    R(3,19)                 1.0993         estimate D2E/DX2                !
 ! R10   R(3,20)                 1.0992         estimate D2E/DX2                !
 ! R11   R(4,5)                  1.5349         estimate D2E/DX2                !
 ! R12   R(4,21)                 1.0994         estimate D2E/DX2                !
 ! R13   R(4,22)                 1.0966         estimate D2E/DX2                !
 ! R14   R(5,6)                  1.5522         estimate D2E/DX2                !
 ! R15   R(5,23)                 1.0991         estimate D2E/DX2                !
 ! R16   R(5,24)                 1.0948         estimate D2E/DX2                !
 ! R17   R(6,7)                  1.5469         estimate D2E/DX2                !
 ! R18   R(6,11)                 1.5504         estimate D2E/DX2                !
 ! R19   R(6,25)                 1.1027         estimate D2E/DX2                !
 ! R20   R(7,8)                  1.5373         estimate D2E/DX2                !
 ! R21   R(7,26)                 1.0925         estimate D2E/DX2                !
 ! R22   R(7,27)                 1.1007         estimate D2E/DX2                !
 ! R23   R(8,9)                  1.5299         estimate D2E/DX2                !
 ! R24   R(8,10)                 1.4276         estimate D2E/DX2                !
 ! R25   R(8,28)                 1.0981         estimate D2E/DX2                !
 ! R26   R(9,29)                 1.0975         estimate D2E/DX2                !
 ! R27   R(9,30)                 1.0941         estimate D2E/DX2                !
 ! R28   R(9,31)                 1.0936         estimate D2E/DX2                !
 ! R29   R(10,32)                0.9637         estimate D2E/DX2                !
 ! R30   R(11,12)                1.5299         estimate D2E/DX2                !
 ! R31   R(11,13)                1.4275         estimate D2E/DX2                !
 ! R32   R(11,33)                1.0985         estimate D2E/DX2                !
 ! R33   R(12,34)                1.0974         estimate D2E/DX2                !
 ! R34   R(12,35)                1.093          estimate D2E/DX2                !
 ! R35   R(12,36)                1.0934         estimate D2E/DX2                !
 ! R36   R(13,37)                0.964          estimate D2E/DX2                !
 ! A1    A(2,1,14)             111.4815         estimate D2E/DX2                !
 ! A2    A(2,1,15)             111.1766         estimate D2E/DX2                !
 ! A3    A(2,1,16)             111.182          estimate D2E/DX2                !
 ! A4    A(14,1,15)            107.6764         estimate D2E/DX2                !
 ! A5    A(14,1,16)            107.6759         estimate D2E/DX2                !
 ! A6    A(15,1,16)            107.4571         estimate D2E/DX2                !
 ! A7    A(1,2,3)              113.2111         estimate D2E/DX2                !
 ! A8    A(1,2,17)             109.5014         estimate D2E/DX2                !
 ! A9    A(1,2,18)             109.502          estimate D2E/DX2                !
 ! A10   A(3,2,17)             109.2109         estimate D2E/DX2                !
 ! A11   A(3,2,18)             109.2224         estimate D2E/DX2                !
 ! A12   A(17,2,18)            105.9341         estimate D2E/DX2                !
 ! A13   A(2,3,4)              113.5589         estimate D2E/DX2                !
 ! A14   A(2,3,19)             109.2298         estimate D2E/DX2                !
 ! A15   A(2,3,20)             109.2611         estimate D2E/DX2                !
 ! A16   A(4,3,19)             109.3248         estimate D2E/DX2                !
 ! A17   A(4,3,20)             109.3604         estimate D2E/DX2                !
 ! A18   A(19,3,20)            105.8156         estimate D2E/DX2                !
 ! A19   A(3,4,5)              113.2024         estimate D2E/DX2                !
 ! A20   A(3,4,21)             109.2203         estimate D2E/DX2                !
 ! A21   A(3,4,22)             109.1931         estimate D2E/DX2                !
 ! A22   A(5,4,21)             108.9231         estimate D2E/DX2                !
 ! A23   A(5,4,22)             110.357          estimate D2E/DX2                !
 ! A24   A(21,4,22)            105.6631         estimate D2E/DX2                !
 ! A25   A(4,5,6)              115.4236         estimate D2E/DX2                !
 ! A26   A(4,5,23)             109.4556         estimate D2E/DX2                !
 ! A27   A(4,5,24)             107.9495         estimate D2E/DX2                !
 ! A28   A(6,5,23)             109.1912         estimate D2E/DX2                !
 ! A29   A(6,5,24)             109.2453         estimate D2E/DX2                !
 ! A30   A(23,5,24)            105.0666         estimate D2E/DX2                !
 ! A31   A(5,6,7)              112.6604         estimate D2E/DX2                !
 ! A32   A(5,6,11)             111.9967         estimate D2E/DX2                !
 ! A33   A(5,6,25)             108.218          estimate D2E/DX2                !
 ! A34   A(7,6,11)             109.4529         estimate D2E/DX2                !
 ! A35   A(7,6,25)             107.8765         estimate D2E/DX2                !
 ! A36   A(11,6,25)            106.3482         estimate D2E/DX2                !
 ! A37   A(6,7,8)              116.0157         estimate D2E/DX2                !
 ! A38   A(6,7,26)             108.7595         estimate D2E/DX2                !
 ! A39   A(6,7,27)             109.4083         estimate D2E/DX2                !
 ! A40   A(8,7,26)             106.0489         estimate D2E/DX2                !
 ! A41   A(8,7,27)             109.1462         estimate D2E/DX2                !
 ! A42   A(26,7,27)            107.0687         estimate D2E/DX2                !
 ! A43   A(7,8,9)              115.5183         estimate D2E/DX2                !
 ! A44   A(7,8,10)             110.1173         estimate D2E/DX2                !
 ! A45   A(7,8,28)             107.8653         estimate D2E/DX2                !
 ! A46   A(9,8,10)             110.2588         estimate D2E/DX2                !
 ! A47   A(9,8,28)             108.4698         estimate D2E/DX2                !
 ! A48   A(10,8,28)            103.9268         estimate D2E/DX2                !
 ! A49   A(8,9,29)             110.8819         estimate D2E/DX2                !
 ! A50   A(8,9,30)             112.0519         estimate D2E/DX2                !
 ! A51   A(8,9,31)             109.6106         estimate D2E/DX2                !
 ! A52   A(29,9,30)            107.8368         estimate D2E/DX2                !
 ! A53   A(29,9,31)            108.0345         estimate D2E/DX2                !
 ! A54   A(30,9,31)            108.3012         estimate D2E/DX2                !
 ! A55   A(8,10,32)            107.455          estimate D2E/DX2                !
 ! A56   A(6,11,12)            114.8767         estimate D2E/DX2                !
 ! A57   A(6,11,13)            111.3734         estimate D2E/DX2                !
 ! A58   A(6,11,33)            107.698          estimate D2E/DX2                !
 ! A59   A(12,11,13)           109.5917         estimate D2E/DX2                !
 ! A60   A(12,11,33)           108.6789         estimate D2E/DX2                !
 ! A61   A(13,11,33)           104.003          estimate D2E/DX2                !
 ! A62   A(11,12,34)           110.8704         estimate D2E/DX2                !
 ! A63   A(11,12,35)           112.4499         estimate D2E/DX2                !
 ! A64   A(11,12,36)           109.2434         estimate D2E/DX2                !
 ! A65   A(34,12,35)           107.8845         estimate D2E/DX2                !
 ! A66   A(34,12,36)           108.0225         estimate D2E/DX2                !
 ! A67   A(35,12,36)           108.2374         estimate D2E/DX2                !
 ! A68   A(11,13,37)           107.5936         estimate D2E/DX2                !
 ! D1    D(14,1,2,3)           179.9834         estimate D2E/DX2                !
 ! D2    D(14,1,2,17)           57.8642         estimate D2E/DX2                !
 ! D3    D(14,1,2,18)          -57.8822         estimate D2E/DX2                !
 ! D4    D(15,1,2,3)            59.8248         estimate D2E/DX2                !
 ! D5    D(15,1,2,17)          -62.2943         estimate D2E/DX2                !
 ! D6    D(15,1,2,18)         -178.0408         estimate D2E/DX2                !
 ! D7    D(16,1,2,3)           -59.8549         estimate D2E/DX2                !
 ! D8    D(16,1,2,17)          178.0259         estimate D2E/DX2                !
 ! D9    D(16,1,2,18)           62.2795         estimate D2E/DX2                !
 ! D10   D(1,2,3,4)            179.9274         estimate D2E/DX2                !
 ! D11   D(1,2,3,19)            57.6212         estimate D2E/DX2                !
 ! D12   D(1,2,3,20)           -57.6974         estimate D2E/DX2                !
 ! D13   D(17,2,3,4)           -57.7914         estimate D2E/DX2                !
 ! D14   D(17,2,3,19)          179.9024         estimate D2E/DX2                !
 ! D15   D(17,2,3,20)           64.5838         estimate D2E/DX2                !
 ! D16   D(18,2,3,4)            57.637          estimate D2E/DX2                !
 ! D17   D(18,2,3,19)          -64.6693         estimate D2E/DX2                !
 ! D18   D(18,2,3,20)         -179.9878         estimate D2E/DX2                !
 ! D19   D(2,3,4,5)            178.8072         estimate D2E/DX2                !
 ! D20   D(2,3,4,21)            57.2663         estimate D2E/DX2                !
 ! D21   D(2,3,4,22)           -57.8278         estimate D2E/DX2                !
 ! D22   D(19,3,4,5)           -58.9392         estimate D2E/DX2                !
 ! D23   D(19,3,4,21)          179.5199         estimate D2E/DX2                !
 ! D24   D(19,3,4,22)           64.4258         estimate D2E/DX2                !
 ! D25   D(20,3,4,5)            56.487          estimate D2E/DX2                !
 ! D26   D(20,3,4,21)          -65.054          estimate D2E/DX2                !
 ! D27   D(20,3,4,22)          179.852          estimate D2E/DX2                !
 ! D28   D(3,4,5,6)            179.0852         estimate D2E/DX2                !
 ! D29   D(3,4,5,23)            55.4487         estimate D2E/DX2                !
 ! D30   D(3,4,5,24)           -58.3936         estimate D2E/DX2                !
 ! D31   D(21,4,5,6)           -59.207          estimate D2E/DX2                !
 ! D32   D(21,4,5,23)          177.1565         estimate D2E/DX2                !
 ! D33   D(21,4,5,24)           63.3142         estimate D2E/DX2                !
 ! D34   D(22,4,5,6)            56.3636         estimate D2E/DX2                !
 ! D35   D(22,4,5,23)          -67.273          estimate D2E/DX2                !
 ! D36   D(22,4,5,24)          178.8847         estimate D2E/DX2                !
 ! D37   D(4,5,6,7)            138.5209         estimate D2E/DX2                !
 ! D38   D(4,5,6,11)           -97.57           estimate D2E/DX2                !
 ! D39   D(4,5,6,25)            19.3372         estimate D2E/DX2                !
 ! D40   D(23,5,6,7)           -97.7036         estimate D2E/DX2                !
 ! D41   D(23,5,6,11)           26.2055         estimate D2E/DX2                !
 ! D42   D(23,5,6,25)          143.1128         estimate D2E/DX2                !
 ! D43   D(24,5,6,7)            16.6928         estimate D2E/DX2                !
 ! D44   D(24,5,6,11)          140.6018         estimate D2E/DX2                !
 ! D45   D(24,5,6,25)         -102.4909         estimate D2E/DX2                !
 ! D46   D(5,6,7,8)            -88.8083         estimate D2E/DX2                !
 ! D47   D(5,6,7,26)           151.808          estimate D2E/DX2                !
 ! D48   D(5,6,7,27)            35.1718         estimate D2E/DX2                !
 ! D49   D(11,6,7,8)           145.8877         estimate D2E/DX2                !
 ! D50   D(11,6,7,26)           26.5039         estimate D2E/DX2                !
 ! D51   D(11,6,7,27)          -90.1322         estimate D2E/DX2                !
 ! D52   D(25,6,7,8)            30.5738         estimate D2E/DX2                !
 ! D53   D(25,6,7,26)          -88.8099         estimate D2E/DX2                !
 ! D54   D(25,6,7,27)          154.5539         estimate D2E/DX2                !
 ! D55   D(5,6,11,12)           55.0868         estimate D2E/DX2                !
 ! D56   D(5,6,11,13)         -179.5768         estimate D2E/DX2                !
 ! D57   D(5,6,11,33)          -66.1463         estimate D2E/DX2                !
 ! D58   D(7,6,11,12)         -179.2269         estimate D2E/DX2                !
 ! D59   D(7,6,11,13)          -53.8905         estimate D2E/DX2                !
 ! D60   D(7,6,11,33)           59.54           estimate D2E/DX2                !
 ! D61   D(25,6,11,12)         -62.9398         estimate D2E/DX2                !
 ! D62   D(25,6,11,13)          62.3966         estimate D2E/DX2                !
 ! D63   D(25,6,11,33)         175.8271         estimate D2E/DX2                !
 ! D64   D(6,7,8,9)             65.6181         estimate D2E/DX2                !
 ! D65   D(6,7,8,10)          -168.6864         estimate D2E/DX2                !
 ! D66   D(6,7,8,28)           -55.8955         estimate D2E/DX2                !
 ! D67   D(26,7,8,9)          -173.5331         estimate D2E/DX2                !
 ! D68   D(26,7,8,10)          -47.8377         estimate D2E/DX2                !
 ! D69   D(26,7,8,28)           64.9533         estimate D2E/DX2                !
 ! D70   D(27,7,8,9)           -58.4977         estimate D2E/DX2                !
 ! D71   D(27,7,8,10)           67.1978         estimate D2E/DX2                !
 ! D72   D(27,7,8,28)          179.9887         estimate D2E/DX2                !
 ! D73   D(7,8,9,29)            57.5846         estimate D2E/DX2                !
 ! D74   D(7,8,9,30)           -62.963          estimate D2E/DX2                !
 ! D75   D(7,8,9,31)           176.773          estimate D2E/DX2                !
 ! D76   D(10,8,9,29)          -68.0382         estimate D2E/DX2                !
 ! D77   D(10,8,9,30)          171.4141         estimate D2E/DX2                !
 ! D78   D(10,8,9,31)           51.1501         estimate D2E/DX2                !
 ! D79   D(28,8,9,29)          178.7727         estimate D2E/DX2                !
 ! D80   D(28,8,9,30)           58.2251         estimate D2E/DX2                !
 ! D81   D(28,8,9,31)          -62.039          estimate D2E/DX2                !
 ! D82   D(7,8,10,32)          -63.5255         estimate D2E/DX2                !
 ! D83   D(9,8,10,32)           65.1008         estimate D2E/DX2                !
 ! D84   D(28,8,10,32)        -178.8306         estimate D2E/DX2                !
 ! D85   D(6,11,12,34)          58.0005         estimate D2E/DX2                !
 ! D86   D(6,11,12,35)         -62.8735         estimate D2E/DX2                !
 ! D87   D(6,11,12,36)         176.9348         estimate D2E/DX2                !
 ! D88   D(13,11,12,34)        -68.2589         estimate D2E/DX2                !
 ! D89   D(13,11,12,35)        170.8672         estimate D2E/DX2                !
 ! D90   D(13,11,12,36)         50.6755         estimate D2E/DX2                !
 ! D91   D(33,11,12,34)        178.6964         estimate D2E/DX2                !
 ! D92   D(33,11,12,35)         57.8225         estimate D2E/DX2                !
 ! D93   D(33,11,12,36)        -62.3692         estimate D2E/DX2                !
 ! D94   D(6,11,13,37)         -67.5419         estimate D2E/DX2                !
 ! D95   D(12,11,13,37)         60.6858         estimate D2E/DX2                !
 ! D96   D(33,11,13,37)        176.7334         estimate D2E/DX2                !
 --------------------------------------------------------------------------------
 Trust Radius=3.00D-01 FncErr=1.00D-07 GrdErr=1.00D-06 EigMax=2.50D+02 EigMin=1.00D-04
 Number of steps in this run=    210 maximum allowed number of steps=    222.
 GradGradGradGradGradGradGradGradGradGradGradGradGradGradGradGradGradGrad

                          Input orientation:                          
 ---------------------------------------------------------------------
 Center     Atomic      Atomic             Coordinates (Angstroms)
 Number     Number       Type             X           Y           Z
 ---------------------------------------------------------------------
      1          6           0        0.349698    0.633840   -0.940054
      2          6           0        1.866270    0.803560   -1.063861
      3          6           0        2.588049   -0.488202   -1.462915
      4          6           0        4.106617   -0.326877   -1.590865
      5          6           0        4.824219   -1.631888   -1.962308
      6          6           0        6.363754   -1.522168   -2.127214
      7          6           0        7.116729   -2.722033   -1.505687
      8          6           0        7.500746   -2.582677   -0.023611
      9          6           0        6.328806   -2.521983    0.958018
     10          8           0        8.404579   -3.622882    0.349330
     11          6           0        6.778965   -1.365424   -3.612773
     12          6           0        6.117553   -0.196855   -4.346039
     13          8           0        8.196989   -1.275542   -3.749909
     14          1           0       -0.136571    1.571804   -0.654127
     15          1           0        0.095865   -0.116751   -0.183139
     16          1           0       -0.090801    0.306325   -1.888457
     17          1           0        2.273718    1.165407   -0.110416
     18          1           0        2.088624    1.585033   -1.802724
     19          1           0        2.179202   -0.851648   -2.416451
     20          1           0        2.365735   -1.270944   -0.723859
     21          1           0        4.512556    0.044806   -0.639156
     22          1           0        4.325303    0.452615   -2.330586
     23          1           0        4.389887   -2.038228   -2.886607
     24          1           0        4.595945   -2.373966   -1.190386
     25          1           0        6.701277   -0.607295   -1.612412
     26          1           0        8.053831   -2.867897   -2.048085
     27          1           0        6.520148   -3.637289   -1.639515
     28          1           0        8.094091   -1.665155    0.085824
     29          1           0        5.695115   -3.413330    0.866285
     30          1           0        5.698088   -1.643763    0.790927
     31          1           0        6.709721   -2.481339    1.982329
     32          1           0        7.937258   -4.460147    0.253100
     33          1           0        6.520304   -2.298239   -4.132013
     34          1           0        6.334265    0.753741   -3.842326
     35          1           0        5.031601   -0.303941   -4.408010
     36          1           0        6.514285   -0.138809   -5.363295
     37          1           0        8.475798   -0.442129   -3.353715
 ---------------------------------------------------------------------
                    Distance matrix (angstroms):
                    1          2          3          4          5
     1  C    0.000000
     2  C    1.531053   0.000000
     3  C    2.557847   1.532599   0.000000
     4  C    3.932044   2.564133   1.532463   0.000000
     5  C    5.118580   3.935489   2.560833   1.534918   0.000000
     6  C    6.498199   5.173693   3.970683   2.609801   1.552224
     7  C    7.574599   6.339743   5.049829   3.847701   2.579249
     8  C    7.894513   6.655527   5.531095   4.366352   3.438945
     9  C    7.022224   5.921271   4.898003   4.031552   3.403579
    10  O    9.201266   8.021221   6.851457   5.753302   4.703903
    11  C    7.244030   5.944412   4.791157   3.508296   2.572173
    12  C    6.749737   5.463235   4.566693   3.413467   3.068258
    13  O    8.551082   7.184394   6.108228   4.721502   3.833807
    14  H    1.094526   2.183908   3.510174   4.742058   6.048505
    15  H    1.095782   2.181050   2.826090   4.255816   5.274316
    16  H    1.095798   2.181130   2.826411   4.255328   5.283895
    17  H    2.161646   1.098182   2.159278   2.788935   4.214192
    18  H    2.161673   1.098207   2.159444   2.787935   4.225816
    19  H    2.780919   2.160357   1.099309   2.161459   2.794841
    20  H    2.781968   2.160702   1.099232   2.161858   2.776361
    21  H    4.215078   2.785482   2.160185   1.099402   2.158510
    22  H    4.215669   2.788297   2.157786   1.096640   2.174787
    23  H    5.220359   4.215069   2.770577   2.165158   1.099129
    24  H    5.209624   4.190920   2.768036   2.142522   1.094830
    25  H    6.506538   5.066430   4.117666   2.609858   2.166925
    26  H    8.534845   7.261833   5.990004   4.716602   3.459115
    27  H    7.536992   6.458413   5.040768   4.097112   2.646130
    28  H    8.143306   6.797212   5.839547   4.527938   3.858499
    29  H    6.943770   6.013958   4.861626   4.252894   3.454408
    30  H    6.065397   4.910444   4.010918   3.152761   2.888614
    31  H    7.661238   6.597641   5.729789   4.917884   4.453858
    32  H    9.216474   8.142352   6.880050   5.929413   4.753745
    33  H    7.540695   6.379244   5.085563   4.021142   2.833434
    34  H    6.652263   5.261686   4.608487   3.346525   3.392040
    35  H    5.901387   4.735949   3.831251   2.965203   2.790683
    36  H    7.626545   6.401347   5.545302   4.479226   4.080726
    37  H    8.544997   7.105001   6.184079   4.712820   4.084797
                    6          7          8          9         10
     6  C    0.000000
     7  C    1.546914   0.000000
     8  C    2.615832   1.537348   0.000000
     9  C    3.243378   2.594356   1.529942   0.000000
    10  O    3.835523   2.431291   1.427595   2.427203   0.000000
    11  C    1.550437   2.528692   3.858077   4.736286   4.841178
    12  C    2.596200   3.929692   5.127256   5.795159   6.246170
    13  O    2.460633   2.880248   4.009820   5.216157   4.728304
    14  H    7.348257   8.471869   8.716987   7.820434  10.047036
    15  H    6.711263   7.604549   7.806311   6.777678   9.033892
    16  H    6.712799   7.827257   8.334000   7.570541   9.623816
    17  H    5.293291   6.365040   6.432534   5.584096   7.792723
    18  H    5.294972   6.627284   7.058761   6.516779   8.464337
    19  H    4.247792   5.357893   6.086130   5.603238   7.354224
    20  H    4.244605   5.028803   5.345964   4.483273   6.568941
    21  H    2.845463   3.897178   4.026393   3.526773   5.438463
    22  H    2.845419   4.307077   4.961710   4.865919   6.358625
    23  H    2.176957   3.132123   4.262700   4.332962   5.394457
    24  H    2.174478   2.564160   3.137322   2.764119   4.293741
    25  H    1.102695   2.157802   2.658114   3.226743   3.980381
    26  H    2.161853   1.092535   2.117959   3.483106   2.537839
    27  H    2.176245   1.100687   2.164468   2.833318   2.739852
    28  H    2.812837   2.145958   1.098127   2.147349   1.999634
    29  H    3.603416   2.850461   2.177659   1.097487   2.766287
    30  H    2.995571   2.906828   2.189659   1.094073   3.381866
    31  H    4.234153   3.519921   2.158654   1.093601   2.615788
    32  H    4.095550   2.605310   1.947307   2.615437   0.963671
    33  H    2.155461   2.726337   4.233336   5.098543   5.038612
    34  H    2.849955   4.260650   5.203359   5.811514   6.403984
    35  H    2.908735   4.314906   5.523791   5.949513   6.710040
    36  H    3.522579   4.681573   5.954647   6.758174   6.953133
    37  H    2.670491   3.234229   4.077041   5.246561   4.882090
                   11         12         13         14         15
    11  C    0.000000
    12  C    1.529934   0.000000
    13  O    1.427472   2.417227   0.000000
    14  H    8.074995   7.474787   9.334852   0.000000
    15  H    7.614815   7.320989   8.927085   1.768354   0.000000
    16  H    7.277479   6.696011   8.640299   1.768362   1.766903
    17  H    6.242505   5.879739   7.368126   2.504051   2.528292
    18  H    5.829304   5.086831   7.020437   2.504185   3.080619
    19  H    4.780479   4.434262   6.178313   3.787045   3.141345
    20  H    5.275543   5.324471   6.569666   3.787824   2.603238
    21  H    3.995968   4.046653   4.999515   4.893499   4.443108
    22  H    3.312058   2.774171   4.471124   4.896062   4.777432
    23  H    2.586054   2.916406   3.977562   6.205249   5.425812
    24  H    3.413311   4.124712   4.552495   6.184932   5.134227
    25  H    2.140617   2.825228   2.693065   7.240369   6.776055
    26  H    2.516140   4.020477   2.335015   9.420019   8.624156
    27  H    3.020282   4.395901   3.583770   8.509850   7.469045
    28  H    3.936879   5.069913   3.856842   8.875203   8.151167
    29  H    5.042877   6.139421   5.669105   7.821239   6.581818
    30  H    4.542945   5.353309   5.196084   6.816986   5.887739
    31  H    5.705720   6.754094   6.043548   8.381563   7.350077
    32  H    5.085659   6.529860   5.121841  10.119003   8.974566
    33  H    1.098479   2.150309   2.000795   8.449078   7.850217
    34  H    2.177456   1.097417   2.756133   7.259860   7.284576
    35  H    2.193725   1.092978   3.375912   6.657332   6.499697
    36  H    2.153826   1.093423   2.593582   8.326845   8.248068
    37  H    1.949058   2.570250   0.963992   9.247519   8.965584
                   16         17         18         19         20
    16  H    0.000000
    17  H    3.080649   0.000000
    18  H    2.528307   1.753354   0.000000
    19  H    2.602420   3.065166   2.514414   0.000000
    20  H    3.143029   2.514078   3.065508   1.753702   0.000000
    21  H    4.777032   2.558849   3.098650   3.067075   2.519367
    22  H    4.440592   3.105838   2.561980   2.512813   3.064659
    23  H    5.154590   4.738004   4.427034   2.552675   3.059966
    24  H    5.443974   4.368780   4.726023   3.108269   2.531431
    25  H    6.858806   5.000174   5.110684   4.599495   4.475140
    26  H    8.742780   7.309707   7.447986   6.221915   6.054608
    27  H    7.701864   6.590615   6.851108   5.216056   4.867973
    28  H    8.647368   6.475132   7.084911   6.473723   5.798712
    29  H    7.409539   5.798684   6.716697   5.449791   4.266515
    30  H    6.670320   4.519974   5.493667   4.826726   3.679422
    31  H    8.306694   6.111994   7.226102   6.521562   5.259157
    32  H    9.578896   7.990913   8.658934   7.300889   6.493638
    33  H    7.451443   6.797322   6.336022   4.886814   5.470950
    34  H    6.730473   5.530341   4.782938   4.677066   5.438145
    35  H    5.741043   5.313588   4.360832   3.521714   4.649183
    36  H    7.476617   6.875764   5.935973   5.290083   6.325865
    37  H    8.723175   7.181153   6.878296   6.379130   6.703428
                   21         22         23         24         25
    21  H    0.000000
    22  H    1.749945   0.000000
    23  H    3.066775   2.552964   0.000000
    24  H    2.482190   3.059880   1.741363   0.000000
    25  H    2.482532   2.698969   3.002276   2.780585   0.000000
    26  H    4.796828   5.000753   3.849150   3.596748   2.670119
    27  H    4.311492   4.692786   2.941130   2.345263   3.035524
    28  H    4.034471   4.952550   4.763995   3.790535   2.437828
    29  H    3.952658   5.200183   4.204607   2.553106   3.876871
    30  H    2.510356   4.002897   3.923168   2.381915   2.802979
    31  H    4.252191   5.735397   5.411517   3.813883   4.053921
    32  H    5.728814   6.622453   5.320460   4.195256   4.455587
    33  H    4.660575   3.953526   2.481395   3.515972   3.039807
    34  H    3.752534   2.532185   3.533991   4.453885   2.638112
    35  H    3.820379   2.320975   2.394622   3.850702   3.270353
    36  H    5.134016   3.786654   3.775559   5.107751   3.784649
    37  H    4.828377   4.367375   4.411393   4.844094   2.491654
                   26         27         28         29         30
    26  H    0.000000
    27  H    1.763825   0.000000
    28  H    2.449853   3.056698   0.000000
    29  H    3.788745   2.647615   3.069254   0.000000
    30  H    3.886904   3.249150   2.497691   1.771174   0.000000
    31  H    4.266181   3.806562   2.485834   1.773017   1.773239
    32  H    2.800768   2.503455   2.804382   2.549319   3.638016
    33  H    2.649334   2.829417   4.546179   5.187229   5.033857
    34  H    4.392320   4.916103   4.937449   6.320127   5.255452
    35  H    4.612700   4.581654   5.605916   6.158469   5.410017
    36  H    4.561660   5.109397   5.875237   7.085280   6.387920
    37  H    2.786948   4.119720   3.670411   5.862476   5.132023
                   31         32         33         34         35
    31  H    0.000000
    32  H    2.900476   0.000000
    33  H    6.120015   5.090267   0.000000
    34  H    6.673329   6.821050   3.071337   0.000000
    35  H    6.956550   6.887876   2.503924   1.770769   0.000000
    36  H    7.712577   7.227912   2.485805   1.772681   1.771494
    37  H    5.979195   5.426196   2.806216   2.501001   3.604598
                   36         37
    36  H    0.000000
    37  H    2.824526   0.000000
 Stoichiometry    C11H24O2
 Framework group  C1[X(C11H24O2)]
 Deg. of freedom   105
 Full point group                 C1      NOp   1
 Largest Abelian subgroup         C1      NOp   1
 Largest concise Abelian subgroup C1      NOp   1
                         Standard orientation:                         
 ---------------------------------------------------------------------
 Center     Atomic      Atomic             Coordinates (Angstroms)
 Number     Number       Type             X           Y           Z
 ---------------------------------------------------------------------
      1          6           0        5.376399    0.761748   -0.143286
      2          6           0        4.076899    0.346678    0.551796
      3          6           0        2.871465    0.308901   -0.393911
      4          6           0        1.566562   -0.107417    0.293368
      5          6           0        0.359348   -0.114416   -0.654555
      6          6           0       -0.986670   -0.550420   -0.016169
      7          6           0       -2.177546    0.318839   -0.484300
      8          6           0       -2.460199    1.579952    0.348250
      9          6           0       -1.371043    2.653680    0.308640
     10          8           0       -3.720226    2.140097   -0.021339
     11          6           0       -1.300434   -2.044573   -0.286197
     12          6           0       -0.206108   -3.020954    0.149500
     13          8           0       -2.544933   -2.428658    0.298078
     14          1           0        6.217460    0.779601    0.556918
     15          1           0        5.288241    1.761564   -0.582984
     16          1           0        5.631684    0.068173   -0.952334
     17          1           0        3.866173    1.038324    1.378370
     18          1           0        4.206768   -0.642095    1.011710
     19          1           0        3.082773   -0.382053   -1.222410
     20          1           0        2.741019    1.298285   -0.854797
     21          1           0        1.361393    0.579466    1.126905
     22          1           0        1.698899   -1.095714    0.749850
     23          1           0        0.575498   -0.759445   -1.517863
     24          1           0        0.251761    0.892259   -1.071309
     25          1           0       -0.899660   -0.444354    1.077959
     26          1           0       -3.089149   -0.281823   -0.441666
     27          1           0       -2.029116    0.606532   -1.536304
     28          1           0       -2.604820    1.269435    1.391584
     29          1           0       -1.178704    2.977958   -0.722053
     30          1           0       -0.426424    2.296301    0.729317
     31          1           0       -1.694613    3.526088    0.883244
     32          1           0       -3.655276    2.414986   -0.942685
     33          1           0       -1.466435   -2.161123   -1.365788
     34          1           0        0.005364   -2.918214    1.221437
     35          1           0        0.730048   -2.868018   -0.393474
     36          1           0       -0.543656   -4.044994   -0.032095
     37          1           0       -2.440004   -2.394757    1.255743
 ---------------------------------------------------------------------
 Rotational constants (GHZ):           0.8552637           0.3526913           0.2615194
 Standard basis: 6-31+G(2df,p) (6D, 7F)
 There are   575 symmetry adapted cartesian basis functions of A   symmetry.
 There are   536 symmetry adapted basis functions of A   symmetry.
   536 basis functions,   792 primitive gaussians,   575 cartesian basis functions
    53 alpha electrons       53 beta electrons
       nuclear repulsion energy       861.7086225304 Hartrees.
 NAtoms=   37 NActive=   37 NUniq=   37 SFac= 1.00D+00 NAtFMM=   60 NAOKFM=F Big=F
 Integral buffers will be    131072 words long.
 Regular integral format.
 Two-electron integral symmetry is turned on.
 One-electron integrals computed using PRISM.
 PrsmSu:  requested number of processors reduced to:  12 ShMem   1 Linda.
 NBasis=   536 RedAO= T EigKep=  6.77D-06  NBF=   536
 NBsUse=   536 1.00D-06 EigRej= -1.00D+00 NBFU=   536
 ExpMin= 4.38D-02 ExpMax= 5.48D+03 ExpMxC= 8.25D+02 IAcc=3 IRadAn=         5 AccDes= 0.00D+00
 Harris functional with IExCor=  402 and IRadAn=       5 diagonalized for initial guess.
 HarFok:  IExCor=  402 AccDes= 0.00D+00 IRadAn=         5 IDoV= 1 UseB2=F ITyADJ=14
 ICtDFT=  3500011 ScaDFX=  1.000000  1.000000  1.000000  1.000000
 FoFCou: FMM=F IPFlag=           0 FMFlag=      100000 FMFlg1=           0
         NFxFlg=           0 DoJE=T BraDBF=F KetDBF=T FulRan=T
         wScrn=  0.000000 ICntrl=       500 IOpCl=  0 I1Cent=   200000004 NGrid=           0
         NMat0=    1 NMatS0=      1 NMatT0=    0 NMatD0=    1 NMtDS0=    0 NMtDT0=    0
 Petite list used in FoFCou.
 Requested convergence on RMS density matrix=1.00D-08 within 128 cycles.
 Requested convergence on MAX density matrix=1.00D-06.
 Requested convergence on             energy=1.00D-06.
 No special actions if energy rises.
 SCF Done:  E(RB3LYP) =  -584.145416157     A.U. after   12 cycles
            NFock= 12  Conv=0.57D-08     -V/T= 2.0084
 DoSCS=F DFT=T ScalE2(SS,OS)=  1.000000  1.000000
 ExpMin= 4.38D-02 ExpMax= 5.48D+03 ExpMxC= 8.25D+02 IAcc=3 IRadAn=         5 AccDes= 0.00D+00
 HarFok:  IExCor=  205 AccDes= 0.00D+00 IRadAn=         5 IDoV=-2 UseB2=F ITyADJ=14
 ICtDFT= 12500011 ScaDFX=  1.000000  1.000000  1.000000  1.000000
 Range of M.O.s used for correlation:    14   536
 NBasis=   536 NAE=    53 NBE=    53 NFC=    13 NFV=     0
 NROrb=    523 NOA=    40 NOB=    40 NVA=   483 NVB=   483

 **** Warning!!: The largest alpha MO coefficient is  0.82309603D+02

 Orbital symmetries:
       Occupied  (A) (A) (A) (A) (A) (A) (A) (A) (A) (A) (A) (A)
                 (A) (A) (A) (A) (A) (A) (A) (A) (A) (A) (A) (A)
                 (A) (A) (A) (A) (A) (A) (A) (A) (A) (A) (A) (A)
                 (A) (A) (A) (A) (A) (A) (A) (A) (A) (A) (A) (A)
                 (A) (A) (A) (A) (A)
       Virtual   (A) (A) (A) (A) (A) (A) (A) (A) (A) (A) (A) (A)
                 (A) (A) (A) (A) (A) (A) (A) (A) (A) (A) (A) (A)
                 (A) (A) (A) (A) (A) (A) (A) (A) (A) (A) (A) (A)
                 (A) (A) (A) (A) (A) (A) (A) (A) (A) (A) (A) (A)
                 (A) (A) (A) (A) (A) (A) (A) (A) (A) (A) (A) (A)
                 (A) (A) (A) (A) (A) (A) (A) (A) (A) (A) (A) (A)
                 (A) (A) (A) (A) (A) (A) (A) (A) (A) (A) (A) (A)
                 (A) (A) (A) (A) (A) (A) (A) (A) (A) (A) (A) (A)
                 (A) (A) (A) (A) (A) (A) (A) (A) (A) (A) (A) (A)
                 (A) (A) (A) (A) (A) (A) (A) (A) (A) (A) (A) (A)
                 (A) (A) (A) (A) (A) (A) (A) (A) (A) (A) (A) (A)
                 (A) (A) (A) (A) (A) (A) (A) (A) (A) (A) (A) (A)
                 (A) (A) (A) (A) (A) (A) (A) (A) (A) (A) (A) (A)
                 (A) (A) (A) (A) (A) (A) (A) (A) (A) (A) (A) (A)
                 (A) (A) (A) (A) (A) (A) (A) (A) (A) (A) (A) (A)
                 (A) (A) (A) (A) (A) (A) (A) (A) (A) (A) (A) (A)
                 (A) (A) (A) (A) (A) (A) (A) (A) (A) (A) (A) (A)
                 (A) (A) (A) (A) (A) (A) (A) (A) (A) (A) (A) (A)
                 (A) (A) (A) (A) (A) (A) (A) (A) (A) (A) (A) (A)
                 (A) (A) (A) (A) (A) (A) (A) (A) (A) (A) (A) (A)
                 (A) (A) (A) (A) (A) (A) (A) (A) (A) (A) (A) (A)
                 (A) (A) (A) (A) (A) (A) (A) (A) (A) (A) (A) (A)
                 (A) (A) (A) (A) (A) (A) (A) (A) (A) (A) (A) (A)
                 (A) (A) (A) (A) (A) (A) (A) (A) (A) (A) (A) (A)
                 (A) (A) (A) (A) (A) (A) (A) (A) (A) (A) (A) (A)
                 (A) (A) (A) (A) (A) (A) (A) (A) (A) (A) (A) (A)
                 (A) (A) (A) (A) (A) (A) (A) (A) (A) (A) (A) (A)
                 (A) (A) (A) (A) (A) (A) (A) (A) (A) (A) (A) (A)
                 (A) (A) (A) (A) (A) (A) (A) (A) (A) (A) (A) (A)
                 (A) (A) (A) (A) (A) (A) (A) (A) (A) (A) (A) (A)
                 (A) (A) (A) (A) (A) (A) (A) (A) (A) (A) (A) (A)
                 (A) (A) (A) (A) (A) (A) (A) (A) (A) (A) (A) (A)
                 (A) (A) (A) (A) (A) (A) (A) (A) (A) (A) (A) (A)
                 (A) (A) (A) (A) (A) (A) (A) (A) (A) (A) (A) (A)
                 (A) (A) (A) (A) (A) (A) (A) (A) (A) (A) (A) (A)
                 (A) (A) (A) (A) (A) (A) (A) (A) (A) (A) (A) (A)
                 (A) (A) (A) (A) (A) (A) (A) (A) (A) (A) (A) (A)
                 (A) (A) (A) (A) (A) (A) (A) (A) (A) (A) (A) (A)
                 (A) (A) (A) (A) (A) (A) (A) (A) (A) (A) (A) (A)
                 (A) (A) (A) (A) (A) (A) (A) (A) (A) (A) (A) (A)
                 (A) (A) (A)
    40 initial guesses have been made.
 Convergence on wavefunction:    0.000001000000000
 Iteration     1 Dimension    40 NMult     0 NNew     40
 CISAX will form     3 AO SS matrices at one time.
 New state      3 was old state      4
 New state      4 was old state      6
 New state      6 was old state      3
 New state      7 was old state      8
 New state      8 was old state     10
 New state     10 was old state      7
 Iteration     2 Dimension    60 NMult    40 NNew     20
 Iteration     3 Dimension    80 NMult    60 NNew     20
 Iteration     4 Dimension   100 NMult    80 NNew     20
 Iteration     5 Dimension   120 NMult   100 NNew     20
 Iteration     6 Dimension   140 NMult   120 NNew     20
 Iteration     7 Dimension   160 NMult   140 NNew     20
 Iteration     8 Dimension   180 NMult   160 NNew     20
 Iteration     9 Dimension   200 NMult   180 NNew     20
 Iteration    10 Dimension   220 NMult   200 NNew     20
 Iteration    11 Dimension   240 NMult   220 NNew     20
 Iteration    12 Dimension   248 NMult   240 NNew      8
 Iteration    13 Dimension   252 NMult   248 NNew      4
 Iteration    14 Dimension   254 NMult   252 NNew      2
 Iteration    15 Dimension   256 NMult   254 NNew      2
 ***********************************************************************
 Excited states from <AA,BB:AA,BB> singles matrix:
 ***********************************************************************
 
 Ground to excited state transition densities written to RWF  633
 Ground to excited state transition electric dipole moments (Au):
       state          X           Y           Z        Dip. S.      Osc.
         1        -0.1085      0.1551      0.0183      0.0362      0.0057
         2        -0.1100     -0.3408     -0.1360      0.1468      0.0234
         3        -0.0073     -0.2698      0.0048      0.0729      0.0122
         4         0.0915     -0.1438      0.0383      0.0305      0.0052
         5        -0.1800     -0.0540      0.0138      0.0355      0.0062
         6        -0.1080      0.1378     -0.0253      0.0313      0.0055
         7         0.0232     -0.0725      0.0054      0.0058      0.0010
         8        -0.1573      0.0236     -0.0233      0.0258      0.0047
         9        -0.0120      0.1130     -0.0957      0.0221      0.0040
        10         0.1332      0.0423      0.1274      0.0357      0.0065
 Ground to excited state transition velocity dipole moments (Au):
       state          X           Y           Z        Dip. S.      Osc.
         1         0.0285     -0.0395     -0.0031      0.0024      0.0067
         2         0.0284      0.0866      0.0334      0.0094      0.0262
         3         0.0018      0.0712     -0.0008      0.0051      0.0135
         4        -0.0231      0.0391     -0.0098      0.0022      0.0056
         5         0.0456      0.0143     -0.0023      0.0023      0.0059
         6         0.0294     -0.0349      0.0034      0.0021      0.0053
         7        -0.0071      0.0175      0.0014      0.0004      0.0009
         8         0.0457     -0.0080      0.0074      0.0022      0.0054
         9         0.0058     -0.0317      0.0281      0.0018      0.0045
        10        -0.0384     -0.0118     -0.0364      0.0029      0.0072
 Ground to excited state transition magnetic dipole moments (Au):
       state          X           Y           Z
         1         0.5187      0.0988      0.2189
         2         0.3799      0.2416     -0.8537
         3         0.0008     -0.0369     -0.7709
         4        -0.1454     -0.1190     -0.5068
         5        -0.0721     -0.0671     -0.2010
         6        -0.1135     -0.1220     -0.1382
         7        -0.0261      0.1579     -0.1605
         8         0.2038      0.0534     -0.0827
         9        -0.2854      0.4882      0.2205
        10         0.4444     -0.4331     -0.2960
 Ground to excited state transition velocity quadrupole moments (Au):
       state          XX          YY          ZZ          XY          XZ          YZ
         1        -0.2669      0.7817     -0.0847      0.0291      0.0485     -0.0121
         2        -0.3859      0.5507     -0.0830     -0.3389     -0.2675      0.0767
         3         0.0094     -0.2357      0.0752     -0.1965     -0.0209      0.1700
         4        -0.1010     -0.1919      0.0687     -0.0647      0.0056      0.0078
         5        -0.0528      0.0238      0.0495      0.0739      0.0688      0.0401
         6        -0.2111      0.2625     -0.0175     -0.1447      0.0263     -0.1007
         7        -0.1511     -0.0993      0.0010      0.4361      0.0329     -0.0089
         8        -0.2710      0.6683      0.0525      0.1185     -0.0329      0.1024
         9        -0.1890      0.1357      0.0953      0.1409     -0.1081     -0.1141
        10        -0.0082      0.1380     -0.1476      0.2533      0.1289      0.3062
 <0|del|b> * <b|rxdel|0> + <0|del|b> * <b|delr+rdel|0>
 Rotatory Strengths (R) in cgs (10**-40 erg-esu-cm/Gauss)
       state          XX          YY          ZZ    R(velocity)    E-M Angle
         1        -4.1085     20.5699     13.8436     10.1017       68.54
         2         6.2225     -6.2610      9.4134      3.1250       88.06
         3        -0.5100      1.0849     -6.2349     -1.8867       92.09
         4         0.9833     10.3790     -1.2443      3.3727       81.64
         5        -2.2420     -1.1367     -6.9158     -3.4315      110.72
         6         5.6847     -8.4385      3.9926      0.4130       87.34
         7         3.4014     -0.7588      4.5844      2.4090       50.56
         8        -0.5541     16.3566      5.8445      7.2157       38.84
         9       -11.3422     -0.0966    -16.9220     -9.4536      114.90
        10        10.5652    -11.3904     -2.2116     -1.0123       91.81
 1/2[<0|r|b>*<b|rxdel|0> + (<0|rxdel|b>*<b|r|0>)*]
 Rotatory Strengths (R) in cgs (10**-40 erg-esu-cm/Gauss)
       state          XX          YY          ZZ     R(length)
         1        39.7911    -10.8397     -2.8344      8.7057
         2        29.5481     58.2205    -82.1180      1.8835
         3         0.0044     -7.0324      2.6204     -1.4692
         4         9.4058    -12.1013     13.7163      3.6736
         5        -9.1742     -2.5642      1.9672     -3.2570
         6        -8.6650     11.8851     -2.4742      0.2486
         7         0.4286      8.0986      0.6184      3.0486
         8        22.6673     -0.8913     -1.3635      6.8042
         9        -2.4262    -38.9996     14.9141     -8.8372
        10       -41.8583     12.9502     26.6567     -0.7504
  1/2[<0|del|b>*<b|r|0> + (<0|r|b>*<b|del|0>)*] (Au)
       state          X           Y           Z        Dip. S.   Osc.(frdel)
         1        -0.0031     -0.0061     -0.0001      0.0093      0.0062
         2        -0.0031     -0.0295     -0.0045      0.0372      0.0248
         3        -0.0000     -0.0192     -0.0000      0.0192      0.0128
         4        -0.0021     -0.0056     -0.0004      0.0081      0.0054
         5        -0.0082     -0.0008     -0.0000      0.0090      0.0060
         6        -0.0032     -0.0048     -0.0001      0.0081      0.0054
         7        -0.0002     -0.0013      0.0000      0.0014      0.0009
         8        -0.0072     -0.0002     -0.0002      0.0075      0.0050
         9        -0.0001     -0.0036     -0.0027      0.0063      0.0042
        10        -0.0051     -0.0005     -0.0046      0.0103      0.0068

 Excitation energies and oscillator strengths:
 
 Excited State   1:      Singlet-A      6.4811 eV  191.30 nm  f=0.0057  <S**2>=0.000
      52 -> 54        -0.29041
      53 -> 54         0.58324
      53 -> 56        -0.14720
 This state for optimization and/or second-order correction.
 Total Energy, E(TD-HF/TD-DFT) =  -583.907241046    
 Copying the excited state density for this state as the 1-particle RhoCI density.
 
 Excited State   2:      Singlet-A      6.5088 eV  190.49 nm  f=0.0234  <S**2>=0.000
      52 -> 55         0.18520
      52 -> 56        -0.13015
      53 -> 54        -0.12023
      53 -> 55         0.55896
      53 -> 56        -0.24854
      53 -> 59        -0.19418
 
 Excited State   3:      Singlet-A      6.8156 eV  181.91 nm  f=0.0122  <S**2>=0.000
      52 -> 54         0.53475
      53 -> 54         0.32300
      53 -> 56        -0.10414
      53 -> 57         0.19547
 
 Excited State   4:      Singlet-A      6.9365 eV  178.74 nm  f=0.0052  <S**2>=0.000
      52 -> 54        -0.16296
      52 -> 55         0.35318
      52 -> 57        -0.11281
      53 -> 54        -0.10526
      53 -> 55        -0.33780
      53 -> 56        -0.33285
      53 -> 57         0.21480
      53 -> 59        -0.15411
 
 Excited State   5:      Singlet-A      7.0809 eV  175.10 nm  f=0.0062  <S**2>=0.000
      52 -> 54        -0.18779
      52 -> 55         0.15394
      53 -> 55         0.16282
      53 -> 56         0.31100
      53 -> 57         0.47899
      53 -> 58        -0.21285
      53 -> 59         0.13260
 
 Excited State   6:      Singlet-A      7.1417 eV  173.61 nm  f=0.0055  <S**2>=0.000
      52 -> 55         0.41750
      52 -> 56        -0.22356
      53 -> 56         0.34342
      53 -> 57        -0.31877
      53 -> 59        -0.13720
 
 Excited State   7:      Singlet-A      7.2496 eV  171.02 nm  f=0.0010  <S**2>=0.000
      52 -> 54         0.11638
      52 -> 55         0.33718
      52 -> 56         0.24350
      52 -> 58        -0.12479
      53 -> 58         0.16941
      53 -> 59         0.45024
      53 -> 60        -0.10600
 
 Excited State   8:      Singlet-A      7.3617 eV  168.42 nm  f=0.0047  <S**2>=0.000
      52 -> 56        -0.34432
      52 -> 57         0.52088
      52 -> 60         0.11138
      53 -> 59         0.18450
      53 -> 62         0.10368
 
 Excited State   9:      Singlet-A      7.4137 eV  167.24 nm  f=0.0040  <S**2>=0.000
      51 -> 54        -0.29146
      52 -> 54         0.15407
      52 -> 56         0.29225
      52 -> 57         0.30130
      52 -> 58        -0.20004
      53 -> 56         0.16944
      53 -> 57         0.11562
      53 -> 59        -0.29993
 
 Excited State  10:      Singlet-A      7.4644 eV  166.10 nm  f=0.0065  <S**2>=0.000
      51 -> 54         0.62369
      52 -> 56         0.15928
      52 -> 57         0.13326
      53 -> 59        -0.13296
 SavETr:  write IOETrn=   770 NScale= 10 NData=  16 NLR=1 NState=   10 LETran=     190.
          IDoAtm=1111111111111111111111111111111111111
          Differentiating once with respect to electric field.
                with respect to dipole field.
          Differentiating once with respect to nuclear coordinates.
          There are     1 degrees of freedom in the 1st order CPHF.  IDoFFX=0 NUNeed=     1.
 LinEq1:  Iter=  0 NonCon=     1 RMS=6.06D-03 Max=8.63D-02 NDo=     1
 AX will form     1 AO Fock derivatives at one time.
 LinEq1:  Iter=  1 NonCon=     1 RMS=2.02D-03 Max=2.69D-02 NDo=     1
 LinEq1:  Iter=  2 NonCon=     1 RMS=1.26D-03 Max=2.78D-02 NDo=     1
 LinEq1:  Iter=  3 NonCon=     1 RMS=4.89D-04 Max=1.15D-02 NDo=     1
 LinEq1:  Iter=  4 NonCon=     1 RMS=2.18D-04 Max=4.35D-03 NDo=     1
 LinEq1:  Iter=  5 NonCon=     1 RMS=9.46D-05 Max=1.19D-03 NDo=     1
 LinEq1:  Iter=  6 NonCon=     1 RMS=4.19D-05 Max=6.47D-04 NDo=     1
 LinEq1:  Iter=  7 NonCon=     1 RMS=2.14D-05 Max=2.94D-04 NDo=     1
 LinEq1:  Iter=  8 NonCon=     1 RMS=1.16D-05 Max=1.57D-04 NDo=     1
 LinEq1:  Iter=  9 NonCon=     1 RMS=3.64D-06 Max=5.94D-05 NDo=     1
 LinEq1:  Iter= 10 NonCon=     1 RMS=1.75D-06 Max=1.88D-05 NDo=     1
 LinEq1:  Iter= 11 NonCon=     1 RMS=5.80D-07 Max=7.00D-06 NDo=     1
 LinEq1:  Iter= 12 NonCon=     1 RMS=2.19D-07 Max=3.49D-06 NDo=     1
 LinEq1:  Iter= 13 NonCon=     1 RMS=9.58D-08 Max=1.57D-06 NDo=     1
 LinEq1:  Iter= 14 NonCon=     1 RMS=4.08D-08 Max=6.60D-07 NDo=     1
 LinEq1:  Iter= 15 NonCon=     1 RMS=1.48D-08 Max=3.79D-07 NDo=     1
 LinEq1:  Iter= 16 NonCon=     1 RMS=5.74D-09 Max=1.34D-07 NDo=     1
 LinEq1:  Iter= 17 NonCon=     1 RMS=2.55D-09 Max=6.27D-08 NDo=     1
 LinEq1:  Iter= 18 NonCon=     1 RMS=8.80D-10 Max=2.37D-08 NDo=     1
 LinEq1:  Iter= 19 NonCon=     1 RMS=2.61D-10 Max=5.13D-09 NDo=     1
 LinEq1:  Iter= 20 NonCon=     1 RMS=1.16D-10 Max=1.69D-09 NDo=     1
 LinEq1:  Iter= 21 NonCon=     0 RMS=4.89D-11 Max=6.60D-10 NDo=     1
 Linear equations converged to 1.000D-10 1.000D-09 after    21 iterations.
 End of Minotr F.D. properties file   721 does not exist.
 End of Minotr F.D. properties file   722 does not exist.
 End of Minotr F.D. properties file   788 does not exist.

 **********************************************************************

            Population analysis using the SCF density.

 **********************************************************************

 Orbital symmetries:
       Occupied  (A) (A) (A) (A) (A) (A) (A) (A) (A) (A) (A) (A)
                 (A) (A) (A) (A) (A) (A) (A) (A) (A) (A) (A) (A)
                 (A) (A) (A) (A) (A) (A) (A) (A) (A) (A) (A) (A)
                 (A) (A) (A) (A) (A) (A) (A) (A) (A) (A) (A) (A)
                 (A) (A) (A) (A) (A)
       Virtual   (A) (A) (A) (A) (A) (A) (A) (A) (A) (A) (A) (A)
                 (A) (A) (A) (A) (A) (A) (A) (A) (A) (A) (A) (A)
                 (A) (A) (A) (A) (A) (A) (A) (A) (A) (A) (A) (A)
                 (A) (A) (A) (A) (A) (A) (A) (A) (A) (A) (A) (A)
                 (A) (A) (A) (A) (A) (A) (A) (A) (A) (A) (A) (A)
                 (A) (A) (A) (A) (A) (A) (A) (A) (A) (A) (A) (A)
                 (A) (A) (A) (A) (A) (A) (A) (A) (A) (A) (A) (A)
                 (A) (A) (A) (A) (A) (A) (A) (A) (A) (A) (A) (A)
                 (A) (A) (A) (A) (A) (A) (A) (A) (A) (A) (A) (A)
                 (A) (A) (A) (A) (A) (A) (A) (A) (A) (A) (A) (A)
                 (A) (A) (A) (A) (A) (A) (A) (A) (A) (A) (A) (A)
                 (A) (A) (A) (A) (A) (A) (A) (A) (A) (A) (A) (A)
                 (A) (A) (A) (A) (A) (A) (A) (A) (A) (A) (A) (A)
                 (A) (A) (A) (A) (A) (A) (A) (A) (A) (A) (A) (A)
                 (A) (A) (A) (A) (A) (A) (A) (A) (A) (A) (A) (A)
                 (A) (A) (A) (A) (A) (A) (A) (A) (A) (A) (A) (A)
                 (A) (A) (A) (A) (A) (A) (A) (A) (A) (A) (A) (A)
                 (A) (A) (A) (A) (A) (A) (A) (A) (A) (A) (A) (A)
                 (A) (A) (A) (A) (A) (A) (A) (A) (A) (A) (A) (A)
                 (A) (A) (A) (A) (A) (A) (A) (A) (A) (A) (A) (A)
                 (A) (A) (A) (A) (A) (A) (A) (A) (A) (A) (A) (A)
                 (A) (A) (A) (A) (A) (A) (A) (A) (A) (A) (A) (A)
                 (A) (A) (A) (A) (A) (A) (A) (A) (A) (A) (A) (A)
                 (A) (A) (A) (A) (A) (A) (A) (A) (A) (A) (A) (A)
                 (A) (A) (A) (A) (A) (A) (A) (A) (A) (A) (A) (A)
                 (A) (A) (A) (A) (A) (A) (A) (A) (A) (A) (A) (A)
                 (A) (A) (A) (A) (A) (A) (A) (A) (A) (A) (A) (A)
                 (A) (A) (A) (A) (A) (A) (A) (A) (A) (A) (A) (A)
                 (A) (A) (A) (A) (A) (A) (A) (A) (A) (A) (A) (A)
                 (A) (A) (A) (A) (A) (A) (A) (A) (A) (A) (A) (A)
                 (A) (A) (A) (A) (A) (A) (A) (A) (A) (A) (A) (A)
                 (A) (A) (A) (A) (A) (A) (A) (A) (A) (A) (A) (A)
                 (A) (A) (A) (A) (A) (A) (A) (A) (A) (A) (A) (A)
                 (A) (A) (A) (A) (A) (A) (A) (A) (A) (A) (A) (A)
                 (A) (A) (A) (A) (A) (A) (A) (A) (A) (A) (A) (A)
                 (A) (A) (A) (A) (A) (A) (A) (A) (A) (A) (A) (A)
                 (A) (A) (A) (A) (A) (A) (A) (A) (A) (A) (A) (A)
                 (A) (A) (A) (A) (A) (A) (A) (A) (A) (A) (A) (A)
                 (A) (A) (A) (A) (A) (A) (A) (A) (A) (A) (A) (A)
                 (A) (A) (A) (A) (A) (A) (A) (A) (A) (A) (A) (A)
                 (A) (A) (A)
 The electronic state is 1-A.
 Alpha  occ. eigenvalues --  -19.14949 -19.14416 -10.23938 -10.23568 -10.19565
 Alpha  occ. eigenvalues --  -10.18770 -10.18663 -10.18593 -10.18493 -10.18385
 Alpha  occ. eigenvalues --  -10.18054 -10.17879 -10.17746  -1.02935  -1.02323
 Alpha  occ. eigenvalues --   -0.82586  -0.79877  -0.76414  -0.74928  -0.72186
 Alpha  occ. eigenvalues --   -0.68348  -0.64870  -0.61285  -0.59833  -0.58661
 Alpha  occ. eigenvalues --   -0.57979  -0.50199  -0.48524  -0.47862  -0.46719
 Alpha  occ. eigenvalues --   -0.46353  -0.44976  -0.44080  -0.43033  -0.42246
 Alpha  occ. eigenvalues --   -0.41754  -0.40680  -0.39553  -0.38608  -0.38018
 Alpha  occ. eigenvalues --   -0.37791  -0.36859  -0.35799  -0.35058  -0.34419
 Alpha  occ. eigenvalues --   -0.33749  -0.33363  -0.33077  -0.32782  -0.31822
 Alpha  occ. eigenvalues --   -0.30317  -0.28230  -0.27009
 Alpha virt. eigenvalues --   -0.00158   0.00197   0.01003   0.01267   0.02064
 Alpha virt. eigenvalues --    0.02183   0.03361   0.03773   0.04052   0.04464
 Alpha virt. eigenvalues --    0.04967   0.05603   0.06236   0.06483   0.06807
 Alpha virt. eigenvalues --    0.07488   0.07536   0.07982   0.08661   0.09064
 Alpha virt. eigenvalues --    0.09496   0.09929   0.10269   0.10946   0.11114
 Alpha virt. eigenvalues --    0.11839   0.12309   0.12359   0.13620   0.13780
 Alpha virt. eigenvalues --    0.14383   0.15157   0.15937   0.16563   0.17175
 Alpha virt. eigenvalues --    0.17413   0.17632   0.18196   0.18437   0.18995
 Alpha virt. eigenvalues --    0.19064   0.19318   0.20192   0.20228   0.20849
 Alpha virt. eigenvalues --    0.21273   0.21656   0.21719   0.22053   0.22888
 Alpha virt. eigenvalues --    0.23448   0.23749   0.24000   0.24268   0.24700
 Alpha virt. eigenvalues --    0.25065   0.25148   0.26095   0.26483   0.27018
 Alpha virt. eigenvalues --    0.27439   0.27784   0.28824   0.29033   0.29752
 Alpha virt. eigenvalues --    0.29875   0.30444   0.30630   0.31473   0.32224
 Alpha virt. eigenvalues --    0.33210   0.33710   0.33912   0.34503   0.34786
 Alpha virt. eigenvalues --    0.35113   0.35798   0.36369   0.37381   0.37631
 Alpha virt. eigenvalues --    0.37814   0.39683   0.40277   0.41111   0.43204
 Alpha virt. eigenvalues --    0.44208   0.45820   0.50598   0.53739   0.55384
 Alpha virt. eigenvalues --    0.56574   0.57098   0.58238   0.59553   0.60602
 Alpha virt. eigenvalues --    0.61448   0.62619   0.63184   0.63597   0.64220
 Alpha virt. eigenvalues --    0.64449   0.65088   0.65325   0.66751   0.67010
 Alpha virt. eigenvalues --    0.67641   0.68049   0.69990   0.70762   0.71330
 Alpha virt. eigenvalues --    0.72604   0.73061   0.73179   0.73927   0.75096
 Alpha virt. eigenvalues --    0.75829   0.76560   0.77365   0.78046   0.78773
 Alpha virt. eigenvalues --    0.79201   0.79638   0.81025   0.82070   0.82816
 Alpha virt. eigenvalues --    0.83212   0.83963   0.84351   0.85594   0.85864
 Alpha virt. eigenvalues --    0.87081   0.87772   0.88885   0.90139   0.91632
 Alpha virt. eigenvalues --    0.92365   0.92769   0.94110   0.94915   0.96016
 Alpha virt. eigenvalues --    0.96407   0.98643   0.99911   1.00635   1.01517
 Alpha virt. eigenvalues --    1.02456   1.03302   1.03865   1.04167   1.05042
 Alpha virt. eigenvalues --    1.05590   1.08092   1.08343   1.09665   1.10657
 Alpha virt. eigenvalues --    1.11701   1.12682   1.14690   1.15882   1.16555
 Alpha virt. eigenvalues --    1.17646   1.19738   1.20239   1.20925   1.22347
 Alpha virt. eigenvalues --    1.22746   1.23739   1.25013   1.25115   1.26873
 Alpha virt. eigenvalues --    1.28013   1.28179   1.29972   1.30667   1.32582
 Alpha virt. eigenvalues --    1.34240   1.35900   1.36821   1.39143   1.40584
 Alpha virt. eigenvalues --    1.41269   1.42793   1.44586   1.46003   1.49216
 Alpha virt. eigenvalues --    1.49785   1.50478   1.52802   1.54034   1.56244
 Alpha virt. eigenvalues --    1.56446   1.58293   1.59318   1.59643   1.60146
 Alpha virt. eigenvalues --    1.62328   1.62596   1.62748   1.65568   1.67604
 Alpha virt. eigenvalues --    1.68782   1.71685   1.72275   1.73424   1.75633
 Alpha virt. eigenvalues --    1.76792   1.78401   1.79501   1.79585   1.81011
 Alpha virt. eigenvalues --    1.81562   1.83599   1.86626   1.87747   1.88418
 Alpha virt. eigenvalues --    1.89828   1.90837   1.91700   1.91881   1.95019
 Alpha virt. eigenvalues --    1.95136   1.96181   1.96681   1.97268   1.98759
 Alpha virt. eigenvalues --    2.00166   2.01960   2.07039   2.08610   2.15198
 Alpha virt. eigenvalues --    2.15671   2.17910   2.19324   2.20211   2.21115
 Alpha virt. eigenvalues --    2.23880   2.24775   2.25101   2.27970   2.28487
 Alpha virt. eigenvalues --    2.30841   2.32377   2.33154   2.34428   2.37017
 Alpha virt. eigenvalues --    2.38571   2.41286   2.42859   2.43461   2.44591
 Alpha virt. eigenvalues --    2.46256   2.48174   2.50059   2.52056   2.53816
 Alpha virt. eigenvalues --    2.54373   2.55877   2.59008   2.60092   2.62199
 Alpha virt. eigenvalues --    2.65155   2.69466   2.72449   2.73426   2.73849
 Alpha virt. eigenvalues --    2.76018   2.77806   2.78408   2.78663   2.79927
 Alpha virt. eigenvalues --    2.81063   2.81900   2.82651   2.82851   2.83653
 Alpha virt. eigenvalues --    2.84292   2.84876   2.85150   2.86317   2.89231
 Alpha virt. eigenvalues --    2.91084   2.91708   2.92362   2.93367   2.94684
 Alpha virt. eigenvalues --    2.95273   2.96102   2.96466   2.97480   2.99238
 Alpha virt. eigenvalues --    2.99824   3.00148   3.01798   3.02106   3.02495
 Alpha virt. eigenvalues --    3.03751   3.04998   3.06083   3.06782   3.07374
 Alpha virt. eigenvalues --    3.09391   3.11134   3.11362   3.14140   3.15156
 Alpha virt. eigenvalues --    3.16326   3.19330   3.20348   3.22361   3.22926
 Alpha virt. eigenvalues --    3.25733   3.27044   3.28553   3.29992   3.34498
 Alpha virt. eigenvalues --    3.34794   3.35772   3.37690   3.39272   3.40885
 Alpha virt. eigenvalues --    3.42396   3.42767   3.44353   3.46857   3.48070
 Alpha virt. eigenvalues --    3.48980   3.50328   3.51634   3.52994   3.55474
 Alpha virt. eigenvalues --    3.56328   3.58351   3.59155   3.59612   3.61412
 Alpha virt. eigenvalues --    3.63418   3.64365   3.66027   3.66675   3.67550
 Alpha virt. eigenvalues --    3.70406   3.71990   3.72360   3.73499   3.74244
 Alpha virt. eigenvalues --    3.75448   3.76245   3.78665   3.80297   3.80601
 Alpha virt. eigenvalues --    3.82136   3.85468   3.86461   3.90976   3.91614
 Alpha virt. eigenvalues --    3.93974   3.95591   3.97002   3.98298   4.00544
 Alpha virt. eigenvalues --    4.02295   4.07202   4.09385   4.16457   4.18048
 Alpha virt. eigenvalues --    4.20228   4.23465   4.25720   4.29195   4.32677
 Alpha virt. eigenvalues --    4.35576   4.36615   4.38421   4.39751   4.41270
 Alpha virt. eigenvalues --    4.43539   4.44189   4.45752   4.46479   4.47514
 Alpha virt. eigenvalues --    4.48836   4.49004   4.50424   4.51230   4.53110
 Alpha virt. eigenvalues --    4.53889   4.54410   4.55002   4.56577   4.57359
 Alpha virt. eigenvalues --    4.59423   4.59628   4.61137   4.61686   4.62602
 Alpha virt. eigenvalues --    4.63436   4.64904   4.66202   4.66449   4.67888
 Alpha virt. eigenvalues --    4.68182   4.69629   4.70351   4.71121   4.72548
 Alpha virt. eigenvalues --    4.73859   4.74152   4.75324   4.75576   4.75959
 Alpha virt. eigenvalues --    4.77250   4.78235   4.78938   4.80006   4.81463
 Alpha virt. eigenvalues --    4.82274   4.82779   4.83589   4.84308   4.85063
 Alpha virt. eigenvalues --    4.85494   4.85962   4.88317   4.89267   4.90823
 Alpha virt. eigenvalues --    4.92116   4.92198   4.94174   4.96235   4.97908
 Alpha virt. eigenvalues --    4.98806   4.99900   5.05401   5.07073   5.11004
 Alpha virt. eigenvalues --    5.14173   5.16762   5.24419   5.26311   5.29380
 Alpha virt. eigenvalues --    5.30611   5.32026   5.33722   5.38131   5.40613
 Alpha virt. eigenvalues --    5.42241   5.44193   5.44631   5.48431   5.49479
 Alpha virt. eigenvalues --    5.50725   5.51412   5.54452   5.58207   5.64229
 Alpha virt. eigenvalues --    5.66723   5.69507   5.70617   5.77573   5.89129
 Alpha virt. eigenvalues --    5.94816   5.97121   5.98354   6.10628   6.11786
 Alpha virt. eigenvalues --    6.24197   6.62842   6.90919   7.13107   7.14542
 Alpha virt. eigenvalues --   11.27438  11.62470  11.76938  11.78344  12.05708
 Alpha virt. eigenvalues --   12.20758  12.33063  12.44797  12.65325  12.74182
 Alpha virt. eigenvalues --   13.07233  13.38571  13.40561
          Condensed to atoms (all electrons):
               1          2          3          4          5          6
     1  C    5.708980  -0.325534   0.183711  -0.082431  -0.117228   0.014085
     2  C   -0.325534   6.281493  -0.332844   0.129459   0.029180  -0.148861
     3  C    0.183711  -0.332844   6.272590  -0.248171  -0.137833  -0.025976
     4  C   -0.082431   0.129459  -0.248171   6.902762  -0.645345   0.415851
     5  C   -0.117228   0.029180  -0.137833  -0.645345   7.877987  -1.950253
     6  C    0.014085  -0.148861  -0.025976   0.415851  -1.950253  10.566884
     7  C   -0.003083  -0.015831  -0.082263  -0.420701   0.340374  -2.075124
     8  C    0.000010   0.006996   0.005496   0.003395   0.245980  -0.629385
     9  C   -0.001009  -0.001208  -0.019843  -0.014038   0.010999   0.052301
    10  O   -0.000002  -0.000003   0.000155  -0.000606  -0.005548   0.018765
    11  C   -0.003778   0.002929  -0.056369  -0.182370   0.418737  -1.569351
    12  C    0.004795   0.001602   0.045977   0.131706  -0.426736   0.895419
    13  O   -0.000036  -0.000329  -0.001228  -0.021241   0.021048   0.000067
    14  H    0.440227  -0.072865   0.000204  -0.002625  -0.001835   0.000118
    15  H    0.469903  -0.135462   0.031185  -0.008393  -0.001130   0.000303
    16  H    0.471130  -0.138786   0.030447  -0.005961  -0.000815   0.000449
    17  H    0.030725   0.396426  -0.081802  -0.012855  -0.016929  -0.001001
    18  H    0.033162   0.400337  -0.071196  -0.025690  -0.018450  -0.003650
    19  H    0.000036   0.024020   0.391902  -0.095700   0.011079  -0.022674
    20  H    0.001809   0.018706   0.395575  -0.090633   0.003781  -0.014834
    21  H   -0.005261  -0.009702   0.043342   0.272099   0.019067  -0.009370
    22  H   -0.006299  -0.011412  -0.010374   0.341790  -0.043716   0.058451
    23  H   -0.001330  -0.013079   0.059861  -0.178537   0.522609  -0.104780
    24  H   -0.000943  -0.017004   0.029814  -0.140926   0.390694   0.052095
    25  H   -0.000107  -0.002011   0.014224   0.005609   0.019872   0.158819
    26  H    0.000001   0.000068  -0.000757   0.007085  -0.018075  -0.045525
    27  H   -0.000004   0.000014   0.004140  -0.002736   0.062133  -0.178496
    28  H    0.000007   0.000220   0.001607   0.019840   0.017304   0.124544
    29  H   -0.000009   0.000290   0.001243   0.004797   0.021000  -0.012517
    30  H   -0.000038   0.001168  -0.007385  -0.000522   0.006766   0.000684
    31  H    0.000013  -0.000079   0.000066   0.005402  -0.008964   0.001280
    32  H    0.000000   0.000004   0.000018   0.001827   0.000037   0.037073
    33  H    0.000028   0.000677   0.006040   0.032397   0.065314  -0.178070
    34  H    0.000055   0.001321   0.000025   0.012684  -0.007350   0.002063
    35  H    0.000356   0.003035   0.000431   0.020908  -0.009991   0.024768
    36  H    0.000002  -0.000445   0.002658   0.001395  -0.009400   0.021910
    37  H    0.000000   0.000011   0.000900   0.002827   0.018740  -0.050131
               7          8          9         10         11         12
     1  C   -0.003083   0.000010  -0.001009  -0.000002  -0.003778   0.004795
     2  C   -0.015831   0.006996  -0.001208  -0.000003   0.002929   0.001602
     3  C   -0.082263   0.005496  -0.019843   0.000155  -0.056369   0.045977
     4  C   -0.420701   0.003395  -0.014038  -0.000606  -0.182370   0.131706
     5  C    0.340374   0.245980   0.010999  -0.005548   0.418737  -0.426736
     6  C   -2.075124  -0.629385   0.052301   0.018765  -1.569351   0.895419
     7  C    7.839886  -0.020691   0.092959  -0.012780   0.613303  -0.285666
     8  C   -0.020691   6.105407  -0.079598   0.152492   0.039258  -0.082366
     9  C    0.092959  -0.079598   5.420885  -0.029588  -0.036899   0.010673
    10  O   -0.012780   0.152492  -0.029588   8.058520   0.017439   0.000215
    11  C    0.613303   0.039258  -0.036899   0.017439   7.340327  -0.949963
    12  C   -0.285666  -0.082366   0.010673   0.000215  -0.949963   6.077292
    13  O    0.029498  -0.008978   0.003748  -0.001268   0.103281   0.002999
    14  H    0.000005  -0.000001  -0.000000  -0.000000  -0.000003   0.000002
    15  H   -0.000007  -0.000028   0.000033   0.000000   0.000045  -0.000016
    16  H    0.000001   0.000007  -0.000009  -0.000000  -0.000082   0.000052
    17  H    0.000306   0.000048  -0.000043  -0.000000  -0.000512   0.000177
    18  H   -0.000380   0.000053  -0.000053   0.000000  -0.000205   0.000211
    19  H   -0.000091   0.000127  -0.000164   0.000000  -0.000594   0.000782
    20  H   -0.003029   0.000710   0.000108   0.000000  -0.003825   0.000100
    21  H   -0.009799   0.002569  -0.004434   0.000013  -0.008490   0.006416
    22  H    0.000768  -0.003520   0.001743   0.000001  -0.027050   0.001062
    23  H    0.014652   0.005526   0.000489   0.000022   0.008654  -0.023861
    24  H    0.018223  -0.022945   0.000032  -0.000090  -0.031219   0.013866
    25  H   -0.028281   0.045462  -0.020113   0.000818   0.095583  -0.064558
    26  H    0.393699   0.004147  -0.000232   0.000012   0.013278  -0.020647
    27  H    0.400501   0.015615  -0.021534  -0.007002   0.017864  -0.004839
    28  H   -0.202126   0.378485  -0.027527  -0.040896  -0.025047   0.002836
    29  H   -0.001916  -0.064053   0.404443  -0.005049  -0.000821   0.000651
    30  H    0.010111  -0.060164   0.403061   0.004248   0.002942  -0.000355
    31  H    0.017362  -0.082685   0.432410  -0.001591  -0.001960   0.000142
    32  H   -0.093971   0.067822  -0.026415   0.250648  -0.003402   0.000172
    33  H   -0.039967   0.001494  -0.001546   0.000096   0.458629  -0.044816
    34  H    0.000824  -0.000749   0.000180   0.000002  -0.086572   0.429670
    35  H   -0.012495   0.000831  -0.000124  -0.000000  -0.088065   0.419849
    36  H   -0.011943  -0.001443   0.000117  -0.000000  -0.138118   0.497552
    37  H   -0.028887  -0.000430  -0.000069   0.000120   0.068958  -0.025357
              13         14         15         16         17         18
     1  C   -0.000036   0.440227   0.469903   0.471130   0.030725   0.033162
     2  C   -0.000329  -0.072865  -0.135462  -0.138786   0.396426   0.400337
     3  C   -0.001228   0.000204   0.031185   0.030447  -0.081802  -0.071196
     4  C   -0.021241  -0.002625  -0.008393  -0.005961  -0.012855  -0.025690
     5  C    0.021048  -0.001835  -0.001130  -0.000815  -0.016929  -0.018450
     6  C    0.000067   0.000118   0.000303   0.000449  -0.001001  -0.003650
     7  C    0.029498   0.000005  -0.000007   0.000001   0.000306  -0.000380
     8  C   -0.008978  -0.000001  -0.000028   0.000007   0.000048   0.000053
     9  C    0.003748  -0.000000   0.000033  -0.000009  -0.000043  -0.000053
    10  O   -0.001268  -0.000000   0.000000  -0.000000  -0.000000   0.000000
    11  C    0.103281  -0.000003   0.000045  -0.000082  -0.000512  -0.000205
    12  C    0.002999   0.000002  -0.000016   0.000052   0.000177   0.000211
    13  O    8.087990   0.000000   0.000000  -0.000000   0.000000   0.000000
    14  H    0.000000   0.535698  -0.028362  -0.028381  -0.002683  -0.002675
    15  H    0.000000  -0.028362   0.536028  -0.030591  -0.004070   0.004562
    16  H   -0.000000  -0.028381  -0.030591   0.536215   0.004555  -0.004077
    17  H    0.000000  -0.002683  -0.004070   0.004555   0.576393  -0.035583
    18  H    0.000000  -0.002675   0.004562  -0.004077  -0.035583   0.577416
    19  H    0.000005  -0.000023  -0.000398   0.002342   0.005032  -0.005156
    20  H    0.000001  -0.000023   0.002331  -0.000399  -0.005115   0.005044
    21  H    0.000154   0.000002   0.000002  -0.000002   0.002512  -0.000477
    22  H   -0.000203   0.000002  -0.000002   0.000001  -0.000480   0.002464
    23  H    0.001491   0.000000   0.000000  -0.000001  -0.000002   0.000002
    24  H   -0.000743   0.000000  -0.000001   0.000000   0.000003  -0.000002
    25  H   -0.012602  -0.000000  -0.000000  -0.000000  -0.000002  -0.000000
    26  H   -0.005888  -0.000000   0.000000   0.000000  -0.000000  -0.000000
    27  H    0.000068   0.000000   0.000000  -0.000000  -0.000000   0.000000
    28  H   -0.002092   0.000000   0.000000  -0.000000  -0.000000   0.000000
    29  H   -0.000032   0.000000   0.000000   0.000000   0.000000   0.000000
    30  H   -0.000034   0.000000   0.000000  -0.000000  -0.000004  -0.000000
    31  H    0.000000   0.000000  -0.000000   0.000000   0.000000  -0.000000
    32  H    0.000018   0.000000  -0.000000  -0.000000   0.000000  -0.000000
    33  H   -0.053097  -0.000000  -0.000000  -0.000000   0.000000  -0.000000
    34  H   -0.004774  -0.000000   0.000000  -0.000000  -0.000000  -0.000001
    35  H    0.002467   0.000000  -0.000000  -0.000000  -0.000000  -0.000005
    36  H   -0.000749   0.000000  -0.000000   0.000000   0.000000   0.000000
    37  H    0.250054  -0.000000  -0.000000   0.000000   0.000000  -0.000000
              19         20         21         22         23         24
     1  C    0.000036   0.001809  -0.005261  -0.006299  -0.001330  -0.000943
     2  C    0.024020   0.018706  -0.009702  -0.011412  -0.013079  -0.017004
     3  C    0.391902   0.395575   0.043342  -0.010374   0.059861   0.029814
     4  C   -0.095700  -0.090633   0.272099   0.341790  -0.178537  -0.140926
     5  C    0.011079   0.003781   0.019067  -0.043716   0.522609   0.390694
     6  C   -0.022674  -0.014834  -0.009370   0.058451  -0.104780   0.052095
     7  C   -0.000091  -0.003029  -0.009799   0.000768   0.014652   0.018223
     8  C    0.000127   0.000710   0.002569  -0.003520   0.005526  -0.022945
     9  C   -0.000164   0.000108  -0.004434   0.001743   0.000489   0.000032
    10  O    0.000000   0.000000   0.000013   0.000001   0.000022  -0.000090
    11  C   -0.000594  -0.003825  -0.008490  -0.027050   0.008654  -0.031219
    12  C    0.000782   0.000100   0.006416   0.001062  -0.023861   0.013866
    13  O    0.000005   0.000001   0.000154  -0.000203   0.001491  -0.000743
    14  H   -0.000023  -0.000023   0.000002   0.000002   0.000000   0.000000
    15  H   -0.000398   0.002331   0.000002  -0.000002   0.000000  -0.000001
    16  H    0.002342  -0.000399  -0.000002   0.000001  -0.000001   0.000000
[...]
     37          1           0        8.459930   -0.387086   -3.305001
 ---------------------------------------------------------------------
                    Distance matrix (angstroms):
                    1          2          3          4          5
     1  C    0.000000
     2  C    1.532143   0.000000
     3  C    2.556805   1.532746   0.000000
     4  C    3.930439   2.561794   1.533047   0.000000
     5  C    5.109429   3.928609   2.552746   1.535220   0.000000
     6  C    6.483979   5.162469   3.955964   2.601454   1.542164
     7  C    7.553861   6.326840   5.031737   3.845139   2.574181
     8  C    7.855388   6.616748   5.498195   4.338418   3.428879
     9  C    6.970113   5.862765   4.859653   3.992362   3.404128
    10  O    9.133725   7.960681   6.788957   5.704679   4.659376
    11  C    7.252226   5.961276   4.793915   3.523523   2.563723
    12  C    6.734024   5.450837   4.541820   3.390104   3.031301
    13  O    8.509027   7.145082   6.062840   4.679270   3.789749
    14  H    1.094944   2.183595   3.508976   4.739423   6.039941
    15  H    1.096577   2.183213   2.826322   4.256218   5.265734
    16  H    1.096591   2.183291   2.826151   4.254515   5.274361
    17  H    2.164081   1.098235   2.159402   2.785946   4.208439
    18  H    2.163812   1.098379   2.159078   2.783497   4.219171
    19  H    2.778317   2.160928   1.100283   2.164410   2.787551
    20  H    2.780225   2.161112   1.100274   2.165311   2.769069
    21  H    4.220158   2.788958   2.165557   1.099204   2.158811
    22  H    4.217147   2.788456   2.161661   1.095559   2.177902
    23  H    5.217444   4.217654   2.770498   2.177213   1.101076
    24  H    5.209633   4.193294   2.770012   2.151502   1.096256
    25  H    6.520944   5.081710   4.130046   2.623651   2.178617
    26  H    8.526196   7.264118   5.982073   4.726992   3.458595
    27  H    7.496463   6.428764   5.009199   4.087967   2.642348
    28  H    8.148909   6.800920   5.842506   4.528882   3.863484
    29  H    6.837724   5.906873   4.779869   4.184134   3.438127
    30  H    6.048024   4.874737   4.003893   3.124018   2.908915
    31  H    7.619625   6.547300   5.702214   4.885541   4.458408
    32  H    9.132001   8.070820   6.812682   5.886722   4.725919
    33  H    7.564318   6.412087   5.106751   4.055758   2.848251
    34  H    6.631164   5.241025   4.573102   3.305571   3.341192
    35  H    5.882288   4.722106   3.787699   2.922989   2.709076
    36  H    7.604272   6.382828   5.516060   4.453164   4.045531
    37  H    8.499811   7.058238   6.139241   4.665442   4.051589
                    6          7          8          9         10
     6  C    0.000000
     7  C    1.546726   0.000000
     8  C    2.583666   1.548497   0.000000
     9  C    3.208974   2.610078   1.528306   0.000000
    10  O    3.781672   2.389085   1.422059   2.429385   0.000000
    11  C    1.582732   2.532069   3.853735   4.734857   4.804982
    12  C    2.598202   3.925552   5.098068   5.755340   6.200827
    13  O    2.444581   2.884233   3.991655   5.186602   4.708507
    14  H    7.335794   8.454424   8.675549   7.759241   9.981591
    15  H    6.691586   7.576744   7.766295   6.730450   8.960992
    16  H    6.701953   7.806738   8.299965   7.530198   9.556996
    17  H    5.278296   6.352462   6.388090   5.510703   7.732789
    18  H    5.291455   6.622900   7.022125   6.455725   8.410714
    19  H    4.240262   5.341536   6.061883   5.581940   7.294457
    20  H    4.221389   4.999744   5.311558   4.452244   6.498359
    21  H    2.826419   3.891701   3.986144   3.462792   5.387557
    22  H    2.853041   4.317383   4.935814   4.821302   6.318356
    23  H    2.181631   3.121804   4.256917   4.343996   5.345111
    24  H    2.143094   2.529021   3.117226   2.775736   4.228202
    25  H    1.099011   2.174759   2.633135   3.197375   3.947583
    26  H    2.181663   1.092863   2.128692   3.495179   2.493913
    27  H    2.186668   1.100282   2.183429   2.860452   2.692903
    28  H    2.783032   2.154684   1.097701   2.161470   2.006482
    29  H    3.571663   2.868176   2.189235   1.098651   2.773953
    30  H    2.954942   2.922783   2.173118   1.094204   3.372915
    31  H    4.197628   3.530344   2.152324   1.093393   2.631652
    32  H    4.074566   2.598064   1.969481   2.620405   0.968649
    33  H    2.200726   2.725918   4.236470   5.116431   4.993369
    34  H    2.830855   4.246133   5.151615   5.738926   6.347944
    35  H    2.871048   4.259848   5.453799   5.871726   6.613711
    36  H    3.529686   4.683942   5.934407   6.726854   6.918831
    37  H    2.663344   3.259797   4.052035   5.197182   4.872677
                   11         12         13         14         15
    11  C    0.000000
    12  C    1.541318   0.000000
    13  O    1.401277   2.387995   0.000000
    14  H    8.090165   7.464921   9.296085   0.000000
    15  H    7.615968   7.300314   8.881762   1.769249   0.000000
    16  H    7.280564   6.678440   8.598017   1.769271   1.768727
    17  H    6.264201   5.869700   7.329827   2.505408   2.531381
    18  H    5.855610   5.082968   6.986533   2.505252   3.083462
    19  H    4.776950   4.407786   6.134567   3.784604   3.140078
    20  H    5.267997   5.294401   6.520774   3.786170   2.601871
    21  H    4.013970   4.025341   4.954663   4.897401   4.450367
    22  H    3.346984   2.767202   4.437926   4.895807   4.780343
    23  H    2.568216   2.885718   3.938516   6.203973   5.420760
    24  H    3.387554   4.084789   4.499637   6.185437   5.134110
    25  H    2.161711   2.807071   2.642103   7.255901   6.790156
    26  H    2.532316   4.042702   2.379660   9.417415   8.604550
    27  H    3.031337   4.402882   3.611207   8.471579   7.417794
    28  H    3.922760   5.032021   3.803732   8.881115   8.160209
    29  H    5.045645   6.103133   5.661635   7.704807   6.473796
    30  H    4.533366   5.295404   5.133559   6.785824   5.887348
    31  H    5.700547   6.710203   6.005950   8.328723   7.316674
    32  H    5.088291   6.521803   5.155938  10.034245   8.877436
    33  H    1.096708   2.187433   2.001099   8.478852   7.864302
    34  H    2.193702   1.094223   2.716502   7.245811   7.258090
    35  H    2.165379   1.094927   3.326103   6.651181   6.466737
    36  H    2.154850   1.092220   2.579824   8.310129   8.221851
    37  H    1.982786   2.562503   1.007495   9.201594   8.919299
                   16         17         18         19         20
    16  H    0.000000
    17  H    3.083658   0.000000
    18  H    2.530902   1.753613   0.000000
    19  H    2.599617   3.065950   2.514638   0.000000
    20  H    3.142568   2.514230   3.065900   1.754961   0.000000
    21  H    4.782290   2.561788   3.098786   3.072924   2.527597
    22  H    4.443682   3.103443   2.560055   2.520740   3.069518
    23  H    5.150640   4.741177   4.432519   2.551775   3.055420
    24  H    5.443971   4.371227   4.728324   3.110639   2.532631
    25  H    6.871982   5.016236   5.125753   4.611321   4.486578
    26  H    8.732690   7.313714   7.462884   6.213251   6.030820
    27  H    7.665038   6.557833   6.833926   5.191054   4.819571
    28  H    8.651106   6.481036   7.084398   6.475615   5.806320
    29  H    7.322211   5.671297   6.615763   5.394893   4.180604
    30  H    6.664261   4.466377   5.442240   4.835711   3.700118
    31  H    8.276629   6.045978   7.169122   6.509177   5.243595
    32  H    9.501102   7.913291   8.601452   7.243410   6.408518
    33  H    7.472682   6.830849   6.380151   4.905962   5.477784
    34  H    6.708385   5.511810   4.771896   4.642139   5.398238
    35  H    5.721188   5.301396   4.369989   3.475026   4.590788
    36  H    7.451396   6.860581   5.924304   5.257721   6.292793
    37  H    8.682364   7.129823   6.833967   6.342662   6.658116
                   21         22         23         24         25
    21  H    0.000000
    22  H    1.744198   0.000000
    23  H    3.075815   2.573497   0.000000
    24  H    2.490484   3.068356   1.736527   0.000000
    25  H    2.493464   2.712029   3.015773   2.786041   0.000000
    26  H    4.805696   5.029767   3.840008   3.561134   2.698242
    27  H    4.294728   4.701532   2.935408   2.298957   3.054877
    28  H    4.035001   4.945724   4.764604   3.795975   2.416614
    29  H    3.854520   5.136526   4.206123   2.536126   3.849037
    30  H    2.446639   3.951758   3.955266   2.445541   2.755583
    31  H    4.197122   5.691505   5.424914   3.833461   4.021274
    32  H    5.675764   6.596162   5.292750   4.133462   4.449971
    33  H    4.690866   4.009828   2.490392   3.503667   3.067062
    34  H    3.713689   2.503325   3.495972   4.402488   2.600021
    35  H    3.785544   2.319353   2.310656   3.765833   3.237652
    36  H    5.110148   3.772985   3.743662   5.068757   3.764314
    37  H    4.769194   4.323102   4.394817   4.804695   2.426325
                   26         27         28         29         30
    26  H    0.000000
    27  H    1.761285   0.000000
    28  H    2.448161   3.070079   0.000000
    29  H    3.809301   2.680756   3.088392   0.000000
    30  H    3.894443   3.286211   2.489676   1.778160   0.000000
    31  H    4.270451   3.827093   2.495974   1.777510   1.770694
    32  H    2.801217   2.483995   2.828807   2.558915   3.641069
    33  H    2.644372   2.845173   4.532139   5.215748   5.053537
    34  H    4.411375   4.907875   4.883318   6.248038   5.156752
    35  H    4.582929   4.526988   5.544012   6.071037   5.330017
    36  H    4.591086   5.127484   5.837002   7.063584   6.333762
    37  H    2.865493   4.167199   3.603249   5.839629   5.037845
                   31         32         33         34         35
    31  H    0.000000
    32  H    2.906682   0.000000
    33  H    6.131485   5.089076   0.000000
    34  H    6.596216   6.796509   3.101744   0.000000
    35  H    6.880049   6.817755   2.496459   1.789502   0.000000
    36  H    7.675179   7.237502   2.515238   1.774319   1.782861
    37  H    5.915592   5.469227   2.859306   2.459584   3.585277
                   36         37
    36  H    0.000000
    37  H    2.836203   0.000000
 Stoichiometry    C11H24O2
 Framework group  C1[X(C11H24O2)]
 Deg. of freedom   105
 Full point group                 C1      NOp   1
 Largest Abelian subgroup         C1      NOp   1
 Largest concise Abelian subgroup C1      NOp   1
                         Standard orientation:                         
 ---------------------------------------------------------------------
 Center     Atomic      Atomic             Coordinates (Angstroms)
 Number     Number       Type             X           Y           Z
 ---------------------------------------------------------------------
      1          6           0        5.358005    0.746179   -0.162806
      2          6           0        4.061127    0.341091    0.545342
      3          6           0        2.853756    0.286842   -0.397326
      4          6           0        1.553079   -0.121667    0.303810
      5          6           0        0.349878   -0.141543   -0.649506
      6          6           0       -0.997326   -0.529550   -0.007041
      7          6           0       -2.176413    0.333717   -0.513880
      8          6           0       -2.434881    1.585638    0.360037
      9          6           0       -1.328935    2.640423    0.365551
     10          8           0       -3.667064    2.147978   -0.073263
     11          6           0       -1.333669   -2.045539   -0.313135
     12          6           0       -0.225258   -3.004499    0.163813
     13          8           0       -2.531449   -2.404640    0.319278
     14          1           0        6.201003    0.775739    0.535322
     15          1           0        5.268016    1.739649   -0.618219
     16          1           0        5.611908    0.038975   -0.961497
     17          1           0        3.851095    1.045537    1.361285
     18          1           0        4.192217   -0.640480    1.020493
     19          1           0        3.065276   -0.416803   -1.216330
     20          1           0        2.721720    1.269770   -0.873795
     21          1           0        1.343744    0.574888    1.127970
     22          1           0        1.685239   -1.099678    0.779494
     23          1           0        0.558683   -0.791159   -1.513664
     24          1           0        0.231364    0.858740   -1.082132
     25          1           0       -0.929520   -0.448805    1.086900
     26          1           0       -3.103859   -0.244150   -0.497675
     27          1           0       -2.006572    0.635055   -1.558375
     28          1           0       -2.626816    1.245257    1.385829
     29          1           0       -1.085233    2.982745   -0.649564
     30          1           0       -0.417310    2.246013    0.824532
     31          1           0       -1.657320    3.503714    0.950701
     32          1           0       -3.571487    2.475336   -0.979896
     33          1           0       -1.516406   -2.162405   -1.388178
     34          1           0       -0.016753   -2.879094    1.230642
     35          1           0        0.686227   -2.819314   -0.413914
     36          1           0       -0.555874   -4.031521   -0.006075
     37          1           0       -2.417415   -2.351279    1.318876
 ---------------------------------------------------------------------
 Rotational constants (GHZ):           0.8588510           0.3562744           0.2644270
 Standard basis: 6-31+G(2df,p) (6D, 7F)
 There are   575 symmetry adapted cartesian basis functions of A   symmetry.
 There are   536 symmetry adapted basis functions of A   symmetry.
   536 basis functions,   792 primitive gaussians,   575 cartesian basis functions
    53 alpha electrons       53 beta electrons
       nuclear repulsion energy       863.8043164185 Hartrees.
 NAtoms=   37 NActive=   37 NUniq=   37 SFac= 1.00D+00 NAtFMM=   60 NAOKFM=F Big=F
 Integral buffers will be    131072 words long.
 Regular integral format.
 Two-electron integral symmetry is turned on.
 One-electron integrals computed using PRISM.
 PrsmSu:  requested number of processors reduced to:  12 ShMem   1 Linda.
 NBasis=   536 RedAO= T EigKep=  6.52D-06  NBF=   536
 NBsUse=   536 1.00D-06 EigRej= -1.00D+00 NBFU=   536
 Initial guess from the checkpoint file:  "CCCCCCqCCqCrOrCqCrO.chk"
 B after Tr=    -0.000000    0.000000   -0.000000
         Rot=    0.999996    0.000569   -0.000179    0.002787 Ang=   0.33 deg.
 ExpMin= 4.38D-02 ExpMax= 5.48D+03 ExpMxC= 8.25D+02 IAcc=2 IRadAn=         4 AccDes= 0.00D+00
 Harris functional with IExCor=  402 and IRadAn=       4 diagonalized for initial guess.
 HarFok:  IExCor=  402 AccDes= 0.00D+00 IRadAn=         4 IDoV= 1 UseB2=F ITyADJ=14
 ICtDFT=  3500011 ScaDFX=  1.000000  1.000000  1.000000  1.000000
 FoFCou: FMM=F IPFlag=           0 FMFlag=      100000 FMFlg1=           0
         NFxFlg=           0 DoJE=T BraDBF=F KetDBF=T FulRan=T
         wScrn=  0.000000 ICntrl=       500 IOpCl=  0 I1Cent=   200000004 NGrid=           0
         NMat0=    1 NMatS0=      1 NMatT0=    0 NMatD0=    1 NMtDS0=    0 NMtDT0=    0
 Petite list used in FoFCou.
 Requested convergence on RMS density matrix=1.00D-08 within 128 cycles.
 Requested convergence on MAX density matrix=1.00D-06.
 Requested convergence on             energy=1.00D-06.
 No special actions if energy rises.
 SCF Done:  E(RB3LYP) =  -584.140024579     A.U. after   11 cycles
            NFock= 11  Conv=0.69D-08     -V/T= 2.0085
 DoSCS=F DFT=T ScalE2(SS,OS)=  1.000000  1.000000
 ExpMin= 4.38D-02 ExpMax= 5.48D+03 ExpMxC= 8.25D+02 IAcc=3 IRadAn=         5 AccDes= 0.00D+00
 HarFok:  IExCor=  205 AccDes= 0.00D+00 IRadAn=         5 IDoV=-2 UseB2=F ITyADJ=14
 ICtDFT= 12500011 ScaDFX=  1.000000  1.000000  1.000000  1.000000
 Range of M.O.s used for correlation:    14   536
 NBasis=   536 NAE=    53 NBE=    53 NFC=    13 NFV=     0
 NROrb=    523 NOA=    40 NOB=    40 NVA=   483 NVB=   483

 **** Warning!!: The largest alpha MO coefficient is  0.89038721D+02

 Orbital symmetries:
       Occupied  (A) (A) (A) (A) (A) (A) (A) (A) (A) (A) (A) (A)
                 (A) (A) (A) (A) (A) (A) (A) (A) (A) (A) (A) (A)
                 (A) (A) (A) (A) (A) (A) (A) (A) (A) (A) (A) (A)
                 (A) (A) (A) (A) (A) (A) (A) (A) (A) (A) (A) (A)
                 (A) (A) (A) (A) (A)
       Virtual   (A) (A) (A) (A) (A) (A) (A) (A) (A) (A) (A) (A)
                 (A) (A) (A) (A) (A) (A) (A) (A) (A) (A) (A) (A)
                 (A) (A) (A) (A) (A) (A) (A) (A) (A) (A) (A) (A)
                 (A) (A) (A) (A) (A) (A) (A) (A) (A) (A) (A) (A)
                 (A) (A) (A) (A) (A) (A) (A) (A) (A) (A) (A) (A)
                 (A) (A) (A) (A) (A) (A) (A) (A) (A) (A) (A) (A)
                 (A) (A) (A) (A) (A) (A) (A) (A) (A) (A) (A) (A)
                 (A) (A) (A) (A) (A) (A) (A) (A) (A) (A) (A) (A)
                 (A) (A) (A) (A) (A) (A) (A) (A) (A) (A) (A) (A)
                 (A) (A) (A) (A) (A) (A) (A) (A) (A) (A) (A) (A)
                 (A) (A) (A) (A) (A) (A) (A) (A) (A) (A) (A) (A)
                 (A) (A) (A) (A) (A) (A) (A) (A) (A) (A) (A) (A)
                 (A) (A) (A) (A) (A) (A) (A) (A) (A) (A) (A) (A)
                 (A) (A) (A) (A) (A) (A) (A) (A) (A) (A) (A) (A)
                 (A) (A) (A) (A) (A) (A) (A) (A) (A) (A) (A) (A)
                 (A) (A) (A) (A) (A) (A) (A) (A) (A) (A) (A) (A)
                 (A) (A) (A) (A) (A) (A) (A) (A) (A) (A) (A) (A)
                 (A) (A) (A) (A) (A) (A) (A) (A) (A) (A) (A) (A)
                 (A) (A) (A) (A) (A) (A) (A) (A) (A) (A) (A) (A)
                 (A) (A) (A) (A) (A) (A) (A) (A) (A) (A) (A) (A)
                 (A) (A) (A) (A) (A) (A) (A) (A) (A) (A) (A) (A)
                 (A) (A) (A) (A) (A) (A) (A) (A) (A) (A) (A) (A)
                 (A) (A) (A) (A) (A) (A) (A) (A) (A) (A) (A) (A)
                 (A) (A) (A) (A) (A) (A) (A) (A) (A) (A) (A) (A)
                 (A) (A) (A) (A) (A) (A) (A) (A) (A) (A) (A) (A)
                 (A) (A) (A) (A) (A) (A) (A) (A) (A) (A) (A) (A)
                 (A) (A) (A) (A) (A) (A) (A) (A) (A) (A) (A) (A)
                 (A) (A) (A) (A) (A) (A) (A) (A) (A) (A) (A) (A)
                 (A) (A) (A) (A) (A) (A) (A) (A) (A) (A) (A) (A)
                 (A) (A) (A) (A) (A) (A) (A) (A) (A) (A) (A) (A)
                 (A) (A) (A) (A) (A) (A) (A) (A) (A) (A) (A) (A)
                 (A) (A) (A) (A) (A) (A) (A) (A) (A) (A) (A) (A)
                 (A) (A) (A) (A) (A) (A) (A) (A) (A) (A) (A) (A)
                 (A) (A) (A) (A) (A) (A) (A) (A) (A) (A) (A) (A)
                 (A) (A) (A) (A) (A) (A) (A) (A) (A) (A) (A) (A)
                 (A) (A) (A) (A) (A) (A) (A) (A) (A) (A) (A) (A)
                 (A) (A) (A) (A) (A) (A) (A) (A) (A) (A) (A) (A)
                 (A) (A) (A) (A) (A) (A) (A) (A) (A) (A) (A) (A)
                 (A) (A) (A) (A) (A) (A) (A) (A) (A) (A) (A) (A)
                 (A) (A) (A) (A) (A) (A) (A) (A) (A) (A) (A) (A)
                 (A) (A) (A)
 Generating guess from densities on rwf.
 Convergence on wavefunction:    0.000001000000000
 Iteration     1 Dimension    20 NMult     0 NNew     20
 CISAX will form     3 AO SS matrices at one time.
 New state      3 was old state      4
 New state      4 was old state      3
 Iteration     2 Dimension    40 NMult    20 NNew     20
 New state      8 was old state      9
 New state      9 was old state      8
 Iteration     3 Dimension    60 NMult    40 NNew     20
 Iteration     4 Dimension    80 NMult    60 NNew     20
 Iteration     5 Dimension   100 NMult    80 NNew     20
 Iteration     6 Dimension   120 NMult   100 NNew     20
 Iteration     7 Dimension   140 NMult   120 NNew     20
 Iteration     8 Dimension   160 NMult   140 NNew     20
 Iteration     9 Dimension   180 NMult   160 NNew     20
slurmstepd: error: *** JOB 27500721 ON lewis4-r630-hpc4-node229 CANCELLED AT 2023-05-26T00:25:55 DUE TO TIME LIMIT ***
