### Starting Gaussian ###
 Entering Gaussian System, Link 0=g16
 Initial command:
 /cluster/software/gaussian/gaussian-16-A.03/avx2/g16/l1.exe "/local/scratch/ks29c/Gau-6550.inp" -scrdir="/local/scratch/ks29c/"
 Entering Link 1 = /cluster/software/gaussian/gaussian-16-A.03/avx2/g16/l1.exe PID=      6551.
  
 Copyright (c) 1988,1990,1992,1993,1995,1998,2003,2009,2016,
            Gaussian, Inc.  All Rights Reserved.
  
 This is part of the Gaussian(R) 16 program.  It is based on
 the Gaussian(R) 09 system (copyright 2009, Gaussian, Inc.),
 the Gaussian(R) 03 system (copyright 2003, Gaussian, Inc.),
 the Gaussian(R) 98 system (copyright 1998, Gaussian, Inc.),
 the Gaussian(R) 94 system (copyright 1995, Gaussian, Inc.),
 the Gaussian 92(TM) system (copyright 1992, Gaussian, Inc.),
 the Gaussian 90(TM) system (copyright 1990, Gaussian, Inc.),
 the Gaussian 88(TM) system (copyright 1988, Gaussian, Inc.),
 the Gaussian 86(TM) system (copyright 1986, Carnegie Mellon
 University), and the Gaussian 82(TM) system (copyright 1983,
 Carnegie Mellon University). Gaussian is a federally registered
 trademark of Gaussian, Inc.
  
 This software contains proprietary and confidential information,
 including trade secrets, belonging to Gaussian, Inc.
  
 This software is provided under written license and may be
 used, copied, transmitted, or stored only in accord with that
 written license.
  
 The following legend is applicable only to US Government
 contracts under FAR:
  
                    RESTRICTED RIGHTS LEGEND
  
 Use, reproduction and disclosure by the US Government is
 subject to restrictions as set forth in subparagraphs (a)
 and (c) of the Commercial Computer Software - Restricted
 Rights clause in FAR 52.227-19.
  
 Gaussian, Inc.
 340 Quinnipiac St., Bldg. 40, Wallingford CT 06492
  
  
 ---------------------------------------------------------------
 Warning -- This program may not be used in any manner that
 competes with the business of Gaussian, Inc. or will provide
 assistance to any competitor of Gaussian, Inc.  The licensee
 of this program is prohibited from giving any competitor of
 Gaussian, Inc. access to this program.  By using this program,
 the user acknowledges that Gaussian, Inc. is engaged in the
 business of creating and licensing software in the field of
 computational chemistry and represents and warrants to the
 licensee that it is not a competitor of Gaussian, Inc. and that
 it will not use this program in any manner prohibited above.
 ---------------------------------------------------------------
  

 Cite this work as:
 Gaussian 16, Revision A.03,
 M. J. Frisch, G. W. Trucks, H. B. Schlegel, G. E. Scuseria, 
 M. A. Robb, J. R. Cheeseman, G. Scalmani, V. Barone, 
 G. A. Petersson, H. Nakatsuji, X. Li, M. Caricato, A. V. Marenich, 
 J. Bloino, B. G. Janesko, R. Gomperts, B. Mennucci, H. P. Hratchian, 
 J. V. Ortiz, A. F. Izmaylov, J. L. Sonnenberg, D. Williams-Young, 
 F. Ding, F. Lipparini, F. Egidi, J. Goings, B. Peng, A. Petrone, 
 T. Henderson, D. Ranasinghe, V. G. Zakrzewski, J. Gao, N. Rega, 
 G. Zheng, W. Liang, M. Hada, M. Ehara, K. Toyota, R. Fukuda, 
 J. Hasegawa, M. Ishida, T. Nakajima, Y. Honda, O. Kitao, H. Nakai, 
 T. Vreven, K. Throssell, J. A. Montgomery, Jr., J. E. Peralta, 
 F. Ogliaro, M. J. Bearpark, J. J. Heyd, E. N. Brothers, K. N. Kudin, 
 V. N. Staroverov, T. A. Keith, R. Kobayashi, J. Normand, 
 K. Raghavachari, A. P. Rendell, J. C. Burant, S. S. Iyengar, 
 J. Tomasi, M. Cossi, J. M. Millam, M. Klene, C. Adamo, R. Cammi, 
 J. W. Ochterski, R. L. Martin, K. Morokuma, O. Farkas, 
 J. B. Foresman, and D. J. Fox, Gaussian, Inc., Wallingford CT, 2016.
 
 ******************************************
 Gaussian 16:  ES64L-G16RevA.03 25-Dec-2016
                22-May-2023 
 ******************************************
 %chk=CCCCCCCCCqCrCCOCqCrCC.chk
 %NProcShared=20
 Will use up to   20 processors via shared memory.
 -----------------------------
 # opt freq b3lyp/6-31g(2df,p)
 -----------------------------
 1/18=20,19=15,26=3,38=1/1,3;
 2/9=110,12=2,17=6,18=5,40=1/2;
 3/5=1,6=6,7=104,11=2,25=1,30=1,71=1,74=-5/1,2,3;
 4//1;
 5/5=2,38=5/2;
 6/7=2,8=2,9=2,10=2,28=1/1;
 7//1,2,3,16;
 1/18=20,19=15,26=3/3(2);
 2/9=110/2;
 99//99;
 2/9=110/2;
 3/5=1,6=6,7=104,11=2,25=1,30=1,71=1,74=-5/1,2,3;
 4/5=5,16=3,69=1/1;
 5/5=2,38=5/2;
 7//1,2,3,16;
 1/18=20,19=15,26=3/3(-5);
 2/9=110/2;
 6/7=2,8=2,9=2,10=2,19=2,28=1/1;
 99/9=1/99;
 -------------------
 Title Card Required
 -------------------
 Symbolic Z-matrix:
 Charge =  0 Multiplicity = 1
 C                     0.99521   0.00478   0.11012 
 C                     2.51176   0.00966   0.10483 
 C                     3.04208   0.98581  -0.93675 
 C                     4.5634    0.98189  -0.93842 
 C                     5.08857   1.94934  -1.98405 
 C                     6.60979   1.93324  -1.98815 
 C                     7.10982   2.9183   -3.02591 
 C                     8.63174   2.97364  -3.03693 
 C                     9.14512   3.98466  -4.06873 
 C                     8.61298   5.39919  -3.76674 
 C                     10.68717   3.93538  -4.09842 
 C                     11.2101   4.88867  -5.15674 
 O                     12.62845   4.97387  -5.16297 
 C                     13.08254   5.93252  -6.13829 
 C                     12.5796   7.34901  -5.82191 
 C                     14.61384   5.87948  -6.1448 
 C                     15.22447   6.80097  -7.18935 
 H                     0.62285  -0.69918   0.85955 
 H                     0.60464  -0.29386  -0.86761 
 H                     0.60481   0.99941   0.34713 
 H                     2.88113  -0.99974  -0.10993 
 H                     2.88181   0.28768   1.09809 
 H                     2.6755    1.99739  -0.72303 
 H                     2.67105   0.71081  -1.93105 
 H                     4.93586  -0.02696  -1.15226 
 H                     4.9402    1.26697   0.05025 
 H                     4.72667   2.96317  -1.76777 
 H                     4.71014   1.67788  -2.97579 
 H                     6.98135   0.92701  -2.21356 
 H                     6.98812   2.21319  -0.99946 
 H                     6.68952   3.89737  -2.7743 
 H                     6.73843   2.6491   -4.01967 
 H                     9.02427   1.97583  -3.2761 
 H                     9.00409   3.23264  -2.04086 
 H                     8.77433   3.68883  -5.05664 
 H                     8.95934   5.74729  -2.78995 
 H                     7.52086   5.4399   -3.78137 
 H                     8.91486   6.12864  -4.52291 
 H                     11.03894   2.91796  -4.31479 
 H                     11.10275   4.19755  -3.11959 
 H                     10.83058   5.87237  -4.90162 
 H                     10.84515   4.59951  -6.14671 
 H                     12.71311   5.61905  -7.12254 
 H                     12.87585   7.64381  -4.80995 
 H                     11.48938   7.42324  -5.87205 
 H                     12.9452   8.08733  -6.53716 
 H                     14.93907   4.84872  -6.33428 
 H                     14.99887   6.13336  -5.14969 
 H                     14.8464   6.55786  -8.18722 
 H                     16.31304   6.70434  -7.19642 
 H                     14.99729   7.85104  -6.98394 
 

 GradGradGradGradGradGradGradGradGradGradGradGradGradGradGradGradGradGrad
 Berny optimization.
 Initialization pass.
                           ----------------------------
                           !    Initial Parameters    !
                           ! (Angstroms and Degrees)  !
 --------------------------                            --------------------------
 ! Name  Definition              Value          Derivative Info.                !
 --------------------------------------------------------------------------------
 ! R1    R(1,2)                  1.5166         estimate D2E/DX2                !
 ! R2    R(1,18)                 1.0936         estimate D2E/DX2                !
 ! R3    R(1,19)                 1.0944         estimate D2E/DX2                !
 ! R4    R(1,20)                 1.0945         estimate D2E/DX2                !
 ! R5    R(2,3)                  1.5228         estimate D2E/DX2                !
 ! R6    R(2,21)                 1.0961         estimate D2E/DX2                !
 ! R7    R(2,22)                 1.0958         estimate D2E/DX2                !
 ! R8    R(3,4)                  1.5213         estimate D2E/DX2                !
 ! R9    R(3,23)                 1.097          estimate D2E/DX2                !
 ! R10   R(3,24)                 1.0963         estimate D2E/DX2                !
 ! R11   R(4,5)                  1.5183         estimate D2E/DX2                !
 ! R12   R(4,25)                 1.0965         estimate D2E/DX2                !
 ! R13   R(4,26)                 1.0958         estimate D2E/DX2                !
 ! R14   R(5,6)                  1.5213         estimate D2E/DX2                !
 ! R15   R(5,27)                 1.098          estimate D2E/DX2                !
 ! R16   R(5,28)                 1.0956         estimate D2E/DX2                !
 ! R17   R(6,7)                  1.5157         estimate D2E/DX2                !
 ! R18   R(6,29)                 1.0961         estimate D2E/DX2                !
 ! R19   R(6,30)                 1.095          estimate D2E/DX2                !
 ! R20   R(7,8)                  1.523          estimate D2E/DX2                !
 ! R21   R(7,31)                 1.0948         estimate D2E/DX2                !
 ! R22   R(7,32)                 1.0945         estimate D2E/DX2                !
 ! R23   R(8,9)                  1.5331         estimate D2E/DX2                !
 ! R24   R(8,33)                 1.0986         estimate D2E/DX2                !
 ! R25   R(8,34)                 1.0945         estimate D2E/DX2                !
 ! R26   R(9,10)                 1.5412         estimate D2E/DX2                !
 ! R27   R(9,11)                 1.5431         estimate D2E/DX2                !
 ! R28   R(9,35)                 1.0959         estimate D2E/DX2                !
 ! R29   R(10,36)                1.0933         estimate D2E/DX2                !
 ! R30   R(10,37)                1.093          estimate D2E/DX2                !
 ! R31   R(10,38)                1.0932         estimate D2E/DX2                !
 ! R32   R(11,12)                1.5173         estimate D2E/DX2                !
 ! R33   R(11,39)                1.098          estimate D2E/DX2                !
 ! R34   R(11,40)                1.0952         estimate D2E/DX2                !
 ! R35   R(12,13)                1.4209         estimate D2E/DX2                !
 ! R36   R(12,41)                1.0848         estimate D2E/DX2                !
 ! R37   R(12,42)                1.094          estimate D2E/DX2                !
 ! R38   R(13,14)                1.441          estimate D2E/DX2                !
 ! R39   R(14,15)                1.5361         estimate D2E/DX2                !
 ! R40   R(14,16)                1.5322         estimate D2E/DX2                !
 ! R41   R(14,43)                1.097          estimate D2E/DX2                !
 ! R42   R(15,44)                1.0949         estimate D2E/DX2                !
 ! R43   R(15,45)                1.0939         estimate D2E/DX2                !
 ! R44   R(15,46)                1.091          estimate D2E/DX2                !
 ! R45   R(16,17)                1.5209         estimate D2E/DX2                !
 ! R46   R(16,47)                1.0973         estimate D2E/DX2                !
 ! R47   R(16,48)                1.0968         estimate D2E/DX2                !
 ! R48   R(17,49)                1.0944         estimate D2E/DX2                !
 ! R49   R(17,50)                1.0929         estimate D2E/DX2                !
 ! R50   R(17,51)                1.0938         estimate D2E/DX2                !
 ! A1    A(2,1,18)             110.1795         estimate D2E/DX2                !
 ! A2    A(2,1,19)             110.7715         estimate D2E/DX2                !
 ! A3    A(2,1,20)             110.7645         estimate D2E/DX2                !
 ! A4    A(18,1,19)            108.3656         estimate D2E/DX2                !
 ! A5    A(18,1,20)            108.3697         estimate D2E/DX2                !
 ! A6    A(19,1,20)            108.3098         estimate D2E/DX2                !
 ! A7    A(1,2,3)              110.6521         estimate D2E/DX2                !
 ! A8    A(1,2,21)             109.5543         estimate D2E/DX2                !
 ! A9    A(1,2,22)             109.5936         estimate D2E/DX2                !
 ! A10   A(3,2,21)             109.8124         estimate D2E/DX2                !
 ! A11   A(3,2,22)             109.8608         estimate D2E/DX2                !
 ! A12   A(21,2,22)            107.3039         estimate D2E/DX2                !
 ! A13   A(2,3,4)              110.325          estimate D2E/DX2                !
 ! A14   A(2,3,23)             109.9671         estimate D2E/DX2                !
 ! A15   A(2,3,24)             109.9793         estimate D2E/DX2                !
 ! A16   A(4,3,23)             109.6798         estimate D2E/DX2                !
 ! A17   A(4,3,24)             109.6813         estimate D2E/DX2                !
 ! A18   A(23,3,24)            107.1524         estimate D2E/DX2                !
 ! A19   A(3,4,5)              110.1828         estimate D2E/DX2                !
 ! A20   A(3,4,25)             110.0156         estimate D2E/DX2                !
 ! A21   A(3,4,26)             110.0113         estimate D2E/DX2                !
 ! A22   A(5,4,25)             109.5408         estimate D2E/DX2                !
 ! A23   A(5,4,26)             109.6738         estimate D2E/DX2                !
 ! A24   A(25,4,26)            107.3694         estimate D2E/DX2                !
 ! A25   A(4,5,6)              109.9375         estimate D2E/DX2                !
 ! A26   A(4,5,27)             109.7975         estimate D2E/DX2                !
 ! A27   A(4,5,28)             110.2453         estimate D2E/DX2                !
 ! A28   A(6,5,27)             109.8697         estimate D2E/DX2                !
 ! A29   A(6,5,28)             109.8958         estimate D2E/DX2                !
 ! A30   A(27,5,28)            107.051          estimate D2E/DX2                !
 ! A31   A(5,6,7)              108.9565         estimate D2E/DX2                !
 ! A32   A(5,6,29)             110.441          estimate D2E/DX2                !
 ! A33   A(5,6,30)             109.8981         estimate D2E/DX2                !
 ! A34   A(7,6,29)             110.1207         estimate D2E/DX2                !
 ! A35   A(7,6,30)             109.7591         estimate D2E/DX2                !
 ! A36   A(29,6,30)            107.6542         estimate D2E/DX2                !
 ! A37   A(6,7,8)              110.9925         estimate D2E/DX2                !
 ! A38   A(6,7,31)             107.2899         estimate D2E/DX2                !
 ! A39   A(6,7,32)             110.4788         estimate D2E/DX2                !
 ! A40   A(8,7,31)             110.6597         estimate D2E/DX2                !
 ! A41   A(8,7,32)             109.9655         estimate D2E/DX2                !
 ! A42   A(31,7,32)            107.3592         estimate D2E/DX2                !
 ! A43   A(7,8,9)              111.3136         estimate D2E/DX2                !
 ! A44   A(7,8,33)             109.0037         estimate D2E/DX2                !
 ! A45   A(7,8,34)             109.998          estimate D2E/DX2                !
 ! A46   A(9,8,33)             109.4389         estimate D2E/DX2                !
 ! A47   A(9,8,34)             110.0309         estimate D2E/DX2                !
 ! A48   A(33,8,34)            106.9482         estimate D2E/DX2                !
 ! A49   A(8,9,10)             110.9635         estimate D2E/DX2                !
 ! A50   A(8,9,11)             109.058          estimate D2E/DX2                !
 ! A51   A(8,9,35)             108.3843         estimate D2E/DX2                !
 ! A52   A(10,9,11)            112.2172         estimate D2E/DX2                !
 ! A53   A(10,9,35)            107.9132         estimate D2E/DX2                !
 ! A54   A(11,9,35)            108.1886         estimate D2E/DX2                !
 ! A55   A(9,10,36)            110.9721         estimate D2E/DX2                !
 ! A56   A(9,10,37)            112.1215         estimate D2E/DX2                !
 ! A57   A(9,10,38)            112.4298         estimate D2E/DX2                !
 ! A58   A(36,10,37)           108.4611         estimate D2E/DX2                !
 ! A59   A(36,10,38)           108.5463         estimate D2E/DX2                !
 ! A60   A(37,10,38)           103.9941         estimate D2E/DX2                !
 ! A61   A(9,11,12)            109.7403         estimate D2E/DX2                !
 ! A62   A(9,11,39)            110.7027         estimate D2E/DX2                !
 ! A63   A(9,11,40)            110.7529         estimate D2E/DX2                !
 ! A64   A(12,11,39)           109.5294         estimate D2E/DX2                !
 ! A65   A(12,11,40)           110.0108         estimate D2E/DX2                !
 ! A66   A(39,11,40)           106.0422         estimate D2E/DX2                !
 ! A67   A(11,12,13)           112.6281         estimate D2E/DX2                !
 ! A68   A(11,12,41)           106.5655         estimate D2E/DX2                !
 ! A69   A(11,12,42)           110.4956         estimate D2E/DX2                !
 ! A70   A(13,12,41)           107.2102         estimate D2E/DX2                !
 ! A71   A(13,12,42)           110.1738         estimate D2E/DX2                !
 ! A72   A(41,12,42)           109.6204         estimate D2E/DX2                !
 ! A73   A(12,13,14)           110.9413         estimate D2E/DX2                !
 ! A74   A(13,14,15)           111.771          estimate D2E/DX2                !
 ! A75   A(13,14,16)           107.1442         estimate D2E/DX2                !
 ! A76   A(13,14,43)           108.1218         estimate D2E/DX2                !
 ! A77   A(15,14,16)           111.1014         estimate D2E/DX2                !
 ! A78   A(15,14,43)           109.757          estimate D2E/DX2                !
 ! A79   A(16,14,43)           108.835          estimate D2E/DX2                !
 ! A80   A(14,15,44)           110.4918         estimate D2E/DX2                !
 ! A81   A(14,15,45)           112.3001         estimate D2E/DX2                !
 ! A82   A(14,15,46)           112.2899         estimate D2E/DX2                !
 ! A83   A(44,15,45)           107.0836         estimate D2E/DX2                !
 ! A84   A(44,15,46)           109.4538         estimate D2E/DX2                !
 ! A85   A(45,15,46)           104.9514         estimate D2E/DX2                !
 ! A86   A(14,16,17)           112.5318         estimate D2E/DX2                !
 ! A87   A(14,16,47)           109.2355         estimate D2E/DX2                !
 ! A88   A(14,16,48)           109.8142         estimate D2E/DX2                !
 ! A89   A(17,16,47)           109.3624         estimate D2E/DX2                !
 ! A90   A(17,16,48)           109.995          estimate D2E/DX2                !
 ! A91   A(47,16,48)           105.6673         estimate D2E/DX2                !
 ! A92   A(16,17,49)           110.6661         estimate D2E/DX2                !
 ! A93   A(16,17,50)           110.5354         estimate D2E/DX2                !
 ! A94   A(16,17,51)           111.6719         estimate D2E/DX2                !
 ! A95   A(49,17,50)           108.5752         estimate D2E/DX2                !
 ! A96   A(49,17,51)           108.2234         estimate D2E/DX2                !
 ! A97   A(50,17,51)           107.036          estimate D2E/DX2                !
 ! D1    D(18,1,2,3)           179.9345         estimate D2E/DX2                !
 ! D2    D(18,1,2,21)           58.7189         estimate D2E/DX2                !
 ! D3    D(18,1,2,22)          -58.7636         estimate D2E/DX2                !
 ! D4    D(19,1,2,3)            60.0391         estimate D2E/DX2                !
 ! D5    D(19,1,2,21)          -61.1766         estimate D2E/DX2                !
 ! D6    D(19,1,2,22)         -178.659          estimate D2E/DX2                !
 ! D7    D(20,1,2,3)           -60.1694         estimate D2E/DX2                !
 ! D8    D(20,1,2,21)          178.615          estimate D2E/DX2                !
 ! D9    D(20,1,2,22)           61.1325         estimate D2E/DX2                !
 ! D10   D(1,2,3,4)           -179.8416         estimate D2E/DX2                !
 ! D11   D(1,2,3,23)            59.0495         estimate D2E/DX2                !
 ! D12   D(1,2,3,24)           -58.7227         estimate D2E/DX2                !
 ! D13   D(21,2,3,4)           -58.7786         estimate D2E/DX2                !
 ! D14   D(21,2,3,23)         -179.8876         estimate D2E/DX2                !
 ! D15   D(21,2,3,24)           62.3402         estimate D2E/DX2                !
 ! D16   D(22,2,3,4)            59.0146         estimate D2E/DX2                !
 ! D17   D(22,2,3,23)          -62.0943         estimate D2E/DX2                !
 ! D18   D(22,2,3,24)         -179.8666         estimate D2E/DX2                !
 ! D19   D(2,3,4,5)            179.633          estimate D2E/DX2                !
 ! D20   D(2,3,4,25)            58.7577         estimate D2E/DX2                !
 ! D21   D(2,3,4,26)           -59.3288         estimate D2E/DX2                !
 ! D22   D(23,3,4,5)           -59.087          estimate D2E/DX2                !
 ! D23   D(23,3,4,25)         -179.9623         estimate D2E/DX2                !
 ! D24   D(23,3,4,26)           61.9512         estimate D2E/DX2                !
 ! D25   D(24,3,4,5)            58.3368         estimate D2E/DX2                !
 ! D26   D(24,3,4,25)          -62.5385         estimate D2E/DX2                !
 ! D27   D(24,3,4,26)          179.375          estimate D2E/DX2                !
 ! D28   D(3,4,5,6)           -179.5759         estimate D2E/DX2                !
 ! D29   D(3,4,5,27)            59.4374         estimate D2E/DX2                !
 ! D30   D(3,4,5,28)           -58.2684         estimate D2E/DX2                !
 ! D31   D(25,4,5,6)           -58.4167         estimate D2E/DX2                !
 ! D32   D(25,4,5,27)         -179.4034         estimate D2E/DX2                !
 ! D33   D(25,4,5,28)           62.8909         estimate D2E/DX2                !
 ! D34   D(26,4,5,6)            59.1843         estimate D2E/DX2                !
 ! D35   D(26,4,5,27)          -61.8024         estimate D2E/DX2                !
 ! D36   D(26,4,5,28)         -179.5082         estimate D2E/DX2                !
 ! D37   D(4,5,6,7)           -179.2802         estimate D2E/DX2                !
 ! D38   D(4,5,6,29)            59.6431         estimate D2E/DX2                !
 ! D39   D(4,5,6,30)           -58.9839         estimate D2E/DX2                !
 ! D40   D(27,5,6,7)           -58.337          estimate D2E/DX2                !
 ! D41   D(27,5,6,29)         -179.4137         estimate D2E/DX2                !
 ! D42   D(27,5,6,30)           61.9593         estimate D2E/DX2                !
 ! D43   D(28,5,6,7)            59.2031         estimate D2E/DX2                !
 ! D44   D(28,5,6,29)          -61.8736         estimate D2E/DX2                !
 ! D45   D(28,5,6,30)          179.4994         estimate D2E/DX2                !
 ! D46   D(5,6,7,8)            178.1108         estimate D2E/DX2                !
 ! D47   D(5,6,7,31)            57.0985         estimate D2E/DX2                !
 ! D48   D(5,6,7,32)           -59.6331         estimate D2E/DX2                !
 ! D49   D(29,6,7,8)           -60.6168         estimate D2E/DX2                !
 ! D50   D(29,6,7,31)          178.3709         estimate D2E/DX2                !
 ! D51   D(29,6,7,32)           61.6393         estimate D2E/DX2                !
 ! D52   D(30,6,7,8)            57.7289         estimate D2E/DX2                !
 ! D53   D(30,6,7,31)          -63.2835         estimate D2E/DX2                !
 ! D54   D(30,6,7,32)          179.985          estimate D2E/DX2                !
 ! D55   D(6,7,8,9)           -179.0877         estimate D2E/DX2                !
 ! D56   D(6,7,8,33)            60.1021         estimate D2E/DX2                !
 ! D57   D(6,7,8,34)           -56.862          estimate D2E/DX2                !
 ! D58   D(31,7,8,9)           -60.0818         estimate D2E/DX2                !
 ! D59   D(31,7,8,33)          179.1079         estimate D2E/DX2                !
 ! D60   D(31,7,8,34)           62.1439         estimate D2E/DX2                !
 ! D61   D(32,7,8,9)            58.3582         estimate D2E/DX2                !
 ! D62   D(32,7,8,33)          -62.452          estimate D2E/DX2                !
 ! D63   D(32,7,8,34)         -179.416          estimate D2E/DX2                !
 ! D64   D(7,8,9,10)            59.376          estimate D2E/DX2                !
 ! D65   D(7,8,9,11)          -176.5156         estimate D2E/DX2                !
 ! D66   D(7,8,9,35)           -58.9461         estimate D2E/DX2                !
 ! D67   D(33,8,9,10)          179.9305         estimate D2E/DX2                !
 ! D68   D(33,8,9,11)          -55.9611         estimate D2E/DX2                !
 ! D69   D(33,8,9,35)           61.6084         estimate D2E/DX2                !
 ! D70   D(34,8,9,10)          -62.8307         estimate D2E/DX2                !
 ! D71   D(34,8,9,11)           61.2777         estimate D2E/DX2                !
 ! D72   D(34,8,9,35)          178.8472         estimate D2E/DX2                !
 ! D73   D(8,9,10,36)           61.7059         estimate D2E/DX2                !
 ! D74   D(8,9,10,37)          -59.7529         estimate D2E/DX2                !
 ! D75   D(8,9,10,38)         -176.509          estimate D2E/DX2                !
 ! D76   D(11,9,10,36)         -60.5838         estimate D2E/DX2                !
 ! D77   D(11,9,10,37)         177.9574         estimate D2E/DX2                !
 ! D78   D(11,9,10,38)          61.2013         estimate D2E/DX2                !
 ! D79   D(35,9,10,36)        -179.6872         estimate D2E/DX2                !
 ! D80   D(35,9,10,37)          58.8541         estimate D2E/DX2                !
 ! D81   D(35,9,10,38)         -57.902          estimate D2E/DX2                !
 ! D82   D(8,9,11,12)          177.6271         estimate D2E/DX2                !
 ! D83   D(8,9,11,39)           56.6099         estimate D2E/DX2                !
 ! D84   D(8,9,11,40)          -60.7206         estimate D2E/DX2                !
 ! D85   D(10,9,11,12)         -59.0074         estimate D2E/DX2                !
 ! D86   D(10,9,11,39)         179.9754         estimate D2E/DX2                !
 ! D87   D(10,9,11,40)          62.6449         estimate D2E/DX2                !
 ! D88   D(35,9,11,12)          59.9341         estimate D2E/DX2                !
 ! D89   D(35,9,11,39)         -61.0831         estimate D2E/DX2                !
 ! D90   D(35,9,11,40)        -178.4136         estimate D2E/DX2                !
 ! D91   D(9,11,12,13)         175.1869         estimate D2E/DX2                !
 ! D92   D(9,11,12,41)          57.9013         estimate D2E/DX2                !
 ! D93   D(9,11,12,42)         -61.1236         estimate D2E/DX2                !
 ! D94   D(39,11,12,13)        -63.091          estimate D2E/DX2                !
 ! D95   D(39,11,12,41)        179.6234         estimate D2E/DX2                !
 ! D96   D(39,11,12,42)         60.5984         estimate D2E/DX2                !
 ! D97   D(40,11,12,13)         53.0912         estimate D2E/DX2                !
 ! D98   D(40,11,12,41)        -64.1944         estimate D2E/DX2                !
 ! D99   D(40,11,12,42)        176.7806         estimate D2E/DX2                !
 ! D100  D(11,12,13,14)       -177.3815         estimate D2E/DX2                !
 ! D101  D(41,12,13,14)        -60.4785         estimate D2E/DX2                !
 ! D102  D(42,12,13,14)         58.7507         estimate D2E/DX2                !
 ! D103  D(12,13,14,15)         62.1634         estimate D2E/DX2                !
 ! D104  D(12,13,14,16)       -175.9053         estimate D2E/DX2                !
 ! D105  D(12,13,14,43)        -58.7471         estimate D2E/DX2                !
 ! D106  D(13,14,15,44)         55.6348         estimate D2E/DX2                !
 ! D107  D(13,14,15,45)        -63.8529         estimate D2E/DX2                !
 ! D108  D(13,14,15,46)        178.1454         estimate D2E/DX2                !
 ! D109  D(16,14,15,44)        -63.9924         estimate D2E/DX2                !
 ! D110  D(16,14,15,45)        176.5199         estimate D2E/DX2                !
 ! D111  D(16,14,15,46)         58.5183         estimate D2E/DX2                !
 ! D112  D(43,14,15,44)        175.5902         estimate D2E/DX2                !
 ! D113  D(43,14,15,45)         56.1024         estimate D2E/DX2                !
 ! D114  D(43,14,15,46)        -61.8992         estimate D2E/DX2                !
 ! D115  D(13,14,16,17)        177.1066         estimate D2E/DX2                !
 ! D116  D(13,14,16,47)         55.4435         estimate D2E/DX2                !
 ! D117  D(13,14,16,48)        -60.0075         estimate D2E/DX2                !
 ! D118  D(15,14,16,17)        -60.5436         estimate D2E/DX2                !
 ! D119  D(15,14,16,47)        177.7932         estimate D2E/DX2                !
 ! D120  D(15,14,16,48)         62.3422         estimate D2E/DX2                !
 ! D121  D(43,14,16,17)         60.4177         estimate D2E/DX2                !
 ! D122  D(43,14,16,47)        -61.2454         estimate D2E/DX2                !
 ! D123  D(43,14,16,48)       -176.6964         estimate D2E/DX2                !
 ! D124  D(14,16,17,49)        -57.1407         estimate D2E/DX2                !
 ! D125  D(14,16,17,50)       -177.4622         estimate D2E/DX2                !
 ! D126  D(14,16,17,51)         63.4925         estimate D2E/DX2                !
 ! D127  D(47,16,17,49)         64.4502         estimate D2E/DX2                !
 ! D128  D(47,16,17,50)        -55.8712         estimate D2E/DX2                !
 ! D129  D(47,16,17,51)       -174.9166         estimate D2E/DX2                !
 ! D130  D(48,16,17,49)       -179.9252         estimate D2E/DX2                !
 ! D131  D(48,16,17,50)         59.7534         estimate D2E/DX2                !
 ! D132  D(48,16,17,51)        -59.292          estimate D2E/DX2                !
 --------------------------------------------------------------------------------
 Trust Radius=3.00D-01 FncErr=1.00D-07 GrdErr=1.00D-06 EigMax=2.50D+02 EigMin=1.00D-04
 Number of steps in this run=    289 maximum allowed number of steps=    306.
 GradGradGradGradGradGradGradGradGradGradGradGradGradGradGradGradGradGrad

 Stoichiometry    C16H34O
 Framework group  C1[X(C16H34O)]
 Deg. of freedom   147
 Full point group                 C1      NOp   1
 Largest Abelian subgroup         C1      NOp   1
 Largest concise Abelian subgroup C1      NOp   1
                         Standard orientation:                         
 ---------------------------------------------------------------------
 Center     Atomic      Atomic             Coordinates (Angstroms)
 Number     Number       Type             X           Y           Z
 ---------------------------------------------------------------------
      1          6           0        9.129867    0.380041    0.208626
      2          6           0        7.907341   -0.400705   -0.233913
      3          6           0        6.631649    0.297289    0.218207
      4          6           0        5.410525   -0.493868   -0.226046
      5          6           0        4.140939    0.200040    0.234114
      6          6           0        2.924013   -0.600987   -0.203874
      7          6           0        1.670499    0.119662    0.250756
      8          6           0        0.419962   -0.620493   -0.205039
      9          6           0       -0.852723    0.114274    0.231680
     10          6           0       -0.895099    1.539314   -0.353752
     11          6           0       -2.083140   -0.721845   -0.178449
     12          6           0       -3.350288   -0.036894    0.298456
     13          8           0       -4.528212   -0.698907   -0.141143
     14          6           0       -5.707432    0.014302    0.279845
     15          6           0       -5.768042    1.423801   -0.327713
     16          6           0       -6.917883   -0.822748   -0.146640
     17          6           0       -8.236275   -0.212021    0.302751
     18          1           0       10.041022   -0.128302   -0.118851
     19          1           0        9.158601    0.470992    1.298850
     20          1           0        9.123472    1.386923   -0.220352
     21          1           0        7.946214   -1.412343    0.186231
     22          1           0        7.910319   -0.500643   -1.325151
     23          1           0        6.589178    1.309470   -0.202552
     24          1           0        6.627747    0.400431    1.309658
     25          1           0        5.447071   -1.506775    0.192183
     26          1           0        5.403173   -0.590691   -1.317508
     27          1           0        4.094835    1.211325   -0.191063
     28          1           0        4.142564    0.309632    1.324268
     29          1           0        2.955312   -1.609557    0.224112
     30          1           0        2.917604   -0.702931   -1.294094
     31          1           0        1.700825    1.126816   -0.177332
     32          1           0        1.664667    0.227804    1.339897
     33          1           0        0.425079   -1.630850    0.226308
     34          1           0        0.430298   -0.738065   -1.293134
     35          1           0       -0.845343    0.198810    1.324276
     36          1           0       -0.909581    1.513106   -1.446621
     37          1           0       -0.041125    2.141495   -0.033278
     38          1           0       -1.763224    2.106630   -0.008017
     39          1           0       -2.027422   -1.730897    0.250982
     40          1           0       -2.116115   -0.856662   -1.264858
     41          1           0       -3.353199    0.952534   -0.146303
     42          1           0       -3.351280    0.050536    1.388959
     43          1           0       -5.692164    0.082733    1.374639
     44          1           0       -5.704999    1.373557   -1.419609
     45          1           0       -4.944664    2.058364    0.012850
     46          1           0       -6.673894    1.959710   -0.040319
     47          1           0       -6.823914   -1.833163    0.270943
     48          1           0       -6.915976   -0.951068   -1.235895
     49          1           0       -8.249477   -0.077829    1.388846
     50          1           0       -9.072927   -0.856399    0.021390
     51          1           0       -8.410459    0.761595   -0.164350
 ---------------------------------------------------------------------
 Rotational constants (GHZ):           2.7407997           0.0741350           0.0730499
 Standard basis: 6-31G(2df,p) (6D, 7F)
 There are   697 symmetry adapted cartesian basis functions of A   symmetry.
 There are   646 symmetry adapted basis functions of A   symmetry.
   646 basis functions,   986 primitive gaussians,   697 cartesian basis functions
    69 alpha electrons       69 beta electrons
       nuclear repulsion energy      1181.8308633571 Hartrees.
 NAtoms=   51 NActive=   51 NUniq=   51 SFac= 1.00D+00 NAtFMM=   60 NAOKFM=F Big=F
 Integral buffers will be    131072 words long.
 Raffenetti 2 integral format.
 Two-electron integral symmetry is turned on.
 One-electron integrals computed using PRISM.
 PrsmSu:  requested number of processors reduced to:  12 ShMem   1 Linda.
 NBasis=   646 RedAO= T EigKep=  4.34D-04  NBF=   646
 NBsUse=   646 1.00D-06 EigRej= -1.00D+00 NBFU=   646
 ExpMin= 1.61D-01 ExpMax= 5.48D+03 ExpMxC= 8.25D+02 IAcc=3 IRadAn=         5 AccDes= 0.00D+00
 Harris functional with IExCor=  402 and IRadAn=       5 diagonalized for initial guess.
 HarFok:  IExCor=  402 AccDes= 0.00D+00 IRadAn=         5 IDoV= 1 UseB2=F ITyADJ=14
 ICtDFT=  3500011 ScaDFX=  1.000000  1.000000  1.000000  1.000000
 FoFCou: FMM=F IPFlag=           0 FMFlag=      100000 FMFlg1=           0
         NFxFlg=           0 DoJE=T BraDBF=F KetDBF=T FulRan=T
         wScrn=  0.000000 ICntrl=       500 IOpCl=  0 I1Cent=   200000004 NGrid=           0
         NMat0=    1 NMatS0=      1 NMatT0=    0 NMatD0=    1 NMtDS0=    0 NMtDT0=    0
 Petite list used in FoFCou.
 Requested convergence on RMS density matrix=1.00D-08 within 128 cycles.
 Requested convergence on MAX density matrix=1.00D-06.
 Requested convergence on             energy=1.00D-06.
 No special actions if energy rises.
 Integral accuracy reduced to 1.0D-05 until final iterations.
 Initial convergence to 1.0D-05 achieved.  Increase integral accuracy.
 SCF Done:  E(RB3LYP) =  -705.470132705     A.U. after   12 cycles
            NFock= 12  Conv=0.33D-08     -V/T= 2.0083

 **********************************************************************

            Population analysis using the SCF density.

 **********************************************************************

 Orbital symmetries:
       Occupied  (A) (A) (A) (A) (A) (A) (A) (A) (A) (A) (A) (A)
                 (A) (A) (A) (A) (A) (A) (A) (A) (A) (A) (A) (A)
                 (A) (A) (A) (A) (A) (A) (A) (A) (A) (A) (A) (A)
                 (A) (A) (A) (A) (A) (A) (A) (A) (A) (A) (A) (A)
                 (A) (A) (A) (A) (A) (A) (A) (A) (A) (A) (A) (A)
                 (A) (A) (A) (A) (A) (A) (A) (A) (A)
       Virtual   (A) (A) (A) (A) (A) (A) (A) (A) (A) (A) (A) (A)
                 (A) (A) (A) (A) (A) (A) (A) (A) (A) (A) (A) (A)
                 (A) (A) (A) (A) (A) (A) (A) (A) (A) (A) (A) (A)
                 (A) (A) (A) (A) (A) (A) (A) (A) (A) (A) (A) (A)
                 (A) (A) (A) (A) (A) (A) (A) (A) (A) (A) (A) (A)
                 (A) (A) (A) (A) (A) (A) (A) (A) (A) (A) (A) (A)
                 (A) (A) (A) (A) (A) (A) (A) (A) (A) (A) (A) (A)
                 (A) (A) (A) (A) (A) (A) (A) (A) (A) (A) (A) (A)
                 (A) (A) (A) (A) (A) (A) (A) (A) (A) (A) (A) (A)
                 (A) (A) (A) (A) (A) (A) (A) (A) (A) (A) (A) (A)
                 (A) (A) (A) (A) (A) (A) (A) (A) (A) (A) (A) (A)
                 (A) (A) (A) (A) (A) (A) (A) (A) (A) (A) (A) (A)
                 (A) (A) (A) (A) (A) (A) (A) (A) (A) (A) (A) (A)
                 (A) (A) (A) (A) (A) (A) (A) (A) (A) (A) (A) (A)
                 (A) (A) (A) (A) (A) (A) (A) (A) (A) (A) (A) (A)
                 (A) (A) (A) (A) (A) (A) (A) (A) (A) (A) (A) (A)
                 (A) (A) (A) (A) (A) (A) (A) (A) (A) (A) (A) (A)
                 (A) (A) (A) (A) (A) (A) (A) (A) (A) (A) (A) (A)
                 (A) (A) (A) (A) (A) (A) (A) (A) (A) (A) (A) (A)
                 (A) (A) (A) (A) (A) (A) (A) (A) (A) (A) (A) (A)
                 (A) (A) (A) (A) (A) (A) (A) (A) (A) (A) (A) (A)
                 (A) (A) (A) (A) (A) (A) (A) (A) (A) (A) (A) (A)
                 (A) (A) (A) (A) (A) (A) (A) (A) (A) (A) (A) (A)
                 (A) (A) (A) (A) (A) (A) (A) (A) (A) (A) (A) (A)
                 (A) (A) (A) (A) (A) (A) (A) (A) (A) (A) (A) (A)
                 (A) (A) (A) (A) (A) (A) (A) (A) (A) (A) (A) (A)
                 (A) (A) (A) (A) (A) (A) (A) (A) (A) (A) (A) (A)
                 (A) (A) (A) (A) (A) (A) (A) (A) (A) (A) (A) (A)
                 (A) (A) (A) (A) (A) (A) (A) (A) (A) (A) (A) (A)
                 (A) (A) (A) (A) (A) (A) (A) (A) (A) (A) (A) (A)
                 (A) (A) (A) (A) (A) (A) (A) (A) (A) (A) (A) (A)
                 (A) (A) (A) (A) (A) (A) (A) (A) (A) (A) (A) (A)
                 (A) (A) (A) (A) (A) (A) (A) (A) (A) (A) (A) (A)
                 (A) (A) (A) (A) (A) (A) (A) (A) (A) (A) (A) (A)
                 (A) (A) (A) (A) (A) (A) (A) (A) (A) (A) (A) (A)
                 (A) (A) (A) (A) (A) (A) (A) (A) (A) (A) (A) (A)
                 (A) (A) (A) (A) (A) (A) (A) (A) (A) (A) (A) (A)
                 (A) (A) (A) (A) (A) (A) (A) (A) (A) (A) (A) (A)
                 (A) (A) (A) (A) (A) (A) (A) (A) (A) (A) (A) (A)
                 (A) (A) (A) (A) (A) (A) (A) (A) (A) (A) (A) (A)
                 (A) (A) (A) (A) (A) (A) (A) (A) (A) (A) (A) (A)
                 (A) (A) (A) (A) (A) (A) (A) (A) (A) (A) (A) (A)
                 (A) (A) (A) (A) (A) (A) (A) (A) (A) (A) (A) (A)
                 (A) (A) (A) (A) (A) (A) (A) (A) (A) (A) (A) (A)
                 (A) (A) (A) (A) (A) (A) (A) (A) (A) (A) (A) (A)
                 (A) (A) (A) (A) (A) (A) (A) (A) (A) (A) (A) (A)
                 (A) (A) (A) (A) (A) (A) (A) (A) (A) (A) (A) (A)
                 (A) (A) (A) (A) (A) (A) (A) (A) (A) (A) (A) (A)
                 (A)
 The electronic state is 1-A.
 Alpha  occ. eigenvalues --  -19.12424 -10.22414 -10.20854 -10.18161 -10.17203
 Alpha  occ. eigenvalues --  -10.17055 -10.16971 -10.16927 -10.16905 -10.16844
 Alpha  occ. eigenvalues --  -10.16838 -10.16750 -10.16691 -10.16652 -10.16640
 Alpha  occ. eigenvalues --  -10.16612 -10.16485  -1.01269  -0.82051  -0.80620
 Alpha  occ. eigenvalues --   -0.78962  -0.77724  -0.74282  -0.71795  -0.70654
 Alpha  occ. eigenvalues --   -0.68607  -0.65486  -0.63537  -0.60445  -0.57816
 Alpha  occ. eigenvalues --   -0.57465  -0.56633  -0.56504  -0.55161  -0.48921
 Alpha  occ. eigenvalues --   -0.48477  -0.47074  -0.46373  -0.45939  -0.44167
 Alpha  occ. eigenvalues --   -0.43950  -0.42787  -0.42557  -0.41558  -0.41179
 Alpha  occ. eigenvalues --   -0.39962  -0.39519  -0.38457  -0.38232  -0.37719
 Alpha  occ. eigenvalues --   -0.36616  -0.36174  -0.35926  -0.35448  -0.35069
 Alpha  occ. eigenvalues --   -0.34500  -0.33879  -0.33329  -0.32961  -0.32581
 Alpha  occ. eigenvalues --   -0.32228  -0.32142  -0.31927  -0.31769  -0.31331
 Alpha  occ. eigenvalues --   -0.30873  -0.29479  -0.27184  -0.24211
 Alpha virt. eigenvalues --    0.08093   0.08889   0.09596   0.10425   0.10591
 Alpha virt. eigenvalues --    0.11031   0.11812   0.12129   0.12480   0.12646
 Alpha virt. eigenvalues --    0.13071   0.13787   0.14389   0.15243   0.15785
 Alpha virt. eigenvalues --    0.16590   0.16729   0.16758   0.17143   0.17379
 Alpha virt. eigenvalues --    0.18047   0.18160   0.18403   0.19307   0.19480
 Alpha virt. eigenvalues --    0.19766   0.20187   0.20416   0.20672   0.21075
 Alpha virt. eigenvalues --    0.21549   0.21677   0.22162   0.22712   0.22802
 Alpha virt. eigenvalues --    0.23140   0.23806   0.24551   0.24682   0.24833
 Alpha virt. eigenvalues --    0.25415   0.25549   0.26141   0.27303   0.27835
 Alpha virt. eigenvalues --    0.28859   0.29459   0.30681   0.35364   0.35982
 Alpha virt. eigenvalues --    0.40861   0.43622   0.45952   0.46950   0.47521
 Alpha virt. eigenvalues --    0.47849   0.48822   0.49193   0.50226   0.50796
 Alpha virt. eigenvalues --    0.51158   0.52020   0.52341   0.52841   0.53445
 Alpha virt. eigenvalues --    0.53651   0.54058   0.54638   0.55985   0.56944
 Alpha virt. eigenvalues --    0.57037   0.57401   0.57826   0.58241   0.59775
 Alpha virt. eigenvalues --    0.59863   0.60969   0.61642   0.62454   0.62599
 Alpha virt. eigenvalues --    0.63640   0.64563   0.65527   0.65841   0.66805
 Alpha virt. eigenvalues --    0.67674   0.68038   0.68582   0.69033   0.69998
 Alpha virt. eigenvalues --    0.70454   0.71225   0.71394   0.72386   0.72744
 Alpha virt. eigenvalues --    0.72954   0.73389   0.73555   0.73790   0.73931
 Alpha virt. eigenvalues --    0.74503   0.74961   0.75520   0.75919   0.76215
 Alpha virt. eigenvalues --    0.76854   0.77150   0.77360   0.77792   0.78163
 Alpha virt. eigenvalues --    0.79218   0.79654   0.80082   0.80186   0.80530
 Alpha virt. eigenvalues --    0.80859   0.81101   0.82013   0.82080   0.83155
 Alpha virt. eigenvalues --    0.83570   0.83983   0.85033   0.85909   0.86740
 Alpha virt. eigenvalues --    0.87502   0.87701   0.87925   0.88525   0.88929
 Alpha virt. eigenvalues --    0.89801   0.90123   0.90914   0.92056   0.92348
 Alpha virt. eigenvalues --    0.94575   0.97573   0.98504   1.01068   1.02918
 Alpha virt. eigenvalues --    1.04912   1.06918   1.07687   1.08262   1.08918
 Alpha virt. eigenvalues --    1.09856   1.11581   1.13000   1.13306   1.15014
 Alpha virt. eigenvalues --    1.16789   1.17887   1.19281   1.19603   1.20454
 Alpha virt. eigenvalues --    1.22206   1.22638   1.23474   1.23748   1.24313
 Alpha virt. eigenvalues --    1.25494   1.26197   1.27025   1.27372   1.28330
 Alpha virt. eigenvalues --    1.30022   1.31968   1.32593   1.34537   1.36415
 Alpha virt. eigenvalues --    1.37047   1.37723   1.38668   1.38802   1.40470
 Alpha virt. eigenvalues --    1.41095   1.41645   1.42049   1.42617   1.43363
 Alpha virt. eigenvalues --    1.45531   1.46874   1.47304   1.48887   1.51071
 Alpha virt. eigenvalues --    1.51656   1.53190   1.53898   1.54089   1.54381
 Alpha virt. eigenvalues --    1.55554   1.56883   1.58010   1.58810   1.59973
 Alpha virt. eigenvalues --    1.61081   1.61499   1.62483   1.63219   1.65862
 Alpha virt. eigenvalues --    1.66921   1.67589   1.68579   1.68949   1.70899
 Alpha virt. eigenvalues --    1.71600   1.72309   1.73416   1.74152   1.77357
 Alpha virt. eigenvalues --    1.78146   1.79137   1.80827   1.81907   1.82733
 Alpha virt. eigenvalues --    1.83946   1.84210   1.85733   1.86792   1.87773
 Alpha virt. eigenvalues --    1.88462   1.89080   1.89513   1.89999   1.91066
 Alpha virt. eigenvalues --    1.91765   1.92192   1.93673   1.94794   1.95517
 Alpha virt. eigenvalues --    1.96573   1.96684   1.97149   1.97587   1.98020
 Alpha virt. eigenvalues --    1.99213   1.99327   2.02478   2.03728   2.06540
 Alpha virt. eigenvalues --    2.13783   2.15234   2.17421   2.17503   2.17981
 Alpha virt. eigenvalues --    2.19043   2.19778   2.20337   2.21226   2.21959
 Alpha virt. eigenvalues --    2.23145   2.23741   2.25434   2.26905   2.27753
 Alpha virt. eigenvalues --    2.28937   2.29628   2.30602   2.30811   2.32810
 Alpha virt. eigenvalues --    2.34633   2.35420   2.36431   2.39072   2.39224
 Alpha virt. eigenvalues --    2.39526   2.40627   2.42440   2.42982   2.46081
 Alpha virt. eigenvalues --    2.47515   2.48891   2.49773   2.52818   2.54342
 Alpha virt. eigenvalues --    2.56523   2.57420   2.59644   2.60188   2.61511
 Alpha virt. eigenvalues --    2.64365   2.68272   2.69747   2.71289   2.72964
 Alpha virt. eigenvalues --    2.73183   2.74110   2.74408   2.74712   2.74916
 Alpha virt. eigenvalues --    2.75511   2.76439   2.76949   2.77729   2.78573
 Alpha virt. eigenvalues --    2.79014   2.79682   2.80120   2.80276   2.81030
 Alpha virt. eigenvalues --    2.81275   2.82206   2.82544   2.83172   2.83290
 Alpha virt. eigenvalues --    2.84044   2.84132   2.84785   2.85282   2.85770
 Alpha virt. eigenvalues --    2.86747   2.86902   2.88477   2.88695   2.89293
 Alpha virt. eigenvalues --    2.89661   2.90925   2.91957   2.92167   2.92499
 Alpha virt. eigenvalues --    2.92769   2.93676   2.94603   2.95044   2.96023
 Alpha virt. eigenvalues --    2.96465   2.96855   2.97519   2.98008   2.98548
 Alpha virt. eigenvalues --    2.99270   3.00477   3.00763   3.01285   3.02168
 Alpha virt. eigenvalues --    3.03292   3.03795   3.05751   3.07273   3.08863
 Alpha virt. eigenvalues --    3.09711   3.10543   3.12005   3.13899   3.14154
 Alpha virt. eigenvalues --    3.15275   3.17429   3.18607   3.19773   3.21004
 Alpha virt. eigenvalues --    3.21970   3.23012   3.23384   3.24143   3.25559
 Alpha virt. eigenvalues --    3.26488   3.27269   3.29308   3.31164   3.32010
 Alpha virt. eigenvalues --    3.33943   3.35781   3.36445   3.37009   3.37950
 Alpha virt. eigenvalues --    3.38538   3.39735   3.40396   3.41642   3.43238
 Alpha virt. eigenvalues --    3.45406   3.46668   3.47302   3.48479   3.50411
 Alpha virt. eigenvalues --    3.51401   3.52932   3.54519   3.55061   3.55150
 Alpha virt. eigenvalues --    3.55865   3.56074   3.57112   3.57552   3.59289
 Alpha virt. eigenvalues --    3.60159   3.61155   3.62344   3.62359   3.63202
 Alpha virt. eigenvalues --    3.63597   3.65321   3.66227   3.69041   3.69839
 Alpha virt. eigenvalues --    3.71727   3.72026   3.72955   3.73913   3.74908
 Alpha virt. eigenvalues --    3.75249   3.75948   3.76324   3.76712   3.77188
 Alpha virt. eigenvalues --    3.77958   3.79330   3.80393   3.80524   3.81397
 Alpha virt. eigenvalues --    3.82113   3.83169   3.84653   3.86840   3.88787
 Alpha virt. eigenvalues --    3.90482   3.91434   3.93819   3.94329   3.95477
 Alpha virt. eigenvalues --    3.98154   4.00160   4.00606   4.02699   4.05773
 Alpha virt. eigenvalues --    4.06523   4.09098   4.10331   4.17360   4.23076
 Alpha virt. eigenvalues --    4.24500   4.25963   4.28334   4.33156   4.34471
 Alpha virt. eigenvalues --    4.36855   4.37626   4.38662   4.39186   4.40968
 Alpha virt. eigenvalues --    4.41325   4.42013   4.43380   4.44083   4.44472
 Alpha virt. eigenvalues --    4.46109   4.46952   4.47446   4.47916   4.48725
 Alpha virt. eigenvalues --    4.51013   4.51436   4.52884   4.53309   4.53916
 Alpha virt. eigenvalues --    4.54919   4.55632   4.56090   4.56674   4.57240
 Alpha virt. eigenvalues --    4.57889   4.58621   4.59236   4.59909   4.60506
 Alpha virt. eigenvalues --    4.61154   4.61842   4.62642   4.62937   4.63111
 Alpha virt. eigenvalues --    4.63512   4.63847   4.64091   4.64882   4.65275
 Alpha virt. eigenvalues --    4.65813   4.66476   4.67444   4.68046   4.69071
 Alpha virt. eigenvalues --    4.70152   4.71039   4.71415   4.72694   4.73158
 Alpha virt. eigenvalues --    4.73870   4.74572   4.74892   4.76353   4.77129
 Alpha virt. eigenvalues --    4.77492   4.78072   4.78102   4.78787   4.79266
 Alpha virt. eigenvalues --    4.79899   4.80596   4.81287   4.82779   4.83097
 Alpha virt. eigenvalues --    4.84026   4.84827   4.84951   4.85965   4.86408
 Alpha virt. eigenvalues --    4.87120   4.88320   4.89453   4.90051   4.91221
 Alpha virt. eigenvalues --    4.91874   4.92363   4.93216   4.93741   4.94973
 Alpha virt. eigenvalues --    4.96080   4.96653   4.97080   4.97807   4.99314
 Alpha virt. eigenvalues --    4.99615   5.02135   5.03491   5.05983   5.08524
 Alpha virt. eigenvalues --    5.13416   5.19336   5.20258   5.21436   5.23584
 Alpha virt. eigenvalues --    5.28366   5.32607   5.33315   5.36490   5.39056
 Alpha virt. eigenvalues --    5.41264   5.42197   5.45038   5.46040   5.48399
 Alpha virt. eigenvalues --    5.48883   5.50453   5.51832   5.53156   5.53850
 Alpha virt. eigenvalues --    5.56600   5.60302   5.63863   5.65354   5.68776
 Alpha virt. eigenvalues --    5.75078   5.81942   5.89597   6.03799   6.05409
 Alpha virt. eigenvalues --    6.12490   6.27058   6.31151   6.49057   7.13301
 Alpha virt. eigenvalues --   11.12754  11.19760  11.26636  11.45641  11.60595
 Alpha virt. eigenvalues --   11.67558  11.73602  11.95733  12.15356  12.17020
 Alpha virt. eigenvalues --   12.25342  12.28735  12.38992  12.39938  12.56263
 Alpha virt. eigenvalues --   12.73952  13.57265
          Condensed to atoms (all electrons):
 Mulliken charges:
               1
     1  C   -0.375989
     2  C   -0.158692
     3  C   -0.153021
     4  C   -0.172329
     5  C   -0.174201
     6  C   -0.179042
     7  C   -0.179774
     8  C   -0.190487
     9  C    0.039867
    10  C   -0.391871
    11  C   -0.231233
    12  C   -0.044637
    13  O   -0.282372
    14  C    0.166693
    15  C   -0.405960
    16  C   -0.187411
    17  C   -0.383049
    18  H    0.103743
    19  H    0.110022
    20  H    0.109965
    21  H    0.090838
    22  H    0.090808
    23  H    0.088052
    24  H    0.088255
    25  H    0.088663
    26  H    0.088658
    27  H    0.088196
    28  H    0.088591
    29  H    0.087976
    30  H    0.089330
    31  H    0.095275
    32  H    0.087145
    33  H    0.087460
    34  H    0.089227
    35  H    0.068336
    36  H    0.111207
    37  H    0.115228
    38  H    0.115198
    39  H    0.094897
    40  H    0.099611
    41  H    0.089670
    42  H    0.075175
    43  H    0.061924
    44  H    0.120031
    45  H    0.118388
    46  H    0.117252
    47  H    0.100009
    48  H    0.100826
    49  H    0.112494
    50  H    0.112115
    51  H    0.118944
 Sum of Mulliken charges =  -0.00000
 Mulliken charges with hydrogens summed into heavy atoms:
               1
     1  C   -0.052258
     2  C    0.022953
     3  C    0.023287
     4  C    0.004992
     5  C    0.002586
     6  C   -0.001737
     7  C    0.002646
     8  C   -0.013799
     9  C    0.108203
    10  C   -0.050238
    11  C   -0.036726
    12  C    0.120208
    13  O   -0.282372
    14  C    0.228617
    15  C   -0.050290
    16  C    0.013424
    17  C   -0.039496
 Electronic spatial extent (au):  <R**2>=          14736.1323
 Charge=             -0.0000 electrons
 Dipole moment (field-independent basis, Debye):
    X=              0.1160    Y=              0.9228    Z=              0.4710  Tot=              1.0425
 Quadrupole moment (field-independent basis, Debye-Ang):
   XX=           -114.0265   YY=           -113.4265   ZZ=           -110.7935
   XY=             -4.7040   XZ=             -2.2364   YZ=             -1.1623
 Traceless Quadrupole moment (field-independent basis, Debye-Ang):
   XX=             -1.2777   YY=             -0.6776   ZZ=              1.9553
   XY=             -4.7040   XZ=             -2.2364   YZ=             -1.1623
 Octapole moment (field-independent basis, Debye-Ang**2):
  XXX=            -94.5268  YYY=             -3.6212  ZZZ=             -1.3050  XYY=             -4.3361
  XXY=              8.7881  XXZ=              3.1223  XZZ=             -6.1939  YZZ=             -1.5544
  YYZ=              1.2949  XYZ=             -1.9834
 Hexadecapole moment (field-independent basis, Debye-Ang**3):
 XXXX=         -19650.2946 YYYY=           -580.7753 ZZZZ=           -268.5163 XXXY=           -105.0623
 XXXZ=            -43.2816 YYYX=             16.4069 YYYZ=             -3.4503 ZZZX=              6.9819
 ZZZY=              0.5195 XXYY=          -3332.2841 XXZZ=          -3237.6092 YYZZ=           -146.3949
 XXYZ=            -30.2139 YYXZ=             -3.2277 ZZXY=              5.8758
 N-N= 1.181830863357D+03 E-N=-3.997683471575D+03  KE= 6.996534166300D+02
 PrsmSu:  requested number of processors reduced to:  12 ShMem   1 Linda.
 Calling FoFJK, ICntrl=      2127 FMM=F ISym2X=0 I1Cent= 0 IOpClX= 0 NMat=1 NMatS=1 NMatT=0.
 ***** Axes restored to original set *****
 -------------------------------------------------------------------
 Center     Atomic                   Forces (Hartrees/Bohr)
 Number     Number              X              Y              Z
 -------------------------------------------------------------------
      1        6          -0.004643543   -0.005088955    0.005577713
      2        6          -0.007474715    0.003183653   -0.003696007
      3        6           0.006816452   -0.008515158    0.009655336
      4        6          -0.009587843    0.006925576   -0.008734418
      5        6           0.008550481   -0.008064540    0.009970540
      6        6          -0.008036721    0.006154720   -0.010756590
      7        6           0.009697840   -0.003242897    0.010005573
      8        6          -0.005241442    0.004446061   -0.012018089
      9        6           0.008556579    0.000616638    0.008732514
     10        6          -0.002510939    0.001372376   -0.006232917
     11        6           0.002237538   -0.001409860   -0.008000050
     12        6           0.011679546    0.002215919    0.011473876
     13        8          -0.000560294    0.003648119   -0.008317439
     14        6           0.005243752   -0.001487744    0.013237995
     15        6          -0.007519234    0.001109596   -0.000733763
     16        6          -0.000623628   -0.004981633    0.001656183
     17        6           0.003757645    0.002385087   -0.001106899
     18        1          -0.004198502    0.000089095   -0.000077962
     19        1          -0.001638180    0.000099622   -0.000058071
     20        1          -0.001650056    0.000004393   -0.000116348
     21        1           0.001685448   -0.000365338    0.000611518
     22        1           0.001730742   -0.000517953    0.000557178
     23        1          -0.000947125    0.000413317   -0.000402499
     24        1          -0.001060292    0.000218141   -0.000736835
     25        1           0.000229127   -0.000953781    0.001072539
     26        1           0.000577511   -0.000754753    0.001236527
     27        1           0.000009418    0.000005068   -0.000692349
     28        1          -0.000830583   -0.000086914   -0.001010353
     29        1          -0.000016340   -0.001441680    0.001426488
     30        1           0.001023683   -0.000804959    0.001473327
     31        1           0.000392962    0.000210613   -0.002004219
     32        1          -0.001124691   -0.000298434   -0.001734369
     33        1           0.000790191    0.000750279    0.000763329
     34        1           0.001098370    0.001020270    0.001851459
     35        1          -0.000692759   -0.001417258   -0.001805810
     36        1           0.000422694    0.001255751    0.001476513
     37        1           0.000312289   -0.002157815    0.002648622
     38        1           0.002634654   -0.000108170    0.001411547
     39        1          -0.002331133   -0.000258790    0.000375963
     40        1          -0.000461511    0.002542782    0.000774974
     41        1          -0.005521260    0.003618292   -0.004329227
     42        1          -0.003000983   -0.000325455   -0.005058778
     43        1          -0.001563331    0.000368672   -0.004031617
     44        1           0.002284797    0.000118516   -0.000491730
     45        1           0.000789368   -0.000690099   -0.000297795
     46        1           0.003280239   -0.000716408    0.000076793
     47        1          -0.002693970   -0.000126535    0.000281824
     48        1          -0.002631853    0.000715161    0.000915923
     49        1           0.001169014    0.001062176   -0.001677361
     50        1           0.000805287   -0.000602882   -0.001835601
     51        1           0.000785299   -0.000131878   -0.001307156
 -------------------------------------------------------------------
 Cartesian Forces:  Max     0.013237995 RMS     0.004156320

 GradGradGradGradGradGradGradGradGradGradGradGradGradGradGradGradGradGrad
 Berny optimization.
 FormGI is forming the generalized inverse of G from B-inverse, IUseBI=4.
 Internal  Forces:  Max     0.030950422 RMS     0.005005883
 Search for a local minimum.
 Step number   1 out of a maximum of  289
 All quantities printed in internal units (Hartrees-Bohrs-Radians)
 Mixed Optimization -- RFO/linear search
 Second derivative matrix not updated -- first step.
 ITU=  0
     Eigenvalues ---    0.00230   0.00230   0.00289   0.00328   0.00340
     Eigenvalues ---    0.00462   0.00464   0.00484   0.00484   0.00490
     Eigenvalues ---    0.00524   0.00537   0.00547   0.00558   0.01150
     Eigenvalues ---    0.01415   0.03523   0.03543   0.03685   0.03780
     Eigenvalues ---    0.03815   0.03847   0.03849   0.03892   0.03901
     Eigenvalues ---    0.04028   0.04369   0.04578   0.04794   0.04848
     Eigenvalues ---    0.04874   0.04879   0.04895   0.04942   0.04975
     Eigenvalues ---    0.04991   0.04995   0.05002   0.05006   0.05054
     Eigenvalues ---    0.05226   0.05286   0.05323   0.05398   0.05564
     Eigenvalues ---    0.05663   0.05690   0.05753   0.06110   0.07218
     Eigenvalues ---    0.07792   0.07913   0.07958   0.07985   0.07999
     Eigenvalues ---    0.08062   0.08120   0.08124   0.08378   0.11580
     Eigenvalues ---    0.11768   0.11876   0.11901   0.11922   0.11937
     Eigenvalues ---    0.11981   0.12021   0.12044   0.12231   0.13964
     Eigenvalues ---    0.16000   0.16000   0.16000   0.16000   0.16000
     Eigenvalues ---    0.16000   0.16000   0.16000   0.16000   0.16000
     Eigenvalues ---    0.16000   0.16000   0.16392   0.16436   0.16916
     Eigenvalues ---    0.19782   0.21813   0.21860   0.21860   0.21869
     Eigenvalues ---    0.21874   0.21880   0.21889   0.21890   0.21896
     Eigenvalues ---    0.22148   0.25000   0.28244   0.28414   0.28871
     Eigenvalues ---    0.29141   0.29218   0.30083   0.30096   0.30239
     Eigenvalues ---    0.30241   0.30281   0.30535   0.30626   0.30700
     Eigenvalues ---    0.30785   0.33838   0.33899   0.33904   0.33979
     Eigenvalues ---    0.34012   0.34019   0.34040   0.34076   0.34092
     Eigenvalues ---    0.34117   0.34121   0.34141   0.34150   0.34154
     Eigenvalues ---    0.34168   0.34214   0.34242   0.34256   0.34266
     Eigenvalues ---    0.34296   0.34300   0.34301   0.34305   0.34310
     Eigenvalues ---    0.34354   0.34367   0.34374   0.34405   0.34437
     Eigenvalues ---    0.34449   0.34471   0.34483   0.34693   0.35421
     Eigenvalues ---    0.39450   0.42322
 RFO step:  Lambda=-3.06406884D-02 EMin= 2.30000000D-03
 Linear search not attempted -- first point.
 Maximum step size (   0.300) exceeded in Quadratic search.
    -- Step size scaled by   0.932
 Iteration  1 RMS(Cart)=  0.23233371 RMS(Int)=  0.01303406
 Iteration  2 RMS(Cart)=  0.21141988 RMS(Int)=  0.00572994
 Iteration  3 RMS(Cart)=  0.01621924 RMS(Int)=  0.00025908
 Iteration  4 RMS(Cart)=  0.00001873 RMS(Int)=  0.00025812
 Iteration  5 RMS(Cart)=  0.00000001 RMS(Int)=  0.00025812
 Variable       Old X    -DE/DX   Delta X   Delta X   Delta X     New X
                                 (Linear)    (Quad)   (Total)
    R1        2.86590   0.01216   0.00000   0.03356   0.03356   2.89946
    R2        2.06651   0.00132   0.00000   0.00328   0.00328   2.06979
    R3        2.06810   0.00061   0.00000   0.00152   0.00152   2.06961
    R4        2.06826   0.00057   0.00000   0.00141   0.00141   2.06967
    R5        2.87772   0.00922   0.00000   0.02589   0.02589   2.90361
    R6        2.07134   0.00078   0.00000   0.00197   0.00197   2.07330
    R7        2.07078   0.00096   0.00000   0.00240   0.00240   2.07318
    R8        2.87489   0.01136   0.00000   0.03179   0.03179   2.90668
    R9        2.07298   0.00062   0.00000   0.00156   0.00156   2.07453
   R10        2.07175   0.00097   0.00000   0.00244   0.00244   2.07419
   R11        2.86909   0.01369   0.00000   0.03797   0.03797   2.90706
   R12        2.07202   0.00075   0.00000   0.00187   0.00187   2.07389
   R13        2.07071   0.00112   0.00000   0.00280   0.00280   2.07351
   R14        2.87486   0.01232   0.00000   0.03447   0.03447   2.90933
   R15        2.07492  -0.00013   0.00000  -0.00034  -0.00034   2.07458
   R16        2.07048   0.00122   0.00000   0.00306   0.00306   2.07354
   R17        2.86424   0.01622   0.00000   0.04465   0.04465   2.90889
   R18        2.07127   0.00102   0.00000   0.00257   0.00257   2.07384
   R19        2.06924   0.00148   0.00000   0.00369   0.00369   2.07293
   R20        2.87799   0.01104   0.00000   0.03102   0.03102   2.90901
   R21        2.06883  -0.00042   0.00000  -0.00106  -0.00106   2.06777
   R22        2.06833   0.00203   0.00000   0.00506   0.00506   2.07339
   R23        2.89710   0.01046   0.00000   0.03024   0.03024   2.92734
   R24        2.07604  -0.00057   0.00000  -0.00143  -0.00143   2.07461
   R25        2.06826   0.00230   0.00000   0.00573   0.00573   2.07400
   R26        2.91243  -0.00010   0.00000  -0.00030  -0.00030   2.91213
   R27        2.91608   0.00506   0.00000   0.01505   0.01505   2.93113
   R28        2.07092   0.00224   0.00000   0.00562   0.00562   2.07655
   R29        2.06600   0.00185   0.00000   0.00460   0.00460   2.07060
   R30        2.06543  -0.00043   0.00000  -0.00106  -0.00106   2.06436
   R31        2.06579  -0.00032   0.00000  -0.00080  -0.00080   2.06500
   R32        2.86732   0.00692   0.00000   0.01913   0.01913   2.88645
   R33        2.07500  -0.00058   0.00000  -0.00146  -0.00146   2.07354
   R34        2.06970   0.00113   0.00000   0.00281   0.00281   2.07252
   R35        2.68515   0.00257   0.00000   0.00528   0.00528   2.69043
   R36        2.04997   0.00419   0.00000   0.01015   0.01015   2.06013
   R37        2.06737   0.00566   0.00000   0.01410   0.01410   2.08147
   R38        2.72308  -0.00418   0.00000  -0.00916  -0.00916   2.71392
   R39        2.90274  -0.00008   0.00000  -0.00023  -0.00023   2.90250
   R40        2.89550   0.00064   0.00000   0.00184   0.00184   2.89734
   R41        2.07310   0.00404   0.00000   0.01015   0.01015   2.08325
   R42        2.06900   0.00020   0.00000   0.00049   0.00049   2.06949
   R43        2.06716  -0.00082   0.00000  -0.00204  -0.00204   2.06512
   R44        2.06176   0.00056   0.00000   0.00139   0.00139   2.06315
   R45        2.87406   0.00833   0.00000   0.02327   0.02327   2.89733
   R46        2.07366  -0.00073   0.00000  -0.00183  -0.00183   2.07183
   R47        2.07263   0.00007   0.00000   0.00018   0.00018   2.07281
   R48        2.06818   0.00089   0.00000   0.00222   0.00222   2.07040
   R49        2.06523   0.00087   0.00000   0.00215   0.00215   2.06738
   R50        2.06703  -0.00053   0.00000  -0.00133  -0.00133   2.06570
    A1        1.92300   0.00527   0.00000   0.02734   0.02723   1.95022
    A2        1.93333   0.00085   0.00000   0.00335   0.00330   1.93662
    A3        1.93321   0.00090   0.00000   0.00359   0.00354   1.93674
    A4        1.89134  -0.00284   0.00000  -0.01238  -0.01249   1.87885
    A5        1.89141  -0.00287   0.00000  -0.01247  -0.01258   1.87883
    A6        1.89036  -0.00158   0.00000  -0.01075  -0.01074   1.87962
    A7        1.93124   0.01108   0.00000   0.04565   0.04559   1.97683
    A8        1.91208  -0.00254   0.00000  -0.00430  -0.00427   1.90781
    A9        1.91277  -0.00259   0.00000  -0.00477  -0.00472   1.90805
   A10        1.91659  -0.00366   0.00000  -0.01395  -0.01420   1.90239
   A11        1.91743  -0.00368   0.00000  -0.01431  -0.01454   1.90290
   A12        1.87281   0.00104   0.00000  -0.01017  -0.01042   1.86239
   A13        1.92553   0.01457   0.00000   0.05899   0.05895   1.98449
   A14        1.91929  -0.00448   0.00000  -0.01567  -0.01586   1.90343
   A15        1.91950  -0.00448   0.00000  -0.01560  -0.01580   1.90370
   A16        1.91427  -0.00400   0.00000  -0.01122  -0.01124   1.90303
   A17        1.91430  -0.00399   0.00000  -0.01105  -0.01108   1.90322
   A18        1.87016   0.00189   0.00000  -0.00774  -0.00811   1.86205
   A19        1.92305   0.01544   0.00000   0.06278   0.06272   1.98577
   A20        1.92013  -0.00476   0.00000  -0.01639  -0.01667   1.90346
   A21        1.92006  -0.00462   0.00000  -0.01604  -0.01623   1.90383
   A22        1.91185  -0.00403   0.00000  -0.01013  -0.01020   1.90165
   A23        1.91417  -0.00437   0.00000  -0.01285  -0.01288   1.90128
   A24        1.87395   0.00188   0.00000  -0.00955  -0.00996   1.86399
   A25        1.91877   0.01695   0.00000   0.06820   0.06818   1.98695
   A26        1.91633  -0.00460   0.00000  -0.01336  -0.01348   1.90285
   A27        1.92414  -0.00534   0.00000  -0.01863  -0.01876   1.90539
   A28        1.91759  -0.00521   0.00000  -0.01714  -0.01734   1.90025
   A29        1.91804  -0.00480   0.00000  -0.01508  -0.01513   1.90292
   A30        1.86839   0.00244   0.00000  -0.00654  -0.00703   1.86137
   A31        1.90165   0.01921   0.00000   0.07829   0.07820   1.97985
   A32        1.92756  -0.00649   0.00000  -0.02457  -0.02496   1.90260
   A33        1.91808  -0.00520   0.00000  -0.01587  -0.01623   1.90186
   A34        1.92197  -0.00480   0.00000  -0.01190  -0.01183   1.91013
   A35        1.91566  -0.00554   0.00000  -0.01599  -0.01620   1.89946
   A36        1.87892   0.00240   0.00000  -0.01172  -0.01235   1.86657
   A37        1.93718   0.01074   0.00000   0.04385   0.04375   1.98094
   A38        1.87256  -0.00129   0.00000   0.00734   0.00710   1.87966
   A39        1.92822  -0.00448   0.00000  -0.02154  -0.02133   1.90689
   A40        1.93138  -0.00336   0.00000  -0.00834  -0.00894   1.92244
   A41        1.91926  -0.00307   0.00000  -0.01465  -0.01447   1.90479
   A42        1.87377   0.00113   0.00000  -0.00810  -0.00824   1.86553
   A43        1.94279   0.02253   0.00000   0.09014   0.09009   2.03288
   A44        1.90247  -0.00681   0.00000  -0.02536  -0.02498   1.87750
   A45        1.91983  -0.00591   0.00000  -0.01226  -0.01275   1.90708
   A46        1.91007  -0.00717   0.00000  -0.02963  -0.02952   1.88055
   A47        1.92040  -0.00683   0.00000  -0.01985  -0.02070   1.89970
   A48        1.86660   0.00332   0.00000  -0.00742  -0.00827   1.85833
   A49        1.93668   0.00245   0.00000   0.01750   0.01750   1.95418
   A50        1.90342  -0.00168   0.00000  -0.00569  -0.00594   1.89748
   A51        1.89166  -0.00129   0.00000  -0.01654  -0.01666   1.87500
   A52        1.95856   0.00079   0.00000   0.00987   0.00984   1.96840
   A53        1.88344  -0.00005   0.00000   0.00413   0.00426   1.88770
   A54        1.88825  -0.00035   0.00000  -0.01087  -0.01101   1.87724
   A55        1.93683   0.00074   0.00000  -0.00051  -0.00053   1.93629
   A56        1.95689  -0.00185   0.00000  -0.00723  -0.00725   1.94964
   A57        1.96227  -0.00039   0.00000   0.00040   0.00040   1.96267
   A58        1.89300  -0.00030   0.00000  -0.00571  -0.00575   1.88725
   A59        1.89449  -0.00088   0.00000  -0.00749  -0.00749   1.88700
   A60        1.81504   0.00277   0.00000   0.02133   0.02134   1.83638
   A61        1.91533   0.02254   0.00000   0.08840   0.08855   2.00388
   A62        1.93213  -0.00892   0.00000  -0.04238  -0.04231   1.88982
   A63        1.93300  -0.00598   0.00000  -0.01563  -0.01630   1.91671
   A64        1.91165  -0.00615   0.00000  -0.02104  -0.02022   1.89143
   A65        1.92005  -0.00701   0.00000  -0.01790  -0.01838   1.90167
   A66        1.85078   0.00453   0.00000   0.00439   0.00355   1.85433
   A67        1.96573  -0.01595   0.00000  -0.05852  -0.05899   1.90674
   A68        1.85992   0.00722   0.00000   0.04516   0.04589   1.90581
   A69        1.92851   0.00172   0.00000  -0.01181  -0.01292   1.91559
   A70        1.87117   0.00767   0.00000   0.05390   0.05471   1.92588
   A71        1.92290   0.00397   0.00000  -0.00494  -0.00663   1.91626
   A72        1.91324  -0.00429   0.00000  -0.01988  -0.01976   1.89348
   A73        1.93629   0.03095   0.00000   0.10274   0.10274   2.03903
   A74        1.95077   0.00541   0.00000   0.03077   0.03103   1.98181
   A75        1.87002  -0.00878   0.00000  -0.04080  -0.04117   1.82885
   A76        1.88708   0.00103   0.00000   0.00083   0.00030   1.88738
   A77        1.93908   0.00522   0.00000   0.02195   0.02219   1.96127
   A78        1.91562  -0.00274   0.00000  -0.00495  -0.00492   1.91070
   A79        1.89953  -0.00042   0.00000  -0.00977  -0.00997   1.88956
   A80        1.92845  -0.00086   0.00000  -0.00604  -0.00618   1.92227
   A81        1.96001   0.00039   0.00000   0.00659   0.00662   1.96662
   A82        1.95983  -0.00301   0.00000  -0.01752  -0.01762   1.94220
   A83        1.86896   0.00138   0.00000   0.01216   0.01216   1.88112
   A84        1.91033   0.00034   0.00000  -0.00689  -0.00714   1.90319
   A85        1.83175   0.00209   0.00000   0.01364   0.01369   1.84544
   A86        1.96405   0.01047   0.00000   0.04011   0.04018   2.00423
   A87        1.90652  -0.00490   0.00000  -0.02743  -0.02752   1.87900
   A88        1.91662  -0.00467   0.00000  -0.01999  -0.02045   1.89617
   A89        1.90873  -0.00241   0.00000  -0.00642  -0.00606   1.90267
   A90        1.91977  -0.00138   0.00000   0.00583   0.00594   1.92572
   A91        1.84424   0.00232   0.00000   0.00537   0.00500   1.84924
   A92        1.93149   0.00225   0.00000   0.01011   0.01008   1.94156
   A93        1.92921   0.00051   0.00000   0.00177   0.00176   1.93097
   A94        1.94904   0.00163   0.00000   0.00960   0.00955   1.95859
   A95        1.89499  -0.00212   0.00000  -0.01348  -0.01347   1.88152
   A96        1.88885  -0.00177   0.00000  -0.00727  -0.00734   1.88152
   A97        1.86813  -0.00074   0.00000  -0.00195  -0.00197   1.86616
    D1        3.14045   0.00002   0.00000   0.00028   0.00029   3.14074
    D2        1.02484  -0.00088   0.00000  -0.00888  -0.00893   1.01591
    D3       -1.02562   0.00087   0.00000   0.00876   0.00882  -1.01680
    D4        1.04788  -0.00040   0.00000  -0.00416  -0.00419   1.04369
    D5       -1.06773  -0.00130   0.00000  -0.01332  -0.01341  -1.08114
    D6       -3.11819   0.00045   0.00000   0.00432   0.00434  -3.11385
    D7       -1.05015   0.00044   0.00000   0.00477   0.00481  -1.04534
    D8        3.11742  -0.00046   0.00000  -0.00439  -0.00441   3.11301
    D9        1.06696   0.00129   0.00000   0.01325   0.01334   1.08030
   D10       -3.13883  -0.00004   0.00000  -0.00059  -0.00060  -3.13942
   D11        1.03061  -0.00157   0.00000  -0.01461  -0.01451   1.01610
   D12       -1.02490   0.00151   0.00000   0.01369   0.01359  -1.01132
   D13       -1.02588   0.00156   0.00000   0.01443   0.01433  -1.01156
   D14       -3.13963   0.00003   0.00000   0.00042   0.00041  -3.13922
   D15        1.08804   0.00311   0.00000   0.02871   0.02851   1.11655
   D16        1.03000  -0.00157   0.00000  -0.01487  -0.01476   1.01523
   D17       -1.08375  -0.00310   0.00000  -0.02888  -0.02868  -1.11243
   D18       -3.13926  -0.00002   0.00000  -0.00059  -0.00058  -3.13984
   D19        3.13519   0.00013   0.00000   0.00170   0.00169   3.13688
   D20        1.02552  -0.00172   0.00000  -0.01553  -0.01542   1.01010
   D21       -1.03548   0.00167   0.00000   0.01586   0.01576  -1.01972
   D22       -1.03126   0.00133   0.00000   0.01285   0.01285  -1.01842
   D23       -3.14093  -0.00053   0.00000  -0.00438  -0.00427   3.13798
   D24        1.08125   0.00287   0.00000   0.02701   0.02691   1.10817
   D25        1.01817  -0.00107   0.00000  -0.00965  -0.00966   1.00851
   D26       -1.09150  -0.00293   0.00000  -0.02688  -0.02678  -1.11828
   D27        3.13068   0.00046   0.00000   0.00451   0.00441   3.13509
   D28       -3.13419  -0.00009   0.00000  -0.00110  -0.00107  -3.13526
   D29        1.03738  -0.00150   0.00000  -0.01480  -0.01480   1.02258
   D30       -1.01698   0.00151   0.00000   0.01248   0.01236  -1.00462
   D31       -1.01956   0.00124   0.00000   0.01201   0.01209  -1.00747
   D32       -3.13118  -0.00017   0.00000  -0.00169  -0.00163  -3.13281
   D33        1.09765   0.00284   0.00000   0.02559   0.02552   1.12317
   D34        1.03296  -0.00143   0.00000  -0.01310  -0.01303   1.01993
   D35       -1.07866  -0.00283   0.00000  -0.02680  -0.02675  -1.10541
   D36       -3.13301   0.00018   0.00000   0.00048   0.00040  -3.13261
   D37       -3.12903  -0.00009   0.00000  -0.00200  -0.00207  -3.13110
   D38        1.04097  -0.00242   0.00000  -0.02218  -0.02192   1.01904
   D39       -1.02946   0.00186   0.00000   0.01726   0.01718  -1.01228
   D40       -1.01817   0.00170   0.00000   0.01404   0.01384  -1.00433
   D41       -3.13136  -0.00064   0.00000  -0.00615  -0.00601  -3.13737
   D42        1.08139   0.00365   0.00000   0.03330   0.03310   1.11450
   D43        1.03329  -0.00130   0.00000  -0.01316  -0.01322   1.02007
   D44       -1.07990  -0.00363   0.00000  -0.03334  -0.03307  -1.11296
   D45        3.13286   0.00065   0.00000   0.00610   0.00604   3.13890
   D46        3.10862   0.00075   0.00000   0.01262   0.01276   3.12138
   D47        0.99656  -0.00069   0.00000  -0.00787  -0.00809   0.98846
   D48       -1.04079   0.00110   0.00000   0.00915   0.00903  -1.03177
   D49       -1.05796   0.00198   0.00000   0.02475   0.02500  -1.03296
   D50        3.11316   0.00054   0.00000   0.00426   0.00415   3.11731
   D51        1.07581   0.00233   0.00000   0.02127   0.02127   1.09708
   D52        1.00756  -0.00137   0.00000  -0.00657  -0.00635   1.00121
   D53       -1.10451  -0.00282   0.00000  -0.02706  -0.02720  -1.13170
   D54        3.14133  -0.00102   0.00000  -0.01005  -0.01008   3.13125
   D55       -3.12567  -0.00224   0.00000  -0.03380  -0.03398   3.12353
   D56        1.04898  -0.00309   0.00000  -0.03727  -0.03717   1.01181
   D57       -0.99243   0.00025   0.00000  -0.00650  -0.00643  -0.99886
   D58       -1.04863   0.00088   0.00000  -0.00179  -0.00203  -1.05065
   D59        3.12602   0.00003   0.00000  -0.00526  -0.00522   3.12081
   D60        1.08462   0.00337   0.00000   0.02551   0.02552   1.11014
   D61        1.01854  -0.00171   0.00000  -0.02610  -0.02622   0.99232
   D62       -1.08999  -0.00257   0.00000  -0.02957  -0.02941  -1.11940
   D63       -3.13140   0.00078   0.00000   0.00120   0.00133  -3.13007
   D64        1.03631   0.00104   0.00000   0.02340   0.02349   1.05979
   D65       -3.08078   0.00254   0.00000   0.04378   0.04384  -3.03694
   D66       -1.02880   0.00046   0.00000   0.01831   0.01849  -1.01031
   D67        3.14038   0.00222   0.00000   0.02982   0.02952  -3.11329
   D68       -0.97671   0.00371   0.00000   0.05020   0.04987  -0.92684
   D69        1.07527   0.00163   0.00000   0.02473   0.02453   1.09980
   D70       -1.09660  -0.00199   0.00000  -0.00833  -0.00819  -1.10479
   D71        1.06950  -0.00049   0.00000   0.01205   0.01216   1.08166
   D72        3.12147  -0.00257   0.00000  -0.01342  -0.01318   3.10829
   D73        1.07697   0.00010   0.00000   0.00779   0.00784   1.08481
   D74       -1.04288   0.00126   0.00000   0.02054   0.02058  -1.02231
   D75       -3.08066  -0.00077   0.00000  -0.00197  -0.00193  -3.08259
   D76       -1.05739  -0.00007   0.00000  -0.00456  -0.00461  -1.06200
   D77        3.10594   0.00108   0.00000   0.00819   0.00812   3.11407
   D78        1.06816  -0.00095   0.00000  -0.01432  -0.01438   1.05378
   D79       -3.13613  -0.00008   0.00000   0.00029   0.00032  -3.13581
   D80        1.02720   0.00107   0.00000   0.01305   0.01306   1.04026
   D81       -1.01058  -0.00095   0.00000  -0.00947  -0.00945  -1.02003
   D82        3.10018  -0.00285   0.00000  -0.04845  -0.04874   3.05144
   D83        0.98803  -0.00421   0.00000  -0.05285  -0.05237   0.93566
   D84       -1.05977  -0.00054   0.00000  -0.02222  -0.02230  -1.08207
   D85       -1.02987  -0.00038   0.00000  -0.02343  -0.02377  -1.05365
   D86        3.14116  -0.00173   0.00000  -0.02784  -0.02740   3.11376
   D87        1.09336   0.00193   0.00000   0.00279   0.00267   1.09603
   D88        1.04605  -0.00018   0.00000  -0.01944  -0.01980   1.02625
   D89       -1.06610  -0.00154   0.00000  -0.02385  -0.02343  -1.08953
   D90       -3.11390   0.00212   0.00000   0.00678   0.00664  -3.10727
   D91        3.05759   0.00521   0.00000   0.07010   0.06952   3.12711
   D92        1.01057   0.00015   0.00000   0.00868   0.00882   1.01939
   D93       -1.06681   0.00008   0.00000   0.01224   0.01268  -1.05413
   D94       -1.10115   0.00460   0.00000   0.06054   0.05997  -1.04118
   D95        3.13502  -0.00045   0.00000  -0.00087  -0.00073   3.13429
   D96        1.05764  -0.00052   0.00000   0.00269   0.00313   1.06077
   D97        0.92662   0.00248   0.00000   0.04337   0.04280   0.96941
   D98       -1.12040  -0.00257   0.00000  -0.01804  -0.01791  -1.13831
   D99        3.08540  -0.00264   0.00000  -0.01448  -0.01405   3.07136
   D100      -3.09589  -0.00549   0.00000  -0.07699  -0.07636   3.11093
   D101      -1.05555  -0.00080   0.00000  -0.02098  -0.02127  -1.07682
   D102       1.02539   0.00082   0.00000  -0.01565  -0.01600   1.00940
   D103       1.08496   0.00212   0.00000   0.06967   0.06995   1.15491
   D104      -3.07013   0.00608   0.00000   0.08866   0.08839  -2.98174
[...]
 722,-0.00002033,-0.00000048,0.00003271,-0.00000515,0.00001663,-0.00000
 675,0.00002217,-0.00001571,-0.00007367,-0.00006238,0.00317587,-0.00073
 311,0.00028725,-0.00006347,-0.00010910,-0.00044251,-0.00022945,0.00014
 147,-0.00022575,0.00005964,-0.00009333,0.00005061,-0.01525851,-0.00651
 653,-0.02753364,0.02514357,0.06139260,-0.00000007,-0.00000016,-0.00000
 051,-0.00000045,0.00000010,-0.00000123,-0.00000006,-0.00000093,0.00000
 010,-0.00000096,0.00000020,-0.00000163,0.00000055,-0.00000242,0.000000
 81,-0.00000292,0.00000097,-0.00000365,0.00000060,-0.00000549,0.0000038
 7,-0.00001298,0.00000344,-0.00000867,0.00000168,-0.00001996,0.00002181
 ,-0.00000075,-0.00000155,-0.00000684,-0.00008508,0.00003190,-0.0000377
 1,0.00011700,0.00000011,0.00034897,-0.00021193,-0.00027805,0.00119641,
 -0.00097332,-0.00032477,-0.00288097,0.00042663,-0.00009234,0.00034966,
 -0.10316225,-0.04475195,-0.23224494,-0.01129282,-0.00504552,-0.0228969
 8,-0.00000030,-0.00000057,0.00000037,0.00000033,0.00000030,0.00000065,
 -0.00000009,0.00000014,-0.00000011,-0.00000010,-0.00000002,-0.00000013
 ,0.00000019,0.00000022,0.00000099,0.00000016,-0.00000010,-0.00000021,0
 .00000048,0.00000046,0.00000083,-0.00000024,-0.00000002,-0.00000028,0.
 ,0.00000034,0.00000126,-0.00000007,0.00000031,-0.00000006,0.00000075,0
 .00000062,0.00000102,-0.00000025,-0.00000059,-0.00000049,-0.00000026,0
 .00000063,0.00000264,0.00000034,0.00000031,-0.00000013,0.00000184,0.00
 000122,0.00000193,-0.00000025,-0.00000131,-0.00000225,-0.00000105,0.00
 000226,0.00000608,0.00000581,0.00000362,0.00000540,-0.00000021,0.00000
 169,0.00000649,-0.00000232,0.00000090,0.00000180,0.00000133,-0.0000061
 5,0.00000096,0.00000102,-0.00000200,-0.00001070,-0.00000882,0.00000594
 ,0.00001710,-0.00002840,0.00002968,0.00000820,0.00016924,0.00002206,-0
 .00008382,0.00004121,0.00033812,0.00085898,-0.00009103,0.00070284,0.00
 030368,0.00014766,0.00008887,0.00028547,-0.00001567,-0.00007038,0.0000
 4819,-0.00024703,-0.00037923,-0.00070534,0.11163481,0.04825709,0.25640
 605,-0.00000039,0.00000028,-0.00000057,0.00000049,-0.00000043,0.000000
 76,-0.00000101,0.00000071,-0.00000128,0.00000148,-0.00000079,0.0000010
 4,-0.00000165,0.00000149,-0.00000196,0.00000292,-0.00000157,0.00000265
 ,-0.00000247,0.00000257,-0.00000526,0.00000844,-0.00000406,0.00000476,
 -0.00001062,0.00000797,-0.00001338,0.00000180,0.00000048,0.00000309,0.
 00003105,-0.00001642,0.00000698,-0.00008726,-0.00000439,-0.00013288,0.
 00014256,-0.00004825,-0.00028859,0.00169484,0.00024782,0.00123590,-0.0
 0003018,0.00001139,-0.00006211,0.00986622,0.00427245,0.01822161,-0.105
 23772,-0.02110870,-0.10621651,0.00000044,0.00000040,-0.00000026,0.0000
 0009,0.00000002,0.00000021,0.00000015,-0.00000018,0.00000007,0.0000000
 8,-0.00000003,-0.00000014,0.00000006,0.00000016,0.00000007,0.00000010,
 -0.00000008,0.,0.00000026,0.00000008,0.00000034,-0.00000007,0.00000020
 ,-0.00000020,0.00000002,0.00000007,0.00000011,0.00000018,-0.00000016,0
 .,0.00000032,-0.00000002,0.00000015,-0.00000018,0.00000054,-0.00000038
 ,0.00000005,0.00000009,-0.00000022,0.00000017,-0.00000020,0.00000016,0
 .00000047,0.00000015,0.00000070,-0.00000061,0.00000030,0.00000021,0.00
 000052,0.00000021,-0.00000070,-0.00000033,-0.00000061,0.00000137,-0.00
 000092,-0.00000039,-0.00000030,0.00000528,-0.00000036,-0.00000155,-0.0
 0000360,0.00000392,-0.00000271,-0.00000017,0.00000394,-0.00000040,0.00
 000410,0.00000124,-0.00000725,0.00000834,-0.00000124,0.00000280,-0.000
 04165,-0.00000412,-0.00000347,-0.00009097,-0.00016893,-0.00046997,-0.0
 0002129,-0.00011044,-0.00004281,0.00001654,0.00003526,-0.00004265,-0.0
 0000205,0.00001590,-0.00009720,0.00070052,0.00019294,-0.00088328,-0.00
 201690,-0.00080023,0.00374643,0.11253269,0.00000004,-0.00000002,0.0000
 0026,-0.00000053,0.00000060,-0.00000027,0.00000029,-0.00000022,0.00000
 077,-0.00000110,0.00000094,-0.00000054,0.00000077,-0.00000058,0.000001
 74,-0.00000217,0.00000199,-0.00000134,0.00000138,-0.00000095,0.0000036
 2,-0.00000464,0.00000380,-0.00000244,0.00000591,-0.00000053,0.00000524
 ,-0.00000061,0.00000124,-0.00000364,0.,0.00000918,0.00000020,0.0000647
 2,-0.00002187,-0.00004863,0.00006869,-0.00014567,0.00010165,-0.0001094
 0,0.00021146,-0.00069289,0.00012612,-0.00002642,-0.00004748,0.00447021
 ,0.00107464,0.00742230,-0.02110469,-0.05565110,-0.03818913,-0.00000024
 ,-0.00000020,0.00000023,-0.00000010,0.00000005,-0.00000016,0.00000016,
 -0.00000015,-0.00000009,0.00000022,-0.00000037,0.00000005,-0.00000001,
 -0.00000004,-0.00000006,0.00000023,-0.00000029,-0.00000013,-0.00000018
 ,0.00000004,-0.00000014,0.00000024,-0.00000057,0.00000013,0.,-0.000000
 09,-0.00000010,0.00000033,-0.00000040,-0.00000024,-0.00000043,0.000000
 01,-0.00000047,0.00000048,-0.00000121,0.00000041,0.00000004,-0.0000002
 5,-0.00000014,0.00000065,-0.00000055,-0.00000074,-0.00000086,0.0000001
 7,-0.00000075,0.00000108,-0.00000180,0.00000084,0.00000003,-0.00000070
 ,-0.00000015,-0.00000188,0.00000097,-0.00000185,0.00000076,-0.00000068
 ,0.00000048,-0.00000247,0.00000030,0.00000072,0.00000094,-0.00000370,0
 .00000213,0.00000166,-0.00000455,0.00000486,0.00000069,-0.00000454,0.0
 0000089,0.00000186,0.00000483,-0.00000871,-0.00001880,0.00001568,0.000
 00212,0.00005444,0.00014986,-0.00006172,-0.00005620,-0.00000494,0.0001
 5210,0.00006569,0.00002496,0.00000676,-0.00016447,-0.00006061,-0.00009
 297,0.00066644,0.00027809,-0.00005342,-0.00116553,0.00060975,0.0014883
 2,0.02400617,0.05495791,-0.00000050,0.00000019,-0.00000088,0.00000029,
 -0.00000026,0.00000021,-0.00000126,0.00000036,-0.00000148,0.00000128,-
 0.00000050,0.00000025,-0.00000203,0.00000053,-0.00000225,0.00000226,-0
 .00000065,0.00000113,-0.00000365,-0.00000031,-0.00000591,0.00000489,-0
 .00000205,0.00000119,-0.00001421,-0.00000549,-0.00001283,0.00000780,0.
 00000296,-0.00000144,0.00000789,0.00000827,0.00000519,-0.00000619,-0.0
 0004079,-0.00001494,0.00018473,0.00001984,0.00080990,-0.00214137,0.000
 18953,-0.00016030,0.00038769,-0.00004868,0.00002082,-0.01202065,-0.004
 96229,-0.02373450,-0.10578001,-0.03795602,-0.23863512,0.00000031,0.000
 00013,-0.00000003,0.00000029,0.00000023,0.00000053,0.00000017,-0.00000
 016,0.,0.00000008,-0.00000020,-0.00000025,0.00000014,0.00000031,0.0000
 0070,0.00000030,-0.00000022,-0.00000016,0.00000064,0.00000041,0.000000
 89,-0.00000015,-0.00000006,-0.00000047,-0.00000004,0.00000028,0.000001
 06,0.00000050,-0.00000031,-0.00000009,0.00000106,0.00000054,0.00000101
 ,-0.00000034,-0.00000037,-0.00000095,-0.00000031,0.00000049,0.00000189
 ,0.00000151,-0.00000041,0.00000007,0.00000263,0.00000158,0.00000287,-0
 .00000147,-0.00000272,-0.00000159,-0.00000082,0.00000207,0.00000457,0.
 00000859,0.00000371,0.00000759,-0.00000182,0.00000121,0.00000467,0.000
 00674,-0.00000120,-0.00000148,-0.00000466,-0.00000026,-0.00000218,-0.0
 0000800,-0.00000819,-0.00000654,-0.00000792,0.00000474,0.00001574,0.00
 002199,-0.00000702,0.00001279,0.00007982,0.00002690,0.00001739,0.00127
 010,-0.00021091,0.00056305,-0.00006024,0.00018710,0.00015885,0.0000458
 8,-0.00009697,0.00000779,-0.00005292,-0.00012511,-0.00004936,-0.000144
 23,0.00038023,0.00095220,0.00398938,0.00186972,-0.00293246,0.11453677,
 0.04083700,0.26377479,0.00000118,-0.00000112,0.00000199,-0.00000313,0.
 00000311,-0.00000363,0.00000368,-0.00000325,0.00000491,-0.00000731,0.0
 0000427,-0.00000558,0.00000731,-0.00000694,0.00000967,-0.00001499,0.00
 000895,-0.00001308,0.00001209,-0.00001445,0.00002540,-0.00004629,0.000
 02287,-0.00002605,0.00005523,-0.00004378,0.00007051,-0.00001327,-0.000
 00767,-0.00001384,-0.00017629,0.00008446,-0.00008714,0.00055107,-0.000
 08521,0.00038125,-0.00205464,0.00039813,0.00053962,0.00100109,-0.00241
 143,0.00296038,0.00016287,-0.00018969,-0.00006065,-0.01664316,0.010561
 59,-0.00092860,-0.22725707,0.12256288,-0.00456498,-0.00000222,-0.00000
 206,0.00000168,-0.00000028,0.00000032,-0.00000074,0.00000005,0.0000002
 2,-0.00000050,0.00000039,-0.00000100,0.00000020,-0.00000007,-0.0000001
 9,0.00000044,0.,-0.00000040,-0.00000016,-0.00000059,0.00000009,-0.0000
 0025,0.00000044,-0.00000165,0.00000035,-0.00000008,-0.00000016,0.00000
 089,-0.00000052,0.00000012,-0.00000021,-0.00000108,-0.00000004,-0.0000
 0084,0.00000083,-0.00000335,0.00000083,-0.00000005,-0.00000022,0.00000
 227,-0.00000100,0.00000108,-0.00000116,-0.00000141,-0.00000023,-0.0000
 0167,0.00000351,-0.00000212,-0.00000188,-0.00000152,-0.00000035,0.0000
 0574,-0.00000291,0.00000327,-0.00000446,0.00000485,0.00000198,0.000003
 18,-0.00002296,0.00000416,0.00000664,0.00001599,-0.00001948,0.00001164
 ,0.00001132,-0.00001110,-0.00000186,0.00000320,0.00000107,0.00001205,-
 0.00009457,0.00006050,-0.00000629,-0.00004702,0.00000004,-0.00006164,0
 .00038855,-0.00017496,0.00003219,-0.00002451,0.00005546,0.00005973,0.0
 0001865,0.00011729,-0.00004095,-0.00008372,0.00012287,-0.00005670,0.00
 042344,-0.00040890,-0.00062313,0.00084089,0.00002679,0.00018242,-0.012
 64186,0.00854774,-0.00011885,0.24743510,-0.00000041,0.00000024,-0.0000
 0038,0.00000051,-0.00000068,0.00000131,-0.00000098,0.00000084,-0.00000
 102,0.00000110,-0.00000056,0.00000151,-0.00000166,0.00000121,-0.000001
 31,0.00000072,-0.00000064,0.00000274,-0.00000155,-0.00000018,-0.000001
 28,-0.00000290,0.00000041,0.00000244,-0.00000797,-0.00001063,0.0000087
 8,0.00000171,-0.00000333,0.00000431,-0.00005093,0.00002603,0.00000010,
 -0.00006624,-0.00003830,0.00011933,-0.00055234,0.00030052,0.00025578,-
 0.00083440,-0.00054430,0.00148943,-0.00005290,-0.00030226,0.00046151,-
 0.00921797,0.00474540,-0.00002148,0.12351774,-0.12928555,0.00209975,0.
 00000068,0.00000082,-0.00000062,0.,-0.00000010,0.00000010,0.00000013,-
 0.00000024,0.00000015,0.00000007,0.00000002,-0.00000007,0.,0.00000006,
 -0.00000027,0.00000014,-0.00000002,0.00000003,0.00000005,-0.00000008,-
 0.00000011,0.00000011,0.,-0.00000007,0.00000003,-0.00000005,-0.0000004
 1,0.00000044,-0.00000036,0.,0.00000005,-0.00000004,-0.00000013,0.00000
 022,0.00000007,-0.00000020,0.00000009,-0.00000013,-0.00000087,0.000000
 37,-0.00000032,0.00000026,0.00000008,0.00000006,-0.00000024,0.00000014
 ,-0.00000047,0.00000015,0.00000051,-0.00000045,-0.00000102,0.00000043,
 -0.00000005,-0.00000063,-0.00000150,-0.00000026,0.00000058,0.00000477,
 0.00000047,-0.00000080,-0.00000242,0.00000328,-0.00000417,0.00000420,0
 .00000222,-0.00000567,0.00000103,-0.00000095,-0.00000156,-0.00003655,0
 .00001847,0.00000978,0.00000728,0.00000168,-0.00000736,0.00014963,-0.0
 0007811,0.00006770,0.00001647,0.00003217,-0.00004987,0.00014296,0.0001
 9346,-0.00018572,0.00008908,0.00042288,-0.00041575,0.00000052,0.000785
 60,-0.00058064,0.00039907,0.00001641,-0.00041954,-0.00602678,0.0030656
 7,0.00015219,-0.13395577,0.13785473,-0.00000056,0.00000073,-0.00000103
 ,0.00000168,-0.00000141,0.00000174,-0.00000192,0.00000180,-0.00000260,
 0.00000414,-0.00000205,0.00000327,-0.00000392,0.00000409,-0.00000598,0
 .00001024,-0.00000478,0.00000806,-0.00000748,0.00001089,-0.00001836,0.
 00003899,-0.00001425,0.00001928,-0.00003476,0.00004155,-0.00007161,0.0
 0000969,0.00000902,0.00000790,0.00018551,-0.00006735,0.00008664,-0.000
 23179,0.00012130,-0.00049447,0.00229022,-0.00033180,-0.00007401,-0.000
 14124,0.00259548,-0.00405578,0.00011396,0.00019826,0.00013418,0.023839
 85,-0.01611246,-0.00000682,-0.00545017,0.00273616,-0.04580724,0.000001
 04,0.00000086,-0.00000068,0.00000010,-0.00000012,0.00000036,0.00000002
 ,-0.00000018,0.00000018,-0.00000015,0.00000046,-0.00000006,0.00000002,
 0.00000003,-0.00000030,0.00000015,0.00000002,0.00000004,0.00000019,0.0
 0000005,0.00000011,-0.00000019,0.00000077,-0.00000005,0.00000002,0.,-0
 .00000067,0.00000029,-0.00000004,0.00000006,0.00000042,0.00000022,0.00
 000050,-0.00000045,0.00000175,-0.00000020,0.00000005,-0.00000007,-0.00
 000137,0.00000094,-0.00000097,0.00000052,0.00000047,0.00000047,0.00000
 100,-0.00000216,0.00000077,0.00000200,0.00000080,-0.00000067,-0.000004
 03,0.00000086,-0.00000079,0.00000396,-0.00000242,-0.00000172,-0.000001
 81,0.00001368,-0.00000297,-0.00000485,-0.00001112,0.00001021,-0.000006
 35,-0.00000877,0.00000912,0.00000407,-0.00000253,-0.00000586,-0.000009
 33,0.00006546,-0.00004831,0.00000679,0.00003858,0.00002071,0.00004650,
 0.00032960,0.00009674,0.00034090,-0.00003239,-0.00002757,0.00001301,-0
 .00000183,-0.00008824,0.00002422,-0.00000576,-0.00016685,-0.00005265,-
 0.00077870,0.00013256,0.00115138,-0.00077630,-0.00052192,0.00075509,-0
 .02300720,0.01688580,-0.00024003,0.00218825,-0.00424033,0.04922065,0.0
 0000009,-0.00000011,0.,0.00000022,-0.00000031,0.00000013,0.00000017,0.
 ,-0.00000044,0.00000065,-0.00000074,0.00000020,0.00000001,0.00000034,-
 0.00000102,0.00000142,-0.00000176,0.00000092,-0.00000004,0.00000026,-0
 .00000279,0.00000393,-0.00000311,0.00000173,-0.00000087,0.00000111,-0.
 00000815,-0.00000513,-0.00000625,0.00000483,0.00000847,0.00000363,0.00
 001094,0.00000174,0.00002928,-0.00005160,-0.00005418,0.00062244,0.0001
 4944,0.00048185,-0.00169208,-0.00061079,-0.00035188,-0.00025479,0.0009
 0905,-0.00552053,-0.01908707,-0.00147714,-0.06613263,-0.06802368,-0.00
 280323,0.00000008,0.00000012,-0.00000013,0.00000002,-0.00000005,-0.000
 00002,-0.00000017,0.00000015,0.00000007,-0.00000013,0.00000032,-0.0000
 0002,0.00000003,-0.00000001,0.,-0.00000044,0.00000037,0.00000016,0.000
 00009,-0.00000010,0.00000006,-0.00000023,0.00000073,-0.00000005,0.0000
 0006,-0.00000007,0.00000007,-0.00000078,0.00000052,0.00000029,0.000000
 23,-0.00000018,0.00000014,-0.00000042,0.00000189,-0.00000031,0.0000001
 2,-0.00000009,0.00000002,-0.00000247,0.00000124,0.00000096,0.00000068,
 -0.00000027,0.00000056,-0.00000058,0.00000523,-0.00000110,0.00000032,-
 0.00000026,0.00000061,0.00000082,0.00000115,0.00000214,-0.00000086,0.0
 0000040,0.00000293,0.00000091,0.00000290,-0.00000006,-0.00000123,0.000
 00271,-0.00000575,0.00000784,0.00002254,-0.00001191,-0.00000022,-0.000
 00217,0.00000252,-0.00009471,0.00004181,0.00002007,0.00000882,0.000001
 75,0.00000515,-0.00003899,0.00007554,0.00007003,0.00001197,0.00005578,
 -0.00002498,0.00025036,0.00020006,-0.00029564,-0.00080313,0.00116124,-
 0.00013279,-0.00169798,-0.00044948,0.00335709,0.00087727,0.00078106,-0
 .00034077,-0.00482827,-0.01545364,-0.00019206,0.00820081,0.02647292,0.
 00136653,0.06967691,0.00000090,-0.00000094,0.00000082,-0.00000080,0.00
 000063,-0.00000203,0.00000222,-0.00000166,0.00000152,-0.00000179,0.000
 00023,-0.00000278,0.00000330,-0.00000252,0.00000232,-0.00000295,0.0000
 0007,-0.00000487,0.00000436,-0.00000430,0.00000533,-0.00000900,0.00000
 099,-0.00000816,0.00001924,-0.00000831,0.00001345,-0.00001030,-0.00000
 755,-0.00000230,-0.00004106,0.00001089,-0.00000970,0.00022969,-0.00008
 671,0.00001075,-0.00051949,0.00034013,0.00008014,0.00069319,-0.0007564
 4,0.00018531,0.00043636,-0.00051876,0.00019935,-0.00214991,-0.00683397
 ,0.00026879,-0.06890969,-0.28877324,-0.00837075,-0.00000105,-0.0000010
 7,0.00000072,0.00000002,0.00000010,-0.00000024,-0.00000056,0.00000078,
 -0.00000011,-0.00000037,0.00000042,0.00000014,0.00000006,-0.00000010,0
 .00000054,-0.00000099,0.00000072,0.00000018,0.,-0.00000015,0.00000009,
 -0.00000042,0.00000086,0.00000006,0.00000007,-0.00000007,0.00000085,-0
 .00000170,0.00000114,0.00000036,0.00000011,-0.00000027,0.00000022,-0.0
 0000067,0.00000180,-0.00000001,0.00000006,-0.00000001,0.00000147,-0.00
 000377,0.00000235,0.00000063,0.00000060,-0.00000058,0.00000054,-0.0000
 0020,0.00000642,-0.00000193,-0.00000032,0.00000020,0.00000351,0.000000
 68,0.00000225,0.00000173,0.00000155,0.00000141,0.00000431,-0.00000929,
 0.00000398,0.00000260,0.00000508,-0.00000396,-0.00000080,0.00000994,0.
 00001980,-0.00001237,0.00000025,-0.00000086,0.00000777,-0.00006609,0.0
 0008982,0.00000719,-0.00002170,0.00000769,-0.00000313,-0.00002088,0.00
 005464,0.00001273,-0.00003210,0.00000344,-0.00000163,0.00016254,0.0003
 3014,-0.00018177,0.00094101,0.00010425,-0.00084665,-0.00057138,0.00137
 599,0.00145718,0.00012861,0.00056698,0.00042036,-0.00050840,-0.0044791
 4,-0.00021935,-0.00524374,-0.01720469,-0.00123909,0.07548877,0.3157572
 0,-0.00000025,0.00000022,-0.00000041,0.00000052,-0.00000047,0.00000061
 ,-0.00000081,0.00000053,-0.00000097,0.00000105,-0.00000039,0.00000111,
 -0.00000149,0.00000075,-0.00000194,0.00000179,-0.00000045,0.00000221,-
 0.00000219,0.00000084,-0.00000367,0.00000269,0.00000043,0.00000461,-0.
 00001070,-0.00000556,-0.00000564,0.00000788,0.00000397,0.00000285,-0.0
 0000465,0.00001105,0.00000508,-0.00010474,-0.00009524,0.00001206,0.000
 04629,-0.00034295,-0.00002492,-0.00065742,0.00033189,0.00050537,0.0003
 5029,-0.00005274,0.00004129,0.00668657,0.02726296,0.00099228,-0.003285
 12,-0.00934743,-0.04774027,0.00000038,0.00000033,-0.00000028,0.0000000
 8,0.,0.00000023,0.00000006,-0.00000009,0.00000004,-0.00000004,0.000000
 04,-0.00000008,0.,0.00000008,-0.00000001,0.00000023,-0.00000009,0.0000
 0002,0.00000011,0.00000007,0.00000013,-0.00000001,-0.00000012,-0.00000
 009,-0.00000003,0.00000008,-0.00000010,0.00000053,-0.00000016,0.,0.000
 00025,0.00000024,0.00000041,-0.00000006,-0.00000044,-0.00000021,-0.000
 00002,0.00000015,-0.00000020,0.00000170,-0.00000067,0.00000012,0.00000
 024,0.00000035,0.00000038,-0.00000062,-0.00000321,0.00000038,0.0000001
 4,0.00000003,-0.00000104,0.00000155,-0.00000033,0.00000081,-0.00000060
 ,-0.00000006,-0.00000203,0.00000470,-0.00000271,-0.00000184,-0.0000023
 7,0.00000237,-0.00000037,-0.00000818,-0.00001615,0.00000462,0.00000062
 ,0.00000027,-0.00000263,0.00008336,-0.00002141,-0.00000148,0.00001108,
 0.00000680,0.00000923,0.00008298,-0.00009851,0.00004227,0.00001943,-0.
 00005022,-0.00023003,-0.00014463,-0.00012100,-0.00003090,0.00026964,-0
 .00023545,0.00026090,0.00393911,0.00108080,-0.00384662,-0.00098317,-0.
 00007833,0.00118428,-0.00648294,-0.02771038,-0.00056194,0.00012263,0.0
 0126359,-0.00097215,0.00005413,0.00821672,0.05035858\\0.00000283,-0.00
 000015,0.00000098,-0.00000413,0.00000272,-0.00000407,0.00000526,-0.000
 00319,0.00000492,-0.00000533,0.00000329,-0.00000526,0.00000706,-0.0000
 0298,0.00000555,-0.00000898,0.00000273,-0.00000415,0.00000834,-0.00000
 120,0.00000407,-0.00000518,-0.00000190,-0.00000292,0.00000361,-0.00000
 139,0.00000396,0.00000298,-0.00000547,-0.00000256,-0.00000730,-0.00000
 061,-0.00000474,0.00000481,-0.00000287,0.00000727,-0.00000092,-0.00000
 440,-0.00000592,-0.00000298,0.00000179,0.00000982,-0.00000773,-0.00000
 167,0.00000070,0.00000973,-0.00000118,-0.00000953,-0.00000171,-0.00000
 224,0.00000637,-0.00000012,0.00000009,-0.00000026,-0.00000055,0.000000
 25,-0.00000024,-0.00000043,0.00000012,-0.00000010,0.00000096,-0.000000
 60,0.00000069,0.00000121,-0.00000082,0.00000078,-0.00000112,0.00000061
 ,-0.00000085,-0.00000113,0.00000074,-0.00000088,0.00000108,-0.00000073
 ,0.00000106,0.00000110,-0.00000112,0.00000103,-0.00000092,0.00000058,-
 0.00000090,-0.00000138,0.00000087,-0.00000088,0.00000135,-0.00000074,0
 .00000035,0.00000171,-0.00000141,0.00000072,-0.00000195,0.00000166,-0.
 00000245,-0.00000070,0.00000041,-0.00000019,0.00000085,0.00000029,0.00
 000217,-0.00000025,-0.00000056,0.00000126,-0.00000114,0.00000147,-0.00
 000157,-0.00000024,0.00000159,0.00000101,-0.00000062,0.00000065,0.0000
 0247,0.00000210,0.00000119,-0.00000013,0.00000223,0.00000077,0.0000002
 4,0.00000057,0.00000167,-0.00000036,-0.00000164,0.00000498,-0.00000143
 ,-0.00000230,0.00000261,-0.00000204,-0.00000180,0.00000135,-0.00000132
 ,0.00000146,0.00000213,-0.00000114,0.00000059,0.00000022,0.00000116,0.
 00000206,-0.00000154,-0.00000102,0.00000015,0.00000037,0.00000186,-0.0
 0000222,0.00000164,0.00000106,-0.00000006,0.00000146,-0.00000176,-0.00
 000042,-0.00000085,-0.00000239,0.00000119,-0.00000062,-0.00000043\\\@


 NO HUMAN INVESTIGATION CAN BECOME REAL SCIENCE
 WITHOUT GOING THROUGH MATHEMATICAL PEOPLE.
 -- LEONARDO DA VINCI, IN "PENSIERI" CA. 1492
 Job cpu time:       0 days 17 hours 33 minutes 55.3 seconds.
 Elapsed time:       0 days  4 hours 23 minutes 31.0 seconds.
 File lengths (MBytes):  RWF=   1460 Int=      0 D2E=      0 Chk=     35 Scr=      1
 Normal termination of Gaussian 16 at Mon May 22 18:46:44 2023.
### All Done ###
