### Starting Gaussian ###
 Entering Gaussian System, Link 0=g16
 Initial command:
 /cluster/software/gaussian/gaussian-16-A.03/avx2/g16/l1.exe "/local/scratch/cz9n3/Gau-23579.inp" -scrdir="/local/scratch/cz9n3/"
 Entering Link 1 = /cluster/software/gaussian/gaussian-16-A.03/avx2/g16/l1.exe PID=     23580.
  
 Copyright (c) 1988,1990,1992,1993,1995,1998,2003,2009,2016,
            Gaussian, Inc.  All Rights Reserved.
  
 This is part of the Gaussian(R) 16 program.  It is based on
 the Gaussian(R) 09 system (copyright 2009, Gaussian, Inc.),
 the Gaussian(R) 03 system (copyright 2003, Gaussian, Inc.),
 the Gaussian(R) 98 system (copyright 1998, Gaussian, Inc.),
 the Gaussian(R) 94 system (copyright 1995, Gaussian, Inc.),
 the Gaussian 92(TM) system (copyright 1992, Gaussian, Inc.),
 the Gaussian 90(TM) system (copyright 1990, Gaussian, Inc.),
 the Gaussian 88(TM) system (copyright 1988, Gaussian, Inc.),
 the Gaussian 86(TM) system (copyright 1986, Carnegie Mellon
 University), and the Gaussian 82(TM) system (copyright 1983,
 Carnegie Mellon University). Gaussian is a federally registered
 trademark of Gaussian, Inc.
  
 This software contains proprietary and confidential information,
 including trade secrets, belonging to Gaussian, Inc.
  
 This software is provided under written license and may be
 used, copied, transmitted, or stored only in accord with that
 written license.
  
 The following legend is applicable only to US Government
 contracts under FAR:
  
                    RESTRICTED RIGHTS LEGEND
  
 Use, reproduction and disclosure by the US Government is
 subject to restrictions as set forth in subparagraphs (a)
 and (c) of the Commercial Computer Software - Restricted
 Rights clause in FAR 52.227-19.
  
 Gaussian, Inc.
 340 Quinnipiac St., Bldg. 40, Wallingford CT 06492
  
  
 ---------------------------------------------------------------
 Warning -- This program may not be used in any manner that
 competes with the business of Gaussian, Inc. or will provide
 assistance to any competitor of Gaussian, Inc.  The licensee
 of this program is prohibited from giving any competitor of
 Gaussian, Inc. access to this program.  By using this program,
 the user acknowledges that Gaussian, Inc. is engaged in the
 business of creating and licensing software in the field of
 computational chemistry and represents and warrants to the
 licensee that it is not a competitor of Gaussian, Inc. and that
 it will not use this program in any manner prohibited above.
 ---------------------------------------------------------------
  

 Cite this work as:
 Gaussian 16, Revision A.03,
 M. J. Frisch, G. W. Trucks, H. B. Schlegel, G. E. Scuseria, 
 M. A. Robb, J. R. Cheeseman, G. Scalmani, V. Barone, 
 G. A. Petersson, H. Nakatsuji, X. Li, M. Caricato, A. V. Marenich, 
 J. Bloino, B. G. Janesko, R. Gomperts, B. Mennucci, H. P. Hratchian, 
 J. V. Ortiz, A. F. Izmaylov, J. L. Sonnenberg, D. Williams-Young, 
 F. Ding, F. Lipparini, F. Egidi, J. Goings, B. Peng, A. Petrone, 
 T. Henderson, D. Ranasinghe, V. G. Zakrzewski, J. Gao, N. Rega, 
 G. Zheng, W. Liang, M. Hada, M. Ehara, K. Toyota, R. Fukuda, 
 J. Hasegawa, M. Ishida, T. Nakajima, Y. Honda, O. Kitao, H. Nakai, 
 T. Vreven, K. Throssell, J. A. Montgomery, Jr., J. E. Peralta, 
 F. Ogliaro, M. J. Bearpark, J. J. Heyd, E. N. Brothers, K. N. Kudin, 
 V. N. Staroverov, T. A. Keith, R. Kobayashi, J. Normand, 
 K. Raghavachari, A. P. Rendell, J. C. Burant, S. S. Iyengar, 
 J. Tomasi, M. Cossi, J. M. Millam, M. Klene, C. Adamo, R. Cammi, 
 J. W. Ochterski, R. L. Martin, K. Morokuma, O. Farkas, 
 J. B. Foresman, and D. J. Fox, Gaussian, Inc., Wallingford CT, 2016.
 
 ******************************************
 Gaussian 16:  ES64L-G16RevA.03 25-Dec-2016
                28-May-2023 
 ******************************************
 %chk=CCCdCdCCdCSC.chk
 %NProcShared=20
 Will use up to   20 processors via shared memory.
 -----------------------------
 # opt freq b3lyp/6-31g(2df,p)
 -----------------------------
 1/18=20,19=15,26=3,38=1/1,3;
 2/9=110,12=2,17=6,18=5,40=1/2;
 3/5=1,6=6,7=104,11=2,25=1,30=1,71=1,74=-5/1,2,3;
 4//1;
 5/5=2,38=5/2;
 6/7=2,8=2,9=2,10=2,28=1/1;
 7//1,2,3,16;
 1/18=20,19=15,26=3/3(2);
 2/9=110/2;
 99//99;
 2/9=110/2;
 3/5=1,6=6,7=104,11=2,25=1,30=1,71=1,74=-5/1,2,3;
 4/5=5,16=3,69=1/1;
 5/5=2,38=5/2;
 7//1,2,3,16;
 1/18=20,19=15,26=3/3(-5);
 2/9=110/2;
 6/7=2,8=2,9=2,10=2,19=2,28=1/1;
 99/9=1/99;
 -------------------
 Title Card Required
 -------------------
 Symbolic Z-matrix:
 Charge =  0 Multiplicity = 1
 C                     0.93355  -0.01381  -0.04136 
 C                     2.4587   -0.01467  -0.0491 
 C                     3.04746   0.55985  -1.3099 
 C                     4.32547   0.63553  -1.56189 
 C                     5.60743   0.74352  -1.79673 
 C                     6.38906  -0.33135  -2.37529 
 C                     7.71345  -0.28195  -2.61846 
 S                     8.52019  -1.65666  -3.31894 
 C                     10.2516  -1.14457  -3.46337 
 H                     0.5595   -0.45338   0.89015 
 H                     0.53047  -0.60071  -0.87348 
 H                     0.53372   1.00333  -0.11454 
 H                     2.8075   -1.04651   0.07166 
 H                     2.81259   0.5597    0.8151 
 H                     2.35254   0.94215  -2.055 
 H                     6.10758   1.6689   -1.53179 
 H                     5.833    -1.23621  -2.62015 
 H                     8.29204   0.60685  -2.38314 
 H                     10.82087  -1.9723   -3.9037 
 H                     10.69323  -0.9245   -2.48743 
 H                     10.36647  -0.27948  -4.12244 
 

 GradGradGradGradGradGradGradGradGradGradGradGradGradGradGradGradGradGrad
 Berny optimization.
 Initialization pass.
                           ----------------------------
                           !    Initial Parameters    !
                           ! (Angstroms and Degrees)  !
 --------------------------                            --------------------------
 ! Name  Definition              Value          Derivative Info.                !
 --------------------------------------------------------------------------------
 ! R1    R(1,2)                  1.5252         estimate D2E/DX2                !
 ! R2    R(1,10)                 1.0958         estimate D2E/DX2                !
 ! R3    R(1,11)                 1.0951         estimate D2E/DX2                !
 ! R4    R(1,12)                 1.0954         estimate D2E/DX2                !
 ! R5    R(2,3)                  1.5054         estimate D2E/DX2                !
 ! R6    R(2,13)                 1.0959         estimate D2E/DX2                !
 ! R7    R(2,14)                 1.0963         estimate D2E/DX2                !
 ! R8    R(3,4)                  1.3048         estimate D2E/DX2                !
 ! R9    R(3,15)                 1.0882         estimate D2E/DX2                !
 ! R10   R(4,5)                  1.3078         estimate D2E/DX2                !
 ! R11   R(5,6)                  1.4495         estimate D2E/DX2                !
 ! R12   R(5,16)                 1.0847         estimate D2E/DX2                !
 ! R13   R(6,7)                  1.3474         estimate D2E/DX2                !
 ! R14   R(6,17)                 1.0899         estimate D2E/DX2                !
 ! R15   R(7,8)                  1.7411         estimate D2E/DX2                !
 ! R16   R(7,18)                 1.0863         estimate D2E/DX2                !
 ! R17   R(8,9)                  1.8113         estimate D2E/DX2                !
 ! R18   R(9,19)                 1.0969         estimate D2E/DX2                !
 ! R19   R(9,20)                 1.0936         estimate D2E/DX2                !
 ! R20   R(9,21)                 1.0936         estimate D2E/DX2                !
 ! A1    A(2,1,10)             110.2076         estimate D2E/DX2                !
 ! A2    A(2,1,11)             111.3397         estimate D2E/DX2                !
 ! A3    A(2,1,12)             111.4202         estimate D2E/DX2                !
 ! A4    A(10,1,11)            107.7753         estimate D2E/DX2                !
 ! A5    A(10,1,12)            107.739          estimate D2E/DX2                !
 ! A6    A(11,1,12)            108.2117         estimate D2E/DX2                !
 ! A7    A(1,2,3)              113.2735         estimate D2E/DX2                !
 ! A8    A(1,2,13)             108.5573         estimate D2E/DX2                !
 ! A9    A(1,2,14)             108.5716         estimate D2E/DX2                !
 ! A10   A(3,2,13)             109.0954         estimate D2E/DX2                !
 ! A11   A(3,2,14)             109.511          estimate D2E/DX2                !
 ! A12   A(13,2,14)            107.6788         estimate D2E/DX2                !
 ! A13   A(2,3,4)              124.5366         estimate D2E/DX2                !
 ! A14   A(2,3,15)             117.2424         estimate D2E/DX2                !
 ! A15   A(4,3,15)             118.2199         estimate D2E/DX2                !
 ! A16   A(4,5,6)              122.6189         estimate D2E/DX2                !
 ! A17   A(4,5,16)             118.5918         estimate D2E/DX2                !
 ! A18   A(6,5,16)             118.7809         estimate D2E/DX2                !
 ! A19   A(5,6,7)              125.0904         estimate D2E/DX2                !
 ! A20   A(5,6,17)             115.4801         estimate D2E/DX2                !
 ! A21   A(7,6,17)             119.4294         estimate D2E/DX2                !
 ! A22   A(6,7,8)              119.94           estimate D2E/DX2                !
 ! A23   A(6,7,18)             120.9577         estimate D2E/DX2                !
 ! A24   A(8,7,18)             119.1023         estimate D2E/DX2                !
 ! A25   A(7,8,9)              104.5823         estimate D2E/DX2                !
 ! A26   A(8,9,19)             108.3467         estimate D2E/DX2                !
 ! A27   A(8,9,20)             111.8239         estimate D2E/DX2                !
 ! A28   A(8,9,21)             111.8454         estimate D2E/DX2                !
 ! A29   A(19,9,20)            107.4894         estimate D2E/DX2                !
 ! A30   A(19,9,21)            107.4879         estimate D2E/DX2                !
 ! A31   A(20,9,21)            109.647          estimate D2E/DX2                !
 ! A32   L(3,4,5,17,-1)        181.5939         estimate D2E/DX2                !
 ! A33   L(3,4,5,17,-2)        180.2683         estimate D2E/DX2                !
 ! D1    D(10,1,2,3)           179.2437         estimate D2E/DX2                !
 ! D2    D(10,1,2,13)           57.9084         estimate D2E/DX2                !
 ! D3    D(10,1,2,14)          -58.882          estimate D2E/DX2                !
 ! D4    D(11,1,2,3)            59.702          estimate D2E/DX2                !
 ! D5    D(11,1,2,13)          -61.6333         estimate D2E/DX2                !
 ! D6    D(11,1,2,14)         -178.4236         estimate D2E/DX2                !
 ! D7    D(12,1,2,3)           -61.2083         estimate D2E/DX2                !
 ! D8    D(12,1,2,13)          177.4564         estimate D2E/DX2                !
 ! D9    D(12,1,2,14)           60.6661         estimate D2E/DX2                !
 ! D10   D(1,2,3,4)           -178.264          estimate D2E/DX2                !
 ! D11   D(1,2,3,15)             2.1424         estimate D2E/DX2                !
 ! D12   D(13,2,3,4)           -57.2319         estimate D2E/DX2                !
 ! D13   D(13,2,3,15)          123.1745         estimate D2E/DX2                !
 ! D14   D(14,2,3,4)            60.3884         estimate D2E/DX2                !
 ! D15   D(14,2,3,15)         -119.2052         estimate D2E/DX2                !
 ! D16   D(2,3,5,6)             85.8663         estimate D2E/DX2                !
 ! D17   D(2,3,5,16)           -92.9346         estimate D2E/DX2                !
 ! D18   D(15,3,5,6)           -95.5281         estimate D2E/DX2                !
 ! D19   D(15,3,5,16)           85.671          estimate D2E/DX2                !
 ! D20   D(4,5,6,7)           -178.8972         estimate D2E/DX2                !
 ! D21   D(4,5,6,17)             1.0265         estimate D2E/DX2                !
 ! D22   D(16,5,6,7)             0.029          estimate D2E/DX2                !
 ! D23   D(16,5,6,17)          179.9527         estimate D2E/DX2                !
 ! D24   D(5,6,7,8)            179.9579         estimate D2E/DX2                !
 ! D25   D(5,6,7,18)            -0.0099         estimate D2E/DX2                !
 ! D26   D(17,6,7,8)             0.037          estimate D2E/DX2                !
 ! D27   D(17,6,7,18)         -179.9308         estimate D2E/DX2                !
 ! D28   D(6,7,8,9)            179.9257         estimate D2E/DX2                !
 ! D29   D(18,7,8,9)            -0.1059         estimate D2E/DX2                !
 ! D30   D(7,8,9,19)          -179.9043         estimate D2E/DX2                !
 ! D31   D(7,8,9,20)            61.81           estimate D2E/DX2                !
 ! D32   D(7,8,9,21)           -61.6077         estimate D2E/DX2                !
 --------------------------------------------------------------------------------
 Trust Radius=3.00D-01 FncErr=1.00D-07 GrdErr=1.00D-06 EigMax=2.50D+02 EigMin=1.00D-04
 Number of steps in this run=     95 maximum allowed number of steps=    126.
 GradGradGradGradGradGradGradGradGradGradGradGradGradGradGradGradGradGrad

                          Input orientation:                          
 ---------------------------------------------------------------------
 Center     Atomic      Atomic             Coordinates (Angstroms)
 Number     Number       Type             X           Y           Z
 ---------------------------------------------------------------------
      1          6           0        0.933550   -0.013810   -0.041360
      2          6           0        2.458700   -0.014670   -0.049100
      3          6           0        3.047460    0.559850   -1.309900
      4          6           0        4.325470    0.635530   -1.561890
      5          6           0        5.607430    0.743520   -1.796730
      6          6           0        6.389060   -0.331350   -2.375290
      7          6           0        7.713450   -0.281950   -2.618460
      8         16           0        8.520190   -1.656660   -3.318940
      9          6           0       10.251600   -1.144570   -3.463370
     10          1           0        0.559500   -0.453380    0.890150
     11          1           0        0.530470   -0.600710   -0.873480
     12          1           0        0.533720    1.003330   -0.114540
     13          1           0        2.807500   -1.046510    0.071660
     14          1           0        2.812590    0.559700    0.815100
     15          1           0        2.352540    0.942150   -2.055000
     16          1           0        6.107580    1.668900   -1.531790
     17          1           0        5.833000   -1.236210   -2.620150
     18          1           0        8.292040    0.606850   -2.383140
     19          1           0       10.820870   -1.972300   -3.903700
     20          1           0       10.693230   -0.924500   -2.487430
     21          1           0       10.366470   -0.279480   -4.122440
 ---------------------------------------------------------------------
                    Distance matrix (angstroms):
                    1          2          3          4          5
     1  C    0.000000
     2  C    1.525170   0.000000
     3  C    2.531185   1.505433   0.000000
     4  C    3.773430   2.489201   1.304813   0.000000
     5  C    5.049755   3.680158   2.612314   1.307759   0.000000
     6  C    5.942277   4.578119   3.618782   2.419686   1.449490
     7  C    7.258126   5.855378   4.918579   3.665586   2.482368
     8  S    8.426066   7.080229   6.236981   5.092842   4.069663
     9  C    9.990737   8.582727   7.709871   6.473283   5.283076
    10  H    1.095831   2.163705   3.472290   4.623933   5.842387
    11  H    1.095148   2.177410   2.805815   4.050213   5.332435
    12  H    1.095351   2.178567   2.818590   4.075226   5.351616
    13  H    2.142646   1.095873   2.132295   2.793202   3.812440
    14  H    2.143182   1.096349   2.137940   2.818623   3.829697
    15  H    2.642374   2.224952   1.088228   2.056605   3.271157
    16  H    5.641230   4.283352   3.262447   2.060261   1.084745
    17  H    5.670011   4.414562   3.563961   2.626018   2.155976
    18  H    7.747033   6.313627   5.353473   4.050796   2.751306
    19  H   10.794093   9.413615   8.577032   7.380723   6.244594
    20  H   10.102671   8.636013   7.877034   6.621079   5.396732
    21  H   10.281331   8.899160   7.885605   6.624752   5.394805
                    6          7          8          9         10
     6  C    0.000000
     7  C    1.347435   0.000000
     8  S    2.681163   1.741071   0.000000
     9  C    4.094443   2.810728   1.811319   0.000000
    10  H    6.682945   7.969864   9.084982  10.647426   0.000000
    11  H    6.054012   7.398768   8.422050  10.074904   1.770011
    12  H    6.416959   7.711685   9.007077  10.500730   1.769766
    13  H    4.396202   5.647092   6.671078   8.241400   2.464799
    14  H    4.874802   6.042858   7.387776   8.749212   2.471513
    15  H    4.244748   5.527682   6.811113   8.290540   3.719732
    16  H    2.189001   2.750543   4.480395   5.368381   6.414909
    17  H    1.089922   2.108722   2.808216   4.499271   6.383168
    18  H    2.121701   1.086327   2.459929   2.841521   8.463492
    19  H    4.966860   3.763666   2.394724   1.096857  11.427328
    20  H    4.346295   3.051086   2.439174   1.093584  10.692169
    21  H    4.344538   3.049668   2.439464   1.093595  11.015124
                   11         12         13         14         15
    11  H    0.000000
    12  H    1.774527   0.000000
    13  H    2.505373   3.067016   0.000000
    14  H    3.066908   2.500857   1.769926   0.000000
    15  H    2.663897   2.660307   2.946937   2.931789   0.000000
    16  H    6.057116   5.789602   4.564541   4.194660   3.860342
    17  H    5.618856   6.275029   4.054069   4.914175   4.144665
    18  H    7.998703   8.092915   6.232160   6.344709   5.958000
    19  H   10.814612  11.359470   8.993035   9.633828   9.144634
    20  H   10.295211  10.609561   8.291475   8.672603   8.557949
    21  H   10.363678  10.695412   8.678527   9.063367   8.365988
                   16         17         18         19         20
    16  H    0.000000
    17  H    3.114416   0.000000
    18  H    2.573832   3.082194   0.000000
    19  H    6.410881   5.202709   3.919069   0.000000
    20  H    5.354172   4.872024   2.849846   1.766351   0.000000
    21  H    5.352177   4.870786   2.848509   1.766343   1.787759
                   21
    21  H    0.000000
 Stoichiometry    C8H12S
 Framework group  C1[X(C8H12S)]
 Deg. of freedom    57
 Full point group                 C1      NOp   1
 Largest Abelian subgroup         C1      NOp   1
 Largest concise Abelian subgroup C1      NOp   1
                         Standard orientation:                         
 ---------------------------------------------------------------------
 Center     Atomic      Atomic             Coordinates (Angstroms)
 Number     Number       Type             X           Y           Z
 ---------------------------------------------------------------------
      1          6           0       -5.233382   -0.622934    0.015512
      2          6           0       -3.840322   -0.322148    0.558702
      3          6           0       -2.944140    0.354330   -0.444075
      4          6           0       -1.700309    0.680656   -0.222868
      5          6           0       -0.465111    1.039477    0.013278
      6          6           0        0.657178    0.138997   -0.161723
      7          6           0        1.944838    0.448757    0.086394
      8         16           0        3.189807   -0.740977   -0.170346
      9          6           0        4.727386    0.103079    0.281647
     10          1           0       -5.837198   -1.125482    0.779513
     11          1           0       -5.186685   -1.280031   -0.859354
     12          1           0       -5.756919    0.294849   -0.273239
     13          1           0       -3.378142   -1.264315    0.874375
     14          1           0       -3.941383    0.313018    1.446583
     15          1           0       -3.372829    0.589780   -1.416202
     16          1           0       -0.276221    2.046154    0.370479
     17          1           0        0.406176   -0.858574   -0.521974
     18          1           0        2.222829    1.435017    0.447114
     19          1           0        5.559963   -0.596801    0.139943
     20          1           0        4.729932    0.408576    1.331691
     21          1           0        4.916716    0.972157   -0.354598
 ---------------------------------------------------------------------
 Rotational constants (GHZ):           6.5234386           0.3313636           0.3225225
 Standard basis: 6-31G(2df,p) (6D, 7F)
 There are   343 symmetry adapted cartesian basis functions of A   symmetry.
 There are   316 symmetry adapted basis functions of A   symmetry.
   316 basis functions,   504 primitive gaussians,   343 cartesian basis functions
    38 alpha electrons       38 beta electrons
       nuclear repulsion energy       441.0144713659 Hartrees.
 NAtoms=   21 NActive=   21 NUniq=   21 SFac= 1.00D+00 NAtFMM=   60 NAOKFM=F Big=F
 Integral buffers will be    131072 words long.
 Raffenetti 2 integral format.
 Two-electron integral symmetry is turned on.
 One-electron integrals computed using PRISM.
 PrsmSu:  requested number of processors reduced to:  13 ShMem   1 Linda.
 NBasis=   316 RedAO= T EigKep=  2.26D-04  NBF=   316
 NBsUse=   316 1.00D-06 EigRej= -1.00D+00 NBFU=   316
 ExpMin= 1.17D-01 ExpMax= 2.19D+04 ExpMxC= 3.30D+03 IAcc=3 IRadAn=         5 AccDes= 0.00D+00
 Harris functional with IExCor=  402 and IRadAn=       5 diagonalized for initial guess.
 HarFok:  IExCor=  402 AccDes= 0.00D+00 IRadAn=         5 IDoV= 1 UseB2=F ITyADJ=14
 ICtDFT=  3500011 ScaDFX=  1.000000  1.000000  1.000000  1.000000
 FoFCou: FMM=F IPFlag=           0 FMFlag=      100000 FMFlg1=           0
         NFxFlg=           0 DoJE=T BraDBF=F KetDBF=T FulRan=T
         wScrn=  0.000000 ICntrl=       500 IOpCl=  0 I1Cent=   200000004 NGrid=           0
         NMat0=    1 NMatS0=      1 NMatT0=    0 NMatD0=    1 NMtDS0=    0 NMtDT0=    0
 Petite list used in FoFCou.
 Requested convergence on RMS density matrix=1.00D-08 within 128 cycles.
 Requested convergence on MAX density matrix=1.00D-06.
 Requested convergence on             energy=1.00D-06.
 No special actions if energy rises.
 Integral accuracy reduced to 1.0D-05 until final iterations.
 Initial convergence to 1.0D-05 achieved.  Increase integral accuracy.
 SCF Done:  E(RB3LYP) =  -710.222098722     A.U. after   14 cycles
            NFock= 14  Conv=0.77D-08     -V/T= 2.0055

 **********************************************************************

            Population analysis using the SCF density.

 **********************************************************************

 Orbital symmetries:
       Occupied  (A) (A) (A) (A) (A) (A) (A) (A) (A) (A) (A) (A)
                 (A) (A) (A) (A) (A) (A) (A) (A) (A) (A) (A) (A)
                 (A) (A) (A) (A) (A) (A) (A) (A) (A) (A) (A) (A)
                 (A) (A)
       Virtual   (A) (A) (A) (A) (A) (A) (A) (A) (A) (A) (A) (A)
                 (A) (A) (A) (A) (A) (A) (A) (A) (A) (A) (A) (A)
                 (A) (A) (A) (A) (A) (A) (A) (A) (A) (A) (A) (A)
                 (A) (A) (A) (A) (A) (A) (A) (A) (A) (A) (A) (A)
                 (A) (A) (A) (A) (A) (A) (A) (A) (A) (A) (A) (A)
                 (A) (A) (A) (A) (A) (A) (A) (A) (A) (A) (A) (A)
                 (A) (A) (A) (A) (A) (A) (A) (A) (A) (A) (A) (A)
                 (A) (A) (A) (A) (A) (A) (A) (A) (A) (A) (A) (A)
                 (A) (A) (A) (A) (A) (A) (A) (A) (A) (A) (A) (A)
                 (A) (A) (A) (A) (A) (A) (A) (A) (A) (A) (A) (A)
                 (A) (A) (A) (A) (A) (A) (A) (A) (A) (A) (A) (A)
                 (A) (A) (A) (A) (A) (A) (A) (A) (A) (A) (A) (A)
                 (A) (A) (A) (A) (A) (A) (A) (A) (A) (A) (A) (A)
                 (A) (A) (A) (A) (A) (A) (A) (A) (A) (A) (A) (A)
                 (A) (A) (A) (A) (A) (A) (A) (A) (A) (A) (A) (A)
                 (A) (A) (A) (A) (A) (A) (A) (A) (A) (A) (A) (A)
                 (A) (A) (A) (A) (A) (A) (A) (A) (A) (A) (A) (A)
                 (A) (A) (A) (A) (A) (A) (A) (A) (A) (A) (A) (A)
                 (A) (A) (A) (A) (A) (A) (A) (A) (A) (A) (A) (A)
                 (A) (A) (A) (A) (A) (A) (A) (A) (A) (A) (A) (A)
                 (A) (A) (A) (A) (A) (A) (A) (A) (A) (A) (A) (A)
                 (A) (A) (A) (A) (A) (A) (A) (A) (A) (A) (A) (A)
                 (A) (A) (A) (A) (A) (A) (A) (A) (A) (A) (A) (A)
                 (A) (A)
 The electronic state is 1-A.
 Alpha  occ. eigenvalues --  -88.87876 -10.21589 -10.20734 -10.18902 -10.18564
 Alpha  occ. eigenvalues --  -10.18539 -10.18491 -10.18089 -10.17458  -7.94181
 Alpha  occ. eigenvalues --   -5.90657  -5.90280  -5.89759  -0.82461  -0.80351
 Alpha  occ. eigenvalues --   -0.77562  -0.73364  -0.69201  -0.63552  -0.59984
 Alpha  occ. eigenvalues --   -0.55553  -0.51473  -0.46892  -0.46000  -0.44613
 Alpha  occ. eigenvalues --   -0.43143  -0.43129  -0.42182  -0.38684  -0.37361
 Alpha  occ. eigenvalues --   -0.36395  -0.35307  -0.35003  -0.32950  -0.31602
 Alpha  occ. eigenvalues --   -0.26755  -0.24357  -0.18765
 Alpha virt. eigenvalues --   -0.01437   0.02300   0.04294   0.08053   0.09157
 Alpha virt. eigenvalues --    0.10306   0.10817   0.12610   0.13961   0.14471
 Alpha virt. eigenvalues --    0.15370   0.15744   0.16033   0.17164   0.18127
 Alpha virt. eigenvalues --    0.20138   0.21017   0.24629   0.25190   0.28190
 Alpha virt. eigenvalues --    0.28639   0.31185   0.33823   0.34432   0.36456
 Alpha virt. eigenvalues --    0.38475   0.39383   0.40564   0.43839   0.44677
 Alpha virt. eigenvalues --    0.45598   0.47071   0.49185   0.50163   0.51006
 Alpha virt. eigenvalues --    0.52454   0.52588   0.54119   0.56888   0.57163
 Alpha virt. eigenvalues --    0.59358   0.59571   0.60947   0.61609   0.62170
 Alpha virt. eigenvalues --    0.64139   0.66046   0.67345   0.69007   0.70719
 Alpha virt. eigenvalues --    0.71915   0.72134   0.72751   0.73488   0.74593
 Alpha virt. eigenvalues --    0.75021   0.75262   0.76252   0.77364   0.78202
 Alpha virt. eigenvalues --    0.79042   0.79806   0.80740   0.82405   0.84202
 Alpha virt. eigenvalues --    0.84690   0.85614   0.87641   0.88819   0.90154
 Alpha virt. eigenvalues --    0.92311   0.95997   0.96178   0.98000   0.99855
 Alpha virt. eigenvalues --    1.01110   1.05368   1.06833   1.08951   1.10553
 Alpha virt. eigenvalues --    1.14039   1.15582   1.20853   1.21111   1.22966
 Alpha virt. eigenvalues --    1.26169   1.30544   1.31370   1.32766   1.34133
 Alpha virt. eigenvalues --    1.37725   1.42561   1.44621   1.46598   1.47011
 Alpha virt. eigenvalues --    1.48098   1.49212   1.51212   1.53423   1.55900
 Alpha virt. eigenvalues --    1.56363   1.57011   1.59128   1.62423   1.68490
 Alpha virt. eigenvalues --    1.71163   1.72750   1.73631   1.76250   1.79553
 Alpha virt. eigenvalues --    1.82623   1.83090   1.85771   1.86010   1.88589
 Alpha virt. eigenvalues --    1.90677   1.92214   1.93081   1.93763   1.94736
 Alpha virt. eigenvalues --    1.95741   1.98624   2.10049   2.12308   2.12684
 Alpha virt. eigenvalues --    2.14241   2.15398   2.17035   2.18828   2.24085
 Alpha virt. eigenvalues --    2.25092   2.28003   2.29686   2.31657   2.33262
 Alpha virt. eigenvalues --    2.35202   2.35786   2.39267   2.42041   2.46312
 Alpha virt. eigenvalues --    2.46692   2.47614   2.49500   2.51030   2.55114
 Alpha virt. eigenvalues --    2.56314   2.58334   2.64888   2.72711   2.73505
 Alpha virt. eigenvalues --    2.74791   2.76692   2.77631   2.78064   2.79053
 Alpha virt. eigenvalues --    2.80183   2.82296   2.83872   2.84938   2.85804
 Alpha virt. eigenvalues --    2.88197   2.90425   2.91626   2.93336   2.94588
 Alpha virt. eigenvalues --    2.96560   2.97794   2.98794   3.01613   3.02761
 Alpha virt. eigenvalues --    3.03786   3.05586   3.10978   3.11460   3.12936
 Alpha virt. eigenvalues --    3.16466   3.17659   3.18926   3.22457   3.25872
 Alpha virt. eigenvalues --    3.26424   3.28462   3.30435   3.31812   3.34084
 Alpha virt. eigenvalues --    3.35395   3.37704   3.39662   3.40854   3.44829
 Alpha virt. eigenvalues --    3.46149   3.47935   3.49677   3.50508   3.51071
 Alpha virt. eigenvalues --    3.54683   3.58192   3.59460   3.60042   3.62287
 Alpha virt. eigenvalues --    3.63356   3.63869   3.64995   3.66131   3.72487
 Alpha virt. eigenvalues --    3.74522   3.78677   3.80698   3.85681   3.90650
 Alpha virt. eigenvalues --    3.92351   3.94555   3.95648   3.96389   3.98997
 Alpha virt. eigenvalues --    4.05634   4.07861   4.08532   4.15448   4.25972
 Alpha virt. eigenvalues --    4.28371   4.31608   4.33958   4.35230   4.35626
 Alpha virt. eigenvalues --    4.36531   4.37815   4.39900   4.43395   4.46438
 Alpha virt. eigenvalues --    4.47187   4.47877   4.49633   4.52118   4.55014
 Alpha virt. eigenvalues --    4.58271   4.59992   4.60355   4.61522   4.65476
 Alpha virt. eigenvalues --    4.66287   4.70867   4.71342   4.72636   4.73135
 Alpha virt. eigenvalues --    4.74253   4.75092   4.79321   4.82558   4.84488
 Alpha virt. eigenvalues --    4.89911   4.91514   4.95468   4.98716   5.03461
 Alpha virt. eigenvalues --    5.06350   5.08814   5.15615   5.21797   5.26227
 Alpha virt. eigenvalues --    5.33213   5.37542   5.40635   5.45795   5.56168
 Alpha virt. eigenvalues --    5.60435   5.72649   5.83569   6.19512   6.40507
 Alpha virt. eigenvalues --    9.85021  10.40275  10.93978  11.36764  11.44020
 Alpha virt. eigenvalues --   11.63286  11.89877  12.18957
          Condensed to atoms (all electrons):
               1          2          3          4          5          6
     1  C    4.958604   0.388302  -0.023842  -0.000495  -0.000081  -0.000003
     2  C    0.388302   4.846793   0.387154  -0.021880  -0.002156   0.000247
     3  C   -0.023842   0.387154   5.111446   0.647831  -0.088154  -0.004699
     4  C   -0.000495  -0.021880   0.647831   4.410115   0.639861  -0.019657
     5  C   -0.000081  -0.002156  -0.088154   0.639861   5.035044   0.443500
     6  C   -0.000003   0.000247  -0.004699  -0.019657   0.443500   4.738264
     7  C   -0.000000   0.000001  -0.000029   0.002431  -0.001699   0.632314
     8  S    0.000000  -0.000000  -0.000008  -0.000188   0.003068  -0.041175
     9  C   -0.000000  -0.000000  -0.000000  -0.000000  -0.000051   0.000675
    10  H    0.376494  -0.021112   0.002416  -0.000142  -0.000001   0.000000
    11  H    0.379690  -0.030726  -0.002280   0.000657   0.000003  -0.000000
    12  H    0.379353  -0.029929  -0.002573   0.000685   0.000012   0.000000
    13  H   -0.036092   0.370896  -0.030145  -0.005504   0.000804   0.000094
    14  H   -0.035595   0.367405  -0.030073  -0.004357  -0.000038  -0.000047
    15  H   -0.004957  -0.063744   0.344098  -0.005849   0.000430   0.000170
    16  H    0.000002   0.000025  -0.000016  -0.019327   0.342325  -0.043845
    17  H   -0.000000  -0.000025   0.000912  -0.009137  -0.039450   0.363138
    18  H    0.000000   0.000000   0.000010   0.000765  -0.012438  -0.023776
    19  H    0.000000   0.000000  -0.000000  -0.000000   0.000000  -0.000031
    20  H   -0.000000   0.000000   0.000000   0.000000  -0.000002   0.000164
    21  H    0.000000  -0.000000  -0.000000  -0.000000  -0.000002   0.000150
               7          8          9         10         11         12
     1  C   -0.000000   0.000000  -0.000000   0.376494   0.379690   0.379353
     2  C    0.000001  -0.000000  -0.000000  -0.021112  -0.030726  -0.029929
     3  C   -0.000029  -0.000008  -0.000000   0.002416  -0.002280  -0.002573
     4  C    0.002431  -0.000188  -0.000000  -0.000142   0.000657   0.000685
     5  C   -0.001699   0.003068  -0.000051  -0.000001   0.000003   0.000012
     6  C    0.632314  -0.041175   0.000675   0.000000  -0.000000   0.000000
     7  C    4.896024   0.314120  -0.012443   0.000000   0.000000  -0.000000
     8  S    0.314120  15.664747   0.308587  -0.000000  -0.000000   0.000000
     9  C   -0.012443   0.308587   4.958921   0.000000   0.000000  -0.000000
    10  H    0.000000  -0.000000   0.000000   0.598521  -0.031612  -0.031881
    11  H    0.000000  -0.000000   0.000000  -0.031612   0.595659  -0.033741
    12  H   -0.000000   0.000000  -0.000000  -0.031881  -0.033741   0.596990
    13  H   -0.000005   0.000000  -0.000000  -0.002674  -0.004332   0.005511
    14  H    0.000001  -0.000000   0.000000  -0.002366   0.005581  -0.004566
    15  H    0.000006  -0.000000   0.000000  -0.000036   0.002649   0.002696
    16  H   -0.007892  -0.000098   0.000002  -0.000000   0.000000  -0.000000
    17  H   -0.050763  -0.004977   0.000060  -0.000000   0.000000  -0.000000
    18  H    0.344664  -0.049654  -0.002976   0.000000   0.000000  -0.000000
    19  H    0.001524  -0.029075   0.379599  -0.000000  -0.000000   0.000000
    20  H   -0.001541  -0.043898   0.379882   0.000000  -0.000000  -0.000000
    21  H   -0.001609  -0.043818   0.379981  -0.000000   0.000000   0.000000
              13         14         15         16         17         18
     1  C   -0.036092  -0.035595  -0.004957   0.000002  -0.000000   0.000000
     2  C    0.370896   0.367405  -0.063744   0.000025  -0.000025   0.000000
     3  C   -0.030145  -0.030073   0.344098  -0.000016   0.000912   0.000010
     4  C   -0.005504  -0.004357  -0.005849  -0.019327  -0.009137   0.000765
     5  C    0.000804  -0.000038   0.000430   0.342325  -0.039450  -0.012438
     6  C    0.000094  -0.000047   0.000170  -0.043845   0.363138  -0.023776
     7  C   -0.000005   0.000001   0.000006  -0.007892  -0.050763   0.344664
     8  S    0.000000  -0.000000  -0.000000  -0.000098  -0.004977  -0.049654
     9  C   -0.000000   0.000000   0.000000   0.000002   0.000060  -0.002976
    10  H   -0.002674  -0.002366  -0.000036  -0.000000  -0.000000   0.000000
    11  H   -0.004332   0.005581   0.002649   0.000000   0.000000   0.000000
    12  H    0.005511  -0.004566   0.002696  -0.000000  -0.000000  -0.000000
    13  H    0.616824  -0.036090   0.004377  -0.000044  -0.000016  -0.000000
    14  H   -0.036090   0.621346   0.004461   0.000138   0.000007   0.000000
    15  H    0.004377   0.004461   0.605532  -0.000108  -0.000005   0.000000
    16  H   -0.000044   0.000138  -0.000108   0.612367   0.005734   0.005092
    17  H   -0.000016   0.000007  -0.000005   0.005734   0.628514   0.006894
    18  H   -0.000000   0.000000   0.000000   0.005092   0.006894   0.617724
    19  H    0.000000  -0.000000  -0.000000   0.000000  -0.000001  -0.000088
    20  H   -0.000000  -0.000000  -0.000000  -0.000000   0.000006   0.002187
    21  H    0.000000   0.000000   0.000000   0.000000   0.000006   0.002227
              19         20         21
     1  C    0.000000  -0.000000   0.000000
     2  C    0.000000   0.000000  -0.000000
     3  C   -0.000000   0.000000  -0.000000
     4  C   -0.000000   0.000000  -0.000000
     5  C    0.000000  -0.000002  -0.000002
     6  C   -0.000031   0.000164   0.000150
     7  C    0.001524  -0.001541  -0.001609
     8  S   -0.029075  -0.043898  -0.043818
     9  C    0.379599   0.379882   0.379981
    10  H   -0.000000   0.000000  -0.000000
    11  H   -0.000000  -0.000000   0.000000
    12  H    0.000000  -0.000000   0.000000
    13  H    0.000000  -0.000000   0.000000
    14  H   -0.000000  -0.000000   0.000000
    15  H   -0.000000  -0.000000   0.000000
    16  H    0.000000  -0.000000   0.000000
    17  H   -0.000001   0.000006   0.000006
    18  H   -0.000088   0.002187   0.002227
    19  H    0.549537  -0.027853  -0.027867
    20  H   -0.027853   0.581230  -0.037300
    21  H   -0.027867  -0.037300   0.580965
 Mulliken charges:
               1
     1  C   -0.381380
     2  C   -0.191251
     3  C   -0.312048
     4  C    0.384191
     5  C   -0.320977
     6  C   -0.045482
     7  C   -0.115104
     8  S   -0.077632
     9  C   -0.392236
    10  H    0.112394
    11  H    0.118451
    12  H    0.117443
    13  H    0.116396
    14  H    0.114192
    15  H    0.110280
    16  H    0.105643
    17  H    0.099102
    18  H    0.109369
    19  H    0.154255
    20  H    0.147125
    21  H    0.147267
 Sum of Mulliken charges =  -0.00000
 Mulliken charges with hydrogens summed into heavy atoms:
               1
     1  C   -0.033092
     2  C    0.039337
     3  C   -0.201767
     4  C    0.384191
     5  C   -0.215334
     6  C    0.053621
     7  C   -0.005735
     8  S   -0.077632
     9  C    0.056411
 Electronic spatial extent (au):  <R**2>=           3382.0285
 Charge=              0.0000 electrons
 Dipole moment (field-independent basis, Debye):
    X=              0.6240    Y=              1.0401    Z=              0.6752  Tot=              1.3882
 Quadrupole moment (field-independent basis, Debye-Ang):
   XX=            -48.9110   YY=            -61.8200   ZZ=            -64.1186
   XY=              4.4899   XZ=              2.1188   YZ=              0.9537
 Traceless Quadrupole moment (field-independent basis, Debye-Ang):
   XX=              9.3722   YY=             -3.5368   ZZ=             -5.8354
   XY=              4.4899   XZ=              2.1188   YZ=              0.9537
 Octapole moment (field-independent basis, Debye-Ang**2):
  XXX=             57.5997  YYY=              2.3347  ZZZ=              1.8486  XYY=              2.9275
  XXY=              6.9288  XXZ=              9.1802  XZZ=             -3.0266  YZZ=              0.5567
  YYZ=              1.3822  XYZ=              2.0945
 Hexadecapole moment (field-independent basis, Debye-Ang**3):
 XXXX=          -3849.4213 YYYY=           -238.8585 ZZZZ=           -130.9374 XXXY=              5.8537
 XXXZ=             19.0863 YYYX=             11.8029 YYYZ=              4.7644 ZZZX=              9.0362
 ZZZY=              0.7401 XXYY=           -747.1858 XXZZ=           -726.9199 YYZZ=            -63.0265
 XXYZ=             -5.3005 YYXZ=             -2.4556 ZZXY=              4.9225
 N-N= 4.410144713659D+02 E-N=-2.550220797155D+03  KE= 7.063687015338D+02
 PrsmSu:  requested number of processors reduced to:  13 ShMem   1 Linda.
 Calling FoFJK, ICntrl=      2127 FMM=F ISym2X=0 I1Cent= 0 IOpClX= 0 NMat=1 NMatS=1 NMatT=0.
 ***** Axes restored to original set *****
 -------------------------------------------------------------------
 Center     Atomic                   Forces (Hartrees/Bohr)
 Number     Number              X              Y              Z
 -------------------------------------------------------------------
      1        6          -0.003734589   -0.000752580    0.001731504
      2        6          -0.003774742   -0.001758013    0.005711524
      3        6           0.009566519    0.002737765   -0.006141938
      4        6          -0.012653589    0.004682050    0.002539470
      5        6           0.003244916   -0.004349462   -0.000916304
      6        6           0.005340896    0.000601731   -0.003128969
      7        6          -0.009541517    0.004095189    0.003408308
      8       16           0.004893822   -0.010913904   -0.005224133
      9        6           0.007295792    0.004564353    0.000454356
     10        1          -0.000624584    0.000569357   -0.001140842
     11        1          -0.000371201    0.000556845   -0.000280348
     12        1          -0.000275219   -0.000196080   -0.000687469
     13        1           0.001912404    0.000909121    0.002363395
     14        1           0.002000969   -0.002138067    0.000839655
     15        1          -0.002066417   -0.001301239   -0.002139653
     16        1           0.003554504    0.002018631    0.001489363
     17        1           0.001409321    0.001030312    0.000112347
     18        1           0.001885812   -0.001046757   -0.000868724
     19        1          -0.005436628   -0.000075741    0.001059582
     20        1          -0.001346522    0.000523470    0.000073040
     21        1          -0.001279946    0.000243018    0.000745837
 -------------------------------------------------------------------
 Cartesian Forces:  Max     0.012653589 RMS     0.003823807

 GradGradGradGradGradGradGradGradGradGradGradGradGradGradGradGradGradGrad
 Berny optimization.
 FormGI is forming the generalized inverse of G from B-inverse, IUseBI=4.
 Internal  Forces:  Max     0.013750165 RMS     0.003213532
 Search for a local minimum.
 Step number   1 out of a maximum of   95
 All quantities printed in internal units (Hartrees-Bohrs-Radians)
 Mixed Optimization -- RFO/linear search
 Second derivative matrix not updated -- first step.
 ITU=  0
     Eigenvalues ---    0.00230   0.00230   0.00433   0.00502   0.00694
     Eigenvalues ---    0.00820   0.01150   0.01434   0.02133   0.02253
     Eigenvalues ---    0.02784   0.02784   0.03074   0.04127   0.05491
     Eigenvalues ---    0.05514   0.05648   0.09402   0.09433   0.09960
     Eigenvalues ---    0.12898   0.15998   0.15998   0.16000   0.16000
     Eigenvalues ---    0.16000   0.16000   0.16000   0.16000   0.16000
     Eigenvalues ---    0.16000   0.21999   0.22000   0.22000   0.22000
     Eigenvalues ---    0.22001   0.25000   0.25245   0.29874   0.31368
     Eigenvalues ---    0.31814   0.34032   0.34089   0.34143   0.34147
     Eigenvalues ---    0.34202   0.34224   0.34401   0.34402   0.34822
     Eigenvalues ---    0.35018   0.35241   0.35427   0.38312   0.55571
     Eigenvalues ---    0.65083   0.65874
 RFO step:  Lambda=-5.10898449D-03 EMin= 2.30000000D-03
 Linear search not attempted -- first point.
 Iteration  1 RMS(Cart)=  0.12419753 RMS(Int)=  0.01040332
 Iteration  2 RMS(Cart)=  0.02523673 RMS(Int)=  0.00028091
 Iteration  3 RMS(Cart)=  0.00037471 RMS(Int)=  0.00012332
 Iteration  4 RMS(Cart)=  0.00000007 RMS(Int)=  0.00012332
 Variable       Old X    -DE/DX   Delta X   Delta X   Delta X     New X
                                 (Linear)    (Quad)   (Total)
    R1        2.88215   0.00500   0.00000   0.01647   0.01647   2.89862
    R2        2.07082  -0.00098   0.00000  -0.00284  -0.00284   2.06798
    R3        2.06953   0.00005   0.00000   0.00015   0.00015   2.06968
    R4        2.06991  -0.00004   0.00000  -0.00010  -0.00010   2.06981
    R5        2.84486   0.01013   0.00000   0.03133   0.03133   2.87618
    R6        2.07090   0.00001   0.00000   0.00004   0.00004   2.07094
    R7        2.07180   0.00019   0.00000   0.00054   0.00054   2.07234
    R8        2.46574  -0.00245   0.00000  -0.00369  -0.00369   2.46205
    R9        2.05645   0.00233   0.00000   0.00655   0.00655   2.06300
   R10        2.47131   0.01005   0.00000   0.01532   0.01532   2.48662
   R11        2.73914   0.00381   0.00000   0.00981   0.00981   2.74895
   R12        2.04987   0.00372   0.00000   0.01036   0.01036   2.06024
   R13        2.54628  -0.00350   0.00000  -0.00624  -0.00624   2.54004
   R14        2.05965  -0.00160   0.00000  -0.00453  -0.00453   2.05513
   R15        3.29015   0.00754   0.00000   0.02366   0.02366   3.31381
   R16        2.05286  -0.00004   0.00000  -0.00011  -0.00011   2.05275
   R17        3.42290   0.00057   0.00000   0.00220   0.00220   3.42509
   R18        2.07276  -0.00319   0.00000  -0.00923  -0.00923   2.06353
   R19        2.06657  -0.00037   0.00000  -0.00107  -0.00107   2.06551
   R20        2.06659  -0.00039   0.00000  -0.00112  -0.00112   2.06547
    A1        1.92349   0.00155   0.00000   0.01211   0.01209   1.93557
    A2        1.94324   0.00012   0.00000  -0.00059  -0.00061   1.94263
    A3        1.94465   0.00000   0.00000  -0.00139  -0.00141   1.94324
    A4        1.88103  -0.00056   0.00000  -0.00077  -0.00079   1.88025
    A5        1.88040  -0.00051   0.00000  -0.00059  -0.00061   1.87980
    A6        1.88865  -0.00068   0.00000  -0.00910  -0.00911   1.87954
    A7        1.97699  -0.00241   0.00000  -0.00584  -0.00584   1.97116
    A8        1.89468   0.00168   0.00000   0.01311   0.01310   1.90778
    A9        1.89493   0.00176   0.00000   0.01240   0.01240   1.90733
   A10        1.90407   0.00072   0.00000   0.00480   0.00479   1.90887
   A11        1.91133   0.00046   0.00000   0.00137   0.00137   1.91270
   A12        1.87935  -0.00223   0.00000  -0.02713  -0.02714   1.85221
   A13        2.17357   0.00263   0.00000   0.01168   0.01165   2.18523
   A14        2.04627  -0.00204   0.00000  -0.01015  -0.01015   2.03611
   A15        2.06333  -0.00059   0.00000  -0.00146  -0.00149   2.06184
   A16        2.14010   0.00625   0.00000   0.02788   0.02768   2.16778
   A17        2.06982  -0.00126   0.00000  -0.00238  -0.00259   2.06722
   A18        2.07312  -0.00498   0.00000  -0.02489  -0.02509   2.04802
   A19        2.18324  -0.00347   0.00000  -0.01541  -0.01541   2.16783
   A20        2.01551   0.00246   0.00000   0.01212   0.01212   2.02763
   A21        2.08444   0.00101   0.00000   0.00329   0.00329   2.08772
   A22        2.09335   0.00911   0.00000   0.04046   0.04046   2.13381
   A23        2.11111  -0.00217   0.00000  -0.00579  -0.00579   2.10532
   A24        2.07873  -0.00694   0.00000  -0.03468  -0.03468   2.04405
   A25        1.82531  -0.01375   0.00000  -0.05390  -0.05390   1.77141
   A26        1.89101  -0.00616   0.00000  -0.03797  -0.03809   1.85292
   A27        1.95169  -0.00029   0.00000  -0.00136  -0.00142   1.95027
   A28        1.95207  -0.00041   0.00000  -0.00219  -0.00226   1.94981
   A29        1.87604   0.00312   0.00000   0.01831   0.01820   1.89425
   A30        1.87602   0.00315   0.00000   0.01833   0.01821   1.89423
   A31        1.91370   0.00079   0.00000   0.00596   0.00593   1.91963
   A32        3.16941  -0.00251   0.00000  -0.07663  -0.07623   3.09318
   A33        3.14628   0.00026   0.00000   0.00418   0.00429   3.15056
    D1        3.12839   0.00012   0.00000   0.00416   0.00417   3.13256
    D2        1.01069  -0.00040   0.00000  -0.00740  -0.00740   1.00330
    D3       -1.02768   0.00037   0.00000   0.01090   0.01090  -1.01678
    D4        1.04200  -0.00028   0.00000  -0.00246  -0.00246   1.03953
    D5       -1.07570  -0.00080   0.00000  -0.01402  -0.01403  -1.08973
    D6       -3.11408  -0.00003   0.00000   0.00428   0.00427  -3.10981
    D7       -1.06829   0.00050   0.00000   0.01052   0.01052  -1.05777
    D8        3.09720  -0.00002   0.00000  -0.00104  -0.00104   3.09616
    D9        1.05882   0.00075   0.00000   0.01726   0.01726   1.07608
   D10       -3.11129  -0.00016   0.00000   0.00676   0.00654  -3.10476
   D11        0.03739   0.00015   0.00000  -0.00521  -0.00499   0.03240
   D12       -0.99888   0.00089   0.00000   0.02300   0.02278  -0.97610
   D13        2.14980   0.00120   0.00000   0.01103   0.01125   2.16105
   D14        1.05398  -0.00113   0.00000  -0.00617  -0.00639   1.04759
   D15       -2.08052  -0.00081   0.00000  -0.01814  -0.01792  -2.09844
   D16        1.49865   0.00133   0.00000   0.21458   0.21441   1.71306
   D17       -1.62202   0.00090   0.00000   0.17857   0.17809  -1.44393
   D18       -1.66728   0.00245   0.00000   0.27326   0.27375  -1.39353
   D19        1.49524   0.00202   0.00000   0.23726   0.23743   1.73267
   D20       -3.12234  -0.00025   0.00000  -0.01720  -0.01703  -3.13938
   D21        0.01792  -0.00035   0.00000  -0.02111  -0.02095  -0.00303
   D22        0.00051   0.00035   0.00000   0.02135   0.02119   0.02170
   D23        3.14077   0.00025   0.00000   0.01745   0.01728  -3.12514
   D24        3.14086  -0.00024   0.00000  -0.00795  -0.00796   3.13290
   D25       -0.00017  -0.00010   0.00000  -0.00301  -0.00299  -0.00317
   D26        0.00065  -0.00013   0.00000  -0.00391  -0.00392  -0.00328
   D27       -3.14038   0.00001   0.00000   0.00103   0.00104  -3.13934
   D28        3.14030   0.00018   0.00000   0.00917   0.00914  -3.13375
   D29       -0.00185   0.00005   0.00000   0.00433   0.00435   0.00250
   D30       -3.13992   0.00001   0.00000  -0.00014  -0.00014  -3.14007
   D31        1.07879   0.00025   0.00000   0.00220   0.00213   1.08092
   D32       -1.07526  -0.00027   0.00000  -0.00296  -0.00288  -1.07814
         Item               Value     Threshold  Converged?
 Maximum Force            0.013750     0.000450     NO 
 RMS     Force            0.003214     0.000300     NO 
 Maximum Displacement     0.407915     0.001800     NO 
 RMS     Displacement     0.139440     0.001200     NO 
 Predicted change in Energy=-3.149117D-03
 GradGradGradGradGradGradGradGradGradGradGradGradGradGradGradGradGradGrad

                          Input orientation:                          
 ---------------------------------------------------------------------
 Center     Atomic      Atomic             Coordinates (Angstroms)
 Number     Number       Type             X           Y           Z
 ---------------------------------------------------------------------
      1          6           0        0.901095    0.013148   -0.063403
      2          6           0        2.431997    0.066205    0.016121
      3          6           0        3.078308    0.518296   -1.285575
      4          6           0        4.360932    0.610341   -1.494980
      5          6           0        5.655716    0.642372   -1.727378
      6          6           0        6.387538   -0.403844   -2.424488
      7          6           0        7.710541   -0.372320   -2.659765
      8         16           0        8.543782   -1.669571   -3.495193
      9          6           0       10.252304   -1.064591   -3.488661
     10          1           0        0.472343   -0.323900    0.885345
     11          1           0        0.566923   -0.677891   -0.844628
     12          1           0        0.479264    0.998661   -0.288120
     13          1           0        2.815272   -0.923960    0.287519
     14          1           0        2.729283    0.740863    0.827950
     15          1           0        2.403231    0.779803   -2.102694
     16          1           0        6.221514    1.513083   -1.395210
     17          1           0        5.801899   -1.256081   -2.761289
     18          1           0        8.311551    0.469831   -2.328786
     19          1           0       10.846124   -1.825317   -3.999616
     20          1           0       10.636843   -0.948518   -2.472125
     21          1           0       10.349959   -0.122880   -4.034826
 ---------------------------------------------------------------------
                    Distance matrix (angstroms):
                    1          2          3          4          5
     1  C    0.000000
     2  C    1.533884   0.000000
     3  C    2.547377   1.522010   0.000000
     4  C    3.791639   2.510040   1.302862   0.000000
     5  C    5.076530   3.710003   2.617942   1.315865   0.000000
     6  C    5.987458   4.671597   3.619181   2.449426   1.454680
     7  C    7.297825   5.934282   4.913165   3.679977   2.474117
     8  S    8.545139   7.259212   6.288131   5.166729   4.100143
     9  C   10.016937   8.644038   7.669769   6.441151   5.210035
    10  H    1.094327   2.178986   3.494744   4.654018   5.884502
    11  H    1.095226   2.184735   2.816442   4.059188   5.330869
    12  H    1.095296   2.185224   2.825012   4.083461   5.384614
    13  H    2.159951   1.095893   2.150329   2.814329   3.818551
    14  H    2.160174   1.096636   2.153681   2.841711   3.886311
    15  H    2.646296   2.235940   1.091695   2.056849   3.276951
    16  H    5.685980   4.294852   3.298692   2.070425   1.090229
    17  H    5.736498   4.562749   3.569887   2.676463   2.166672
    18  H    7.762433   6.342763   5.336429   4.040094   2.728537
    19  H   10.852526   9.513228   8.555554   7.366365   6.180039
    20  H   10.075293   8.633685   7.790437   6.540024   5.281780
    21  H   10.250450   8.896068   7.800410   6.546516   5.286382
                    6          7          8          9         10
     6  C    0.000000
     7  C    1.344131   0.000000
     8  S    2.719902   1.753593   0.000000
     9  C    4.062693   2.761678   1.812482   0.000000
    10  H    6.778710   8.059880   9.281599  10.739097   0.000000
    11  H    6.037434   7.376949   8.463995  10.047241   1.768350
    12  H    6.437296   7.732766   9.079716  10.488698   1.768116
    13  H    4.515151   5.740598   6.905120   8.341989   2.491341
    14  H    5.027080   6.181931   7.635978   8.859382   2.496156
    15  H    4.168845   5.459419   6.756098   8.181115   3.724898
    16  H    2.182106   2.714968   4.464543   5.222472   6.452008
    17  H    1.087527   2.105767   2.868364   4.513518   6.524651
    18  H    2.115253   1.086268   2.447750   2.732451   8.509631
    19  H    4.937672   3.706518   2.362091   1.091971  11.564273
    20  H    4.284336   2.988387   2.438747   1.093018  10.722864
    21  H    4.286363   2.986559   2.438386   1.093001  11.037019
                   11         12         13         14         15
    11  H    0.000000
    12  H    1.768675   0.000000
    13  H    2.529304   3.079734   0.000000
    14  H    3.079965   2.524808   1.752454   0.000000
    15  H    2.660758   2.653720   2.964069   2.948983   0.000000
    16  H    6.089163   5.870580   4.513673   4.211228   3.951900
    17  H    5.604718   6.287358   4.280827   5.129463   4.016157
    18  H    7.968641   8.111023   6.244741   6.418734   5.920763
    19  H   10.813533  11.367578   9.148036   9.786408   9.037001
    20  H   10.204179  10.570610   8.294168   8.733499   8.421160
    21  H   10.305008  10.617263   8.723297   9.081153   8.227906
                   16         17         18         19         20
    16  H    0.000000
    17  H    3.116171   0.000000
    18  H    2.515590   3.076391   0.000000
    19  H    6.270156   5.225101   3.805711   0.000000
    20  H    5.168594   4.853339   2.727498   1.773641   0.000000
    21  H    5.166043   4.857045   2.723415   1.773615   1.790535
                   21
    21  H    0.000000
 Stoichiometry    C8H12S
 Framework group  C1[X(C8H12S)]
 Deg. of freedom    57
 Full point group                 C1      NOp   1
 Largest Abelian subgroup         C1      NOp   1
 Largest concise Abelian subgroup C1      NOp   1
                         Standard orientation:                         
 ---------------------------------------------------------------------
 Center     Atomic      Atomic             Coordinates (Angstroms)
 Number     Number       Type             X           Y           Z
 ---------------------------------------------------------------------
      1          6           0       -5.279018   -0.598781    0.055971
      2          6           0       -3.931690   -0.119053    0.610378
      3          6           0       -2.932387    0.233642   -0.482103
      4          6           0       -1.707033    0.627708   -0.280436
      5          6           0       -0.450924    0.964049   -0.079029
      6          6           0        0.669284    0.041834   -0.182698
      7          6           0        1.952158    0.384787    0.025410
      8         16           0        3.262896   -0.773257   -0.101037
      9          6           0        4.698121    0.261338    0.292454
     10          1           0       -5.967641   -0.851502    0.868057
     11          1           0       -5.157703   -1.490572   -0.568136
     12          1           0       -5.755781    0.173875   -0.556707
     13          1           0       -3.506814   -0.897613    1.254045
     14          1           0       -4.095105    0.753147    1.254717
     15          1           0       -3.280454    0.141408   -1.512704
     16          1           0       -0.223986    2.002228    0.164454
     17          1           0        0.422755   -0.985171   -0.441922
     18          1           0        2.216679    1.405325    0.287148
     19          1           0        5.570111   -0.393299    0.233427
     20          1           0        4.637848    0.669274    1.304702
     21          1           0        4.822682    1.071864   -0.430169
 ---------------------------------------------------------------------
 Rotational constants (GHZ):           6.7528402           0.3253481           0.3178723
 Standard basis: 6-31G(2df,p) (6D, 7F)
 There are   343 symmetry adapted cartesian basis functions of A   symmetry.
 There are   316 symmetry adapted basis functions of A   symmetry.
   316 basis functions,   504 primitive gaussians,   343 cartesian basis functions
    38 alpha electrons       38 beta electrons
       nuclear repulsion energy       439.2875561581 Hartrees.
 NAtoms=   21 NActive=   21 NUniq=   21 SFac= 1.00D+00 NAtFMM=   60 NAOKFM=F Big=F
 Integral buffers will be    131072 words long.
 Raffenetti 2 integral format.
 Two-electron integral symmetry is turned on.
 One-electron integrals computed using PRISM.
 PrsmSu:  requested number of processors reduced to:  13 ShMem   1 Linda.
 NBasis=   316 RedAO= T EigKep=  2.35D-04  NBF=   316
 NBsUse=   316 1.00D-06 EigRej= -1.00D+00 NBFU=   316
 Initial guess from the checkpoint file:  "CCCdCdCCdCSC.chk"
 B after Tr=    -0.000000   -0.000000   -0.000000
         Rot=    0.996590    0.082502    0.001448   -0.000457 Ang=   9.47 deg.
 ExpMin= 1.17D-01 ExpMax= 2.19D+04 ExpMxC= 3.30D+03 IAcc=2 IRadAn=         4 AccDes= 0.00D+00
 Harris functional with IExCor=  402 and IRadAn=       4 diagonalized for initial guess.
 HarFok:  IExCor=  402 AccDes= 0.00D+00 IRadAn=         4 IDoV= 1 UseB2=F ITyADJ=14
 ICtDFT=  3500011 ScaDFX=  1.000000  1.000000  1.000000  1.000000
 FoFCou: FMM=F IPFlag=           0 FMFlag=      100000 FMFlg1=           0
         NFxFlg=           0 DoJE=T BraDBF=F KetDBF=T FulRan=T
         wScrn=  0.000000 ICntrl=       500 IOpCl=  0 I1Cent=   200000004 NGrid=           0
         NMat0=    1 NMatS0=      1 NMatT0=    0 NMatD0=    1 NMtDS0=    0 NMtDT0=    0
 Petite list used in FoFCou.
 Requested convergence on RMS density matrix=1.00D-08 within 128 cycles.
 Requested convergence on MAX density matrix=1.00D-06.
 Requested convergence on             energy=1.00D-06.
 No special actions if energy rises.
 Integral accuracy reduced to 1.0D-05 until final iterations.
 Initial convergence to 1.0D-05 achieved.  Increase integral accuracy.
 SCF Done:  E(RB3LYP) =  -710.223270749     A.U. after   12 cycles
            NFock= 12  Conv=0.10D-07     -V/T= 2.0056
 PrsmSu:  requested number of processors reduced to:  13 ShMem   1 Linda.
 Calling FoFJK, ICntrl=      2127 FMM=F ISym2X=0 I1Cent= 0 IOpClX= 0 NMat=1 NMatS=1 NMatT=0.
 ***** Axes restored to original set *****
 -------------------------------------------------------------------
 Center     Atomic                   Forces (Hartrees/Bohr)
 Number     Number              X              Y              Z
 -------------------------------------------------------------------
      1        6           0.000462815   -0.000039654    0.000034120
      2        6          -0.002516240   -0.003082205   -0.000369523
      3        6           0.001791337    0.000783305   -0.000262287
      4        6           0.000536779   -0.003297871   -0.000959453
      5        6          -0.001982069    0.001646254   -0.000474893
      6        6           0.001311884   -0.001128957    0.003773437
      7        6          -0.005555096    0.000539010    0.001663064
      8       16           0.000875416   -0.001119255   -0.001037752
      9        6           0.003828504    0.001107621   -0.000341504
     10        1           0.000187234    0.000081363   -0.000151550
     11        1           0.000205943    0.000022262   -0.000121518
     12        1           0.000289560    0.000083030   -0.000245637
     13        1           0.000552201   -0.000128361    0.000727608
     14        1           0.000516363    0.000002396   -0.000708691
     15        1          -0.000756938    0.004103849    0.001721027
     16        1           0.000522863    0.001316172   -0.002796370
     17        1           0.000054890    0.000101355    0.000011068
     18        1           0.001544546   -0.000569968   -0.000582127
     19        1          -0.000065817   -0.000042505   -0.000012465
     20        1          -0.000987775   -0.000080490   -0.000135225
     21        1          -0.000816398   -0.000297351    0.000268673
 -------------------------------------------------------------------
 Cartesian Forces:  Max     0.005555096 RMS     0.001523693

 GradGradGradGradGradGradGradGradGradGradGradGradGradGradGradGradGradGrad
 Berny optimization.
 Using GEDIIS/GDIIS optimizer.
 FormGI is forming the generalized inverse of G from B-inverse, IUseBI=4.
 Internal  Forces:  Max     0.004368825 RMS     0.001266812
 Search for a local minimum.
 Step number   2 out of a maximum of   95
 All quantities printed in internal units (Hartrees-Bohrs-Radians)
 Mixed Optimization -- RFO/linear search
 Update second derivatives using D2CorX and points    1    2
 DE= -1.17D-03 DEPred=-3.15D-03 R= 3.72D-01
 Trust test= 3.72D-01 RLast= 4.82D-01 DXMaxT set to 3.00D-01
 ITU=  0  0
 Use linear search instead of GDIIS.
     Eigenvalues ---    0.00230   0.00433   0.00486   0.00690   0.00703
     Eigenvalues ---    0.00903   0.01155   0.01434   0.02133   0.02266
     Eigenvalues ---    0.02784   0.03056   0.03389   0.04079   0.05306
     Eigenvalues ---    0.05502   0.05558   0.09025   0.09469   0.10198
     Eigenvalues ---    0.11189   0.12944   0.15996   0.15999   0.16000
     Eigenvalues ---    0.16000   0.16000   0.16000   0.16000   0.16000
     Eigenvalues ---    0.16204   0.17855   0.21932   0.21998   0.22000
     Eigenvalues ---    0.22074   0.24242   0.25344   0.29765   0.30524
     Eigenvalues ---    0.31678   0.33984   0.34093   0.34143   0.34148
     Eigenvalues ---    0.34202   0.34224   0.34401   0.34404   0.34805
     Eigenvalues ---    0.34987   0.35242   0.35351   0.38276   0.55386
     Eigenvalues ---    0.64424   0.65847
 RFO step:  Lambda=-3.94773550D-03 EMin= 2.29998582D-03
 Quartic linear search produced a step of -0.35112.
 Iteration  1 RMS(Cart)=  0.14307098 RMS(Int)=  0.01926771
 Iteration  2 RMS(Cart)=  0.04132971 RMS(Int)=  0.00076108
 Iteration  3 RMS(Cart)=  0.00095006 RMS(Int)=  0.00008549
 Iteration  4 RMS(Cart)=  0.00000075 RMS(Int)=  0.00008549
 Variable       Old X    -DE/DX   Delta X   Delta X   Delta X     New X
                                 (Linear)    (Quad)   (Total)
    R1        2.89862  -0.00112  -0.00578   0.02301   0.01723   2.91585
    R2        2.06798  -0.00023   0.00100  -0.00492  -0.00392   2.06406
    R3        2.06968   0.00001  -0.00005   0.00025   0.00020   2.06988
    R4        2.06981   0.00001   0.00004  -0.00013  -0.00010   2.06971
    R5        2.87618   0.00032  -0.01100   0.04964   0.03864   2.91482
    R6        2.07094   0.00049  -0.00001   0.00108   0.00107   2.07201
    R7        2.07234  -0.00038  -0.00019   0.00004  -0.00015   2.07219
    R8        2.46205  -0.00076   0.00129  -0.00660  -0.00531   2.45674
    R9        2.06300   0.00016  -0.00230   0.01057   0.00827   2.07127
   R10        2.48662  -0.00127  -0.00538   0.02263   0.01725   2.50388
   R11        2.74895  -0.00056  -0.00344   0.01429   0.01084   2.75979
   R12        2.06024   0.00047  -0.00364   0.01715   0.01351   2.07374
   R13        2.54004  -0.00114   0.00219  -0.01126  -0.00907   2.53097
   R14        2.05513  -0.00011   0.00159  -0.00731  -0.00572   2.04941
   R15        3.31381   0.00227  -0.00831   0.04210   0.03379   3.34760
   R16        2.05275   0.00024   0.00004   0.00030   0.00034   2.05309
   R17        3.42509   0.00208  -0.00077   0.00928   0.00851   3.43360
   R18        2.06353  -0.00000   0.00324  -0.01443  -0.01118   2.05234
   R19        2.06551  -0.00048   0.00038  -0.00267  -0.00230   2.06321
   R20        2.06547  -0.00046   0.00039  -0.00272  -0.00232   2.06315
    A1        1.93557   0.00002  -0.00424   0.01905   0.01479   1.95036
    A2        1.94263  -0.00025   0.00021  -0.00221  -0.00203   1.94060
    A3        1.94324  -0.00039   0.00049  -0.00404  -0.00357   1.93967
    A4        1.88025   0.00019   0.00028  -0.00016   0.00010   1.88035
    A5        1.87980   0.00027   0.00021   0.00050   0.00070   1.88049
    A6        1.87954   0.00019   0.00320  -0.01382  -0.01066   1.86888
    A7        1.97116  -0.00114   0.00205  -0.01305  -0.01097   1.96018
    A8        1.90778   0.00044  -0.00460   0.02390   0.01928   1.92706
    A9        1.90733   0.00094  -0.00435   0.02224   0.01788   1.92521
   A10        1.90887   0.00065  -0.00168   0.01136   0.00968   1.91854
   A11        1.91270  -0.00044  -0.00048  -0.00371  -0.00414   1.90855
   A12        1.85221  -0.00040   0.00953  -0.04259  -0.03311   1.81910
   A13        2.18523   0.00048  -0.00409   0.01964   0.01552   2.20074
   A14        2.03611  -0.00114   0.00356  -0.02039  -0.01687   2.01925
   A15        2.06184   0.00066   0.00052   0.00080   0.00129   2.06313
   A16        2.16778   0.00118  -0.00972   0.04679   0.03715   2.20493
   A17        2.06722   0.00037   0.00091  -0.00189  -0.00091   2.06631
   A18        2.04802  -0.00155   0.00881  -0.04517  -0.03629   2.01173
   A19        2.16783  -0.00222   0.00541  -0.03114  -0.02574   2.14209
   A20        2.02763   0.00111  -0.00425   0.02241   0.01815   2.04577
   A21        2.08772   0.00111  -0.00115   0.00876   0.00760   2.09532
   A22        2.13381   0.00437  -0.01421   0.07703   0.06282   2.19663
   A23        2.10532  -0.00041   0.00203  -0.00831  -0.00629   2.09903
   A24        2.04405  -0.00396   0.01218  -0.06869  -0.05652   1.98752
   A25        1.77141  -0.00131   0.01892  -0.08767  -0.06875   1.70266
   A26        1.85292   0.00043   0.01337  -0.05632  -0.04313   1.80979
   A27        1.95027  -0.00113   0.00050  -0.00779  -0.00741   1.94286
   A28        1.94981  -0.00097   0.00079  -0.00832  -0.00764   1.94217
   A29        1.89425   0.00061  -0.00639   0.03150   0.02493   1.91917
   A30        1.89423   0.00057  -0.00639   0.03141   0.02483   1.91906
   A31        1.91963   0.00057  -0.00208   0.01015   0.00799   1.92762
   A32        3.09318   0.00371   0.02677  -0.02169   0.00480   3.09798
   A33        3.15056  -0.00048  -0.00150  -0.00206  -0.00363   3.14694
    D1        3.13256   0.00038  -0.00146   0.01245   0.01101  -3.13962
    D2        1.00330   0.00000   0.00260  -0.01041  -0.00780   0.99550
    D3       -1.01678  -0.00029  -0.00383   0.01485   0.01100  -1.00578
    D4        1.03953   0.00029   0.00086   0.00136   0.00225   1.04178
    D5       -1.08973  -0.00009   0.00492  -0.02150  -0.01656  -1.10629
    D6       -3.10981  -0.00038  -0.00150   0.00376   0.00224  -3.10757
    D7       -1.05777   0.00048  -0.00369   0.02316   0.01947  -1.03829
    D8        3.09616   0.00010   0.00037   0.00030   0.00067   3.09683
    D9        1.07608  -0.00019  -0.00606   0.02556   0.01947   1.09555
   D10       -3.10476   0.00039  -0.00230   0.00305   0.00092  -3.10384
   D11        0.03240  -0.00012   0.00175   0.01654   0.01816   0.05055
   D12       -0.97610   0.00064  -0.00800   0.03296   0.02511  -0.95100
   D13        2.16105   0.00013  -0.00395   0.04645   0.04235   2.20340
   D14        1.04759   0.00028   0.00224  -0.01388  -0.01150   1.03609
   D15       -2.09844  -0.00023   0.00629  -0.00040   0.00574  -2.09270
   D16        1.71306  -0.00258  -0.07528  -0.18872  -0.26382   1.44924
   D17       -1.44393  -0.00222  -0.06253  -0.20689  -0.26917  -1.71310
   D18       -1.39353  -0.00434  -0.09612  -0.18820  -0.28457  -1.67811
   D19        1.73267  -0.00398  -0.08336  -0.20638  -0.28992   1.44275
   D20       -3.13938  -0.00011   0.00598  -0.01903  -0.01310   3.13071
   D21       -0.00303   0.00034   0.00736  -0.01166  -0.00433  -0.00736
   D22        0.02170  -0.00071  -0.00744  -0.00253  -0.00995   0.01175
   D23       -3.12514  -0.00026  -0.00607   0.00484  -0.00117  -3.12631
   D24        3.13290   0.00073   0.00279   0.00792   0.01074  -3.13955
   D25       -0.00317   0.00023   0.00105   0.00115   0.00215  -0.00102
   D26       -0.00328   0.00027   0.00138   0.00028   0.00170  -0.00158
   D27       -3.13934  -0.00023  -0.00037  -0.00650  -0.00689   3.13695
   D28       -3.13375  -0.00051  -0.00321  -0.00696  -0.01010   3.13934
   D29        0.00250  -0.00001  -0.00153  -0.00026  -0.00186   0.00064
   D30       -3.14007  -0.00003   0.00005  -0.00202  -0.00197   3.14115
   D31        1.08092  -0.00041  -0.00075  -0.00156  -0.00240   1.07852
   D32       -1.07814   0.00040   0.00101  -0.00284  -0.00173  -1.07987
         Item               Value     Threshold  Converged?
 Maximum Force            0.004369     0.000450     NO 
 RMS     Force            0.001267     0.000300     NO 
 Maximum Displacement     0.487654     0.001800     NO 
 RMS     Displacement     0.170923     0.001200     NO 
 Predicted change in Energy=-2.866720D-03
 GradGradGradGradGradGradGradGradGradGradGradGradGradGradGradGradGradGrad

                          Input orientation:                          
 ---------------------------------------------------------------------
 Center     Atomic      Atomic             Coordinates (Angstroms)
 Number     Number       Type             X           Y           Z
 ---------------------------------------------------------------------
      1          6           0        0.898472    0.086199   -0.036789
      2          6           0        2.438195   -0.007562   -0.000593
      3          6           0        3.090269    0.573647   -1.271879
      4          6           0        4.362467    0.595289   -1.538666
      5          6           0        5.655622    0.561320   -1.825382
      6          6           0        6.381167   -0.558539   -2.418946
      7          6           0        7.691815   -0.509968   -2.690346
      8         16           0        8.651495   -1.813527   -3.409982
      9          6           0       10.249653   -0.949332   -3.432232
     10          1           0        0.446543   -0.325912    0.868163
     11          1           0        0.488593   -0.460218   -0.893047
     12          1           0        0.568271    1.126230   -0.130950
     13          1           0        2.754778   -1.047933    0.139506
     14          1           0        2.830639    0.514494    0.880250
     15          1           0        2.400527    1.014929   -2.000507
     16          1           0        6.258096    1.456475   -1.625479
     17          1           0        5.812916   -1.454595   -2.643266
     18          1           0        8.263537    0.387474   -2.471024
     19          1           0       10.929426   -1.677047   -3.865646
     20          1           0       10.574982   -0.690463   -2.422687
     21          1           0       10.208956   -0.057231   -4.060296
 ---------------------------------------------------------------------
                    Distance matrix (angstroms):
                    1          2          3          4          5
     1  C    0.000000
     2  C    1.542999   0.000000
     3  C    2.562621   1.542456   0.000000
     4  C    3.809733   2.536123   1.300051   0.000000
     5  C    5.104437   3.742368   2.624415   1.324994   0.000000
     6  C    6.012512   4.658223   3.664372   2.486235   1.460417
     7  C    7.317533   5.923488   4.935635   3.692224   2.458028
     8  S    8.665839   7.313723   6.418514   5.263077   4.138371
     9  C   10.002297   8.583819   7.631734   6.374198   5.095994
    10  H    1.092251   2.196078   3.518277   4.687846   5.931009
    11  H    1.095331   2.191419   2.825085   4.066672   5.348923
    12  H    1.095245   2.190683   2.822683   4.081603   5.391787
    13  H    2.182477   1.096460   2.175795   2.846244   3.855564
    14  H    2.181207   1.096558   2.168540   2.864294   3.911926
    15  H    2.641003   2.246455   1.096071   2.058787   3.291212
    16  H    5.755620   4.401738   3.307499   2.083887   1.097378
    17  H    5.772307   4.523977   3.661594   2.743350   2.181190
    18  H    7.762760   6.339850   5.313691   4.016320   2.692266
    19  H   10.880681   9.477702   8.558367   7.328254   6.081610
    20  H    9.996527   8.517054   7.677452   6.405466   5.111148
    21  H   10.143683   8.767462   7.671309   6.400456   5.109824
                    6          7          8          9         10
     6  C    0.000000
     7  C    1.339333   0.000000
     8  S    2.776965   1.771476   0.000000
     9  C    4.018040   2.699254   1.816985   0.000000
    10  H    6.788149   8.074083   9.372127  10.723013   0.000000
    11  H    6.087731   7.424228   8.648664  10.097771   1.766823
    12  H    6.470173   7.744193   9.205039  10.437221   1.766850
    13  H    4.464962   5.715925   6.925047   8.303023   2.525906
    14  H    4.964106   6.117983   7.596588   8.705289   2.527912
    15  H    4.300743   5.549677   7.004383   8.216869   3.720910
    16  H    2.169106   2.656387   4.427835   4.998479   6.570335
    17  H    1.084502   2.103520   2.962131   4.534577   6.511683
    18  H    2.107361   1.086449   2.424161   2.579850   8.530210
    19  H    4.902108   3.636693   2.327064   1.086052  11.581250
    20  H    4.195891   2.901185   2.436355   1.091802  10.655884
    21  H    4.194915   2.901333   2.435809   1.091772  10.939223
                   11         12         13         14         15
    11  H    0.000000
    12  H    1.761805   0.000000
    13  H    2.558743   3.095309   0.000000
    14  H    3.095129   2.552460   1.730791   0.000000
    15  H    2.656693   2.620075   2.993417   2.955366   0.000000
    16  H    6.123506   5.892095   4.654081   4.348962   3.900826
    17  H    5.692141   6.362286   4.154684   5.018611   4.260996
    18  H    7.978618   8.077056   6.262722   6.384635   5.915232
    19  H   10.923737  11.364852   9.124796   9.639333   9.136061
    20  H   10.204316  10.425291   8.237003   8.505067   8.361119
    21  H   10.231292  10.477746   8.613049   8.898058   8.146400
                   16         17         18         19         20
    16  H    0.000000
    17  H    3.115831   0.000000
    18  H    2.424769   3.070575   0.000000
    19  H    6.054638   5.265204   3.648861   0.000000
    20  H    4.886757   4.828025   2.550895   1.783567   0.000000
    21  H    4.881489   4.825533   2.551118   1.783471   1.793522
                   21
    21  H    0.000000
 Stoichiometry    C8H12S
 Framework group  C1[X(C8H12S)]
 Deg. of freedom    57
 Full point group                 C1      NOp   1
 Largest Abelian subgroup         C1      NOp   1
 Largest concise Abelian subgroup C1      NOp   1
                         Standard orientation:                         
 ---------------------------------------------------------------------
 Center     Atomic      Atomic             Coordinates (Angstroms)
 Number     Number       Type             X           Y           Z
 ---------------------------------------------------------------------
      1          6           0       -5.323543   -0.530740    0.004548
      2          6           0       -3.921293   -0.272824    0.594481
      3          6           0       -2.965938    0.375553   -0.428298
      4          6           0       -1.715542    0.670108   -0.228600
      5          6           0       -0.428054    0.914278   -0.032727
      6          6           0        0.666177   -0.041559   -0.180552
      7          6           0        1.948055    0.287635    0.024960
      8         16           0        3.337004   -0.800478   -0.133017
      9          6           0        4.631035    0.399681    0.298881
     10          1           0       -5.992796   -0.987947    0.736720
     11          1           0       -5.271665   -1.198041   -0.862497
     12          1           0       -5.786943    0.401889   -0.334606
     13          1           0       -3.487335   -1.206537    0.971422
     14          1           0       -3.993519    0.368084    1.481307
     15          1           0       -3.404532    0.612520   -1.404440
     16          1           0       -0.126781    1.931181    0.249018
     17          1           0        0.405258   -1.052852   -0.472706
     18          1           0        2.213726    1.300807    0.313529
     19          1           0        5.548998   -0.176871    0.232253
     20          1           0        4.500147    0.775889    1.315428
     21          1           0        4.657988    1.226737   -0.413312
 ---------------------------------------------------------------------
 Rotational constants (GHZ):           6.6666355           0.3227581           0.3147550
 Standard basis: 6-31G(2df,p) (6D, 7F)
 There are   343 symmetry adapted cartesian basis functions of A   symmetry.
 There are   316 symmetry adapted basis functions of A   symmetry.
   316 basis functions,   504 primitive gaussians,   343 cartesian basis functions
    38 alpha electrons       38 beta electrons
       nuclear repulsion energy       437.7003624596 Hartrees.
 NAtoms=   21 NActive=   21 NUniq=   21 SFac= 1.00D+00 NAtFMM=   60 NAOKFM=F Big=F
 Integral buffers will be    131072 words long.
 Raffenetti 2 integral format.
 Two-electron integral symmetry is turned on.
 One-electron integrals computed using PRISM.
 PrsmSu:  requested number of processors reduced to:  13 ShMem   1 Linda.
 NBasis=   316 RedAO= T EigKep=  2.27D-04  NBF=   316
 NBsUse=   316 1.00D-06 EigRej= -1.00D+00 NBFU=   316
 Initial guess from the checkpoint file:  "CCCdCdCCdCSC.chk"
 B after Tr=     0.000000    0.000000   -0.000000
         Rot=    0.998678   -0.051391   -0.000233   -0.000900 Ang=  -5.89 deg.
 ExpMin= 1.17D-01 ExpMax= 2.19D+04 ExpMxC= 3.30D+03 IAcc=2 IRadAn=         4 AccDes= 0.00D+00
 Harris functional with IExCor=  402 and IRadAn=       4 diagonalized for initial guess.
 HarFok:  IExCor=  402 AccDes= 0.00D+00 IRadAn=         4 IDoV= 1 UseB2=F ITyADJ=14
 ICtDFT=  3500011 ScaDFX=  1.000000  1.000000  1.000000  1.000000
 FoFCou: FMM=F IPFlag=           0 FMFlag=      100000 FMFlg1=           0
         NFxFlg=           0 DoJE=T BraDBF=F KetDBF=T FulRan=T
         wScrn=  0.000000 ICntrl=       500 IOpCl=  0 I1Cent=   200000004 NGrid=           0
         NMat0=    1 NMatS0=      1 NMatT0=    0 NMatD0=    1 NMtDS0=    0 NMtDT0=    0
 Petite list used in FoFCou.
 Requested convergence on RMS density matrix=1.00D-08 within 128 cycles.
 Requested convergence on MAX density matrix=1.00D-06.
 Requested convergence on             energy=1.00D-06.
 No special actions if energy rises.
 Integral accuracy reduced to 1.0D-05 until final iterations.
 Initial convergence to 1.0D-05 achieved.  Increase integral accuracy.
 SCF Done:  E(RB3LYP) =  -710.222369601     A.U. after   13 cycles
            NFock= 13  Conv=0.59D-08     -V/T= 2.0057
 PrsmSu:  requested number of processors reduced to:  13 ShMem   1 Linda.
 Calling FoFJK, ICntrl=      2127 FMM=F ISym2X=0 I1Cent= 0 IOpClX= 0 NMat=1 NMatS=1 NMatT=0.
 ***** Axes restored to original set *****
 -------------------------------------------------------------------
 Center     Atomic                   Forces (Hartrees/Bohr)
 Number     Number              X              Y              Z
 -------------------------------------------------------------------
      1        6           0.005173088    0.000528825   -0.001856959
      2        6           0.000341961    0.005123381   -0.002953596
      3        6          -0.007556734   -0.001448468    0.005538210
      4        6           0.014721006   -0.005116825   -0.003976427
      5        6          -0.006403047    0.004249536    0.001865742
      6        6          -0.005594532    0.002574208   -0.000764268
      7        6           0.001485517   -0.003052872   -0.001683665
      8       16          -0.005576066    0.009046955    0.004913213
[...]
 01113,-0.00026168,0.00005516,0.00001784,0.00003964,-0.00008056,0.00005
 873,0.00001123,0.00003699,0.00004103,0.00004060,0.05802066,0.08363837,
 0.11051650,0.07030508,-0.19865590,-0.00817908,-0.00579227,0.00983154,-
 0.00150484,-0.00122179,-0.00028271,-0.00041209,-0.00014410,0.00059344,
 -0.00003185,0.00014404,0.00003676,-0.00003006,0.00006399,-0.00018551,-
 0.00002989,0.00004365,0.00003321,0.00000748,-0.00002902,0.00000049,-0.
 00000535,0.00000115,0.00001096,-0.11979002,-0.07595812,0.21383559,-0.0
 8911833,0.08274961,0.05315569,0.00923829,-0.02104921,-0.01266947,0.002
 08870,0.00042854,-0.00084477,-0.00022864,0.00051489,0.00002612,-0.0000
 4589,-0.00001377,-0.00002004,0.00000357,-0.00001429,0.00000732,-0.0000
 3590,0.00003137,0.00000896,0.00002999,-0.00003458,-0.00000346,-0.00001
 770,-0.00001449,-0.00001193,-0.00731695,0.01373361,0.00713658,0.095484
 08,0.08133156,-0.20364589,-0.09983833,0.00692450,-0.01611895,-0.009547
 84,0.00170557,0.00100510,-0.00037431,-0.00065166,0.00024268,0.00041123
 ,0.00002760,-0.00004121,-0.00002641,-0.00007728,-0.00010463,-0.0000145
 5,0.00000749,0.00004213,0.00002938,-0.00000681,0.00001000,-0.00000086,
 -0.00000402,-0.00000204,0.00000875,-0.00481664,0.01005403,0.00611049,-
 0.08697553,0.22145997,0.05238045,-0.10014282,-0.11230684,0.00439377,-0
 .00926501,-0.00659504,-0.00006073,0.00109761,0.00036165,-0.00001123,-0
 .00009386,0.00029158,-0.00005589,-0.00003871,-0.00006564,-0.00005256,-
 0.00009488,0.00003459,0.00002377,-0.00000064,0.00000246,-0.00003888,0.
 00004158,0.00000270,0.00000771,0.00001359,0.00001279,0.00924990,-0.019
 48334,-0.01178123,-0.05574529,0.11253232,0.11906422,-0.13984739,0.0790
 9459,-0.09589079,-0.01600447,0.01221675,-0.01516346,0.00111813,0.00154
 839,-0.00078256,0.00006343,-0.00014794,0.00042841,0.00005329,-0.000133
 65,-0.00002659,0.00005299,0.00001776,-0.00003279,-0.00000733,-0.000015
 97,-0.00000060,0.00000649,-0.00000100,0.00000246,0.00000526,0.00000118
 ,0.00000052,0.01167577,-0.00948064,0.01119097,-0.00801458,0.00623197,-
 0.00812183,0.15261677,0.07980827,-0.11431136,0.08229428,-0.01358172,0.
 01081071,-0.01366473,0.00049083,0.00119584,-0.00055092,0.00001664,0.00
 002651,-0.00000517,0.00001916,-0.00008299,-0.00001600,0.00003845,-0.00
 002874,0.00001074,-0.00001249,0.00001285,0.00000110,0.00000769,-0.0000
 0836,-0.00000484,-0.00000889,-0.00000601,-0.00000120,0.00674231,-0.006
 28208,0.00566926,0.01392787,-0.01255165,0.01656411,-0.08470988,0.12209
 588,-0.09622141,0.08184130,-0.14728899,-0.00723952,0.00566607,-0.00832
 326,0.00098694,-0.00016566,0.00058060,0.00012737,-0.00013528,0.0002030
 8,0.00000879,-0.00002897,-0.00003563,-0.00002970,-0.00001823,-0.000038
 08,0.00002523,-0.00001465,0.00000591,-0.00002731,0.00003043,0.00000364
 ,0.00001644,0.00001294,0.00001128,-0.01536880,0.01225898,-0.01491749,0
 .01043397,-0.00824698,0.01079829,0.10880236,-0.08916937,0.15823416,-0.
 01527459,0.01167806,-0.01466267,-0.14078880,0.08273660,-0.09703972,0.0
 0985670,-0.01082295,0.01329040,0.00187745,-0.00063633,0.00017179,-0.00
 014032,0.00013655,-0.00013570,0.00000222,0.00003099,0.00005183,-0.0000
 2968,0.00001247,-0.00000437,0.00003817,-0.00004990,0.00000216,-0.00002
 097,-0.00001071,-0.00001750,0.00034272,0.00036121,0.00063187,0.0012833
 5,-0.00009813,0.00037993,-0.00259691,-0.00381001,-0.00139721,0.1551041
 9,-0.01383358,0.01064146,-0.01382030,0.08141998,-0.11752155,0.08240412
 ,0.00675504,-0.00774431,0.00835494,0.00096403,0.00028638,-0.00102001,-
 0.00045558,0.00010875,-0.00012782,-0.00002430,-0.00007907,-0.00001171,
 -0.00001490,0.00000766,0.00000928,-0.00002396,0.00001931,-0.00000244,0
 .00001123,0.00001183,0.00000779,0.00083995,0.00075126,0.00045950,0.000
 78418,0.00108155,0.00019562,-0.00383653,-0.00195641,-0.00196675,-0.084
 65412,0.12636038,-0.00738002,0.00515011,-0.00706536,-0.09395792,0.0812
 6790,-0.14612778,-0.01284458,0.01385765,-0.01686068,-0.00233050,-0.000
 44732,0.00112947,0.00068486,-0.00037361,0.00008074,0.00006313,0.000072
 11,0.00008780,0.00007240,-0.00007118,-0.00003039,-0.00000109,0.0000325
 2,0.00000167,0.00001929,-0.00000492,-0.00000202,0.00018910,-0.00026431
 ,0.00060060,0.00042278,0.00028909,-0.00001540,-0.00155733,-0.00158467,
 0.00028579,0.10382430,-0.09134074,0.15956904,0.00880960,-0.02085626,-0
 .01419089,-0.08776136,0.08294462,0.05308475,-0.01287082,0.01099460,0.0
 1246721,0.00138458,-0.00108049,0.00243064,-0.00055321,-0.00067638,-0.0
 0045035,-0.00009302,-0.00068813,0.00056818,0.00020281,-0.00013415,-0.0
 0000810,-0.00018248,0.00028572,0.00001690,0.00009783,0.00004667,0.0000
 4119,0.00116565,0.00082217,0.00055409,-0.00333285,-0.00356142,-0.00220
 801,0.00109100,0.00074990,0.00032109,-0.00811421,0.01385298,0.00998242
 ,0.09993898,0.00741504,-0.01683252,-0.01128504,0.08006421,-0.18451236,
 -0.09418589,-0.00706141,0.01082522,0.00853466,-0.00021093,0.00028229,0
 .00121155,-0.00055173,-0.00066348,-0.00062476,0.00003121,-0.00041277,0
 .00029867,-0.00001062,-0.00000365,-0.00000995,-0.00004263,0.00007384,0
 .00000846,0.00001073,0.00001217,0.00000279,0.00029602,0.00033191,0.000
 67740,-0.00400678,-0.00127509,-0.00136330,-0.00013157,0.00113406,0.000
 14619,0.00660817,-0.01241234,-0.00858274,-0.08269926,0.20273496,0.0035
 7723,-0.01040304,-0.00651780,0.05258090,-0.09648275,-0.11546359,0.0152
 7005,-0.01580660,-0.01421556,-0.00108007,0.00077243,-0.00278332,0.0007
 0639,0.00096613,0.00081716,0.00009020,0.00056386,-0.00044190,-0.000140
 86,0.00010272,0.00000670,0.00015864,-0.00022970,-0.00002577,-0.0000766
 8,-0.00005079,-0.00003019,-0.00014589,0.00044754,0.00066361,-0.0019460
 1,-0.00130631,0.00019957,0.00047665,0.00024357,0.00000635,-0.00816296,
 0.01481283,0.01099982,-0.06123626,0.10652028,0.12522828,0.00161949,0.0
 0040376,0.00025406,0.00858609,-0.00975481,0.01134807,-0.11059013,0.076
 79500,-0.08620329,-0.02453864,0.01895231,-0.01836379,0.00234587,-0.000
 52292,-0.00041604,-0.00155107,-0.00071192,0.00205225,0.00108636,-0.000
 40057,-0.00001280,-0.00047575,0.00088311,-0.00002879,0.00025417,0.0000
 3385,0.00009356,0.00005303,0.00027410,-0.00007472,-0.00005884,-0.00005
 149,-0.00009064,-0.00021850,0.00029508,-0.00040955,-0.00150894,-0.0016
 3966,0.00272291,0.00046097,0.00059949,-0.00049114,0.12436240,0.0016179
 4,0.00074923,-0.00042840,0.00656007,-0.00386307,0.00961803,0.07509630,
 -0.12463291,0.10473005,0.00634418,0.00042589,0.00293837,-0.00131432,0.
 00307065,0.00234457,-0.00014952,-0.00324465,0.00392691,-0.00001439,-0.
 00011714,-0.00005456,-0.00008587,0.00047186,-0.00003722,0.00000115,-0.
 00009611,-0.00017035,-0.00000046,0.00026114,-0.00027081,-0.00007329,-0
 .00023498,-0.00003302,-0.00065703,-0.00007096,-0.00021698,-0.00148089,
 0.00047647,0.00195652,-0.00067337,0.00035549,0.00043669,-0.08558531,0.
 12359727,-0.00051492,-0.00057795,0.00040824,-0.01172810,0.01524438,-0.
 01384650,-0.08406532,0.10460049,-0.15836166,0.00052009,-0.00201141,0.0
 0636460,0.00243579,0.00164633,0.00033441,-0.00086558,-0.00152922,0.003
 11931,0.00047185,-0.00023303,-0.00012159,-0.00012249,0.00042573,0.0000
 1495,0.00003371,-0.00007411,-0.00009786,0.00025240,-0.00014806,0.00010
 296,0.00004584,-0.00001301,0.00004417,0.00069115,0.00021944,0.00046754
 ,0.00307350,0.00199159,-0.00252344,-0.00065121,-0.00094876,0.00098998,
 0.09011092,-0.12055790,0.16615403,0.00028662,0.00006365,0.00019146,-0.
 00035981,0.00082223,0.00039028,0.00234503,0.00002736,-0.00078325,-0.02
 842574,-0.01801198,-0.01212090,-0.15307265,-0.10887289,-0.07484805,0.0
 0840924,0.00790600,0.00544215,0.00109534,0.00124211,0.00069402,0.00009
 555,-0.00024557,-0.00008988,-0.00002729,-0.00003130,-0.00006285,-0.000
 10472,-0.00004506,0.00002320,0.00001623,0.00000645,-0.00005854,0.00001
 501,0.00001958,-0.00001972,-0.00004209,-0.00014420,0.00012513,-0.00020
 245,-0.00033880,0.00041580,0.00030992,0.00039470,0.00032947,0.17033291
 ,-0.00036588,-0.00016087,0.00052242,-0.00050100,-0.00344210,-0.0022253
 2,0.00182166,0.00101412,-0.00197860,0.00084238,0.00654677,0.00231137,-
 0.10510137,-0.15493239,-0.08277154,-0.01540005,-0.01346732,-0.01201945
 ,-0.00153927,0.00079665,0.00132532,0.00024435,-0.00003776,0.00022167,-
 0.00004061,-0.00001225,0.00001426,-0.00014714,-0.00008659,-0.00008070,
 0.00000384,0.00003502,0.00006876,-0.00001023,0.00002041,0.00000278,0.0
 0000906,-0.00001011,0.00003243,0.00064120,0.00034377,-0.00056728,0.000
 33496,0.00284072,0.00194377,0.11600554,0.16165292,0.00051229,0.0001795
 0,-0.00080369,0.00033791,0.00433727,0.00331663,0.00132495,-0.00271354,
 0.00188164,0.00144293,0.00313506,0.00526669,-0.07232426,-0.08250475,-0
 .09194676,-0.01080190,-0.01281740,-0.00488899,-0.00120240,0.00134580,-
 0.00032853,0.00015083,0.00037955,-0.00005446,-0.00002343,-0.00011524,-
 0.00002635,0.00025043,0.00014641,0.00010652,-0.00001494,-0.00004408,-0
 .00008087,0.00000728,-0.00002947,0.00000683,0.00000381,0.00006134,-0.0
 0007985,-0.00069644,-0.00041146,0.00055555,-0.00052910,-0.00415064,-0.
 00299151,0.07917669,0.09631202,0.08906292,-0.00003047,0.00004042,-0.00
 000681,0.00000330,-0.00003157,0.00005036,-0.00027521,-0.00022093,-0.00
 007096,0.00160752,-0.00003267,-0.00009413,0.00865870,0.00989868,0.0070
 2169,-0.16375487,-0.10999791,-0.07712626,-0.01791634,-0.02128261,-0.01
 480124,0.00048958,-0.00051148,-0.00088088,0.00006466,-0.00005899,0.000
 53195,0.00002118,0.00000150,-0.00001442,0.00000640,-0.00001689,0.00000
 589,-0.00000492,-0.00000654,-0.00000043,0.00000367,0.00001493,-0.00001
 788,0.00001143,0.00002049,-0.00004091,-0.00004057,0.00002530,-0.000000
 66,-0.00069498,0.00210177,0.00155565,0.17618622,0.00001379,-0.00004001
 ,-0.00005604,0.00001385,-0.00009646,0.00002965,0.00074381,0.00010882,0
 .00010712,-0.00168369,0.00066021,0.00127655,-0.01390726,-0.01224216,-0
 .01016589,-0.11137400,-0.16130218,-0.08535305,0.00340021,0.00512170,0.
 00050173,0.00124546,-0.00134391,0.00251098,-0.00001113,0.00033181,0.00
 038413,0.00001297,0.00002039,0.00001625,0.00000147,0.00003535,0.000002
 66,0.00001036,-0.00000203,0.00000549,-0.00001316,-0.00001186,0.0000090
 1,0.00002862,0.00000775,-0.00002150,0.00016311,-0.00002461,-0.00001014
 ,0.00170223,-0.00134892,-0.00317851,0.11886412,0.16697503,0.00005146,-
 0.00005229,-0.00010625,0.00006153,0.00000229,0.00013299,0.00053518,0.0
 0009999,0.00000610,-0.00126312,0.00136515,-0.00022987,-0.01013390,-0.0
 1143796,-0.00485063,-0.07833761,-0.08576181,-0.10084320,0.00389199,0.0
 0121166,0.00552583,-0.00112933,0.00345138,-0.00223700,0.00011333,-0.00
 047108,-0.00058530,0.00001963,0.00002709,0.00001379,0.00001450,0.00003
 369,0.00003404,-0.00001885,0.00002082,0.00000664,-0.00001419,-0.000007
 61,-0.00004426,0.00000352,0.00001671,-0.00001261,0.00004193,-0.0000853
 1,-0.00007249,0.00153391,-0.00320786,0.00078419,0.08300889,0.09891049,
 0.09526081,0.00000933,-0.00002834,-0.00002492,0.00001055,-0.00000957,0
 .00000348,0.00010353,0.00002983,0.00003027,0.00027360,0.00034769,0.000
 22500,0.00134071,-0.00165952,-0.00140477,-0.01677436,-0.02150190,-0.01
 558631,-0.16556703,-0.11045285,-0.07474578,0.00347161,0.01211830,0.008
 18648,0.00244430,0.00065197,0.00011595,0.00000074,0.00000900,0.0000088
 1,0.00000510,0.00001865,0.00000467,0.00000125,0.00000417,0.00000265,-0
 .00000222,-0.00000603,-0.00000497,0.00000015,0.00000981,-0.00000095,0.
 00001724,-0.00004126,-0.00002464,0.00004225,0.00102218,0.00073840,-0.0
 0472685,0.00088956,0.00144570,0.17956357,0.00000121,-0.00001386,-0.000
 06421,0.00003457,-0.00012918,0.00006101,0.00008668,0.00024628,-0.00040
 174,-0.00041807,-0.00023527,0.00023809,0.00154634,-0.00099697,0.003439
 62,0.00417336,0.00523536,0.00000741,-0.11880538,-0.15446557,-0.0813554
 8,-0.00700880,-0.01661398,-0.01227604,-0.00096902,0.00120981,0.0019853
 2,0.00003368,0.00002316,0.00000158,-0.00000761,0.00000433,0.00000681,0
 .00000722,-0.00000375,0.00001093,-0.00000872,0.00000120,0.00000988,0.0
 0006438,0.00002053,-0.00005368,0.00005229,0.00002404,0.00003133,-0.000
 50612,0.00021169,0.00003809,0.00104754,0.00332126,-0.00416928,0.119147
 53,0.16140210,-0.00001536,-0.00000035,0.00009533,-0.00010627,0.0000040
 5,-0.00013766,0.00002175,-0.00033845,0.00046546,0.00008849,0.00048683,
 -0.00015168,0.00080429,0.00328759,-0.00414538,0.00181308,0.00053103,0.
 00550346,-0.08208535,-0.08285810,-0.08990920,-0.00275909,-0.00985209,-
 0.00378663,-0.00132596,0.00026812,0.00076399,-0.00004405,-0.00002800,-
 0.00000459,0.00000955,0.00000134,-0.00000226,-0.00000723,0.00000679,-0
 .00001113,0.00000876,-0.00000248,-0.00001122,-0.00004803,-0.00000528,0
 .00004204,-0.00004870,0.00006832,0.00001805,-0.00034970,0.00013709,0.0
 0026867,0.00098445,-0.00476179,0.00716717,0.08224248,0.09262211,0.0840
 0028,-0.00000499,0.00000150,0.00006545,-0.00002478,-0.00001396,-0.0001
 1259,-0.00004934,-0.00003512,0.00006581,0.00021472,0.00018883,0.000046
 13,-0.00058424,0.00027965,-0.00048709,0.00049270,0.00109713,0.00125388
 ,-0.00595506,-0.00353674,0.00128603,-0.01126553,0.01525363,0.00916071,
 -0.11925627,0.11141829,0.05921448,-0.00003042,-0.00001931,-0.00000013,
 0.00000804,0.00000109,-0.00000538,-0.00000152,0.00000372,-0.00000681,0
 .00000567,-0.00000564,-0.00000054,-0.00002470,-0.00000368,0.00002404,-
 0.00003191,0.00004836,0.00003195,0.00000272,0.00001805,0.00004103,0.00
 005559,-0.00011260,0.00017501,0.00015467,-0.00009913,-0.00011069,0.129
 12221,-0.00000260,-0.00000056,0.00001987,-0.00001553,-0.00001125,-0.00
 003399,-0.00000843,-0.00002350,0.00003111,-0.00001264,0.00011967,0.000
 04766,-0.00032217,0.00007646,-0.00030013,-0.00028264,0.00133174,0.0007
 5796,-0.00357990,-0.00207676,0.00065035,-0.00579598,0.00965164,0.00576
 194,0.10871857,-0.19745482,-0.08468526,-0.00000860,-0.00000538,-0.0000
 0044,0.00000206,0.00000031,-0.00000150,-0.00000014,0.00000086,-0.00000
 141,0.00000150,-0.00000136,0.00000023,-0.00000532,-0.00000084,0.000005
 78,-0.00000709,0.00001596,0.00000966,0.00001142,0.00000297,0.00002373,
 0.00003879,-0.00009133,0.00010655,0.00011945,0.00004831,0.00030706,-0.
 11630699,0.21172881,0.00000154,0.00000013,-0.00003077,0.00001583,0.000
 00735,0.00005266,0.00000606,0.00001569,-0.00003158,-0.00003726,-0.0000
 8616,-0.00002948,0.00015202,-0.00005489,0.00026910,0.00005671,-0.00042
 542,-0.00034967,0.00272981,0.00118822,-0.00094722,0.00430812,-0.007006
 11,-0.00477762,0.05882720,-0.08536545,-0.09214452,0.00001535,0.0000092
 9,-0.00000067,-0.00000362,-0.00000139,0.00000298,0.00000035,-0.0000014
 4,0.00000326,-0.00000320,0.00000273,0.00000034,0.00001193,0.00000156,-
 0.00001226,0.00001732,-0.00002398,-0.00001516,-0.00000424,-0.00000427,
 -0.00001534,0.00002885,0.00004484,-0.00005424,-0.00019526,0.00041525,0
 .00026738,-0.06623324,0.09133049,0.09617328,0.00000706,-0.00000727,-0.
 00001516,0.00000686,0.00002092,0.00002671,0.00001857,0.00002170,-0.000
 03039,-0.00005917,0.00000632,0.00003235,0.00012728,-0.00017689,0.00025
 125,-0.00029770,0.00041287,0.00036120,0.00251119,-0.00147017,-0.002245
 78,-0.01958565,-0.01352402,-0.00651485,-0.11843707,-0.05692558,-0.1143
 9461,0.00000329,0.00000329,0.00000333,0.00000013,0.00000482,0.00000249
 ,0.00000025,0.00000149,0.00000044,-0.00000040,-0.00000191,-0.00000270,
 -0.00000430,0.00000235,0.00000382,-0.00001053,-0.00003092,-0.00002231,
 -0.00003089,0.00005354,0.00003361,0.00034595,0.00009140,-0.00008907,-0
 .00019872,0.00142439,0.00069628,0.01076915,0.00731779,0.01316043,0.128
 01168,0.00000461,-0.00000380,0.00001677,-0.00000335,0.00002059,-0.0000
 2551,-0.00000876,0.00000018,0.00000558,0.00004912,0.00001939,0.0000157
 9,-0.00002539,0.00002333,-0.00001676,0.00002253,-0.00004439,0.00003120
 ,0.00216679,0.00078073,0.00059922,-0.00898775,-0.00643032,-0.00491259,
 -0.05748847,-0.09291230,-0.08452018,-0.00001211,-0.00000650,0.00000317
 ,0.00000339,0.00000371,-0.00000146,-0.00000042,0.00000241,-0.00000287,
 0.00000265,-0.00000389,-0.00000189,-0.00001563,-0.00000175,0.00001544,
 -0.00002218,-0.00000415,-0.00000286,-0.00000672,0.00000563,-0.00000385
 ,0.00010991,-0.00016005,0.00002677,-0.00061343,0.00056741,0.00012178,-
 0.01316285,-0.00907468,-0.01653588,0.06591626,0.09681497,-0.00000426,0
 .00000244,0.00001056,-0.00000677,-0.00000885,-0.00002003,-0.00000969,-
 0.00001804,0.00003056,0.00003931,0.00004137,-0.00000235,-0.00014046,0.
 00009005,-0.00026195,0.00029717,0.00016756,0.00005637,-0.00085563,0.00
 122568,0.00132745,0.01200699,0.00734350,0.00774034,-0.10732149,-0.0829
 3114,-0.19251137,-0.00000350,-0.00000296,-0.00000135,0.00000007,-0.000
 00089,-0.00000086,0.00000009,-0.00000055,-0.00000093,0.00000129,0.0000
 0001,0.00000046,-0.00000220,0.,0.00000119,-0.00000341,0.00001471,0.000
 00863,0.00001750,-0.00002514,-0.00000175,-0.00009424,-0.00025043,0.000
 11517,-0.00093847,-0.00041036,-0.00002817,-0.00733967,-0.00377120,-0.0
 0910613,0.11466078,0.08909547,0.20735153,0.00000091,0.00000181,0.00002
 824,-0.00002137,0.00001499,-0.00003270,0.00002761,-0.00000823,0.000008
 86,-0.00006576,0.00008816,0.00007953,0.00017150,-0.00028616,-0.0002599
 0,-0.00072777,0.00065026,-0.00011436,0.00273951,-0.00085559,-0.0015578
 1,-0.00492250,-0.01965669,0.01936224,-0.05608750,0.04642105,-0.0467574
 0,-0.00001518,-0.00001056,-0.00000037,0.00000580,0.00000014,0.00000040
 ,-0.00000406,0.00000438,-0.00000482,0.00000498,-0.00000193,-0.00000880
 ,-0.00002359,-0.00000011,0.00001801,-0.00007068,0.00001864,-0.00000145
 ,0.00000980,0.00000702,0.00001666,-0.00000997,-0.00007911,0.00008946,-
 0.00016945,0.00020367,0.00023128,-0.00359668,0.01013847,-0.01285472,-0
 .00317698,0.01207179,-0.01030343,0.06593139,0.00000382,0.00000540,0.00
 005025,-0.00000599,0.00005336,-0.00006051,-0.00003718,0.00002072,-0.00
 002527,0.00021985,0.00007877,0.00011905,-0.00019512,-0.00026283,0.0001
 1514,0.00006039,0.00029490,0.00018898,-0.00026874,0.00077036,-0.001344
 45,-0.00221032,-0.00642463,0.00614633,0.04951329,-0.17176824,0.1275676
 3,-0.00002720,-0.00001809,0.00000170,0.00000871,0.00000024,-0.00000453
 ,-0.00000321,0.00000485,-0.00000796,0.00000765,-0.00000535,-0.00000608
 ,-0.00004046,-0.00000720,0.00003441,-0.00009111,-0.00000015,-0.0000062
 7,0.00000136,0.00002765,0.00001017,-0.00000386,0.00008118,-0.00007939,
 -0.00005521,0.00014306,0.00000441,0.00498577,-0.01423624,0.01648945,-0
 .00314040,0.01040348,-0.01056122,-0.04872201,0.18083877,-0.00000037,0.
 00000096,-0.00000868,0.00001145,-0.00000392,0.00000981,-0.00001769,0.0
 0000691,-0.00001119,0.00005037,-0.00006109,-0.00004296,-0.00009670,0.0
 0014615,0.00014729,0.00043099,-0.00044533,-0.00013602,-0.00112787,0.00
 047129,0.00045919,0.00469041,0.00604029,-0.00381149,-0.05293930,0.1267
 9797,-0.18113858,0.00000477,0.00000339,0.00000001,-0.00000188,-0.00000
 132,-0.00000089,0.00000179,-0.00000175,0.00000215,-0.00000212,0.000000
 10,0.00000467,0.00000954,-0.00000109,-0.00000726,0.00003094,-0.0000049
 9,0.00000336,-0.00000248,-0.00001174,-0.00003155,-0.00003893,-0.000001
 55,-0.00001085,-0.00007780,-0.00013667,-0.00040391,0.00293162,-0.01025
 845,0.01074566,-0.00591782,0.01609265,-0.01470735,0.05206108,-0.138631
 85,0.18893858\\0.00000264,0.00000136,0.00000291,-0.00000212,-0.0000032
 7,-0.00000699,-0.00000210,0.00000631,0.00000150,-0.00000078,-0.0000009
 1,0.00000308,0.00000172,0.00000046,-0.00000222,-0.00000153,0.00000127,
 0.00000178,-0.00000009,-0.00000189,0.00000054,0.00000293,0.00000142,-0
 .00000256,-0.00000237,-0.00000164,0.00000270,-0.00000021,0.00000049,0.
 00000015,-0.00000116,-0.00000054,-0.00000079,-0.00000086,-0.00000027,-
 0.00000102,0.00000220,-0.00000030,0.00000129,0.00000124,0.00000050,0.0
 0000050,-0.00000073,-0.00000188,-0.00000044,0.00000038,-0.00000066,0.0
 0000097,0.00000013,-0.00000023,-0.00000006,-0.00000140,0.00000056,0.00
 000047,0.00000070,-0.00000024,-0.00000064,0.00000112,0.00000040,-0.000
 00073,0.00000029,-0.00000093,-0.00000043\\\@


 GROWING OLD ISN'T SO BAD -- WHEN YOU CONSIDER THE ALTERNATIVE.

                     -- MAURICE CHEVALIER
 Job cpu time:       0 days  1 hours 28 minutes 32.1 seconds.
 Elapsed time:       0 days  0 hours 22 minutes  8.8 seconds.
 File lengths (MBytes):  RWF=    169 Int=      0 D2E=      0 Chk=      9 Scr=      1
 Normal termination of Gaussian 16 at Sun May 28 18:10:00 2023.
### All Done ###
