### Starting Gaussian ###
 Entering Gaussian System, Link 0=g16
 Initial command:
 /cluster/software/gaussian/gaussian-16-A.03/avx2/g16/l1.exe "/local/scratch/linjian/Gau-17544.inp" -scrdir="/local/scratch/linjian/"
 Entering Link 1 = /cluster/software/gaussian/gaussian-16-A.03/avx2/g16/l1.exe PID=     17545.
  
 Copyright (c) 1988,1990,1992,1993,1995,1998,2003,2009,2016,
            Gaussian, Inc.  All Rights Reserved.
  
 This is part of the Gaussian(R) 16 program.  It is based on
 the Gaussian(R) 09 system (copyright 2009, Gaussian, Inc.),
 the Gaussian(R) 03 system (copyright 2003, Gaussian, Inc.),
 the Gaussian(R) 98 system (copyright 1998, Gaussian, Inc.),
 the Gaussian(R) 94 system (copyright 1995, Gaussian, Inc.),
 the Gaussian 92(TM) system (copyright 1992, Gaussian, Inc.),
 the Gaussian 90(TM) system (copyright 1990, Gaussian, Inc.),
 the Gaussian 88(TM) system (copyright 1988, Gaussian, Inc.),
 the Gaussian 86(TM) system (copyright 1986, Carnegie Mellon
 University), and the Gaussian 82(TM) system (copyright 1983,
 Carnegie Mellon University). Gaussian is a federally registered
 trademark of Gaussian, Inc.
  
 This software contains proprietary and confidential information,
 including trade secrets, belonging to Gaussian, Inc.
  
 This software is provided under written license and may be
 used, copied, transmitted, or stored only in accord with that
 written license.
  
 The following legend is applicable only to US Government
 contracts under FAR:
  
                    RESTRICTED RIGHTS LEGEND
  
 Use, reproduction and disclosure by the US Government is
 subject to restrictions as set forth in subparagraphs (a)
 and (c) of the Commercial Computer Software - Restricted
 Rights clause in FAR 52.227-19.
  
 Gaussian, Inc.
 340 Quinnipiac St., Bldg. 40, Wallingford CT 06492
  
  
 ---------------------------------------------------------------
 Warning -- This program may not be used in any manner that
 competes with the business of Gaussian, Inc. or will provide
 assistance to any competitor of Gaussian, Inc.  The licensee
 of this program is prohibited from giving any competitor of
 Gaussian, Inc. access to this program.  By using this program,
 the user acknowledges that Gaussian, Inc. is engaged in the
 business of creating and licensing software in the field of
 computational chemistry and represents and warrants to the
 licensee that it is not a competitor of Gaussian, Inc. and that
 it will not use this program in any manner prohibited above.
 ---------------------------------------------------------------
  

 Cite this work as:
 Gaussian 16, Revision A.03,
 M. J. Frisch, G. W. Trucks, H. B. Schlegel, G. E. Scuseria, 
 M. A. Robb, J. R. Cheeseman, G. Scalmani, V. Barone, 
 G. A. Petersson, H. Nakatsuji, X. Li, M. Caricato, A. V. Marenich, 
 J. Bloino, B. G. Janesko, R. Gomperts, B. Mennucci, H. P. Hratchian, 
 J. V. Ortiz, A. F. Izmaylov, J. L. Sonnenberg, D. Williams-Young, 
 F. Ding, F. Lipparini, F. Egidi, J. Goings, B. Peng, A. Petrone, 
 T. Henderson, D. Ranasinghe, V. G. Zakrzewski, J. Gao, N. Rega, 
 G. Zheng, W. Liang, M. Hada, M. Ehara, K. Toyota, R. Fukuda, 
 J. Hasegawa, M. Ishida, T. Nakajima, Y. Honda, O. Kitao, H. Nakai, 
 T. Vreven, K. Throssell, J. A. Montgomery, Jr., J. E. Peralta, 
 F. Ogliaro, M. J. Bearpark, J. J. Heyd, E. N. Brothers, K. N. Kudin, 
 V. N. Staroverov, T. A. Keith, R. Kobayashi, J. Normand, 
 K. Raghavachari, A. P. Rendell, J. C. Burant, S. S. Iyengar, 
 J. Tomasi, M. Cossi, J. M. Millam, M. Klene, C. Adamo, R. Cammi, 
 J. W. Ochterski, R. L. Martin, K. Morokuma, O. Farkas, 
 J. B. Foresman, and D. J. Fox, Gaussian, Inc., Wallingford CT, 2016.
 
 ******************************************
 Gaussian 16:  ES64L-G16RevA.03 25-Dec-2016
                23-May-2023 
 ******************************************
 %chk=CCCNqCCrCCqCrCqCrCCCCCN.chk
 %NProcShared=20
 Will use up to   20 processors via shared memory.
 -----------------------------
 # opt freq b3lyp/6-31g(2df,p)
 -----------------------------
 1/18=20,19=15,26=3,38=1/1,3;
 2/9=110,12=2,17=6,18=5,40=1/2;
 3/5=1,6=6,7=104,11=2,25=1,30=1,71=1,74=-5/1,2,3;
 4//1;
 5/5=2,38=5/2;
 6/7=2,8=2,9=2,10=2,28=1/1;
 7//1,2,3,16;
 1/18=20,19=15,26=3/3(2);
 2/9=110/2;
 99//99;
 2/9=110/2;
 3/5=1,6=6,7=104,11=2,25=1,30=1,71=1,74=-5/1,2,3;
 4/5=5,16=3,69=1/1;
 5/5=2,38=5/2;
 7//1,2,3,16;
 1/18=20,19=15,26=3/3(-5);
 2/9=110/2;
 6/7=2,8=2,9=2,10=2,19=2,28=1/1;
 99/9=1/99;
 -------------------
 Title Card Required
 -------------------
 Symbolic Z-matrix:
 Charge =  0 Multiplicity = 1
 C                     0.69619  -0.22399  -0.11607 
 C                     2.20289  -0.1798   -0.0952 
 C                     2.88857  -1.4955    0.2652 
 N                     4.35744  -1.33938   0.35349 
 C                     4.77119  -0.39008   1.39601 
 C                     4.55615   1.1138    1.29157 
 C                     4.97951  -2.68182   0.58327 
 C                     6.55112  -2.81275   0.58952 
 C                     7.25313  -2.02603   1.72612 
 C                     6.9899   -4.31376   0.71128 
 C                     6.4169   -5.21328  -0.39397 
 C                     8.52884  -4.41179   0.70264 
 C                     9.06063  -5.80094   0.96031 
 C                     10.57938  -5.74635   0.99828 
 C                     11.10922  -7.14588   1.23975 
 C                     12.62639  -7.14309   1.23663 
 N                     13.10136  -8.49958   1.45705 
 H                     0.32486   0.79556  -0.27517 
 H                     0.32156  -0.55887   0.85684 
 H                     0.31398  -0.87112  -0.90358 
 H                     2.38657   0.54284   0.68176 
 H                     2.60724   0.22254  -1.03187 
 H                     2.63969  -2.22855  -0.51303 
 H                     2.48882  -1.88605   1.21142 
 H                     5.81798  -0.35371   1.28902 
 H                     4.52413  -0.76226   2.40253 
 H                     4.70592   1.44926   0.25815 
 H                     5.31313   1.61423   1.9085 
 H                     3.60593   1.46236   1.68146 
 H                     4.61175  -3.31373  -0.23557 
 H                     4.5871   -3.12619   1.50872 
 H                     6.91488  -2.42973  -0.37374 
 H                     6.75179  -2.19586   2.68352 
 H                     7.37018  -0.96584   1.51894 
 H                     8.30445  -2.24662   1.86634 
 H                     6.62356  -4.69505   1.67458 
 H                     6.76016  -4.88682  -1.38091 
 H                     5.32579  -5.23858  -0.38957 
 H                     6.72374  -6.25512  -0.25897 
 H                     8.97249  -3.83097   1.50921 
 H                     8.92356  -3.99999  -0.23455 
 H                     8.74507  -6.49569   0.18042 
 H                     8.67469  -6.16284   1.92156 
 H                     10.92192  -5.0665    1.78993 
 H                     10.95952  -5.34956   0.04838 
 H                     10.72843  -7.8149    0.45774 
 H                     10.72521  -7.51613   2.19887 
 H                     13.00456  -6.4815    2.02377 
 H                     12.99919  -6.77174   0.2767 
 H                     12.76869  -8.83298   2.35851 
 H                     14.11979  -8.49384   1.50454 
 

 GradGradGradGradGradGradGradGradGradGradGradGradGradGradGradGradGradGrad
 Berny optimization.
 Initialization pass.
                           ----------------------------
                           !    Initial Parameters    !
                           ! (Angstroms and Degrees)  !
 --------------------------                            --------------------------
 ! Name  Definition              Value          Derivative Info.                !
 --------------------------------------------------------------------------------
 ! R1    R(1,2)                  1.5075         estimate D2E/DX2                !
 ! R2    R(1,18)                 1.0967         estimate D2E/DX2                !
 ! R3    R(1,19)                 1.095          estimate D2E/DX2                !
 ! R4    R(1,20)                 1.0886         estimate D2E/DX2                !
 ! R5    R(2,3)                  1.5268         estimate D2E/DX2                !
 ! R6    R(2,21)                 1.0769         estimate D2E/DX2                !
 ! R7    R(2,22)                 1.0967         estimate D2E/DX2                !
 ! R8    R(3,4)                  1.4798         estimate D2E/DX2                !
 ! R9    R(3,23)                 1.0977         estimate D2E/DX2                !
 ! R10   R(3,24)                 1.0989         estimate D2E/DX2                !
 ! R11   R(4,5)                  1.4694         estimate D2E/DX2                !
 ! R12   R(4,7)                  1.4973         estimate D2E/DX2                !
 ! R13   R(5,6)                  1.5228         estimate D2E/DX2                !
 ! R14   R(5,25)                 1.0529         estimate D2E/DX2                !
 ! R15   R(5,26)                 1.1012         estimate D2E/DX2                !
 ! R16   R(6,27)                 1.0968         estimate D2E/DX2                !
 ! R17   R(6,28)                 1.0973         estimate D2E/DX2                !
 ! R18   R(6,29)                 1.0846         estimate D2E/DX2                !
 ! R19   R(7,8)                  1.5771         estimate D2E/DX2                !
 ! R20   R(7,30)                 1.0978         estimate D2E/DX2                !
 ! R21   R(7,31)                 1.099          estimate D2E/DX2                !
 ! R22   R(8,9)                  1.5504         estimate D2E/DX2                !
 ! R23   R(8,10)                 1.5686         estimate D2E/DX2                !
 ! R24   R(8,32)                 1.0986         estimate D2E/DX2                !
 ! R25   R(9,33)                 1.094          estimate D2E/DX2                !
 ! R26   R(9,34)                 1.0866         estimate D2E/DX2                !
 ! R27   R(9,35)                 1.0833         estimate D2E/DX2                !
 ! R28   R(10,11)                1.5359         estimate D2E/DX2                !
 ! R29   R(10,12)                1.5421         estimate D2E/DX2                !
 ! R30   R(10,36)                1.0989         estimate D2E/DX2                !
 ! R31   R(11,37)                1.0947         estimate D2E/DX2                !
 ! R32   R(11,38)                1.0914         estimate D2E/DX2                !
 ! R33   R(11,39)                1.0944         estimate D2E/DX2                !
 ! R34   R(12,13)                1.5096         estimate D2E/DX2                !
 ! R35   R(12,40)                1.0885         estimate D2E/DX2                !
 ! R36   R(12,41)                1.0971         estimate D2E/DX2                !
 ! R37   R(13,14)                1.5202         estimate D2E/DX2                !
 ! R38   R(13,42)                1.0911         estimate D2E/DX2                !
 ! R39   R(13,43)                1.0972         estimate D2E/DX2                !
 ! R40   R(14,15)                1.5158         estimate D2E/DX2                !
 ! R41   R(14,44)                1.0983         estimate D2E/DX2                !
 ! R42   R(14,45)                1.0974         estimate D2E/DX2                !
 ! R43   R(15,16)                1.5172         estimate D2E/DX2                !
 ! R44   R(15,46)                1.0973         estimate D2E/DX2                !
 ! R45   R(15,47)                1.0975         estimate D2E/DX2                !
 ! R46   R(16,17)                1.454          estimate D2E/DX2                !
 ! R47   R(16,48)                1.0956         estimate D2E/DX2                !
 ! R48   R(16,49)                1.0947         estimate D2E/DX2                !
 ! R49   R(17,50)                1.0171         estimate D2E/DX2                !
 ! R50   R(17,51)                1.0196         estimate D2E/DX2                !
 ! A1    A(2,1,18)             108.2508         estimate D2E/DX2                !
 ! A2    A(2,1,19)             109.7922         estimate D2E/DX2                !
 ! A3    A(2,1,20)             112.2322         estimate D2E/DX2                !
 ! A4    A(18,1,19)            107.3            estimate D2E/DX2                !
 ! A5    A(18,1,20)            109.1976         estimate D2E/DX2                !
 ! A6    A(19,1,20)            109.9276         estimate D2E/DX2                !
 ! A7    A(1,2,3)              115.269          estimate D2E/DX2                !
 ! A8    A(1,2,21)             101.5452         estimate D2E/DX2                !
 ! A9    A(1,2,22)             111.5576         estimate D2E/DX2                !
 ! A10   A(3,2,21)             109.3519         estimate D2E/DX2                !
 ! A11   A(3,2,22)             110.62           estimate D2E/DX2                !
 ! A12   A(21,2,22)            107.8876         estimate D2E/DX2                !
 ! A13   A(2,3,4)              111.6511         estimate D2E/DX2                !
 ! A14   A(2,3,23)             107.8364         estimate D2E/DX2                !
 ! A15   A(2,3,24)             110.2511         estimate D2E/DX2                !
 ! A16   A(4,3,23)             109.7436         estimate D2E/DX2                !
 ! A17   A(4,3,24)             110.3162         estimate D2E/DX2                !
 ! A18   A(23,3,24)            106.896          estimate D2E/DX2                !
 ! A19   A(3,4,5)              112.9536         estimate D2E/DX2                !
 ! A20   A(3,4,7)              109.0846         estimate D2E/DX2                !
 ! A21   A(5,4,7)              110.6928         estimate D2E/DX2                !
 ! A22   A(4,5,6)              123.3397         estimate D2E/DX2                !
 ! A23   A(4,5,25)             103.307          estimate D2E/DX2                !
 ! A24   A(4,5,26)             111.5282         estimate D2E/DX2                !
 ! A25   A(6,5,25)              95.6998         estimate D2E/DX2                !
 ! A26   A(6,5,26)             111.3948         estimate D2E/DX2                !
 ! A27   A(25,5,26)            109.1241         estimate D2E/DX2                !
 ! A28   A(5,6,27)             110.3288         estimate D2E/DX2                !
 ! A29   A(5,6,28)             108.326          estimate D2E/DX2                !
 ! A30   A(5,6,29)             114.61           estimate D2E/DX2                !
 ! A31   A(27,6,28)            107.2209         estimate D2E/DX2                !
 ! A32   A(27,6,29)            111.1028         estimate D2E/DX2                !
 ! A33   A(28,6,29)            104.8155         estimate D2E/DX2                !
 ! A34   A(4,7,8)              119.2792         estimate D2E/DX2                !
 ! A35   A(4,7,30)             105.2153         estimate D2E/DX2                !
 ! A36   A(4,7,31)             110.0835         estimate D2E/DX2                !
 ! A37   A(8,7,30)             106.7992         estimate D2E/DX2                !
 ! A38   A(8,7,31)             108.5967         estimate D2E/DX2                !
 ! A39   A(30,7,31)            106.0064         estimate D2E/DX2                !
 ! A40   A(7,8,9)              114.3315         estimate D2E/DX2                !
 ! A41   A(7,8,10)             111.0093         estimate D2E/DX2                !
 ! A42   A(7,8,32)             107.3105         estimate D2E/DX2                !
 ! A43   A(9,8,10)             107.5788         estimate D2E/DX2                !
 ! A44   A(9,8,32)             108.4189         estimate D2E/DX2                !
 ! A45   A(10,8,32)            108.0033         estimate D2E/DX2                !
 ! A46   A(8,9,33)             110.8124         estimate D2E/DX2                !
 ! A47   A(8,9,34)             113.8358         estimate D2E/DX2                !
 ! A48   A(8,9,35)             115.5305         estimate D2E/DX2                !
 ! A49   A(33,9,34)            111.5743         estimate D2E/DX2                !
 ! A50   A(33,9,35)            107.4483         estimate D2E/DX2                !
 ! A51   A(34,9,35)             96.8239         estimate D2E/DX2                !
 ! A52   A(8,10,11)            113.5917         estimate D2E/DX2                !
 ! A53   A(8,10,12)            109.8501         estimate D2E/DX2                !
 ! A54   A(8,10,36)            107.8683         estimate D2E/DX2                !
 ! A55   A(11,10,12)           109.3322         estimate D2E/DX2                !
 ! A56   A(11,10,36)           107.652          estimate D2E/DX2                !
 ! A57   A(12,10,36)           108.3941         estimate D2E/DX2                !
 ! A58   A(10,11,37)           110.9234         estimate D2E/DX2                !
 ! A59   A(10,11,38)           112.5593         estimate D2E/DX2                !
 ! A60   A(10,11,39)           111.3553         estimate D2E/DX2                !
 ! A61   A(37,11,38)           108.9059         estimate D2E/DX2                !
 ! A62   A(37,11,39)           107.8888         estimate D2E/DX2                !
 ! A63   A(38,11,39)           104.9348         estimate D2E/DX2                !
 ! A64   A(10,12,13)           114.1478         estimate D2E/DX2                !
 ! A65   A(10,12,40)           111.635          estimate D2E/DX2                !
 ! A66   A(10,12,41)           109.8748         estimate D2E/DX2                !
 ! A67   A(13,12,40)           102.7661         estimate D2E/DX2                !
 ! A68   A(13,12,41)           111.3741         estimate D2E/DX2                !
 ! A69   A(40,12,41)           106.6223         estimate D2E/DX2                !
 ! A70   A(12,13,14)           108.8536         estimate D2E/DX2                !
 ! A71   A(12,13,42)           111.2263         estimate D2E/DX2                !
 ! A72   A(12,13,43)           109.2163         estimate D2E/DX2                !
 ! A73   A(14,13,42)           109.2479         estimate D2E/DX2                !
 ! A74   A(14,13,43)           109.9601         estimate D2E/DX2                !
 ! A75   A(42,13,43)           108.3275         estimate D2E/DX2                !
 ! A76   A(13,14,15)           108.6647         estimate D2E/DX2                !
 ! A77   A(13,14,44)           110.5986         estimate D2E/DX2                !
 ! A78   A(13,14,45)           109.7208         estimate D2E/DX2                !
 ! A79   A(15,14,44)           110.3454         estimate D2E/DX2                !
 ! A80   A(15,14,45)           110.5268         estimate D2E/DX2                !
 ! A81   A(44,14,45)           106.982          estimate D2E/DX2                !
 ! A82   A(14,15,16)           110.3352         estimate D2E/DX2                !
 ! A83   A(14,15,46)           109.1526         estimate D2E/DX2                !
 ! A84   A(14,15,47)           109.1713         estimate D2E/DX2                !
 ! A85   A(16,15,46)           110.2838         estimate D2E/DX2                !
 ! A86   A(16,15,47)           110.6292         estimate D2E/DX2                !
 ! A87   A(46,15,47)           107.1995         estimate D2E/DX2                !
 ! A88   A(15,16,17)           108.9429         estimate D2E/DX2                !
 ! A89   A(15,16,48)           110.1701         estimate D2E/DX2                !
 ! A90   A(15,16,49)           110.0585         estimate D2E/DX2                !
 ! A91   A(17,16,48)           109.9798         estimate D2E/DX2                !
 ! A92   A(17,16,49)           109.7645         estimate D2E/DX2                !
 ! A93   A(48,16,49)           107.9159         estimate D2E/DX2                !
 ! A94   A(16,17,50)           109.4706         estimate D2E/DX2                !
 ! A95   A(16,17,51)           109.1537         estimate D2E/DX2                !
 ! A96   A(50,17,51)           106.6954         estimate D2E/DX2                !
 ! D1    D(18,1,2,3)           173.7783         estimate D2E/DX2                !
 ! D2    D(18,1,2,21)           55.7166         estimate D2E/DX2                !
 ! D3    D(18,1,2,22)          -58.9777         estimate D2E/DX2                !
 ! D4    D(19,1,2,3)            56.9411         estimate D2E/DX2                !
 ! D5    D(19,1,2,21)          -61.1206         estimate D2E/DX2                !
 ! D6    D(19,1,2,22)         -175.8149         estimate D2E/DX2                !
 ! D7    D(20,1,2,3)           -65.6348         estimate D2E/DX2                !
 ! D8    D(20,1,2,21)          176.3034         estimate D2E/DX2                !
 ! D9    D(20,1,2,22)           61.6092         estimate D2E/DX2                !
 ! D10   D(1,2,3,4)           -176.0638         estimate D2E/DX2                !
 ! D11   D(1,2,3,23)            63.3034         estimate D2E/DX2                !
 ! D12   D(1,2,3,24)           -53.0648         estimate D2E/DX2                !
 ! D13   D(21,2,3,4)           -62.4634         estimate D2E/DX2                !
 ! D14   D(21,2,3,23)          176.9038         estimate D2E/DX2                !
 ! D15   D(21,2,3,24)           60.5356         estimate D2E/DX2                !
 ! D16   D(22,2,3,4)            56.2206         estimate D2E/DX2                !
 ! D17   D(22,2,3,23)          -64.4122         estimate D2E/DX2                !
 ! D18   D(22,2,3,24)          179.2196         estimate D2E/DX2                !
 ! D19   D(2,3,4,5)             61.6297         estimate D2E/DX2                !
 ! D20   D(2,3,4,7)           -174.8255         estimate D2E/DX2                !
 ! D21   D(23,3,4,5)          -178.8583         estimate D2E/DX2                !
 ! D22   D(23,3,4,7)           -55.3135         estimate D2E/DX2                !
 ! D23   D(24,3,4,5)           -61.3322         estimate D2E/DX2                !
 ! D24   D(24,3,4,7)            62.2126         estimate D2E/DX2                !
 ! D25   D(3,4,5,6)            -70.6879         estimate D2E/DX2                !
 ! D26   D(3,4,5,25)          -176.8144         estimate D2E/DX2                !
 ! D27   D(3,4,5,26)            66.1076         estimate D2E/DX2                !
 ! D28   D(7,4,5,6)            166.6599         estimate D2E/DX2                !
 ! D29   D(7,4,5,25)            60.5334         estimate D2E/DX2                !
 ! D30   D(7,4,5,26)           -56.5446         estimate D2E/DX2                !
 ! D31   D(3,4,7,8)            174.6868         estimate D2E/DX2                !
 ! D32   D(3,4,7,30)            54.9586         estimate D2E/DX2                !
 ! D33   D(3,4,7,31)           -58.8514         estimate D2E/DX2                !
 ! D34   D(5,4,7,8)            -60.4367         estimate D2E/DX2                !
 ! D35   D(5,4,7,30)           179.8351         estimate D2E/DX2                !
 ! D36   D(5,4,7,31)            66.0251         estimate D2E/DX2                !
 ! D37   D(4,5,6,27)           -37.2743         estimate D2E/DX2                !
 ! D38   D(4,5,6,28)          -154.3587         estimate D2E/DX2                !
 ! D39   D(4,5,6,29)            89.026          estimate D2E/DX2                !
 ! D40   D(25,5,6,27)           72.7574         estimate D2E/DX2                !
 ! D41   D(25,5,6,28)          -44.327          estimate D2E/DX2                !
 ! D42   D(25,5,6,29)         -160.9422         estimate D2E/DX2                !
 ! D43   D(26,5,6,27)         -174.1191         estimate D2E/DX2                !
 ! D44   D(26,5,6,28)           68.7966         estimate D2E/DX2                !
 ! D45   D(26,5,6,29)          -47.8187         estimate D2E/DX2                !
 ! D46   D(4,7,8,9)             63.4026         estimate D2E/DX2                !
 ! D47   D(4,7,8,10)          -174.6783         estimate D2E/DX2                !
 ! D48   D(4,7,8,32)           -56.8719         estimate D2E/DX2                !
 ! D49   D(30,7,8,9)          -177.6782         estimate D2E/DX2                !
 ! D50   D(30,7,8,10)          -55.7591         estimate D2E/DX2                !
 ! D51   D(30,7,8,32)           62.0473         estimate D2E/DX2                !
 ! D52   D(31,7,8,9)           -63.7565         estimate D2E/DX2                !
 ! D53   D(31,7,8,10)           58.1626         estimate D2E/DX2                !
 ! D54   D(31,7,8,32)          175.969          estimate D2E/DX2                !
 ! D55   D(7,8,9,33)            46.4597         estimate D2E/DX2                !
 ! D56   D(7,8,9,34)           -80.2663         estimate D2E/DX2                !
 ! D57   D(7,8,9,35)           168.9421         estimate D2E/DX2                !
 ! D58   D(10,8,9,33)          -77.3198         estimate D2E/DX2                !
 ! D59   D(10,8,9,34)          155.9542         estimate D2E/DX2                !
 ! D60   D(10,8,9,35)           45.1626         estimate D2E/DX2                !
 ! D61   D(32,8,9,33)          166.1146         estimate D2E/DX2                !
 ! D62   D(32,8,9,34)           39.3886         estimate D2E/DX2                !
 ! D63   D(32,8,9,35)          -71.403          estimate D2E/DX2                !
 ! D64   D(7,8,10,11)           56.7158         estimate D2E/DX2                !
 ! D65   D(7,8,10,12)          179.5163         estimate D2E/DX2                !
 ! D66   D(7,8,10,36)          -62.5229         estimate D2E/DX2                !
 ! D67   D(9,8,10,11)         -177.5061         estimate D2E/DX2                !
 ! D68   D(9,8,10,12)          -54.7057         estimate D2E/DX2                !
 ! D69   D(9,8,10,36)           63.2552         estimate D2E/DX2                !
 ! D70   D(32,8,10,11)         -60.6686         estimate D2E/DX2                !
 ! D71   D(32,8,10,12)          62.1318         estimate D2E/DX2                !
 ! D72   D(32,8,10,36)        -179.9073         estimate D2E/DX2                !
 ! D73   D(8,10,11,37)          61.3387         estimate D2E/DX2                !
 ! D74   D(8,10,11,38)         -60.9686         estimate D2E/DX2                !
 ! D75   D(8,10,11,39)        -178.4899         estimate D2E/DX2                !
 ! D76   D(12,10,11,37)        -61.7462         estimate D2E/DX2                !
 ! D77   D(12,10,11,38)        175.9464         estimate D2E/DX2                !
 ! D78   D(12,10,11,39)         58.4252         estimate D2E/DX2                !
 ! D79   D(36,10,11,37)       -179.2992         estimate D2E/DX2                !
 ! D80   D(36,10,11,38)         58.3935         estimate D2E/DX2                !
 ! D81   D(36,10,11,39)        -59.1278         estimate D2E/DX2                !
 ! D82   D(8,10,12,13)         173.9226         estimate D2E/DX2                !
 ! D83   D(8,10,12,40)          57.9249         estimate D2E/DX2                !
 ! D84   D(8,10,12,41)         -60.1493         estimate D2E/DX2                !
 ! D85   D(11,10,12,13)        -60.7972         estimate D2E/DX2                !
 ! D86   D(11,10,12,40)       -176.795          estimate D2E/DX2                !
 ! D87   D(11,10,12,41)         65.1309         estimate D2E/DX2                !
 ! D88   D(36,10,12,13)         56.2884         estimate D2E/DX2                !
 ! D89   D(36,10,12,40)        -59.7094         estimate D2E/DX2                !
 ! D90   D(36,10,12,41)       -177.7835         estimate D2E/DX2                !
 ! D91   D(10,12,13,14)       -177.0424         estimate D2E/DX2                !
 ! D92   D(10,12,13,42)         62.5382         estimate D2E/DX2                !
 ! D93   D(10,12,13,43)        -56.9746         estimate D2E/DX2                !
 ! D94   D(40,12,13,14)        -55.9869         estimate D2E/DX2                !
 ! D95   D(40,12,13,42)       -176.4064         estimate D2E/DX2                !
 ! D96   D(40,12,13,43)         64.0809         estimate D2E/DX2                !
 ! D97   D(41,12,13,14)         57.8197         estimate D2E/DX2                !
 ! D98   D(41,12,13,42)        -62.5997         estimate D2E/DX2                !
 ! D99   D(41,12,13,43)        177.8875         estimate D2E/DX2                !
 ! D100  D(12,13,14,15)       -179.2951         estimate D2E/DX2                !
 ! D101  D(12,13,14,44)         59.4396         estimate D2E/DX2                !
 ! D102  D(12,13,14,45)        -58.3474         estimate D2E/DX2                !
 ! D103  D(42,13,14,15)        -57.663          estimate D2E/DX2                !
 ! D104  D(42,13,14,44)       -178.9283         estimate D2E/DX2                !
 ! D105  D(42,13,14,45)         63.2848         estimate D2E/DX2                !
 ! D106  D(43,13,14,15)         61.0985         estimate D2E/DX2                !
 ! D107  D(43,13,14,44)        -60.1667         estimate D2E/DX2                !
 ! D108  D(43,13,14,45)       -177.9537         estimate D2E/DX2                !
 ! D109  D(13,14,15,16)        178.0372         estimate D2E/DX2                !
 ! D110  D(13,14,15,46)         56.6987         estimate D2E/DX2                !
 ! D111  D(13,14,15,47)        -60.1835         estimate D2E/DX2                !
 ! D112  D(44,14,15,16)        -60.5423         estimate D2E/DX2                !
 ! D113  D(44,14,15,46)        178.1192         estimate D2E/DX2                !
 ! D114  D(44,14,15,47)         61.237          estimate D2E/DX2                !
 ! D115  D(45,14,15,16)         57.5868         estimate D2E/DX2                !
 ! D116  D(45,14,15,46)        -63.7516         estimate D2E/DX2                !
 ! D117  D(45,14,15,47)        179.3662         estimate D2E/DX2                !
 ! D118  D(14,15,16,17)       -179.438          estimate D2E/DX2                !
 ! D119  D(14,15,16,48)         59.8362         estimate D2E/DX2                !
 ! D120  D(14,15,16,49)        -59.0455         estimate D2E/DX2                !
 ! D121  D(46,15,16,17)        -58.7742         estimate D2E/DX2                !
 ! D122  D(46,15,16,48)       -179.5            estimate D2E/DX2                !
 ! D123  D(46,15,16,49)         61.6182         estimate D2E/DX2                !
 ! D124  D(47,15,16,17)         59.6491         estimate D2E/DX2                !
 ! D125  D(47,15,16,48)        -61.0767         estimate D2E/DX2                !
 ! D126  D(47,15,16,49)       -179.9584         estimate D2E/DX2                !
 ! D127  D(15,16,17,50)        -60.6039         estimate D2E/DX2                !
 ! D128  D(15,16,17,51)       -177.0504         estimate D2E/DX2                !
 ! D129  D(48,16,17,50)         60.2387         estimate D2E/DX2                !
 ! D130  D(48,16,17,51)        -56.2078         estimate D2E/DX2                !
 ! D131  D(49,16,17,50)        178.8228         estimate D2E/DX2                !
 ! D132  D(49,16,17,51)         62.3763         estimate D2E/DX2                !
 --------------------------------------------------------------------------------
 Trust Radius=3.00D-01 FncErr=1.00D-07 GrdErr=1.00D-06 EigMax=2.50D+02 EigMin=1.00D-04
 Number of steps in this run=    288 maximum allowed number of steps=    306.
 GradGradGradGradGradGradGradGradGradGradGradGradGradGradGradGradGradGrad

 Stoichiometry    C15H34N2
 Framework group  C1[X(C15H34N2)]
 Deg. of freedom   147
 Full point group                 C1      NOp   1
 Largest Abelian subgroup         C1      NOp   1
 Largest concise Abelian subgroup C1      NOp   1
                         Standard orientation:                         
 ---------------------------------------------------------------------
 Center     Atomic      Atomic             Coordinates (Angstroms)
 Number     Number       Type             X           Y           Z
 ---------------------------------------------------------------------
      1          6           0       -6.886745   -1.302427    0.167097
      2          6           0       -5.722918   -0.469313   -0.306149
      3          6           0       -4.354220   -0.910771    0.206583
      4          7           0       -3.283897    0.013636   -0.228880
      5          6           0       -3.464651    1.380119    0.280297
      6          6           0       -4.559018    2.318264   -0.210671
      7          6           0       -1.958089   -0.537967    0.195246
      8          6           0       -0.637200    0.195123   -0.257489
      9          6           0       -0.484753    1.635710    0.294847
     10          6           0        0.633223   -0.615770    0.177093
     11          6           0        0.653583   -2.057106   -0.353171
     12          6           0        1.907228    0.117627   -0.288804
     13          6           0        3.192186   -0.503269    0.203440
     14          6           0        4.360357    0.351253   -0.261524
     15          6           0        5.648993   -0.285335    0.220032
     16          6           0        6.844689    0.512576   -0.265222
     17          7           0        8.062307   -0.130674    0.201558
     18          1           0       -7.812783   -0.823612   -0.173299
     19          1           0       -6.911210   -1.317364    1.261731
     20          1           0       -6.847878   -2.320236   -0.217077
     21          1           0       -5.965289    0.494625    0.108210
     22          1           0       -5.713651   -0.373681   -1.398621
     23          1           0       -4.157053   -1.917119   -0.184994
     24          1           0       -4.366391   -0.991203    1.302505
     25          1           0       -2.667895    1.909847   -0.159142
     26          1           0       -3.363348    1.419735    1.376111
     27          1           0       -4.716570    2.188958   -1.288344
     28          1           0       -4.224299    3.351285   -0.052934
     29          1           0       -5.494896    2.243962    0.332502
     30          1           0       -1.919258   -1.550805   -0.226308
     31          1           0       -1.933063   -0.662896    1.286885
     32          1           0       -0.650018    0.243687   -1.354928
     33          1           0       -0.710995    1.667779    1.364700
     34          1           0       -1.053379    2.379740   -0.256252
     35          1           0        0.489352    2.088687    0.155106
     36          1           0        0.642952   -0.664411    1.274852
     37          1           0        0.657457   -2.070940   -1.447816
     38          1           0       -0.191972   -2.646988    0.004956
     39          1           0        1.540654   -2.596624   -0.007004
     40          1           0        1.958625    1.127705    0.113481
     41          1           0        1.903086    0.214871   -1.381614
     42          1           0        3.313239   -1.517449   -0.180317
     43          1           0        3.174474   -0.548965    1.299579
     44          1           0        4.270501    1.373894    0.128823
     45          1           0        4.352988    0.424320   -1.356451
     46          1           0        5.702713   -1.315954   -0.152886
     47          1           0        5.637752   -0.337040    1.316234
     48          1           0        6.793787    1.538646    0.115426
     49          1           0        6.846355    0.558837   -1.358933
     50          1           0        8.065143   -0.153780    1.218373
     51          1           0        8.865995    0.429480   -0.080932
 ---------------------------------------------------------------------
 Rotational constants (GHZ):           1.4538803           0.1047808           0.0993415
 Standard basis: 6-31G(2df,p) (6D, 7F)
 There are   697 symmetry adapted cartesian basis functions of A   symmetry.
 There are   646 symmetry adapted basis functions of A   symmetry.
   646 basis functions,   986 primitive gaussians,   697 cartesian basis functions
    69 alpha electrons       69 beta electrons
       nuclear repulsion energy      1251.8020017809 Hartrees.
 NAtoms=   51 NActive=   51 NUniq=   51 SFac= 1.00D+00 NAtFMM=   60 NAOKFM=F Big=F
 Integral buffers will be    131072 words long.
 Raffenetti 2 integral format.
 Two-electron integral symmetry is turned on.
 One-electron integrals computed using PRISM.
 PrsmSu:  requested number of processors reduced to:  12 ShMem   1 Linda.
 NBasis=   646 RedAO= T EigKep=  2.98D-04  NBF=   646
 NBsUse=   646 1.00D-06 EigRej= -1.00D+00 NBFU=   646
 ExpMin= 1.61D-01 ExpMax= 4.17D+03 ExpMxC= 6.27D+02 IAcc=3 IRadAn=         5 AccDes= 0.00D+00
 Harris functional with IExCor=  402 and IRadAn=       5 diagonalized for initial guess.
 HarFok:  IExCor=  402 AccDes= 0.00D+00 IRadAn=         5 IDoV= 1 UseB2=F ITyADJ=14
 ICtDFT=  3500011 ScaDFX=  1.000000  1.000000  1.000000  1.000000
 FoFCou: FMM=F IPFlag=           0 FMFlag=      100000 FMFlg1=           0
         NFxFlg=           0 DoJE=T BraDBF=F KetDBF=T FulRan=T
         wScrn=  0.000000 ICntrl=       500 IOpCl=  0 I1Cent=   200000004 NGrid=           0
         NMat0=    1 NMatS0=      1 NMatT0=    0 NMatD0=    1 NMtDS0=    0 NMtDT0=    0
 Petite list used in FoFCou.
 Requested convergence on RMS density matrix=1.00D-08 within 128 cycles.
 Requested convergence on MAX density matrix=1.00D-06.
 Requested convergence on             energy=1.00D-06.
 No special actions if energy rises.
 Integral accuracy reduced to 1.0D-05 until final iterations.
 Initial convergence to 1.0D-05 achieved.  Increase integral accuracy.
 SCF Done:  E(RB3LYP) =  -701.583297471     A.U. after   12 cycles
            NFock= 12  Conv=0.26D-08     -V/T= 2.0083

 **********************************************************************

            Population analysis using the SCF density.

 **********************************************************************

 Orbital symmetries:
       Occupied  (A) (A) (A) (A) (A) (A) (A) (A) (A) (A) (A) (A)
                 (A) (A) (A) (A) (A) (A) (A) (A) (A) (A) (A) (A)
                 (A) (A) (A) (A) (A) (A) (A) (A) (A) (A) (A) (A)
                 (A) (A) (A) (A) (A) (A) (A) (A) (A) (A) (A) (A)
                 (A) (A) (A) (A) (A) (A) (A) (A) (A) (A) (A) (A)
                 (A) (A) (A) (A) (A) (A) (A) (A) (A)
       Virtual   (A) (A) (A) (A) (A) (A) (A) (A) (A) (A) (A) (A)
                 (A) (A) (A) (A) (A) (A) (A) (A) (A) (A) (A) (A)
                 (A) (A) (A) (A) (A) (A) (A) (A) (A) (A) (A) (A)
                 (A) (A) (A) (A) (A) (A) (A) (A) (A) (A) (A) (A)
                 (A) (A) (A) (A) (A) (A) (A) (A) (A) (A) (A) (A)
                 (A) (A) (A) (A) (A) (A) (A) (A) (A) (A) (A) (A)
                 (A) (A) (A) (A) (A) (A) (A) (A) (A) (A) (A) (A)
                 (A) (A) (A) (A) (A) (A) (A) (A) (A) (A) (A) (A)
                 (A) (A) (A) (A) (A) (A) (A) (A) (A) (A) (A) (A)
                 (A) (A) (A) (A) (A) (A) (A) (A) (A) (A) (A) (A)
                 (A) (A) (A) (A) (A) (A) (A) (A) (A) (A) (A) (A)
                 (A) (A) (A) (A) (A) (A) (A) (A) (A) (A) (A) (A)
                 (A) (A) (A) (A) (A) (A) (A) (A) (A) (A) (A) (A)
                 (A) (A) (A) (A) (A) (A) (A) (A) (A) (A) (A) (A)
                 (A) (A) (A) (A) (A) (A) (A) (A) (A) (A) (A) (A)
                 (A) (A) (A) (A) (A) (A) (A) (A) (A) (A) (A) (A)
                 (A) (A) (A) (A) (A) (A) (A) (A) (A) (A) (A) (A)
                 (A) (A) (A) (A) (A) (A) (A) (A) (A) (A) (A) (A)
                 (A) (A) (A) (A) (A) (A) (A) (A) (A) (A) (A) (A)
                 (A) (A) (A) (A) (A) (A) (A) (A) (A) (A) (A) (A)
                 (A) (A) (A) (A) (A) (A) (A) (A) (A) (A) (A) (A)
                 (A) (A) (A) (A) (A) (A) (A) (A) (A) (A) (A) (A)
                 (A) (A) (A) (A) (A) (A) (A) (A) (A) (A) (A) (A)
                 (A) (A) (A) (A) (A) (A) (A) (A) (A) (A) (A) (A)
                 (A) (A) (A) (A) (A) (A) (A) (A) (A) (A) (A) (A)
                 (A) (A) (A) (A) (A) (A) (A) (A) (A) (A) (A) (A)
                 (A) (A) (A) (A) (A) (A) (A) (A) (A) (A) (A) (A)
                 (A) (A) (A) (A) (A) (A) (A) (A) (A) (A) (A) (A)
                 (A) (A) (A) (A) (A) (A) (A) (A) (A) (A) (A) (A)
                 (A) (A) (A) (A) (A) (A) (A) (A) (A) (A) (A) (A)
                 (A) (A) (A) (A) (A) (A) (A) (A) (A) (A) (A) (A)
                 (A) (A) (A) (A) (A) (A) (A) (A) (A) (A) (A) (A)
                 (A) (A) (A) (A) (A) (A) (A) (A) (A) (A) (A) (A)
                 (A) (A) (A) (A) (A) (A) (A) (A) (A) (A) (A) (A)
                 (A) (A) (A) (A) (A) (A) (A) (A) (A) (A) (A) (A)
                 (A) (A) (A) (A) (A) (A) (A) (A) (A) (A) (A) (A)
                 (A) (A) (A) (A) (A) (A) (A) (A) (A) (A) (A) (A)
                 (A) (A) (A) (A) (A) (A) (A) (A) (A) (A) (A) (A)
                 (A) (A) (A) (A) (A) (A) (A) (A) (A) (A) (A) (A)
                 (A) (A) (A) (A) (A) (A) (A) (A) (A) (A) (A) (A)
                 (A) (A) (A) (A) (A) (A) (A) (A) (A) (A) (A) (A)
                 (A) (A) (A) (A) (A) (A) (A) (A) (A) (A) (A) (A)
                 (A) (A) (A) (A) (A) (A) (A) (A) (A) (A) (A) (A)
                 (A) (A) (A) (A) (A) (A) (A) (A) (A) (A) (A) (A)
                 (A) (A) (A) (A) (A) (A) (A) (A) (A) (A) (A) (A)
                 (A) (A) (A) (A) (A) (A) (A) (A) (A) (A) (A) (A)
                 (A) (A) (A) (A) (A) (A) (A) (A) (A) (A) (A) (A)
                 (A) (A) (A) (A) (A) (A) (A) (A) (A) (A) (A) (A)
                 (A)
 The electronic state is 1-A.
 Alpha  occ. eigenvalues --  -14.31020 -14.29731 -10.19719 -10.19367 -10.19197
 Alpha  occ. eigenvalues --  -10.18641 -10.18290 -10.18197 -10.17013 -10.16831
 Alpha  occ. eigenvalues --  -10.16761 -10.16750 -10.16689 -10.16538 -10.16536
 Alpha  occ. eigenvalues --  -10.16361 -10.16328  -0.90072  -0.87406  -0.82025
 Alpha  occ. eigenvalues --   -0.78982  -0.77165  -0.74789  -0.73755  -0.71284
 Alpha  occ. eigenvalues --   -0.67776  -0.65352  -0.65058  -0.61122  -0.59023
 Alpha  occ. eigenvalues --   -0.57847  -0.57009  -0.55708  -0.54589  -0.48772
 Alpha  occ. eigenvalues --   -0.48485  -0.46923  -0.46187  -0.45866  -0.44683
 Alpha  occ. eigenvalues --   -0.44376  -0.43053  -0.42220  -0.42034  -0.41628
 Alpha  occ. eigenvalues --   -0.40913  -0.40441  -0.39599  -0.38087  -0.37691
 Alpha  occ. eigenvalues --   -0.37243  -0.36841  -0.36478  -0.35979  -0.34849
 Alpha  occ. eigenvalues --   -0.34358  -0.34171  -0.33482  -0.33038  -0.32663
 Alpha  occ. eigenvalues --   -0.32465  -0.32143  -0.31421  -0.30842  -0.30293
 Alpha  occ. eigenvalues --   -0.29159  -0.27794  -0.22545  -0.20489
 Alpha virt. eigenvalues --    0.08226   0.08599   0.09024   0.09978   0.10383
 Alpha virt. eigenvalues --    0.10650   0.11259   0.11599   0.12411   0.13188
 Alpha virt. eigenvalues --    0.13504   0.14243   0.14484   0.15115   0.15854
 Alpha virt. eigenvalues --    0.16331   0.16522   0.16819   0.17023   0.17469
 Alpha virt. eigenvalues --    0.17724   0.18176   0.19169   0.19313   0.19483
 Alpha virt. eigenvalues --    0.19565   0.20401   0.20539   0.20794   0.20932
 Alpha virt. eigenvalues --    0.21572   0.21703   0.22099   0.22946   0.23448
 Alpha virt. eigenvalues --    0.23877   0.24669   0.24975   0.25421   0.25802
 Alpha virt. eigenvalues --    0.26407   0.27305   0.27856   0.28474   0.29326
 Alpha virt. eigenvalues --    0.29883   0.31016   0.31955   0.34397   0.35201
 Alpha virt. eigenvalues --    0.42398   0.44554   0.45424   0.46168   0.46453
 Alpha virt. eigenvalues --    0.47098   0.47316   0.48137   0.49342   0.50833
 Alpha virt. eigenvalues --    0.50980   0.52257   0.52710   0.53036   0.53525
 Alpha virt. eigenvalues --    0.54596   0.54895   0.55350   0.55784   0.57138
 Alpha virt. eigenvalues --    0.57712   0.58320   0.58984   0.59687   0.60450
 Alpha virt. eigenvalues --    0.61222   0.61769   0.62559   0.62961   0.63772
 Alpha virt. eigenvalues --    0.65378   0.65793   0.67371   0.67760   0.68071
 Alpha virt. eigenvalues --    0.68317   0.69575   0.70772   0.70908   0.71496
 Alpha virt. eigenvalues --    0.71721   0.72262   0.72645   0.72868   0.73719
 Alpha virt. eigenvalues --    0.73921   0.74117   0.74206   0.74395   0.75420
 Alpha virt. eigenvalues --    0.75511   0.75666   0.76205   0.76380   0.77357
 Alpha virt. eigenvalues --    0.77664   0.78018   0.78454   0.79044   0.79277
 Alpha virt. eigenvalues --    0.79587   0.80471   0.80726   0.81428   0.81885
 Alpha virt. eigenvalues --    0.81948   0.82505   0.82639   0.83159   0.83643
 Alpha virt. eigenvalues --    0.84118   0.84439   0.85405   0.86403   0.87003
 Alpha virt. eigenvalues --    0.87577   0.88030   0.88627   0.88795   0.89276
 Alpha virt. eigenvalues --    0.89811   0.91093   0.91193   0.92285   0.95669
 Alpha virt. eigenvalues --    0.96246   0.97990   0.98706   1.01947   1.02937
 Alpha virt. eigenvalues --    1.04639   1.05607   1.07546   1.07861   1.09144
 Alpha virt. eigenvalues --    1.10465   1.12037   1.13637   1.14144   1.15145
 Alpha virt. eigenvalues --    1.16540   1.18032   1.18796   1.19680   1.20340
 Alpha virt. eigenvalues --    1.21829   1.22781   1.22946   1.25516   1.25918
 Alpha virt. eigenvalues --    1.26460   1.26881   1.27163   1.28859   1.30114
 Alpha virt. eigenvalues --    1.31121   1.31848   1.33388   1.34894   1.35768
 Alpha virt. eigenvalues --    1.36176   1.38456   1.38905   1.39491   1.40560
 Alpha virt. eigenvalues --    1.41387   1.42845   1.44223   1.45585   1.46577
 Alpha virt. eigenvalues --    1.47138   1.48676   1.49394   1.50245   1.51705
 Alpha virt. eigenvalues --    1.53548   1.53981   1.54592   1.55433   1.56298
 Alpha virt. eigenvalues --    1.57163   1.57573   1.57964   1.59858   1.60784
 Alpha virt. eigenvalues --    1.63091   1.64186   1.65155   1.66591   1.67247
 Alpha virt. eigenvalues --    1.68041   1.69344   1.69876   1.71558   1.72704
 Alpha virt. eigenvalues --    1.73387   1.73851   1.74890   1.75372   1.76208
 Alpha virt. eigenvalues --    1.79196   1.79874   1.81034   1.82738   1.83557
 Alpha virt. eigenvalues --    1.84358   1.85441   1.85779   1.87063   1.88679
 Alpha virt. eigenvalues --    1.89156   1.90256   1.91575   1.91809   1.92265
 Alpha virt. eigenvalues --    1.93757   1.94739   1.95494   1.95850   1.97471
 Alpha virt. eigenvalues --    1.98916   1.99052   2.00473   2.01485   2.02467
 Alpha virt. eigenvalues --    2.04156   2.05169   2.06710   2.07122   2.10456
 Alpha virt. eigenvalues --    2.11416   2.15283   2.17583   2.18687   2.20231
 Alpha virt. eigenvalues --    2.20705   2.20868   2.22061   2.22737   2.23684
 Alpha virt. eigenvalues --    2.24902   2.25988   2.26722   2.29019   2.29936
 Alpha virt. eigenvalues --    2.30424   2.30915   2.32343   2.34407   2.34502
 Alpha virt. eigenvalues --    2.35646   2.36328   2.37131   2.40035   2.40434
 Alpha virt. eigenvalues --    2.41790   2.42664   2.43766   2.45160   2.46449
 Alpha virt. eigenvalues --    2.46784   2.49398   2.52022   2.54674   2.56800
 Alpha virt. eigenvalues --    2.57255   2.57936   2.60424   2.62559   2.63664
 Alpha virt. eigenvalues --    2.65682   2.67088   2.67354   2.70423   2.71026
 Alpha virt. eigenvalues --    2.72671   2.73849   2.74545   2.74890   2.75709
 Alpha virt. eigenvalues --    2.76584   2.76927   2.77630   2.77674   2.78292
 Alpha virt. eigenvalues --    2.79293   2.79884   2.80117   2.81320   2.81480
 Alpha virt. eigenvalues --    2.81943   2.82689   2.83207   2.83380   2.84356
 Alpha virt. eigenvalues --    2.84801   2.85241   2.85777   2.86603   2.87286
 Alpha virt. eigenvalues --    2.88137   2.88352   2.89620   2.90160   2.90531
 Alpha virt. eigenvalues --    2.91442   2.91873   2.92364   2.93058   2.93199
 Alpha virt. eigenvalues --    2.93866   2.95158   2.95698   2.96877   2.97382
 Alpha virt. eigenvalues --    2.98540   2.98859   2.99579   3.00156   3.00198
 Alpha virt. eigenvalues --    3.01597   3.01837   3.02795   3.03313   3.03715
 Alpha virt. eigenvalues --    3.04587   3.06648   3.07360   3.08534   3.09294
 Alpha virt. eigenvalues --    3.10432   3.11721   3.13542   3.14700   3.16076
 Alpha virt. eigenvalues --    3.16314   3.17273   3.18803   3.21117   3.22101
 Alpha virt. eigenvalues --    3.23551   3.25032   3.25785   3.26768   3.27856
 Alpha virt. eigenvalues --    3.29950   3.31482   3.31819   3.32191   3.33954
 Alpha virt. eigenvalues --    3.35933   3.37152   3.37578   3.37730   3.38650
 Alpha virt. eigenvalues --    3.41644   3.42893   3.44030   3.44246   3.44835
 Alpha virt. eigenvalues --    3.45488   3.46789   3.47948   3.49305   3.49711
 Alpha virt. eigenvalues --    3.50499   3.52785   3.54024   3.55411   3.56230
 Alpha virt. eigenvalues --    3.56794   3.57433   3.59347   3.60088   3.61279
 Alpha virt. eigenvalues --    3.61686   3.61780   3.62412   3.62974   3.64889
 Alpha virt. eigenvalues --    3.65045   3.65960   3.67543   3.69490   3.70662
 Alpha virt. eigenvalues --    3.71173   3.72775   3.72946   3.73879   3.75084
 Alpha virt. eigenvalues --    3.75470   3.76966   3.78099   3.79038   3.79999
 Alpha virt. eigenvalues --    3.80299   3.81664   3.82398   3.84156   3.85244
 Alpha virt. eigenvalues --    3.86698   3.89224   3.89581   3.91653   3.92203
 Alpha virt. eigenvalues --    3.93195   3.95493   3.95877   3.96946   3.97618
 Alpha virt. eigenvalues --    3.99324   4.00712   4.02937   4.05392   4.08346
 Alpha virt. eigenvalues --    4.09615   4.10490   4.12001   4.17604   4.19903
 Alpha virt. eigenvalues --    4.23614   4.25459   4.27266   4.29790   4.31985
 Alpha virt. eigenvalues --    4.34131   4.34921   4.35409   4.37029   4.39688
 Alpha virt. eigenvalues --    4.40156   4.42339   4.43144   4.43556   4.44048
 Alpha virt. eigenvalues --    4.45106   4.45362   4.45600   4.46071   4.47058
 Alpha virt. eigenvalues --    4.47472   4.49297   4.50104   4.50497   4.51899
 Alpha virt. eigenvalues --    4.52768   4.53834   4.54483   4.54817   4.56261
 Alpha virt. eigenvalues --    4.56508   4.57078   4.57901   4.59132   4.59455
 Alpha virt. eigenvalues --    4.60053   4.60607   4.61092   4.61606   4.61888
 Alpha virt. eigenvalues --    4.63201   4.63656   4.64784   4.64909   4.65371
 Alpha virt. eigenvalues --    4.66399   4.66512   4.68086   4.68487   4.69334
 Alpha virt. eigenvalues --    4.69634   4.70177   4.71384   4.71581   4.72724
 Alpha virt. eigenvalues --    4.73264   4.73877   4.75082   4.75737   4.76059
 Alpha virt. eigenvalues --    4.77435   4.77851   4.78860   4.79153   4.80403
 Alpha virt. eigenvalues --    4.80862   4.81430   4.82176   4.82574   4.83471
 Alpha virt. eigenvalues --    4.83757   4.84226   4.85144   4.85984   4.87358
 Alpha virt. eigenvalues --    4.88203   4.88715   4.89533   4.90266   4.90722
 Alpha virt. eigenvalues --    4.92297   4.94501   4.94802   4.94977   4.95674
 Alpha virt. eigenvalues --    4.96773   4.97350   4.98237   4.99399   5.00760
 Alpha virt. eigenvalues --    5.01493   5.01627   5.03122   5.06776   5.06877
 Alpha virt. eigenvalues --    5.09892   5.11713   5.15432   5.18499   5.22232
 Alpha virt. eigenvalues --    5.23099   5.26517   5.28654   5.30489   5.31688
 Alpha virt. eigenvalues --    5.32615   5.35555   5.36915   5.39034   5.39145
 Alpha virt. eigenvalues --    5.42059   5.45178   5.45862   5.49693   5.51477
 Alpha virt. eigenvalues --    5.53791   5.54859   5.56543   5.58139   5.61831
 Alpha virt. eigenvalues --    5.66077   5.67724   5.72995   5.84169   5.89487
 Alpha virt. eigenvalues --    6.05145   6.11300   6.50143   9.68935  11.21253
 Alpha virt. eigenvalues --   11.28763  11.41446  11.43693  11.52058  11.58534
 Alpha virt. eigenvalues --   11.74147  11.85246  11.87809  11.94739  12.08915
 Alpha virt. eigenvalues --   12.17210  12.39040  12.48749  12.52463  12.68210
 Alpha virt. eigenvalues --   12.88952  17.45626
          Condensed to atoms (all electrons):
 Mulliken charges:
               1
     1  C   -0.385677
     2  C   -0.160044
     3  C   -0.121377
     4  N   -0.110572
     5  C   -0.067890
     6  C   -0.418224
     7  C   -0.155035
     8  C   -0.014181
     9  C   -0.408735
    10  C    0.040980
    11  C   -0.410432
    12  C   -0.177808
    13  C   -0.187964
    14  C   -0.174249
    15  C   -0.149395
    16  C   -0.143968
    17  N   -0.510933
    18  H    0.109737
    19  H    0.110495
    20  H    0.106237
    21  H    0.107416
    22  H    0.095224
    23  H    0.090808
    24  H    0.068749
    25  H    0.115990
    26  H    0.059454
    27  H    0.121812
    28  H    0.102724
    29  H    0.119833
    30  H    0.101517
    31  H    0.072019
    32  H    0.076580
    33  H    0.110399
    34  H    0.126151
    35  H    0.110824
    36  H    0.065452
    37  H    0.110613
    38  H    0.115087
    39  H    0.116016
    40  H    0.097339
    41  H    0.085847
    42  H    0.094836
    43  H    0.087949
    44  H    0.088543
    45  H    0.092088
    46  H    0.104283
    47  H    0.083666
    48  H    0.072894
    49  H    0.098802
    50  H    0.218742
    51  H    0.217378
 Sum of Mulliken charges =  -0.00000
 Mulliken charges with hydrogens summed into heavy atoms:
               1
     1  C   -0.059208
     2  C    0.042596
     3  C    0.038179
     4  N   -0.110572
     5  C    0.107554
     6  C   -0.073855
     7  C    0.018501
     8  C    0.062399
     9  C   -0.061362
    10  C    0.106432
    11  C   -0.068716
    12  C    0.005378
    13  C   -0.005178
    14  C    0.006382
    15  C    0.038554
    16  C    0.027728
    17  N   -0.074813
 Electronic spatial extent (au):  <R**2>=          10901.0768
 Charge=             -0.0000 electrons
 Dipole moment (field-independent basis, Debye):
    X=              0.4832    Y=              1.3049    Z=              0.8835  Tot=              1.6483
 Quadrupole moment (field-independent basis, Debye-Ang):
   XX=           -114.6720   YY=           -112.6406   ZZ=           -111.0939
   XY=              8.6201   XZ=              2.6686   YZ=             -0.0658
 Traceless Quadrupole moment (field-independent basis, Debye-Ang):
   XX=             -1.8698   YY=              0.1615   ZZ=              1.7083
   XY=              8.6201   XZ=              2.6686   YZ=             -0.0658
 Octapole moment (field-independent basis, Debye-Ang**2):
  XXX=             31.7763  YYY=              2.8937  ZZZ=              0.9329  XYY=             -3.6501
  XXY=             90.5737  XXZ=             37.7067  XZZ=             19.9211  YZZ=              0.2426
  YYZ=             -2.0693  XYZ=             -3.3823
 Hexadecapole moment (field-independent basis, Debye-Ang**3):
 XXXX=         -13203.4064 YYYY=          -1072.8385 ZZZZ=           -269.6418 XXXY=            644.2967
 XXXZ=            280.3606 YYYX=              5.1953 YYYZ=              0.6753 ZZZX=             21.0001
 ZZZY=             -1.2256 XXYY=          -2489.0589 XXZZ=          -2178.5293 YYZZ=           -229.2666
 XXYZ=             -3.7908 YYXZ=             10.5285 ZZXY=             -2.9385
 N-N= 1.251802001781D+03 E-N=-4.127642739339D+03  KE= 6.958272442817D+02
 PrsmSu:  requested number of processors reduced to:  12 ShMem   1 Linda.
 Calling FoFJK, ICntrl=      2127 FMM=F ISym2X=0 I1Cent= 0 IOpClX= 0 NMat=1 NMatS=1 NMatT=0.
 ***** Axes restored to original set *****
 -------------------------------------------------------------------
 Center     Atomic                   Forces (Hartrees/Bohr)
 Number     Number              X              Y              Z
 -------------------------------------------------------------------
      1        6          -0.007338560   -0.000453256   -0.003548858
      2        6           0.000601856    0.001510955    0.004731366
      3        6           0.009330548    0.005523973   -0.006800287
      4        7          -0.005029364   -0.003931810   -0.001033199
      5        6           0.002226154   -0.001189429   -0.003974249
      6        6          -0.008845431    0.008522428   -0.000786525
      7        6           0.005154662    0.008565240   -0.007674819
      8        6          -0.002777874    0.002454224    0.005679292
      9        6           0.004501962    0.006282125   -0.002066843
     10        6          -0.000217444    0.007413904   -0.006317832
     11        6          -0.003228416   -0.002482926    0.001875720
     12        6          -0.009646664   -0.001691104    0.006124696
     13        6           0.003650033    0.007242599   -0.006280150
     14        6          -0.006784129   -0.009666848    0.002916596
     15        6           0.008667325    0.008104480   -0.004474032
     16        6          -0.001519689   -0.010824154    0.008677708
     17        7           0.011483829   -0.010466806   -0.005623929
     18        1          -0.003545832   -0.002870439   -0.001748811
     19        1          -0.003068906   -0.002247143   -0.001536815
     20        1          -0.005616193   -0.002753012   -0.001552747
     21        1           0.009363239    0.005348658    0.001813556
     22        1           0.000571079   -0.001892056    0.000999419
     23        1           0.003802387   -0.002578595    0.000970480
     24        1          -0.004225890   -0.001290736    0.004415157
     25        1           0.020314242   -0.012836744    0.006337007
     26        1          -0.001372665    0.001084371    0.003414117
     27        1          -0.003758707    0.001023595    0.002084727
     28        1           0.001730113   -0.002500349   -0.000544699
     29        1          -0.004809317    0.004661772   -0.002703642
     30        1           0.000424295    0.002525901    0.002406696
     31        1          -0.000157304   -0.001757138    0.006465844
     32        1          -0.000300649   -0.000765228   -0.000277005
     33        1          -0.000440763    0.004841218    0.000441193
     34        1          -0.010553340    0.004022387    0.001765833
     35        1           0.002221783   -0.013789695   -0.000458567
     36        1           0.000484569    0.000834242    0.001592151
     37        1          -0.000920704    0.000244126   -0.001342085
     38        1          -0.001089274    0.002283050   -0.001463981
     39        1           0.001607822    0.001334807   -0.000449975
     40        1          -0.002552986    0.005570609   -0.001416130
     41        1          -0.000179520   -0.001268403   -0.001701243
     42        1           0.000120771   -0.004084781    0.000199099
     43        1          -0.000643528   -0.002186545   -0.000732244
     44        1          -0.000429657    0.000313764   -0.000557126
     45        1           0.000561797   -0.000135574    0.000033490
     46        1           0.002798514   -0.001619001    0.001490894
     47        1           0.001252801   -0.001531919    0.000550746
     48        1          -0.001535494    0.010227265    0.000264826
     49        1           0.001008518   -0.000882991   -0.000999225
     50        1           0.001638165    0.000828104   -0.000520552
     51        1          -0.002928164   -0.003067116    0.001334955
 -------------------------------------------------------------------
 Cartesian Forces:  Max     0.020314242 RMS     0.004780259

 GradGradGradGradGradGradGradGradGradGradGradGradGradGradGradGradGradGrad
 Berny optimization.
 FormGI is forming the generalized inverse of G from B-inverse, IUseBI=4.
 Internal  Forces:  Max     0.030813528 RMS     0.006323263
 Search for a local minimum.
 Step number   1 out of a maximum of  288
 All quantities printed in internal units (Hartrees-Bohrs-Radians)
 Mixed Optimization -- RFO/linear search
 Second derivative matrix not updated -- first step.
 ITU=  0
     Eigenvalues ---    0.00230   0.00230   0.00230   0.00230   0.00291
     Eigenvalues ---    0.00405   0.00411   0.00465   0.00499   0.00539
     Eigenvalues ---    0.00557   0.00636   0.00639   0.00667   0.00773
     Eigenvalues ---    0.00977   0.02631   0.02952   0.03277   0.03372
     Eigenvalues ---    0.03398   0.03405   0.03449   0.03906   0.04030
     Eigenvalues ---    0.04101   0.04208   0.04452   0.04561   0.04619
     Eigenvalues ---    0.04679   0.04825   0.04833   0.04915   0.05007
     Eigenvalues ---    0.05024   0.05024   0.05043   0.05106   0.05113
     Eigenvalues ---    0.05138   0.05236   0.05267   0.05449   0.05514
     Eigenvalues ---    0.05632   0.05638   0.05741   0.05953   0.06121
     Eigenvalues ---    0.07775   0.07776   0.08041   0.08632   0.08801
     Eigenvalues ---    0.08954   0.09188   0.10319   0.10836   0.11748
     Eigenvalues ---    0.11753   0.11955   0.12407   0.12493   0.12583
     Eigenvalues ---    0.12746   0.13499   0.14148   0.16000   0.16000
     Eigenvalues ---    0.16000   0.16000   0.16000   0.16000   0.16000
     Eigenvalues ---    0.16000   0.16000   0.16000   0.16000   0.16000
     Eigenvalues ---    0.16000   0.16000   0.16174   0.16337   0.16542
     Eigenvalues ---    0.17127   0.17311   0.17357   0.21824   0.21876
     Eigenvalues ---    0.21884   0.21907   0.21915   0.21931   0.22008
     Eigenvalues ---    0.22059   0.22251   0.25472   0.26131   0.27621
     Eigenvalues ---    0.28335   0.28884   0.29721   0.30102   0.30347
     Eigenvalues ---    0.30640   0.30772   0.31389   0.31604   0.32662
     Eigenvalues ---    0.33550   0.33788   0.33800   0.33806   0.33839
     Eigenvalues ---    0.33872   0.33932   0.33938   0.33962   0.33973
     Eigenvalues ---    0.33979   0.33983   0.33990   0.34001   0.34041
     Eigenvalues ---    0.34051   0.34053   0.34175   0.34240   0.34271
     Eigenvalues ---    0.34276   0.34304   0.34356   0.34595   0.34650
     Eigenvalues ---    0.34687   0.34976   0.34992   0.35212   0.35440
     Eigenvalues ---    0.35595   0.35809   0.36377   0.37720   0.39482
     Eigenvalues ---    0.44409   0.44807
 RFO step:  Lambda=-5.19256922D-02 EMin= 2.30000000D-03
 Linear search not attempted -- first point.
 Maximum step size (   0.300) exceeded in Quadratic search.
    -- Step size scaled by   0.775
 Iteration  1 RMS(Cart)=  0.25636724 RMS(Int)=  0.01137854
 Iteration  2 RMS(Cart)=  0.13877386 RMS(Int)=  0.00247931
 Iteration  3 RMS(Cart)=  0.00691198 RMS(Int)=  0.00041294
 Iteration  4 RMS(Cart)=  0.00000763 RMS(Int)=  0.00041292
 Iteration  5 RMS(Cart)=  0.00000001 RMS(Int)=  0.00041292
 Variable       Old X    -DE/DX   Delta X   Delta X   Delta X     New X
                                 (Linear)    (Quad)   (Total)
    R1        2.84875   0.01992   0.00000   0.04196   0.04196   2.89070
    R2        2.07240  -0.00121   0.00000  -0.00240  -0.00240   2.07000
    R3        2.06927   0.00037   0.00000   0.00073   0.00073   2.07000
    R4        2.05714   0.00473   0.00000   0.00913   0.00913   2.06627
    R5        2.88523   0.00136   0.00000   0.00303   0.00303   2.88826
    R6        2.03496   0.00649   0.00000   0.01211   0.01211   2.04707
    R7        2.07244  -0.00134   0.00000  -0.00264  -0.00264   2.06980
    R8        2.79638   0.00044   0.00000   0.00086   0.00086   2.79724
    R9        2.07435   0.00017   0.00000   0.00034   0.00034   2.07469
   R10        2.07669   0.00580   0.00000   0.01152   0.01152   2.08821
   R11        2.77681   0.00346   0.00000   0.00654   0.00654   2.78335
   R12        2.82949  -0.00638   0.00000  -0.01305  -0.01305   2.81644
   R13        2.87760   0.01391   0.00000   0.03055   0.03055   2.90815
   R14        1.98964   0.01911   0.00000   0.03315   0.03315   2.02279
   R15        2.08096   0.00306   0.00000   0.00612   0.00612   2.08709
   R16        2.07261  -0.00216   0.00000  -0.00427  -0.00427   2.06834
   R17        2.07358  -0.00025   0.00000  -0.00050  -0.00050   2.07308
   R18        2.04966   0.00474   0.00000   0.00904   0.00904   2.05870
   R19        2.98022  -0.00553   0.00000  -0.01398  -0.01398   2.96624
   R20        2.07445  -0.00339   0.00000  -0.00672  -0.00672   2.06773
   R21        2.07690   0.00621   0.00000   0.01235   0.01235   2.08925
   R22        2.92975  -0.00148   0.00000  -0.00349  -0.00349   2.92626
   R23        2.96415   0.00519   0.00000   0.01285   0.01285   2.97700
   R24        2.07603  -0.00012   0.00000  -0.00025  -0.00025   2.07579
   R25        2.06733  -0.00016   0.00000  -0.00032  -0.00032   2.06701
   R26        2.05331   0.00245   0.00000   0.00470   0.00470   2.05802
   R27        2.04719   0.00490   0.00000   0.00932   0.00932   2.05651
   R28        2.90246   0.00154   0.00000   0.00350   0.00350   2.90597
   R29        2.91412   0.00592   0.00000   0.01368   0.01368   2.92780
   R30        2.07658   0.00094   0.00000   0.00188   0.00188   2.07846
   R31        2.06876   0.00099   0.00000   0.00195   0.00195   2.07071
   R32        2.06247   0.00103   0.00000   0.00200   0.00200   2.06447
   R33        2.06820  -0.00088   0.00000  -0.00172  -0.00172   2.06648
   R34        2.85276   0.02181   0.00000   0.04620   0.04620   2.89896
   R35        2.05688   0.00088   0.00000   0.00170   0.00170   2.05858
   R36        2.07329   0.00091   0.00000   0.00180   0.00180   2.07509
   R37        2.87277   0.01361   0.00000   0.02967   0.02967   2.90244
   R38        2.06187   0.00242   0.00000   0.00471   0.00471   2.06658
   R39        2.07347   0.00031   0.00000   0.00061   0.00061   2.07408
   R40        2.86449   0.01593   0.00000   0.03433   0.03433   2.89882
   R41        2.07547  -0.00034   0.00000  -0.00068  -0.00068   2.07479
   R42        2.07376   0.00012   0.00000   0.00023   0.00023   2.07399
   R43        2.86705   0.00811   0.00000   0.01755   0.01755   2.88460
   R44        2.07365  -0.00105   0.00000  -0.00207  -0.00207   2.07158
   R45        2.07393   0.00056   0.00000   0.00111   0.00111   2.07504
   R46        2.74775   0.01445   0.00000   0.02611   0.02611   2.77385
   R47        2.07035   0.00584   0.00000   0.01149   0.01149   2.08184
   R48        2.06866   0.00092   0.00000   0.00181   0.00181   2.07047
   R49        1.92201  -0.00127   0.00000  -0.00197  -0.00197   1.92004
   R50        1.92668  -0.00288   0.00000  -0.00450  -0.00450   1.92218
    A1        1.88933   0.00517   0.00000   0.02074   0.02057   1.90990
    A2        1.91623   0.00286   0.00000   0.01036   0.01026   1.92650
    A3        1.95882   0.00373   0.00000   0.01179   0.01173   1.97055
    A4        1.87274  -0.00231   0.00000  -0.00454  -0.00475   1.86799
    A5        1.90586  -0.00471   0.00000  -0.01729  -0.01741   1.88845
    A6        1.91860  -0.00490   0.00000  -0.02132  -0.02132   1.89728
    A7        2.01182  -0.01063   0.00000  -0.02994  -0.03018   1.98164
    A8        1.77230   0.01032   0.00000   0.05434   0.05449   1.82679
    A9        1.94705   0.00189   0.00000  -0.00450  -0.00520   1.94185
   A10        1.90855   0.00037   0.00000   0.00538   0.00580   1.91435
   A11        1.93068   0.00191   0.00000  -0.00919  -0.00971   1.92097
   A12        1.88299  -0.00301   0.00000  -0.00995  -0.01005   1.87295
   A13        1.94868   0.02742   0.00000   0.08271   0.08241   2.03109
   A14        1.88210  -0.00646   0.00000  -0.02180  -0.02072   1.86138
   A15        1.92424  -0.00744   0.00000  -0.00976  -0.01112   1.91313
   A16        1.91539  -0.01283   0.00000  -0.05181  -0.05125   1.86414
   A17        1.92538  -0.00516   0.00000   0.00069  -0.00064   1.92474
   A18        1.86569   0.00325   0.00000  -0.00501  -0.00554   1.86014
   A19        1.97141   0.01118   0.00000   0.04078   0.04154   2.01295
   A20        1.90388  -0.02116   0.00000  -0.07147  -0.07201   1.83188
   A21        1.93195   0.01107   0.00000   0.03899   0.03978   1.97173
   A22        2.15268  -0.01044   0.00000  -0.02878  -0.02903   2.12366
   A23        1.80305  -0.00232   0.00000   0.00007   0.00066   1.80371
   A24        1.94653   0.00512   0.00000   0.00470   0.00404   1.95057
   A25        1.67028   0.01338   0.00000   0.06790   0.06826   1.73853
   A26        1.94421   0.00029   0.00000  -0.00994  -0.01045   1.93375
   A27        1.90457  -0.00519   0.00000  -0.02439  -0.02441   1.88016
   A28        1.92560   0.00194   0.00000   0.00515   0.00514   1.93074
   A29        1.89064  -0.00455   0.00000  -0.01501  -0.01498   1.87567
   A30        2.00032   0.00537   0.00000   0.01996   0.01998   2.02030
   A31        1.87136   0.00096   0.00000   0.00268   0.00269   1.87405
   A32        1.93911  -0.00526   0.00000  -0.02178  -0.02180   1.91731
   A33        1.82938   0.00121   0.00000   0.00818   0.00823   1.83761
   A34        2.08181   0.03081   0.00000   0.09104   0.09042   2.17223
   A35        1.83635  -0.01187   0.00000  -0.05038  -0.04863   1.78772
   A36        1.92132  -0.00724   0.00000  -0.00108  -0.00332   1.91800
   A37        1.86400  -0.01061   0.00000  -0.04590  -0.04429   1.81971
   A38        1.89537  -0.00793   0.00000  -0.00656  -0.00885   1.88652
   A39        1.85016   0.00432   0.00000   0.00075   0.00011   1.85027
   A40        1.99546   0.00708   0.00000   0.03127   0.03212   2.02758
   A41        1.93748  -0.01781   0.00000  -0.06635  -0.06720   1.87028
   A42        1.87292   0.00228   0.00000  -0.00283  -0.00416   1.86877
   A43        1.87760   0.01168   0.00000   0.04405   0.04474   1.92234
   A44        1.89227  -0.00362   0.00000   0.00417   0.00416   1.89643
   A45        1.88501   0.00015   0.00000  -0.01177  -0.01291   1.87210
   A46        1.93404   0.00454   0.00000   0.00923   0.00915   1.94319
   A47        1.98681  -0.00190   0.00000  -0.00411  -0.00402   1.98279
   A48        2.01639  -0.01194   0.00000  -0.03913  -0.03908   1.97730
   A49        1.94734  -0.00435   0.00000  -0.02352  -0.02354   1.92380
   A50        1.87533   0.00229   0.00000   0.00390   0.00379   1.87912
   A51        1.68990   0.01165   0.00000   0.05651   0.05671   1.74661
   A52        1.98255  -0.00967   0.00000  -0.03512  -0.03508   1.94747
   A53        1.91725   0.01513   0.00000   0.05817   0.05811   1.97536
   A54        1.88266  -0.00198   0.00000  -0.00717  -0.00765   1.87501
   A55        1.90821  -0.00458   0.00000  -0.01356  -0.01301   1.89520
   A56        1.87888   0.00408   0.00000   0.00288   0.00253   1.88142
   A57        1.89183  -0.00303   0.00000  -0.00544  -0.00567   1.88616
   A58        1.93598   0.00093   0.00000   0.00156   0.00156   1.93754
   A59        1.96453  -0.00038   0.00000  -0.00115  -0.00116   1.96337
   A60        1.94352  -0.00081   0.00000  -0.00138  -0.00138   1.94214
   A61        1.90077  -0.00130   0.00000  -0.00756  -0.00756   1.89320
   A62        1.88301  -0.00025   0.00000  -0.00139  -0.00139   1.88163
   A63        1.83146   0.00182   0.00000   0.01010   0.01010   1.84155
   A64        1.99225   0.00665   0.00000   0.02065   0.02059   2.01285
   A65        1.94840  -0.00484   0.00000  -0.01600  -0.01652   1.93188
   A66        1.91768  -0.00157   0.00000  -0.01004  -0.01005   1.90763
   A67        1.79361   0.00353   0.00000   0.02729   0.02736   1.82096
   A68        1.94384  -0.00468   0.00000  -0.01944  -0.01927   1.92457
   A69        1.86091   0.00071   0.00000  -0.00221  -0.00221   1.85870
   A70        1.89985   0.01639   0.00000   0.05112   0.05106   1.95091
   A71        1.94126  -0.00281   0.00000  -0.00121  -0.00119   1.94008
   A72        1.90618  -0.00445   0.00000  -0.01011  -0.01004   1.89614
   A73        1.90674  -0.00594   0.00000  -0.01704  -0.01742   1.88931
   A74        1.91916  -0.00477   0.00000  -0.01383  -0.01398   1.90519
   A75        1.89067   0.00135   0.00000  -0.00967  -0.00996   1.88071
   A76        1.89656   0.02004   0.00000   0.06085   0.06090   1.95745
   A77        1.93031  -0.00660   0.00000  -0.01839  -0.01848   1.91183
   A78        1.91499  -0.00539   0.00000  -0.01242  -0.01246   1.90253
   A79        1.92589  -0.00551   0.00000  -0.01339  -0.01338   1.91251
   A80        1.92906  -0.00629   0.00000  -0.01688  -0.01700   1.91205
   A81        1.86719   0.00312   0.00000  -0.00165  -0.00205   1.86514
   A82        1.92571   0.01398   0.00000   0.04258   0.04262   1.96833
   A83        1.90507  -0.00192   0.00000   0.00249   0.00266   1.90773
   A84        1.90540  -0.00344   0.00000  -0.00566  -0.00547   1.89993
   A85        1.92481  -0.00589   0.00000  -0.02026  -0.02063   1.90419
   A86        1.93084  -0.00513   0.00000  -0.01815  -0.01835   1.91249
   A87        1.87098   0.00201   0.00000  -0.00214  -0.00246   1.86853
   A88        1.90141   0.00931   0.00000   0.02963   0.02950   1.93092
   A89        1.92283  -0.00623   0.00000  -0.01965  -0.02039   1.90244
   A90        1.92088  -0.00183   0.00000  -0.01044  -0.01041   1.91047
   A91        1.91951   0.00395   0.00000   0.03141   0.03147   1.95098
   A92        1.91575  -0.00568   0.00000  -0.02290  -0.02265   1.89310
   A93        1.88349   0.00031   0.00000  -0.00859  -0.00869   1.87480
   A94        1.91062  -0.00084   0.00000  -0.00332  -0.00331   1.90731
   A95        1.90509   0.00517   0.00000   0.01863   0.01863   1.92372
   A96        1.86219  -0.00224   0.00000  -0.00876  -0.00875   1.85344
    D1        3.03300   0.00298   0.00000   0.02917   0.02902   3.06202
    D2        0.97244   0.00103   0.00000   0.00216   0.00233   0.97477
    D3       -1.02935  -0.00174   0.00000  -0.01331  -0.01327  -1.04262
    D4        0.99381   0.00122   0.00000   0.01706   0.01683   1.01064
    D5       -1.06676  -0.00073   0.00000  -0.00995  -0.00986  -1.07661
    D6       -3.06855  -0.00350   0.00000  -0.02542  -0.02545  -3.09400
    D7       -1.14554   0.00289   0.00000   0.02885   0.02871  -1.11684
    D8        3.07708   0.00094   0.00000   0.00184   0.00202   3.07910
    D9        1.07528  -0.00183   0.00000  -0.01363  -0.01358   1.06171
   D10       -3.07289  -0.00835   0.00000  -0.07135  -0.07139   3.13890
   D11        1.10485  -0.00498   0.00000  -0.04346  -0.04326   1.06159
   D12       -0.92616  -0.00114   0.00000  -0.01972  -0.01950  -0.94566
   D13       -1.09019  -0.00144   0.00000  -0.01730  -0.01746  -1.10765
   D14        3.08755   0.00193   0.00000   0.01058   0.01067   3.09822
   D15        1.05654   0.00577   0.00000   0.03432   0.03443   1.09097
   D16        0.98123  -0.00375   0.00000  -0.03176  -0.03206   0.94918
   D17       -1.12420  -0.00037   0.00000  -0.00387  -0.00393  -1.12814
   D18        3.12797   0.00346   0.00000   0.01987   0.01983  -3.13539
   D19        1.07564   0.00149   0.00000   0.04569   0.04681   1.12246
   D20       -3.05128   0.00794   0.00000   0.07165   0.07205  -2.97923
   D21       -3.12167   0.00242   0.00000   0.03698   0.03675  -3.08491
   D22       -0.96540   0.00888   0.00000   0.06293   0.06199  -0.90341
   D23       -1.07045  -0.00445   0.00000  -0.00006   0.00012  -1.07032
   D24        1.08581   0.00201   0.00000   0.02589   0.02536   1.11117
   D25       -1.23374  -0.00165   0.00000   0.00346   0.00396  -1.22978
   D26       -3.08599  -0.01240   0.00000  -0.07054  -0.07002   3.12717
   D27        1.15380  -0.00741   0.00000  -0.04419  -0.04367   1.11012
   D28        2.90876   0.00962   0.00000   0.03818   0.03765   2.94641
   D29        1.05651  -0.00113   0.00000  -0.03583  -0.03632   1.02018
   D30       -0.98689   0.00386   0.00000  -0.00947  -0.00998  -0.99687
   D31        3.04886  -0.01153   0.00000  -0.10645  -0.10686   2.94200
   D32        0.95921  -0.00765   0.00000  -0.06363  -0.06284   0.89637
   D33       -1.02715  -0.00316   0.00000  -0.03782  -0.03723  -1.06438
   D34       -1.05482  -0.00460   0.00000  -0.07811  -0.07917  -1.13399
   D35        3.13871  -0.00072   0.00000  -0.03529  -0.03515   3.10357
   D36        1.15236   0.00377   0.00000  -0.00948  -0.00954   1.14281
   D37       -0.65056  -0.00199   0.00000  -0.02278  -0.02250  -0.67306
   D38       -2.69407  -0.00157   0.00000  -0.02011  -0.01984  -2.71390
   D39        1.55380  -0.00322   0.00000  -0.03215  -0.03184   1.52195
   D40        1.26986   0.00137   0.00000   0.01736   0.01720   1.28705
   D41       -0.77365   0.00179   0.00000   0.02003   0.01986  -0.75379
   D42       -2.80897   0.00013   0.00000   0.00800   0.00786  -2.80112
   D43       -3.03895   0.00197   0.00000   0.01939   0.01926  -3.01969
   D44        1.20073   0.00239   0.00000   0.02207   0.02193   1.22266
   D45       -0.83459   0.00073   0.00000   0.01003   0.00992  -0.82467
   D46        1.10658   0.00449   0.00000   0.06703   0.06785   1.17443
   D47       -3.04871   0.01137   0.00000   0.09693   0.09708  -2.95163
   D48       -0.99260   0.00303   0.00000   0.04422   0.04492  -0.94768
   D49       -3.10107   0.00043   0.00000   0.02306   0.02291  -3.07816
   D50       -0.97318   0.00730   0.00000   0.05295   0.05214  -0.92104
   D51        1.08293  -0.00103   0.00000   0.00024  -0.00002   1.08291
   D52       -1.11276  -0.00369   0.00000  -0.00227  -0.00216  -1.11492
   D53        1.01513   0.00318   0.00000   0.02763   0.02707   1.04220
   D54        3.07124  -0.00516   0.00000  -0.02509  -0.02509   3.04615
   D55        0.81087  -0.00567   0.00000  -0.02711  -0.02679   0.78408
   D56       -1.40091  -0.00204   0.00000   0.00040   0.00068  -1.40023
   D57        2.94860  -0.00793   0.00000  -0.04395  -0.04353   2.90507
   D58       -1.34949   0.00369   0.00000   0.00401   0.00371  -1.34578
   D59        2.72191   0.00732   0.00000   0.03152   0.03118   2.75309
   D60        0.78824   0.00143   0.00000  -0.01283  -0.01303   0.77521
   D61        2.89925  -0.00080   0.00000  -0.00770  -0.00779   2.89146
   D62        0.68746   0.00283   0.00000   0.01980   0.01968   0.70714
   D63       -1.24622  -0.00306   0.00000  -0.02454  -0.02452  -1.27074
   D64        0.98988  -0.00607   0.00000  -0.05670  -0.05581   0.93406
   D65        3.13315  -0.00753   0.00000  -0.05556  -0.05518   3.07797
   D66       -1.09123  -0.00389   0.00000  -0.03387  -0.03332  -1.12455
   D67       -3.09807  -0.00082   0.00000  -0.03060  -0.03058  -3.12864
   D68       -0.95479  -0.00228   0.00000  -0.02946  -0.02995  -0.98474
   D69        1.10401   0.00135   0.00000  -0.00777  -0.00808   1.09593
   D70       -1.05887   0.00114   0.00000  -0.00872  -0.00878  -1.06765
   D71        1.08441  -0.00032   0.00000  -0.00758  -0.00815   1.07625
   D72       -3.13997   0.00331   0.00000   0.01411   0.01371  -3.12626
   D73        1.07056   0.00464   0.00000   0.02018   0.02025   1.09081
   D74       -1.06410   0.00592   0.00000   0.02966   0.02973  -1.03438
   D75       -3.11524   0.00441   0.00000   0.01856   0.01862  -3.09662
   D76       -1.07768  -0.00477   0.00000  -0.02048  -0.02056  -1.09823
   D77        3.07084  -0.00349   0.00000  -0.01100  -0.01108   3.05977
   D78        1.01971  -0.00500   0.00000  -0.02210  -0.02218   0.99753
   D79       -3.12936  -0.00097   0.00000  -0.00827  -0.00826  -3.13762
   D80        1.01916   0.00031   0.00000   0.00121   0.00122   1.02038
   D81       -1.03197  -0.00120   0.00000  -0.00990  -0.00988  -1.04186
   D82        3.03552   0.00612   0.00000   0.03489   0.03486   3.07038
   D83        1.01098   0.00057   0.00000  -0.00257  -0.00239   1.00859
   D84       -1.04980   0.00370   0.00000   0.01657   0.01654  -1.03326
   D85       -1.06111   0.00109   0.00000   0.02098   0.02092  -1.04019
   D86       -3.08565  -0.00446   0.00000  -0.01648  -0.01633  -3.10199
   D87        1.13675  -0.00132   0.00000   0.00266   0.00260   1.13935
   D88        0.98242   0.00173   0.00000   0.01386   0.01373   0.99615
   D89       -1.04213  -0.00382   0.00000  -0.02360  -0.02352  -1.06564
   D90       -3.10291  -0.00069   0.00000  -0.00446  -0.00458  -3.10749
   D91       -3.08997   0.00006   0.00000  -0.00330  -0.00340  -3.09337
   D92        1.09150  -0.00148   0.00000  -0.01467  -0.01494   1.07656
   D93       -0.99439   0.00145   0.00000   0.00457   0.00441  -0.98999
   D94       -0.97716   0.00004   0.00000   0.00624   0.00653  -0.97062
   D95       -3.07887  -0.00150   0.00000  -0.00513  -0.00501  -3.08388
   D96        1.11842   0.00144   0.00000   0.01410   0.01434   1.13276
   D97        1.00914   0.00075   0.00000   0.00991   0.00995   1.01909
   D98       -1.09257  -0.00079   0.00000  -0.00146  -0.00159  -1.09416
   D99        3.10472   0.00215   0.00000   0.01778   0.01776   3.12248
   D100      -3.12929  -0.00032   0.00000  -0.00328  -0.00331  -3.13260
   D101       1.03742  -0.00232   0.00000  -0.01449  -0.01437   1.02305
   D102      -1.01835   0.00114   0.00000   0.00625   0.00625  -1.01210
   D103      -1.00641   0.00274   0.00000   0.01646   0.01626  -0.99015
   D104      -3.12289   0.00075   0.00000   0.00524   0.00520  -3.11769
   D105       1.10453   0.00420   0.00000   0.02599   0.02582   1.13035
   D106       1.06637  -0.00206   0.00000  -0.01393  -0.01388   1.05249
   D107      -1.05011  -0.00406   0.00000  -0.02515  -0.02495  -1.07505
[...]
 98,-0.00000168,-0.00000052,-0.00000149,0.00020723,-0.00012927,-0.00007
 327,-0.00001816,-0.00002762,-0.00000961,-0.00010779,0.00062420,-0.0000
 5604,0.00001820,0.00004066,0.00005827,0.00117414,0.00044009,0.00006384
 ,-0.00010482,0.00008908,0.00025192,0.10753080,0.20319976,-0.00000025,-
 0.00000109,-0.00000035,-0.00000119,0.00000028,0.00000006,-0.00000137,-
 0.00000122,-0.00000111,0.00000341,0.00000184,-0.00000069,-0.00000086,-
 0.00000042,0.00000123,-0.00000056,-0.00000026,0.00000021,-0.00000121,0
 .00000167,0.00000099,-0.00000510,-0.00000439,-0.00000010,-0.00000110,0
 .00000108,0.00000366,-0.00000096,0.00001602,0.00000243,0.00000393,0.00
 000385,-0.00000842,-0.00007484,-0.00004875,-0.00001798,0.00004320,0.00
 019361,-0.00002059,-0.00039488,0.00031340,0.00002772,0.00980212,0.0091
 8043,0.00410684,-0.04192655,-0.05284373,-0.07705602,0.00481076,0.01027
 909,0.00616906,0.,-0.00000012,0.00000006,0.00000041,0.00000019,0.00000
 012,0.00000016,0.00000078,0.,-0.00000004,0.00000043,0.00000036,0.00000
 046,-0.00000058,-0.00000047,-0.00000034,0.00000056,-0.00000007,0.00000
 077,-0.00000017,-0.00000026,-0.00000017,-0.00000011,0.00000043,0.00000
 088,0.00000062,-0.00000042,0.00000010,0.00000028,-0.00000025,0.0000000
 6,-0.00000012,-0.00000013,0.00000029,0.00000011,0.00000012,0.00000238,
 0.00000061,-0.00000102,-0.00000035,-0.00000046,0.00000066,0.00000121,0
 .00000102,0.00000064,-0.00000032,0.00000008,0.00000224,-0.00000008,0.0
 0000015,-0.00000050,-0.00000051,-0.00000043,-0.00000462,0.00000077,0.0
 0000012,-0.00000131,0.00000053,-0.00000115,0.00000147,0.00000244,-0.00
 000126,0.00000163,-0.00000073,-0.00000081,0.00000187,0.00000692,-0.000
 00430,0.00001382,-0.00000031,-0.00000072,0.00000133,-0.00001807,-0.000
 05487,-0.00005276,0.00001082,0.00000944,-0.00002499,-0.00022192,0.0000
 0025,0.00020980,0.00001183,-0.00016544,0.00004507,0.00285880,0.0002743
 9,0.00019175,-0.00074931,0.00056292,0.00095674,0.04394794,0.05664340,0
 .07471274,0.00000010,0.00000106,-0.00000002,-0.00000015,-0.00000011,0.
 00000040,0.00000125,0.00000032,0.00000224,-0.00000291,0.00000251,-0.00
 000196,0.00000006,-0.00000055,-0.00000077,0.00000005,-0.00000004,0.000
 00018,0.00000264,-0.00000287,0.00000119,0.00000423,-0.00000139,0.00000
 096,-0.00000168,0.00000220,0.00000006,0.00001290,-0.00001622,0.0000035
 0,0.00000375,-0.00000724,0.00000785,0.00001789,-0.00001548,-0.00010981
 ,-0.00008580,-0.00012267,0.00004560,0.00155285,-0.00111946,0.00069647,
 0.00019599,0.00013731,0.03250238,-0.04938456,-0.00197380,-0.01426294,-
 0.00078271,0.00487042,-0.01562144,-0.00000018,0.00000023,-0.00000046,0
 .00000003,-0.00000026,-0.00000013,-0.00000017,-0.00000061,0.00000018,-
 0.00000005,-0.00000004,-0.00000031,0.00000015,0.00000005,0.00000027,0.
 00000031,-0.00000007,0.00000023,-0.00000057,0.00000019,-0.00000027,-0.
 00000031,-0.00000035,-0.00000033,0.00000002,0.00000014,0.00000026,0.00
 000009,0.00000007,-0.00000010,-0.00000015,0.00000021,0.00000009,-0.000
 00024,0.00000014,-0.00000018,0.00000092,0.00000094,-0.00000016,-0.0000
 0043,-0.00000074,-0.00000070,-0.00000073,0.00000092,-0.00000142,-0.000
 00052,-0.00000104,-0.00000035,-0.00000010,0.00000116,-0.00000003,-0.00
 000007,-0.00000065,0.00000026,0.00000254,-0.00000621,-0.00000519,-0.00
 000283,0.00000316,-0.00000555,-0.00000172,0.00000046,-0.00000218,0.000
 00298,0.00000443,0.00000213,-0.00000325,0.00000633,-0.00000148,-0.0000
 2578,0.00004739,-0.00002543,-0.00000541,-0.00002502,0.00001635,0.00006
 799,-0.00001048,-0.00025925,-0.00008380,0.00014538,-0.00009026,-0.0001
 3353,0.00038138,-0.00069269,0.00157527,-0.00021950,-0.00057390,-0.0056
 0820,0.00088921,0.00288298,-0.00086469,-0.00145635,-0.01980442,0.05444
 036,-0.00000026,0.00000040,0.00000012,0.00000080,-0.00000007,-0.000000
 37,-0.00000122,0.00000128,-0.00000168,0.00000344,-0.00000475,0.0000004
 9,-0.00000070,0.00000113,0.00000172,0.00000038,0.00000006,-0.00000039,
 -0.00000327,0.00000184,0.00000043,0.00000201,0.00000387,-0.00000276,0.
 00000287,-0.00000284,-0.00000554,-0.00000098,-0.00000419,0.00000934,-0
 .00000050,0.00000143,-0.00000105,0.00000635,0.00000494,-0.00001971,0.0
 0006309,-0.00006052,0.00001144,-0.00032377,0.00039429,-0.00083689,-0.0
 0053003,-0.00023925,-0.00280636,-0.00139152,-0.04936718,-0.00351002,0.
 00286482,-0.00701821,0.03608153,0.00000027,-0.00000032,0.00000068,-0.0
 0000002,0.00000003,0.,0.00000005,-0.00000026,-0.00000027,0.00000003,-0
 .00000059,0.,-0.00000021,0.00000049,-0.00000028,-0.00000027,-0.0000007
 8,-0.00000009,0.00000060,-0.00000031,0.00000038,0.00000016,0.00000021,
 0.00000022,0.00000041,-0.00000017,-0.00000036,-0.00000025,-0.00000004,
 0.00000011,0.00000017,-0.00000041,-0.00000024,0.00000016,-0.00000002,0
 .00000026,-0.00000134,-0.00000095,0.00000106,-0.00000006,0.00000010,0.
 00000041,0.00000141,-0.00000023,0.00000087,-0.00000045,0.00000127,0.00
 000224,0.00000033,-0.00000158,0.00000112,-0.00000047,0.00000072,0.0000
 0079,-0.00000484,0.00000072,0.00000372,-0.00000040,0.00000173,-0.00000
 079,0.00000210,-0.00000095,-0.00000069,-0.00000202,-0.00000254,0.00000
 318,-0.00000076,-0.00000126,-0.00000589,0.00001542,-0.00000532,0.00001
 728,-0.00002475,-0.00001260,0.00001468,-0.00000559,-0.00004899,0.00008
 125,-0.00000849,0.00004401,-0.00008448,0.00027701,0.00008996,0.0002331
 0,0.00022136,0.00017330,0.00068054,0.00107479,0.00056609,0.00020255,-0
 .00183682,0.00073693,-0.02396526,-0.00387876,0.05867393,-0.00000144,-0
 .00000149,-0.00000011,0.00000117,-0.00000027,-0.00000170,-0.00000533,0
 .00000075,-0.00001023,0.00001065,-0.00000982,0.00000848,0.00000095,0.0
 0000010,-0.00000009,0.00000036,0.00000062,-0.00000170,-0.00000842,0.00
 000373,0.00000056,0.00000591,0.00000719,-0.00001634,0.00000595,-0.0000
 0599,-0.00000917,-0.00000542,-0.00002067,0.00001805,-0.00000268,0.0000
 0522,-0.00001424,0.00006771,0.00000703,-0.00003345,0.00021678,-0.00012
 308,0.00050831,-0.00078504,0.00054020,-0.00001476,0.00040990,-0.000479
 03,-0.01406402,-0.01583045,0.00417688,-0.29710563,-0.00120236,0.004582
 55,-0.00849879,0.00000150,-0.00000168,0.00000231,-0.00000056,0.0000006
 8,0.00000078,0.00000119,0.00000145,-0.00000091,0.00000039,0.00000004,0
 .00000065,-0.00000092,0.00000034,-0.00000110,-0.00000059,-0.00000033,-
 0.00000014,0.00000168,-0.00000084,0.00000174,0.00000110,0.00000089,0.0
 0000140,-0.00000042,-0.00000054,-0.00000012,-0.00000096,-0.00000058,0.
 00000021,0.00000009,-0.00000063,0.00000014,0.00000145,-0.00000032,0.00
 000102,-0.00000288,-0.00000255,0.00000139,0.00000108,0.00000170,0.0000
 0253,0.00000467,-0.00000031,0.00000573,0.00000004,0.00000284,0.0000053
 4,0.00000127,-0.00000397,0.00000133,-0.00000185,0.00000224,0.00000030,
 -0.00000380,0.00000459,0.00000926,0.00000339,-0.00000165,0.00000805,0.
 00000516,-0.00000043,0.00000215,-0.00000366,-0.00000785,0.00000135,-0.
 00000203,-0.00000345,-0.00000531,0.00003482,-0.00002611,0.00002919,-0.
 00000310,0.00000519,-0.00003479,-0.00026013,0.00008108,0.00015220,0.00
 005466,0.00001118,0.00004713,0.00052302,-0.00072733,0.00070268,0.00005
 348,0.00037475,0.00092368,0.00270183,0.00001293,0.00049288,-0.00070698
 ,-0.00141334,-0.01051687,0.01639152,-0.00858702,0.32555196,-0.00000086
 ,0.00000043,0.00000014,-0.00000010,0.00000058,-0.00000092,-0.00000423,
 0.00000404,-0.00000660,0.00001259,-0.00001967,0.00000179,-0.00000091,0
 .00000641,0.00000854,0.00000129,0.00000003,-0.00000217,-0.00001000,0.0
 0001282,0.00000198,0.00000189,0.00001085,-0.00001185,0.00000743,-0.000
 00817,0.00000020,-0.00000922,-0.00000350,0.00000711,-0.00000455,0.0000
 0844,-0.00000954,0.00000737,0.00001867,-0.00000335,-0.00001591,0.00000
 792,0.00004067,-0.00027676,0.00040746,0.00050527,0.00090126,-0.0003068
 2,-0.00245344,-0.00234239,-0.00496327,-0.01580168,-0.05201167,0.026035
 02,-0.06848171,0.00000056,-0.00000118,0.00000248,0.00000054,0.00000033
 ,-0.00000010,0.00000006,-0.00000056,-0.00000108,0.00000069,-0.00000218
 ,0.00000027,0.00000031,0.00000134,-0.00000102,-0.00000108,-0.00000283,
 -0.00000079,0.00000252,-0.00000079,0.00000095,0.00000042,0.00000105,0.
 00000011,0.00000071,-0.00000138,-0.00000160,-0.00000112,-0.00000034,0.
 00000128,0.00000116,-0.00000164,-0.00000114,0.00000026,-0.00000010,0.0
 0000089,-0.00000554,-0.00000476,0.00000261,0.00000057,0.00000026,0.000
 00006,0.00000088,-0.00000192,0.00000273,-0.00000052,0.00000298,-0.0000
 0019,0.00000161,-0.00000659,0.00000008,-0.00000040,0.00000458,-0.00000
 050,0.00000029,0.00000326,0.00000317,-0.00000028,-0.00000113,0.0000037
 3,0.00000660,-0.00000075,-0.00000047,-0.00000340,-0.00001133,0.0000038
 8,-0.00000194,-0.00001169,-0.00000116,0.00001023,-0.00001321,0.0000112
 8,-0.00003242,-0.00000416,-0.00001151,-0.00004155,0.00003243,0.0000563
 9,-0.00001370,-0.00016273,-0.00001147,0.00010917,-0.00029847,0.0002791
 3,-0.00017839,-0.00000122,-0.00010218,-0.00028966,0.00042251,0.0012136
 1,0.00064026,0.00057565,0.00127573,-0.00107904,0.00362646,-0.00117634,
 0.05220465,0.00000115,0.00000105,0.00000027,0.00000321,-0.00000123,-0.
 00000063,0.00000786,0.00000133,0.00000633,-0.00002079,0.00000927,0.000
 00569,0.00000700,-0.00000356,-0.00001226,-0.00000035,0.00000077,0.0000
 0139,0.00001571,-0.00000153,-0.00000780,-0.00000839,-0.00000636,0.0000
 1336,0.00000091,0.00000188,0.00000147,0.00001541,0.00001610,-0.0000166
 2,-0.00000821,0.00000859,0.00000573,-0.00004716,-0.00001444,0.00003654
 ,0.00000170,0.00006342,-0.00015941,-0.00018810,-0.00015253,-0.00002750
 ,-0.00087022,0.00134046,0.00046337,0.00658505,-0.00819883,0.03983676,0
 .01915531,-0.03038033,-0.01748119,-0.00000007,0.00000013,-0.00000125,-
 0.00000227,0.00000026,0.00000043,0.00000060,-0.00000048,-0.00000005,-0
 .00000055,0.00000050,-0.00000042,-0.00000271,-0.00000019,0.00000201,0.
 00000226,0.00000071,0.,-0.00000483,0.00000156,0.00000056,-0.00000024,-
 0.00000045,-0.00000145,-0.00000487,-0.00000119,0.00000306,0.00000009,-
 0.00000108,0.00000017,-0.00000076,0.00000197,0.00000138,-0.00000071,-0
 .00000016,-0.00000130,-0.00000465,-0.00000056,0.00000058,0.00000043,0.
 00000052,-0.00000159,-0.00000287,-0.00000034,-0.00000354,0.00000012,-0
 .00000290,-0.00000597,-0.00000083,0.00000386,-0.00000099,-0.00000163,-
 0.00000338,0.00000693,-0.00000082,-0.00000068,0.00000051,0.00000194,-0
 .00000158,-0.00000145,-0.00001207,0.00000103,0.00000129,0.00000855,0.0
 0000255,-0.00000324,0.00000053,-0.00001455,0.00000217,-0.00000599,0.00
 000198,-0.00000401,-0.00002903,-0.00000911,-0.00001095,0.00004581,0.00
 000180,-0.00000762,-0.00001060,-0.00014116,0.00004033,-0.00011528,0.00
 010265,-0.00018234,-0.00017142,-0.00006583,-0.00029809,0.00050255,0.00
 018658,-0.00081873,-0.00088479,0.00164562,0.00053757,0.00292214,-0.005
 28809,0.00134759,-0.02295848,0.04256985,-0.00000013,-0.00000011,-0.000
 00001,0.00000051,-0.00000031,-0.00000032,0.00000091,0.00000018,0.00000
 009,-0.00000269,0.00000175,0.00000149,0.00000181,-0.00000143,-0.000002
 62,0.00000010,0.00000034,-0.00000017,0.00000209,-0.00000091,0.00000013
 ,-0.00000039,-0.00000068,-0.00000101,0.00000039,0.00000041,-0.00000035
 ,0.00000044,-0.00000165,0.00000231,-0.00000087,0.00000029,-0.00000102,
 -0.00000043,-0.00000017,-0.00000872,0.00000632,0.00000689,0.00006477,0
 .00008575,0.00003615,0.00023229,-0.00016759,-0.00033760,0.00131712,-0.
 00299549,-0.00341656,-0.01138746,-0.03360397,0.02308793,-0.41004932,0.
 00000026,-0.00000013,-0.00000020,-0.00000040,0.00000009,0.00000027,0.0
 0000036,0.00000025,-0.00000005,-0.00000012,0.00000038,0.00000006,-0.00
 000057,-0.00000019,0.00000015,0.00000030,0.00000024,0.00000018,-0.0000
 0070,0.00000012,0.00000032,-0.00000028,-0.00000021,-0.00000008,-0.0000
 0067,0.00000004,0.00000049,-0.00000007,-0.00000015,0.,-0.00000023,0.00
 000030,0.00000040,-0.00000006,-0.00000008,0.,-0.00000026,0.00000039,-0
 .00000004,-0.00000019,-0.00000010,-0.00000010,0.00000028,0.00000010,0.
 00000027,-0.00000022,-0.00000027,0.,-0.00000023,0.00000037,0.00000008,
 -0.00000027,-0.00000056,0.00000027,0.00000010,-0.00000043,-0.00000014,
 0.00000055,-0.00000029,0.00000004,-0.00000088,0.00000020,0.00000067,0.
 00000058,0.00000090,0.,-0.00000041,-0.00000060,0.00000012,0.00000050,0
 .00000200,0.00000076,-0.00000023,-0.00000238,-0.00000748,-0.00001346,0
 .00000900,-0.00000506,-0.00000436,0.00003386,-0.00000362,0.00015254,-0
 .00016109,0.00000448,0.00000505,0.00004321,-0.00008079,-0.00080789,0.0
 0013394,0.00010501,0.00113612,-0.00055274,0.00145027,-0.00079320,0.002
 70598,0.00173175,0.04456835,-0.01939986,0.43513442,0.00000225,0.000000
 91,0.00000057,0.00000445,-0.00000224,0.00000018,0.00001303,-0.00000183
 ,0.00001403,-0.00003772,0.00003172,0.00000874,0.00000683,-0.00000927,-
 0.00002413,-0.00000173,0.00000082,0.00000435,0.00002790,-0.00000882,-0
 .00002080,-0.00002849,-0.00002369,0.00004426,-0.00000869,0.00000872,-0
 .00000391,0.00002287,0.00006809,-0.00007395,-0.00000819,0.00000956,0.0
 0002045,-0.00018635,-0.00007618,0.00015963,0.00005431,0.00051167,-0.00
 026509,-0.00080319,-0.00058473,0.00112185,-0.00058241,0.00490480,-0.00
 261651,-0.01411491,-0.00718547,0.00530651,-0.35109432,0.05945922,0.159
 38058,-0.00000076,0.00000156,-0.00000390,-0.00000303,-0.00000008,0.000
 00036,0.00000052,-0.00000019,0.00000111,-0.00000149,0.00000255,-0.0000
 0089,-0.00000367,-0.00000148,0.00000359,0.00000392,0.00000333,0.000000
 84,-0.00000794,0.00000257,-0.00000033,-0.00000015,-0.00000138,-0.00000
 146,-0.00000648,-0.00000008,0.00000531,0.00000125,-0.00000084,-0.00000
 106,-0.00000207,0.00000397,0.00000240,-0.00000108,-0.00000016,-0.00000
 206,-0.00000091,0.00000314,-0.00000146,0.00000001,0.00000156,-0.000000
 61,-0.00000370,0.00000203,-0.00000666,0.00000159,-0.00000550,-0.000004
 98,-0.00000252,0.00001166,0.00000015,-0.00000143,-0.00000946,0.0000104
 6,-0.00000195,-0.00000307,0.00000428,0.00000369,-0.00000116,-0.0000048
 5,-0.00002387,0.00000032,0.00000156,0.00001461,0.00001289,-0.00000893,
 0.00000756,-0.00001258,0.00000170,-0.00000517,0.00000470,-0.00001743,0
 .00000007,-0.00002739,-0.00000814,0.00000680,-0.00000279,0.00002415,0.
 00000285,0.00016998,-0.00000030,-0.00003469,0.00000553,-0.00010915,0.0
 0061874,-0.00005282,-0.00006186,0.00032634,-0.00015852,0.00000461,0.00
 174889,-0.00014140,0.00041951,0.00018720,-0.00014672,-0.00049635,0.002
 41232,-0.00391964,-0.00756707,0.36149893,0.00000031,0.00000104,0.00000
 018,0.00000220,-0.00000039,-0.00000024,0.00000362,0.00000122,0.0000030
 2,-0.00000688,-0.00000187,-0.00000324,0.00000473,-0.00000112,-0.000001
 65,0.00000078,0.00000050,-0.00000050,0.00000565,-0.00000750,0.00000755
 ,0.00001889,0.00000708,-0.00001536,0.00000518,-0.00000032,0.00000120,0
 .00000582,-0.00005840,0.00003524,-0.00000437,-0.00000617,0.00000198,0.
 00016385,0.00005144,-0.00010976,0.00010874,-0.00052919,0.00028074,0.00
 174495,0.00064959,-0.00065514,0.00043145,-0.00567325,0.00268683,0.0350
 1501,-0.00924374,-0.01601620,0.01884201,-0.03009605,0.01290116,0.00000
 030,0.00000015,-0.00000064,-0.00000131,0.00000004,0.00000038,0.0000003
 6,-0.00000080,-0.00000007,-0.00000006,-0.00000026,-0.00000032,-0.00000
 143,0.00000040,0.00000072,0.00000075,-0.00000036,-0.00000011,-0.000002
 10,0.00000058,0.00000056,-0.00000089,-0.00000016,-0.00000136,-0.000001
 60,-0.00000076,0.00000078,-0.00000013,-0.00000056,0.00000050,0.0000000
 3,0.00000035,0.00000064,-0.00000081,-0.00000009,-0.00000082,-0.0000025
 9,0.00000021,0.00000091,-0.00000021,-0.00000063,-0.00000234,-0.0000013
 8,-0.00000155,-0.00000101,-0.00000102,-0.00000065,-0.00000455,0.000000
 32,-0.00000036,-0.00000059,-0.00000038,0.00000057,0.00000354,-0.000001
 97,-0.00000061,-0.00000446,0.00000030,0.00000116,-0.00000171,-0.000001
 15,0.00000145,0.00000066,0.00000038,0.00000078,0.00000056,-0.00000957,
 -0.00000911,-0.00000780,0.00000060,0.00000639,0.00000414,-0.00001688,0
 .00001244,0.00002279,-0.00002116,0.00000008,-0.00002127,-0.00009450,0.
 00005539,-0.00010975,0.00000314,0.00004032,0.00003314,0.00016272,0.000
 16037,0.00025417,-0.00036951,-0.00005547,-0.00004528,-0.00018583,0.001
 03566,-0.00092853,-0.00055784,0.00136368,0.00024752,-0.00239464,-0.001
 67390,-0.00218678,-0.05284384,0.04397238,0.00000077,0.00000176,0.00000
 039,0.00000178,-0.00000057,0.00000036,0.00000806,-0.00000030,0.0000100
 5,-0.00002115,0.00001461,0.00000185,0.00000383,-0.00000396,-0.00001042
 ,-0.00000063,0.00000070,0.00000226,0.00001522,-0.00000380,-0.00000980,
 -0.00001490,-0.00001032,0.00002350,-0.00000362,0.00000429,0.00000092,0
 .00000571,0.00003700,-0.00003808,-0.00000476,0.00000573,0.00001304,-0.
 00008969,-0.00002942,0.00007367,-0.00002738,0.00027888,-0.00012853,-0.
 00063170,0.00026076,0.00092259,-0.00083996,0.00203434,-0.00061418,-0.0
 1058794,-0.00042736,0.00512608,0.12733046,-0.00239234,-0.11325373,-0.0
 0000053,0.00000115,-0.00000250,-0.00000135,-0.00000024,0.,0.00000021,-
 0.00000124,0.00000064,-0.00000073,0.00000067,-0.00000063,-0.00000126,-
 0.00000075,0.00000197,0.00000215,0.00000110,0.00000022,-0.00000426,0.0
 0000156,-0.00000048,-0.00000088,-0.00000080,-0.00000157,-0.00000305,0.
 ,0.00000257,0.00000059,-0.00000048,-0.00000015,-0.00000076,0.00000174,
 0.00000078,-0.00000107,0.00000004,-0.00000124,-0.00000116,0.00000153,-
 0.00000053,-0.00000025,0.00000035,-0.00000143,-0.00000322,0.00000052,-
 0.00000483,0.00000018,-0.00000309,-0.00000517,-0.00000148,0.00000594,-
 0.00000003,-0.00000003,-0.00000502,0.00000569,-0.00000019,-0.00000203,
 -0.00000055,0.00000137,-0.00000044,-0.00000423,-0.00001282,0.00000042,
 0.00000053,0.00000804,0.00000687,-0.00000440,0.00000250,-0.00000819,0.
 00000191,-0.00000791,0.00000582,-0.00001514,-0.00000536,-0.00001199,-0
 .00000260,0.00001274,0.00000439,0.00000260,-0.00000805,0.00001733,-0.0
 0003030,0.00003368,-0.00010459,-0.00003570,0.00026857,0.00002383,-0.00
 010604,-0.00017635,0.00009793,0.00049148,0.00020767,0.00065964,-0.0001
 9440,-0.00030015,-0.00022539,0.00011691,0.04008836,-0.00386722,-0.0184
 9964,-0.15523929,0.00363064,0.12616632\\0.00000069,0.00000169,0.000000
 43,-0.00000076,0.00000005,0.00000008,-0.00000565,-0.00000151,-0.000000
 17,0.00000462,0.00000103,-0.00000292,-0.00000146,0.00000207,0.00000132
 ,-0.00000048,-0.00000024,0.00000077,0.00000021,-0.00000131,0.00000359,
 0.00000355,-0.00000539,-0.00000193,-0.00000247,0.00000051,0.00000154,-
 0.00000243,0.00000425,-0.00000003,0.00000051,-0.00000233,-0.00000096,-
 0.00000016,-0.00000242,0.00000027,-0.00000219,-0.00000040,-0.00000253,
 -0.00000097,-0.00000010,-0.00000098,0.00000004,0.00000046,-0.00000119,
 -0.00000129,-0.00000080,-0.00000065,-0.00000027,-0.00000044,-0.0000001
 6,0.00000041,0.00000086,0.00000055,0.00000013,0.00000048,0.00000010,0.
 00000042,0.00000063,-0.00000003,0.00000182,0.00000226,0.00000224,0.000
 00029,0.00000060,0.00000027,-0.00000020,0.00000005,0.00000012,0.000001
 06,0.00000041,-0.00000020,0.00000007,-0.00000042,0.00000082,0.00000048
 ,-0.00000032,0.00000069,0.00000031,0.,0.00000054,-0.00000047,-0.000000
 04,0.00000047,0.00000091,-0.00000069,-0.00000130,0.00000126,0.00000041
 ,-0.00000027,-0.00000021,-0.00000049,-0.00000089,-0.00000172,0.0000009
 9,0.00000059,0.00000045,-0.00000051,0.00000055,-0.00000009,-0.00000011
 ,0.00000074,0.,-0.00000039,0.00000048,0.00000055,0.00000020,-0.0000001
 4,0.00000028,0.00000132,-0.00000060,0.00000020,-0.00000134,-0.00000047
 ,-0.00000164,0.00000066,-0.00000029,0.00000058,-0.00000019,0.00000167,
 0.00000102,0.00000126,-0.00000046,0.00000091,0.00000003,0.00000072,0.0
 0000096,0.00000022,0.00000019,0.00000006,0.00000009,0.00000011,0.00000
 049,0.00000018,-0.00000028,-0.00000019,-0.00000039,-0.00000011,0.00000
 006,-0.00000015,-0.00000041,-0.00000011,-0.00000002,-0.00000004,0.0000
 0034,0.00000015,-0.00000040,0.00000024,-0.00000033,-0.00000064,-0.0000
 0016,-0.00000055,-0.00000080\\\@


 Once you get people laughing, they're
 listening and you can tell them almost anything.
                                 -- Herb Gardner
 Job cpu time:       0 days 22 hours 39 minutes  8.7 seconds.
 Elapsed time:       0 days  5 hours 40 minutes 17.3 seconds.
 File lengths (MBytes):  RWF=   1460 Int=      0 D2E=      0 Chk=     35 Scr=      1
 Normal termination of Gaussian 16 at Wed May 24 08:37:47 2023.
### All Done ###
