### Starting Gaussian ###
 Entering Gaussian System, Link 0=g16
 Initial command:
 /cluster/software/gaussian/gaussian-16-A.03/avx2/g16/l1.exe "/local/scratch/yxie/Gau-24750.inp" -scrdir="/local/scratch/yxie/"
 Entering Link 1 = /cluster/software/gaussian/gaussian-16-A.03/avx2/g16/l1.exe PID=     24751.
  
 Copyright (c) 1988,1990,1992,1993,1995,1998,2003,2009,2016,
            Gaussian, Inc.  All Rights Reserved.
  
 This is part of the Gaussian(R) 16 program.  It is based on
 the Gaussian(R) 09 system (copyright 2009, Gaussian, Inc.),
 the Gaussian(R) 03 system (copyright 2003, Gaussian, Inc.),
 the Gaussian(R) 98 system (copyright 1998, Gaussian, Inc.),
 the Gaussian(R) 94 system (copyright 1995, Gaussian, Inc.),
 the Gaussian 92(TM) system (copyright 1992, Gaussian, Inc.),
 the Gaussian 90(TM) system (copyright 1990, Gaussian, Inc.),
 the Gaussian 88(TM) system (copyright 1988, Gaussian, Inc.),
 the Gaussian 86(TM) system (copyright 1986, Carnegie Mellon
 University), and the Gaussian 82(TM) system (copyright 1983,
 Carnegie Mellon University). Gaussian is a federally registered
 trademark of Gaussian, Inc.
  
 This software contains proprietary and confidential information,
 including trade secrets, belonging to Gaussian, Inc.
  
 This software is provided under written license and may be
 used, copied, transmitted, or stored only in accord with that
 written license.
  
 The following legend is applicable only to US Government
 contracts under FAR:
  
                    RESTRICTED RIGHTS LEGEND
  
 Use, reproduction and disclosure by the US Government is
 subject to restrictions as set forth in subparagraphs (a)
 and (c) of the Commercial Computer Software - Restricted
 Rights clause in FAR 52.227-19.
  
 Gaussian, Inc.
 340 Quinnipiac St., Bldg. 40, Wallingford CT 06492
  
  
 ---------------------------------------------------------------
 Warning -- This program may not be used in any manner that
 competes with the business of Gaussian, Inc. or will provide
 assistance to any competitor of Gaussian, Inc.  The licensee
 of this program is prohibited from giving any competitor of
 Gaussian, Inc. access to this program.  By using this program,
 the user acknowledges that Gaussian, Inc. is engaged in the
 business of creating and licensing software in the field of
 computational chemistry and represents and warrants to the
 licensee that it is not a competitor of Gaussian, Inc. and that
 it will not use this program in any manner prohibited above.
 ---------------------------------------------------------------
  

 Cite this work as:
 Gaussian 16, Revision A.03,
 M. J. Frisch, G. W. Trucks, H. B. Schlegel, G. E. Scuseria, 
 M. A. Robb, J. R. Cheeseman, G. Scalmani, V. Barone, 
 G. A. Petersson, H. Nakatsuji, X. Li, M. Caricato, A. V. Marenich, 
 J. Bloino, B. G. Janesko, R. Gomperts, B. Mennucci, H. P. Hratchian, 
 J. V. Ortiz, A. F. Izmaylov, J. L. Sonnenberg, D. Williams-Young, 
 F. Ding, F. Lipparini, F. Egidi, J. Goings, B. Peng, A. Petrone, 
 T. Henderson, D. Ranasinghe, V. G. Zakrzewski, J. Gao, N. Rega, 
 G. Zheng, W. Liang, M. Hada, M. Ehara, K. Toyota, R. Fukuda, 
 J. Hasegawa, M. Ishida, T. Nakajima, Y. Honda, O. Kitao, H. Nakai, 
 T. Vreven, K. Throssell, J. A. Montgomery, Jr., J. E. Peralta, 
 F. Ogliaro, M. J. Bearpark, J. J. Heyd, E. N. Brothers, K. N. Kudin, 
 V. N. Staroverov, T. A. Keith, R. Kobayashi, J. Normand, 
 K. Raghavachari, A. P. Rendell, J. C. Burant, S. S. Iyengar, 
 J. Tomasi, M. Cossi, J. M. Millam, M. Klene, C. Adamo, R. Cammi, 
 J. W. Ochterski, R. L. Martin, K. Morokuma, O. Farkas, 
 J. B. Foresman, and D. J. Fox, Gaussian, Inc., Wallingford CT, 2016.
 
 ******************************************
 Gaussian 16:  ES64L-G16RevA.03 25-Dec-2016
                25-May-2023 
 ******************************************
 %chk=CCCOCCCCCCqCrC1CCCO1.chk
 %NProcShared=20
 Will use up to   20 processors via shared memory.
 ----------------------------------------------------------------
 # opt freq b3lyp/6-31+g(2df,p) Geom=AllCheckpoint TD(NStates=10)
 ----------------------------------------------------------------
 1/18=20,19=15,26=3,29=7,38=1/1,3;
 2/9=110,12=2,40=1/2;
 3/5=1,6=6,7=114,11=9,14=-4,25=1,30=1,71=1,74=-5/1,2,3,8;
 4//1;
 5/5=2,38=5/2;
 8/6=1,10=2,108=10/1;
 9/15=2,41=10,42=1,70=2/14;
 10/5=4/2;
 6/7=2,8=2,9=2,10=2/1;
 7/12=6,13=5/1,2,3,16;
 1/18=20,19=15,26=3/3(2);
 2/9=110/2;
 99//99;
 2/9=110/2;
 3/5=1,6=6,7=114,11=9,14=-2,25=1,30=1,71=1,74=-5/1,2,3,8;
 4/5=5,16=3,69=1/1;
 5/5=2,38=5/2;
 8/6=1,10=2,108=10/1;
 9/15=2,41=10,42=1,49=4,70=2/14;
 10/5=4/2;
 7/12=6,13=5/1,2,3,16;
 1/18=20,19=15,26=3/3(-8);
 2/9=110/2;
 6/7=2,8=2,9=2,10=2/1;
 99//99;
 Structure from the checkpoint file:  "CCCOCCCCCCqCrC1CCCO1.chk"
 -------------------
 Title Card Required
 -------------------
 Charge =  0 Multiplicity = 1
 Redundant internal coordinates found in file.  (old form).
 C,0,0.974954415,-0.1274071854,0.2104961623
 C,0,2.4903044994,-0.040042122,0.0145917193
 C,0,2.8768263121,0.8629889523,-1.1490593966
 O,0,4.2824751788,0.8885150243,-1.2601235649
 C,0,4.7482565879,1.7020161082,-2.3148538775
 C,0,6.2699408379,1.6520292665,-2.3401068231
 C,0,6.87546622,2.5101872506,-3.4550964319
 C,0,8.4077379349,2.4654292599,-3.4875396817
 C,0,9.0060406681,3.3247070453,-4.6085954006
 C,0,10.546130324,3.3661589431,-4.6326971698
 C,0,11.1510721615,2.0008955247,-4.9978915887
 C,0,11.0920985626,4.4435511164,-5.5877507621
 C,0,10.8189507919,5.9109136974,-5.2268482987
 C,0,10.8559494571,6.5892575203,-6.6036052445
 C,0,10.229806561,5.5124005956,-7.4995871445
 O,0,10.5400690289,4.2561255052,-6.8997030529
 H,0,0.7236812918,-0.7809439812,1.050844243
 H,0,0.4791021584,-0.5280110983,-0.6807139611
 H,0,0.5408854473,0.8576080959,0.4153300054
 H,0,2.9091029641,-1.036816765,-0.1654340427
 H,0,2.970516107,0.3401469882,0.9235721682
 H,0,2.4850754532,1.8834558038,-0.9878954263
 H,0,2.4234905046,0.4940108701,-2.086632136
 H,0,4.4005149428,2.7417300813,-2.1791793442
 H,0,4.3368520832,1.3529873673,-3.2787321442
 H,0,6.5823501122,0.6070016437,-2.4565068436
 H,0,6.645655105,1.9819537863,-1.3636957675
 H,0,6.5455890869,3.5519270535,-3.3364285984
 H,0,6.484423592,2.1788993352,-4.4271946861
 H,0,8.7282413635,1.4220407774,-3.5959586551
 H,0,8.799189874,2.8040150976,-2.5177244775
 H,0,8.6121267612,4.3430869111,-4.5001327991
 H,0,8.65038658,2.9674638648,-5.5820214957
 H,0,10.9017429776,3.6414097414,-3.6280613754
 H,0,10.8491609886,1.7102220769,-6.0091627229
 H,0,10.8351260548,1.2151733871,-4.3065609203
 H,0,12.245421607,2.0395209263,-4.9741461313
 H,0,12.184698407,4.3034325,-5.6544359461
 H,0,11.5607203545,6.305792229,-4.5281090836
 H,0,9.8310933771,6.028417947,-4.76991682
 H,0,11.8910678995,6.7819844683,-6.9053356174
 H,0,10.3133917805,7.537133779,-6.6403048885
 H,0,10.6224573149,5.5264823964,-8.5228745785
 H,0,9.1373962704,5.6306482142,-7.5568973993
 Recover connectivity data from disk.

 GradGradGradGradGradGradGradGradGradGradGradGradGradGradGradGradGradGrad
 Berny optimization.
 Initialization pass.
                           ----------------------------
                           !    Initial Parameters    !
                           ! (Angstroms and Degrees)  !
 --------------------------                            --------------------------
 ! Name  Definition              Value          Derivative Info.                !
 --------------------------------------------------------------------------------
 ! R1    R(1,2)                  1.5305         estimate D2E/DX2                !
 ! R2    R(1,17)                 1.0938         estimate D2E/DX2                !
 ! R3    R(1,18)                 1.0957         estimate D2E/DX2                !
 ! R4    R(1,19)                 1.0957         estimate D2E/DX2                !
 ! R5    R(2,3)                  1.5228         estimate D2E/DX2                !
 ! R6    R(2,20)                 1.0961         estimate D2E/DX2                !
 ! R7    R(2,21)                 1.0961         estimate D2E/DX2                !
 ! R8    R(3,4)                  1.4103         estimate D2E/DX2                !
 ! R9    R(3,22)                 1.1049         estimate D2E/DX2                !
 ! R10   R(3,23)                 1.1049         estimate D2E/DX2                !
 ! R11   R(4,5)                  1.4111         estimate D2E/DX2                !
 ! R12   R(5,6)                  1.5227         estimate D2E/DX2                !
 ! R13   R(5,24)                 1.1047         estimate D2E/DX2                !
 ! R14   R(5,25)                 1.1046         estimate D2E/DX2                !
 ! R15   R(6,7)                  1.5318         estimate D2E/DX2                !
 ! R16   R(6,26)                 1.0969         estimate D2E/DX2                !
 ! R17   R(6,27)                 1.097          estimate D2E/DX2                !
 ! R18   R(7,8)                  1.5333         estimate D2E/DX2                !
 ! R19   R(7,28)                 1.0991         estimate D2E/DX2                !
 ! R20   R(7,29)                 1.0989         estimate D2E/DX2                !
 ! R21   R(8,9)                  1.534          estimate D2E/DX2                !
 ! R22   R(8,30)                 1.0969         estimate D2E/DX2                !
 ! R23   R(8,31)                 1.0993         estimate D2E/DX2                !
 ! R24   R(9,10)                 1.5408         estimate D2E/DX2                !
 ! R25   R(9,32)                 1.0973         estimate D2E/DX2                !
 ! R26   R(9,33)                 1.0962         estimate D2E/DX2                !
 ! R27   R(10,11)                1.5373         estimate D2E/DX2                !
 ! R28   R(10,12)                1.5398         estimate D2E/DX2                !
 ! R29   R(10,34)                1.1007         estimate D2E/DX2                !
 ! R30   R(11,35)                1.0947         estimate D2E/DX2                !
 ! R31   R(11,36)                1.0932         estimate D2E/DX2                !
 ! R32   R(11,37)                1.0953         estimate D2E/DX2                !
 ! R33   R(12,13)                1.5356         estimate D2E/DX2                !
 ! R34   R(12,16)                1.4356         estimate D2E/DX2                !
 ! R35   R(12,38)                1.1036         estimate D2E/DX2                !
 ! R36   R(13,14)                1.5352         estimate D2E/DX2                !
 ! R37   R(13,39)                1.0929         estimate D2E/DX2                !
 ! R38   R(13,40)                1.0947         estimate D2E/DX2                !
 ! R39   R(14,15)                1.5344         estimate D2E/DX2                !
 ! R40   R(14,41)                1.0953         estimate D2E/DX2                !
 ! R41   R(14,42)                1.0928         estimate D2E/DX2                !
 ! R42   R(15,16)                1.4263         estimate D2E/DX2                !
 ! R43   R(15,43)                1.0961         estimate D2E/DX2                !
 ! R44   R(15,44)                1.1003         estimate D2E/DX2                !
 ! A1    A(2,1,17)             111.0942         estimate D2E/DX2                !
 ! A2    A(2,1,18)             111.3969         estimate D2E/DX2                !
 ! A3    A(2,1,19)             111.3982         estimate D2E/DX2                !
 ! A4    A(17,1,18)            107.6064         estimate D2E/DX2                !
 ! A5    A(17,1,19)            107.6072         estimate D2E/DX2                !
 ! A6    A(18,1,19)            107.5442         estimate D2E/DX2                !
 ! A7    A(1,2,3)              112.5185         estimate D2E/DX2                !
 ! A8    A(1,2,20)             110.3303         estimate D2E/DX2                !
 ! A9    A(1,2,21)             110.3308         estimate D2E/DX2                !
 ! A10   A(3,2,20)             108.469          estimate D2E/DX2                !
 ! A11   A(3,2,21)             108.4704         estimate D2E/DX2                !
 ! A12   A(20,2,21)            106.514          estimate D2E/DX2                !
 ! A13   A(2,3,4)              108.8992         estimate D2E/DX2                !
 ! A14   A(2,3,22)             110.2571         estimate D2E/DX2                !
 ! A15   A(2,3,23)             110.2591         estimate D2E/DX2                !
 ! A16   A(4,3,22)             110.3754         estimate D2E/DX2                !
 ! A17   A(4,3,23)             110.3764         estimate D2E/DX2                !
 ! A18   A(22,3,23)            106.6629         estimate D2E/DX2                !
 ! A19   A(3,4,5)              113.4723         estimate D2E/DX2                !
 ! A20   A(4,5,6)              108.8646         estimate D2E/DX2                !
 ! A21   A(4,5,24)             110.2971         estimate D2E/DX2                !
 ! A22   A(4,5,25)             110.312          estimate D2E/DX2                !
 ! A23   A(6,5,24)             110.3349         estimate D2E/DX2                !
 ! A24   A(6,5,25)             110.3254         estimate D2E/DX2                !
 ! A25   A(24,5,25)            106.6977         estimate D2E/DX2                !
 ! A26   A(5,6,7)              112.8752         estimate D2E/DX2                !
 ! A27   A(5,6,26)             108.5207         estimate D2E/DX2                !
 ! A28   A(5,6,27)             108.5196         estimate D2E/DX2                !
 ! A29   A(7,6,26)             110.1152         estimate D2E/DX2                !
 ! A30   A(7,6,27)             110.1216         estimate D2E/DX2                !
 ! A31   A(26,6,27)            106.4652         estimate D2E/DX2                !
 ! A32   A(6,7,8)              113.2101         estimate D2E/DX2                !
 ! A33   A(6,7,28)             109.4966         estimate D2E/DX2                !
 ! A34   A(6,7,29)             109.5325         estimate D2E/DX2                !
 ! A35   A(8,7,28)             109.2613         estimate D2E/DX2                !
 ! A36   A(8,7,29)             109.153          estimate D2E/DX2                !
 ! A37   A(28,7,29)            105.9279         estimate D2E/DX2                !
 ! A38   A(7,8,9)              112.8855         estimate D2E/DX2                !
 ! A39   A(7,8,30)             108.7758         estimate D2E/DX2                !
 ! A40   A(7,8,31)             109.1601         estimate D2E/DX2                !
 ! A41   A(9,8,30)             110.2822         estimate D2E/DX2                !
 ! A42   A(9,8,31)             109.4705         estimate D2E/DX2                !
 ! A43   A(30,8,31)            106.0299         estimate D2E/DX2                !
 ! A44   A(8,9,10)             114.6041         estimate D2E/DX2                !
 ! A45   A(8,9,32)             107.9162         estimate D2E/DX2                !
 ! A46   A(8,9,33)             109.8687         estimate D2E/DX2                !
 ! A47   A(10,9,32)            109.5965         estimate D2E/DX2                !
 ! A48   A(10,9,33)            108.6122         estimate D2E/DX2                !
 ! A49   A(32,9,33)            105.8881         estimate D2E/DX2                !
 ! A50   A(9,10,11)            111.9097         estimate D2E/DX2                !
 ! A51   A(9,10,12)            112.515          estimate D2E/DX2                !
 ! A52   A(9,10,34)            108.3835         estimate D2E/DX2                !
 ! A53   A(11,10,12)           109.5438         estimate D2E/DX2                !
 ! A54   A(11,10,34)           108.1664         estimate D2E/DX2                !
 ! A55   A(12,10,34)           106.0567         estimate D2E/DX2                !
 ! A56   A(10,11,35)           110.2885         estimate D2E/DX2                !
 ! A57   A(10,11,36)           111.9838         estimate D2E/DX2                !
 ! A58   A(10,11,37)           110.898          estimate D2E/DX2                !
 ! A59   A(35,11,36)           108.2792         estimate D2E/DX2                !
 ! A60   A(35,11,37)           107.7555         estimate D2E/DX2                !
 ! A61   A(36,11,37)           107.4813         estimate D2E/DX2                !
 ! A62   A(10,12,13)           117.3721         estimate D2E/DX2                !
 ! A63   A(10,12,16)           109.8233         estimate D2E/DX2                !
 ! A64   A(10,12,38)           107.4389         estimate D2E/DX2                !
 ! A65   A(13,12,16)           105.7316         estimate D2E/DX2                !
 ! A66   A(13,12,38)           108.1582         estimate D2E/DX2                !
 ! A67   A(16,12,38)           107.9929         estimate D2E/DX2                !
 ! A68   A(12,13,14)           101.9564         estimate D2E/DX2                !
 ! A69   A(12,13,39)           112.012          estimate D2E/DX2                !
 ! A70   A(12,13,40)           111.1724         estimate D2E/DX2                !
 ! A71   A(14,13,39)           113.4125         estimate D2E/DX2                !
 ! A72   A(14,13,40)           110.403          estimate D2E/DX2                !
 ! A73   A(39,13,40)           107.8677         estimate D2E/DX2                !
 ! A74   A(13,14,15)           101.7545         estimate D2E/DX2                !
 ! A75   A(13,14,41)           110.3384         estimate D2E/DX2                !
 ! A76   A(13,14,42)           113.6661         estimate D2E/DX2                !
 ! A77   A(15,14,41)           110.3819         estimate D2E/DX2                !
 ! A78   A(15,14,42)           112.7385         estimate D2E/DX2                !
 ! A79   A(41,14,42)           107.8988         estimate D2E/DX2                !
 ! A80   A(14,15,16)           106.4861         estimate D2E/DX2                !
 ! A81   A(14,15,43)           112.95           estimate D2E/DX2                !
 ! A82   A(14,15,44)           111.1085         estimate D2E/DX2                !
 ! A83   A(16,15,43)           109.028          estimate D2E/DX2                !
 ! A84   A(16,15,44)           109.4228         estimate D2E/DX2                !
 ! A85   A(43,15,44)           107.7971         estimate D2E/DX2                !
 ! A86   A(12,16,15)           110.6711         estimate D2E/DX2                !
 ! D1    D(17,1,2,3)           179.9931         estimate D2E/DX2                !
 ! D2    D(17,1,2,20)           58.7056         estimate D2E/DX2                !
 ! D3    D(17,1,2,21)          -58.7174         estimate D2E/DX2                !
 ! D4    D(18,1,2,3)            60.0361         estimate D2E/DX2                !
 ! D5    D(18,1,2,20)          -61.2514         estimate D2E/DX2                !
 ! D6    D(18,1,2,21)         -178.6744         estimate D2E/DX2                !
 ! D7    D(19,1,2,3)           -60.048          estimate D2E/DX2                !
 ! D8    D(19,1,2,20)          178.6645         estimate D2E/DX2                !
 ! D9    D(19,1,2,21)           61.2416         estimate D2E/DX2                !
 ! D10   D(1,2,3,4)            179.9877         estimate D2E/DX2                !
 ! D11   D(1,2,3,22)            58.7477         estimate D2E/DX2                !
 ! D12   D(1,2,3,23)           -58.7699         estimate D2E/DX2                !
 ! D13   D(20,2,3,4)           -57.6682         estimate D2E/DX2                !
 ! D14   D(20,2,3,22)         -178.9083         estimate D2E/DX2                !
 ! D15   D(20,2,3,23)           63.5742         estimate D2E/DX2                !
 ! D16   D(21,2,3,4)            57.6421         estimate D2E/DX2                !
 ! D17   D(21,2,3,22)          -63.5979         estimate D2E/DX2                !
 ! D18   D(21,2,3,23)          178.8845         estimate D2E/DX2                !
 ! D19   D(2,3,4,5)           -179.9961         estimate D2E/DX2                !
 ! D20   D(22,3,4,5)           -58.8284         estimate D2E/DX2                !
 ! D21   D(23,3,4,5)            58.8332         estimate D2E/DX2                !
 ! D22   D(3,4,5,6)           -179.9219         estimate D2E/DX2                !
 ! D23   D(3,4,5,24)            58.8853         estimate D2E/DX2                !
 ! D24   D(3,4,5,25)           -58.7317         estimate D2E/DX2                !
 ! D25   D(4,5,6,7)           -179.8924         estimate D2E/DX2                !
 ! D26   D(4,5,6,26)            57.7643         estimate D2E/DX2                !
 ! D27   D(4,5,6,27)           -57.5418         estimate D2E/DX2                !
 ! D28   D(24,5,6,7)           -58.7228         estimate D2E/DX2                !
 ! D29   D(24,5,6,26)          178.934          estimate D2E/DX2                !
 ! D30   D(24,5,6,27)           63.6278         estimate D2E/DX2                !
 ! D31   D(25,5,6,7)            58.9255         estimate D2E/DX2                !
 ! D32   D(25,5,6,26)          -63.4177         estimate D2E/DX2                !
 ! D33   D(25,5,6,27)         -178.7239         estimate D2E/DX2                !
 ! D34   D(5,6,7,8)            179.9999         estimate D2E/DX2                !
 ! D35   D(5,6,7,28)            57.82           estimate D2E/DX2                !
 ! D36   D(5,6,7,29)           -57.9335         estimate D2E/DX2                !
 ! D37   D(26,6,7,8)           -58.555          estimate D2E/DX2                !
 ! D38   D(26,6,7,28)          179.265          estimate D2E/DX2                !
 ! D39   D(26,6,7,29)           63.5116         estimate D2E/DX2                !
 ! D40   D(27,6,7,8)            58.5517         estimate D2E/DX2                !
 ! D41   D(27,6,7,28)          -63.6282         estimate D2E/DX2                !
 ! D42   D(27,6,7,29)         -179.3817         estimate D2E/DX2                !
 ! D43   D(6,7,8,9)            179.8721         estimate D2E/DX2                !
 ! D44   D(6,7,8,30)            57.1262         estimate D2E/DX2                !
 ! D45   D(6,7,8,31)           -58.1437         estimate D2E/DX2                !
 ! D46   D(28,7,8,9)           -57.8168         estimate D2E/DX2                !
 ! D47   D(28,7,8,30)          179.4374         estimate D2E/DX2                !
 ! D48   D(28,7,8,31)           64.1675         estimate D2E/DX2                !
 ! D49   D(29,7,8,9)            57.5937         estimate D2E/DX2                !
 ! D50   D(29,7,8,30)          -65.1521         estimate D2E/DX2                !
 ! D51   D(29,7,8,31)          179.5779         estimate D2E/DX2                !
 ! D52   D(7,8,9,10)           177.0121         estimate D2E/DX2                !
 ! D53   D(7,8,9,32)            54.6183         estimate D2E/DX2                !
 ! D54   D(7,8,9,33)           -60.3905         estimate D2E/DX2                !
 ! D55   D(30,8,9,10)          -61.0865         estimate D2E/DX2                !
 ! D56   D(30,8,9,32)          176.5197         estimate D2E/DX2                !
 ! D57   D(30,8,9,33)           61.5109         estimate D2E/DX2                !
 ! D58   D(31,8,9,10)           55.2027         estimate D2E/DX2                !
 ! D59   D(31,8,9,32)          -67.1911         estimate D2E/DX2                !
 ! D60   D(31,8,9,33)          177.8001         estimate D2E/DX2                !
 ! D61   D(8,9,10,11)           67.284          estimate D2E/DX2                !
 ! D62   D(8,9,10,12)         -168.8648         estimate D2E/DX2                !
 ! D63   D(8,9,10,34)          -51.911          estimate D2E/DX2                !
 ! D64   D(32,9,10,11)        -171.2376         estimate D2E/DX2                !
 ! D65   D(32,9,10,12)         -47.3865         estimate D2E/DX2                !
 ! D66   D(32,9,10,34)          69.5673         estimate D2E/DX2                !
 ! D67   D(33,9,10,11)         -55.9904         estimate D2E/DX2                !
 ! D68   D(33,9,10,12)          67.8607         estimate D2E/DX2                !
 ! D69   D(33,9,10,34)        -175.1855         estimate D2E/DX2                !
 ! D70   D(9,10,11,35)          62.8019         estimate D2E/DX2                !
 ! D71   D(9,10,11,36)         -57.8522         estimate D2E/DX2                !
 ! D72   D(9,10,11,37)        -177.9118         estimate D2E/DX2                !
 ! D73   D(12,10,11,35)        -62.7006         estimate D2E/DX2                !
 ! D74   D(12,10,11,36)        176.6453         estimate D2E/DX2                !
 ! D75   D(12,10,11,37)         56.5857         estimate D2E/DX2                !
 ! D76   D(34,10,11,35)       -177.875          estimate D2E/DX2                !
 ! D77   D(34,10,11,36)         61.4709         estimate D2E/DX2                !
 ! D78   D(34,10,11,37)        -58.5887         estimate D2E/DX2                !
 ! D79   D(9,10,12,13)          66.1413         estimate D2E/DX2                !
 ! D80   D(9,10,12,16)         -54.601          estimate D2E/DX2                !
 ! D81   D(9,10,12,38)        -171.8213         estimate D2E/DX2                !
 ! D82   D(11,10,12,13)       -168.7049         estimate D2E/DX2                !
 ! D83   D(11,10,12,16)         70.5528         estimate D2E/DX2                !
 ! D84   D(11,10,12,38)        -46.6675         estimate D2E/DX2                !
 ! D85   D(34,10,12,13)        -52.1895         estimate D2E/DX2                !
 ! D86   D(34,10,12,16)       -172.9319         estimate D2E/DX2                !
 ! D87   D(34,10,12,38)         69.8479         estimate D2E/DX2                !
 ! D88   D(10,12,13,14)       -153.6742         estimate D2E/DX2                !
 ! D89   D(10,12,13,39)         84.7449         estimate D2E/DX2                !
 ! D90   D(10,12,13,40)        -36.0179         estimate D2E/DX2                !
 ! D91   D(16,12,13,14)        -30.8153         estimate D2E/DX2                !
 ! D92   D(16,12,13,39)       -152.3962         estimate D2E/DX2                !
 ! D93   D(16,12,13,40)         86.841          estimate D2E/DX2                !
 ! D94   D(38,12,13,14)         84.6602         estimate D2E/DX2                !
 ! D95   D(38,12,13,39)        -36.9208         estimate D2E/DX2                !
 ! D96   D(38,12,13,40)       -157.6835         estimate D2E/DX2                !
 ! D97   D(10,12,16,15)        140.6171         estimate D2E/DX2                !
 ! D98   D(13,12,16,15)         13.0791         estimate D2E/DX2                !
 ! D99   D(38,12,16,15)       -102.5093         estimate D2E/DX2                !
 ! D100  D(12,13,14,15)         35.7339         estimate D2E/DX2                !
 ! D101  D(12,13,14,41)        -81.4289         estimate D2E/DX2                !
 ! D102  D(12,13,14,42)        157.2173         estimate D2E/DX2                !
 ! D103  D(39,13,14,15)        156.3429         estimate D2E/DX2                !
 ! D104  D(39,13,14,41)         39.1801         estimate D2E/DX2                !
 ! D105  D(39,13,14,42)        -82.1737         estimate D2E/DX2                !
 ! D106  D(40,13,14,15)        -82.4734         estimate D2E/DX2                !
 ! D107  D(40,13,14,41)        160.3638         estimate D2E/DX2                !
 ! D108  D(40,13,14,42)         39.01           estimate D2E/DX2                !
 ! D109  D(13,14,15,16)        -29.2714         estimate D2E/DX2                !
 ! D110  D(13,14,15,43)       -148.9117         estimate D2E/DX2                !
 ! D111  D(13,14,15,44)         89.8056         estimate D2E/DX2                !
 ! D112  D(41,14,15,16)         87.8599         estimate D2E/DX2                !
 ! D113  D(41,14,15,43)        -31.7805         estimate D2E/DX2                !
 ! D114  D(41,14,15,44)       -153.0631         estimate D2E/DX2                !
 ! D115  D(42,14,15,16)       -151.3961         estimate D2E/DX2                !
 ! D116  D(42,14,15,43)         88.9636         estimate D2E/DX2                !
 ! D117  D(42,14,15,44)        -32.319          estimate D2E/DX2                !
 ! D118  D(14,15,16,12)         10.4371         estimate D2E/DX2                !
 ! D119  D(43,15,16,12)        132.5923         estimate D2E/DX2                !
 ! D120  D(44,15,16,12)       -109.7346         estimate D2E/DX2                !
 --------------------------------------------------------------------------------
 Trust Radius=3.00D-01 FncErr=1.00D-07 GrdErr=1.00D-06 EigMax=2.50D+02 EigMin=1.00D-04
 Number of steps in this run=    260 maximum allowed number of steps=    264.
 GradGradGradGradGradGradGradGradGradGradGradGradGradGradGradGradGradGrad

                          Input orientation:                          
 ---------------------------------------------------------------------
 Center     Atomic      Atomic             Coordinates (Angstroms)
 Number     Number       Type             X           Y           Z
 ---------------------------------------------------------------------
      1          6           0        0.974954   -0.127407    0.210496
      2          6           0        2.490304   -0.040042    0.014592
      3          6           0        2.876826    0.862989   -1.149059
      4          8           0        4.282475    0.888515   -1.260124
      5          6           0        4.748257    1.702016   -2.314854
      6          6           0        6.269941    1.652029   -2.340107
      7          6           0        6.875466    2.510187   -3.455096
      8          6           0        8.407738    2.465429   -3.487540
      9          6           0        9.006041    3.324707   -4.608595
     10          6           0       10.546130    3.366159   -4.632697
     11          6           0       11.151072    2.000896   -4.997892
     12          6           0       11.092099    4.443551   -5.587751
     13          6           0       10.818951    5.910914   -5.226848
     14          6           0       10.855949    6.589258   -6.603605
     15          6           0       10.229807    5.512401   -7.499587
     16          8           0       10.540069    4.256126   -6.899703
     17          1           0        0.723681   -0.780944    1.050844
     18          1           0        0.479102   -0.528011   -0.680714
     19          1           0        0.540885    0.857608    0.415330
     20          1           0        2.909103   -1.036817   -0.165434
     21          1           0        2.970516    0.340147    0.923572
     22          1           0        2.485075    1.883456   -0.987895
     23          1           0        2.423491    0.494011   -2.086632
     24          1           0        4.400515    2.741730   -2.179179
     25          1           0        4.336852    1.352987   -3.278732
     26          1           0        6.582350    0.607002   -2.456507
     27          1           0        6.645655    1.981954   -1.363696
     28          1           0        6.545589    3.551927   -3.336429
     29          1           0        6.484424    2.178899   -4.427195
     30          1           0        8.728241    1.422041   -3.595959
     31          1           0        8.799190    2.804015   -2.517724
     32          1           0        8.612127    4.343087   -4.500133
     33          1           0        8.650387    2.967464   -5.582021
     34          1           0       10.901743    3.641410   -3.628061
     35          1           0       10.849161    1.710222   -6.009163
     36          1           0       10.835126    1.215173   -4.306561
     37          1           0       12.245422    2.039521   -4.974146
     38          1           0       12.184698    4.303432   -5.654436
     39          1           0       11.560720    6.305792   -4.528109
     40          1           0        9.831093    6.028418   -4.769917
     41          1           0       11.891068    6.781984   -6.905336
     42          1           0       10.313392    7.537134   -6.640305
     43          1           0       10.622457    5.526482   -8.522875
     44          1           0        9.137396    5.630648   -7.556897
 ---------------------------------------------------------------------
                    Distance matrix (angstroms):
                    1          2          3          4          5
     1  C    0.000000
     2  C    1.530456   0.000000
     3  C    2.538975   1.522809   0.000000
     4  O    3.759590   2.387256   1.410261   0.000000
     5  C    4.895099   3.682313   2.359088   1.411096   0.000000
     6  C    6.140753   4.763755   3.681631   2.387329   1.522714
     7  C    7.430310   6.145897   4.901040   3.764483   2.545253
     8  C    8.697387   7.318356   6.215086   4.946295   3.917881
     9  C    9.981938   8.668922   7.456253   6.281669   5.101284
    10  C   11.281353   9.904334   8.787481   7.533017   6.461974
    11  C   11.627998  10.212703   9.196276   7.898476   6.948674
    12  C   12.524773  11.201773  10.000655   8.816893   7.646712
    13  C   12.764415  11.500127  10.256083   9.147946   7.940268
    14  C   13.754258  12.559146  11.234261  10.210868   8.920898
    15  C   13.300568  12.132287  10.770912   9.781716   8.452685
    16  O   12.698886  11.448285  10.164082   9.072108   7.815971
    17  H    1.093816   2.178007   3.489717   4.559899   5.804328
    18  H    1.095723   2.183231   2.811283   4.099745   5.086169
    19  H    1.095732   2.183255   2.811399   4.099707   5.086148
    20  H    2.170088   1.096066   2.139585   2.606031   3.937473
    21  H    2.170104   1.096080   2.139613   2.605853   3.937315
    22  H    2.785710   2.169067   1.104896   2.072356   2.629777
    23  H    2.785896   2.169059   1.104853   2.072335   2.629810
    24  H    5.067244   4.024897   2.629152   2.071956   1.104689
    25  H    5.066423   4.024457   2.628170   2.072069   1.104598
    26  H    6.252611   4.823881   3.937747   2.607682   2.140799
    27  H    6.251746   4.822352   3.937286   2.605946   2.140838
    28  H    7.559772   6.370001   5.047256   4.065279   2.774201
    29  H    7.561843   6.372296   5.049015   4.067433   2.775550
    30  H    8.775155   7.354292   6.367018   5.050308   4.190453
    31  H    8.789487   7.369079   6.380848   5.064722   4.203049
    32  H   10.025056   8.779024   7.498963   6.416978   5.165287
    33  H   10.101670   8.849507   7.577200   6.486870   5.244269
    34  H   11.290688   9.877971   8.846715   7.549852   6.584160
    35  H   11.813594  10.450815   9.375315   8.145547   7.132252
    36  H   10.928372   9.480716   8.569036   7.233583   6.422919
    37  H   12.593630  11.152327  10.187546   8.861563   7.961986
    38  H   13.404780  12.040968  10.898236   9.665235   8.556918
    39  H   13.262687  11.965709  10.791297   9.643624   8.514864
    40  H   11.879810  10.658560   9.389041   8.338130   7.111984
    41  H   14.749111  13.520347  12.223984  11.157602   9.894360
    42  H   13.888307  12.763304  11.401776  10.465297   9.150347
    43  H   14.188465  13.038652  11.666881  10.698302   9.363349
    44  H   12.653579  11.561488  10.148187   9.257832   7.885285
                    6          7          8          9         10
     6  C    0.000000
     7  C    1.531763   0.000000
     8  C    2.558984   1.533269   0.000000
     9  C    3.928121   2.556042   1.533979   0.000000
    10  C    5.145873   3.948823   2.587551   1.540836   0.000000
    11  C    5.568749   4.573883   3.165886   2.550527   1.537292
    12  C    6.449263   5.105497   3.940767   2.561678   1.539800
    13  C    6.867668   5.500465   4.550880   3.218283   2.627399
    14  C    7.974028   6.511234   5.719228   4.249649   3.790624
    15  C    7.563282   6.051677   5.357284   3.826413   3.595201
    16  O    6.767956   5.323808   4.404122   2.910319   2.435445
    17  H    6.941102   8.305390   9.496346  10.838962  12.082285
    18  H    6.406245   7.605348   8.927610  10.147924  11.494685
    19  H    6.406685   7.605139   8.927757  10.148165  11.483916
    20  H    4.822274   6.255810   7.316905   8.714197   9.882653
    21  H    4.822742   6.255434   7.316974   8.714358   9.870097
    22  H    4.025822   5.074978   6.454831   7.596687   8.970150
    23  H    4.024977   5.075209   6.454475   7.596256   8.983817
    24  H    2.169815   2.794094   4.224451   5.239541   6.646672
    25  H    2.169626   2.795492   4.225309   5.239994   6.666425
    26  H    1.096919   2.169150   2.801575   4.229856   5.297198
    27  H    1.096991   2.169286   2.801678   4.231286   5.274097
    28  H    2.162926   1.099146   2.161229   2.779183   4.209412
    29  H    2.163222   1.098927   2.159673   2.775668   4.236659
    30  H    2.770072   2.153295   1.096876   2.173188   2.856421
    31  H    2.784909   2.160026   1.099280   2.164636   2.800164
    32  H    4.170532   2.732693   2.143063   1.097283   2.170790
    33  H    4.231655   2.807713   2.167434   1.096207   2.157317
    34  H    5.202889   4.185748   2.760931   2.157646   1.100689
    35  H    5.868101   4.790976   3.590190   2.822276   2.174537
    36  H    4.989860   4.252171   2.850640   2.808364   2.194680
    37  H    6.541765   5.600487   4.137537   3.504129   2.182693
    38  H    7.280046   6.020031   4.726428   3.486481   2.146471
    39  H    7.378158   6.124506   5.076659   3.926797   3.111555
    40  H    6.143172   4.779376   4.045407   2.831394   2.760024
    41  H    8.874391   7.436979   6.515180   5.054816   4.317593
    42  H    8.335206   6.872778   6.268463   4.856084   4.634834
    43  H    8.496023   6.987156   6.295207   4.773070   4.450427
    44  H    7.160071   5.628355   5.206792   3.745278   3.957700
                   11         12         13         14         15
    11  C    0.000000
    12  C    2.513559   0.000000
    13  C    3.930772   1.535582   0.000000
    14  C    4.870162   2.385746   1.535246   0.000000
    15  C    4.408841   2.353955   2.381438   1.534425   0.000000
    16  O    3.012686   1.435648   2.369502   2.372964   1.426307
    17  H   12.371593  13.374243  13.642025  14.682416  14.250701
    18  H   11.786617  12.705555  13.001521  13.907376  13.343907
    19  H   11.966041  12.657964  12.767486  13.730179  13.348715
    20  H   10.025487  11.242658  11.681377  12.757720  12.258660
    21  H   10.234418  11.189073  11.421867  12.565422  12.263732
    22  H    9.549521  10.089282  10.180502  11.124401  10.749522
    23  H    9.322919  10.148964  10.473182  11.342903  10.743504
    24  H    7.352822   7.700120   7.779995   8.720760   8.364448
    25  H    7.057541   7.779236   8.160114   8.998441   8.357227
    26  H    5.410619   6.697883   7.331784   8.440940   7.924616
    27  H    5.788482   6.608552   6.912096   8.149262   7.934693
    28  H    5.135819   5.151135   5.234513   6.203146   5.894812
    29  H    4.704784   5.263669   5.775422   6.580141   5.880452
    30  H    2.858426   4.322567   5.213525   6.346118   5.850133
    31  H    3.511065   4.167802   4.590382   5.937402   5.848160
    32  H    3.489967   2.709846   2.802904   3.808493   3.602903
    33  H    2.743882   2.853213   3.673243   4.361826   3.556449
    34  H    2.151717   2.126041   2.777341   4.188767   4.352105
    35  H    1.094674   2.776273   4.273025   4.915119   4.130560
    36  H    1.093215   3.482801   4.785098   5.844453   5.387763
    37  H    1.095288   2.736060   4.133565   5.028506   4.743569
    38  H    2.607894   1.103564   2.152230   2.809180   2.947506
    39  H    4.349787   2.193260   1.092880   2.210145   3.351191
    40  H    4.244438   2.184214   1.094740   2.174232   2.806483
    41  H    5.200457   2.800474   2.173826   1.095288   2.173653
    42  H    5.835166   3.359242   2.213152   1.092788   2.201113
    43  H    5.013452   3.163583   3.324182   2.206265   1.096125
    44  H    4.876321   3.017880   2.887093   2.186578   1.100285
                   16         17         18         19         20
    16  O    0.000000
    17  H   13.599439   0.000000
    18  H   12.758795   1.766943   0.000000
    19  H   12.846918   1.766959   1.767787   0.000000
    20  H   11.471585   2.514134   2.535607   3.087813   0.000000
    21  H   11.568779   2.514222   3.087811   2.535583   1.756626
    22  H   10.269467   3.789195   3.151740   2.607926   3.063370
    23  H   10.158642   3.789277   2.608022   3.152177   2.504048
    24  H    7.891189   6.030041   5.321098   5.017782   4.533971
    25  H    7.747228   6.029419   5.016980   5.319855   4.176393
    26  H    6.980089   6.967920   6.456882   6.693993   4.630756
    27  H    7.140427   6.966590   6.692740   6.457345   4.950821
    28  H    5.398953   8.480362   7.778238   7.575719   6.658514
    29  H    5.184248   8.482673   7.578085   7.779557   6.425446
    30  H    4.714815   9.514142   8.963797   9.134649   7.188661
    31  H    4.933662   9.528927   9.148818   8.977243   7.414741
    32  H    3.079360  10.922299  10.220648  10.072501   8.958653
    33  H    2.639665  10.994459  10.149436  10.304549   8.850764
    34  H    3.348481  12.043351  11.606135  11.464987   9.887259
    35  H    2.714816  12.592654  11.871823  12.176272  10.234252
    36  H    4.007348  11.615834  11.110027  11.331174   9.221835
    37  H    3.395487  13.304361  12.785619  12.939843  10.943236
    38  H    2.063428  14.218529  13.605210  13.575498  12.028469
    39  H    3.296562  14.099219  13.575919  13.249795  12.157192
    40  H    2.860010  12.774726  12.131285  11.829287  10.910213
    41  H    2.864471  15.659157  14.913581  14.748458  13.683407
    42  H    3.299043  14.842734  14.045517  13.780418  13.048374
    43  H    2.062833  15.146798  14.179000  14.259312  13.130862
    44  H    2.070920  13.637901  12.656107  12.658528  11.742251
                   21         22         23         24         25
    21  H    0.000000
    22  H    2.504229   0.000000
    23  H    3.063371   1.772448   0.000000
    24  H    4.176071   2.413442   2.994901   0.000000
    25  H    4.533440   2.993060   2.412446   1.772477   0.000000
    26  H    4.953937   4.535837   4.176803   3.065025   2.504957
    27  H    4.629662   4.178678   4.534676   2.506577   3.064887
    28  H    6.422171   4.978672   5.282475   2.568460   3.117240
    29  H    6.660275   5.283072   4.980789   3.116573   2.571607
    30  H    7.399193   6.781742   6.548984   4.741103   4.403374
    31  H    7.203236   6.561695   6.794962   4.412123   4.753638
    32  H    8.790215   7.478392   7.677212   5.068416   5.358217
    33  H    9.026986   7.764801   7.557113   5.449009   5.149588
    34  H    9.722143   8.994508   9.174033   6.721209   6.961085
    35  H   10.583618   9.757103   9.373225   7.570853   7.070575
    36  H    9.485360   9.010188   8.729477   6.946967   6.580501
    37  H   11.121818  10.544141  10.353582   8.357482   8.117341
    38  H   11.994956  11.032478  11.068970   8.666593   8.714229
    39  H   11.794124  10.698481  11.100747   8.335979   8.847344
    40  H   10.575432   9.243829   9.628201   6.856050   7.366815
    41  H   13.504270  12.144315  12.344778   9.734916   9.984610
    42  H   12.764274  11.189117  11.514862   8.823812   9.233789
    43  H   13.216869  11.673240  11.574716   9.311814   9.188467
    44  H   11.744709  10.072071  10.069031   7.726820   7.723102
                   26         27         28         29         30
    26  H    0.000000
    27  H    1.757480   0.000000
    28  H    3.073792   2.523193   0.000000
    29  H    2.522709   3.074054   1.754627   0.000000
    30  H    2.562711   3.103815   3.060677   2.509683   0.000000
    31  H    3.121697   2.577844   2.511646   3.065125   1.754274
    32  H    4.717492   4.390808   2.500144   3.035811   3.059988
    33  H    4.429153   4.773306   3.132803   2.578149   2.517705
    34  H    5.407155   5.098571   4.366822   4.721256   3.106564
    35  H    5.660754   6.270858   5.390373   4.666178   3.225663
    36  H    4.677465   5.176879   4.980131   4.457795   2.233095
    37  H    6.360896   6.663036   6.120260   5.788582   3.827694
    38  H    7.434827   7.381105   6.143083   6.205876   4.948418
    39  H    7.845503   7.270967   5.844264   6.542952   5.722139
    40  H    6.730375   6.174401   4.356884   5.112382   4.879874
    41  H    9.279277   9.014678   7.193366   7.520730   7.048719
    42  H    8.913561   8.494405   6.402641   6.947628   7.012497
    43  H    8.793439   8.923703   6.886142   6.715968   6.686479
    44  H    7.601268   7.607726   5.371304   5.361704   5.793861
                   31         32         33         34         35
    31  H    0.000000
    32  H    2.516680   0.000000
    33  H    3.072259   1.750510   0.000000
    34  H    2.520874   2.548569   3.056267   0.000000
    35  H    4.193913   3.770076   2.568602   3.066251   0.000000
    36  H    3.141559   3.842270   3.077403   2.520203   1.773168
    37  H    4.300578   4.328041   3.762295   2.486657   1.768966
    38  H    4.852719   3.754631   3.779076   2.488060   2.938406
    39  H    4.891844   3.542203   4.552495   2.888472   4.880482
    40  H    4.066198   2.097380   3.379796   2.854458   4.606409
    41  H    6.680949   4.741801   5.177233   4.645697   5.254662
    42  H    6.456848   4.204352   4.976689   4.959479   5.885430
    43  H    6.840903   4.650194   4.368782   5.252685   4.575367
    44  H    5.787703   3.358204   3.351099   4.744022   4.549216
                   36         37         38         39         40
    36  H    0.000000
    37  H    1.764696   0.000000
    38  H    3.629801   2.364694   0.000000
    39  H    5.146841   4.343827   2.380631   0.000000
    40  H    4.938634   4.667118   3.049165   1.768337   0.000000
    41  H    6.233621   5.132837   2.791807   2.446854   3.061270
    42  H    6.759124   6.060740   3.864007   2.744704   2.450956
    43  H    6.034063   5.233200   3.487748   4.176818   3.868189
    44  H    5.739633   5.406165   3.829740   3.937242   2.899430
                   41         42         43         44
    41  H    0.000000
    42  H    1.769054   0.000000
    43  H    2.408753   2.771698   0.000000
    44  H    3.054966   2.420288   1.774646   0.000000
 Stoichiometry    C14H28O2
 Framework group  C1[X(C14H28O2)]
 Deg. of freedom   126
 Full point group                 C1      NOp   1
 Largest Abelian subgroup         C1      NOp   1
 Largest concise Abelian subgroup C1      NOp   1
                         Standard orientation:                         
 ---------------------------------------------------------------------
 Center     Atomic      Atomic             Coordinates (Angstroms)
 Number     Number       Type             X           Y           Z
 ---------------------------------------------------------------------
      1          6           0        8.123268   -0.599365   -0.100004
      2          6           0        6.842444    0.177526    0.213408
      3          6           0        5.585655   -0.586031   -0.182081
      4          8           0        4.456415    0.195357    0.138988
      5          6           0        3.232097   -0.424768   -0.189164
      6          6           0        2.089988    0.505058    0.197710
      7          6           0        0.710990   -0.082329   -0.117946
      8          6           0       -0.444935    0.847887    0.268640
      9          6           0       -1.822033    0.253810   -0.053485
     10          6           0       -3.014985    1.124883    0.385005
     11          6           0       -3.098251    2.431282   -0.421007
     12          6           0       -4.357289    0.376119    0.292511
     13          6           0       -4.568804   -0.813621    1.240030
     14          6           0       -5.578112   -1.666847    0.458825
     15          6           0       -5.120594   -1.444992   -0.988904
     16          8           0       -4.533166   -0.146024   -1.033203
     17          1           0        9.010402   -0.030438    0.192825
     18          1           0        8.207260   -0.816437   -1.170721
     19          1           0        8.151594   -1.555684    0.434111
     20          1           0        6.843149    1.140245   -0.310550
     21          1           0        6.787720    0.405576    1.284104
     22          1           0        5.545161   -1.555783    0.345873
     23          1           0        5.600873   -0.814191   -1.263012
     24          1           0        3.137437   -1.389860    0.339961
     25          1           0        3.194014   -0.650242   -1.269834
     26          1           0        2.223366    1.458349   -0.328293
     27          1           0        2.169276    0.727319    1.269019
     28          1           0        0.593318   -1.042828    0.403319
     29          1           0        0.646045   -0.311478   -1.190752
     30          1           0       -0.314271    1.806767   -0.247705
     31          1           0       -0.384460    1.071106    1.343318
     32          1           0       -1.886946   -0.729267    0.429605
     33          1           0       -1.903743    0.065050   -1.130223
     34          1           0       -2.883660    1.384389    1.446573
     35          1           0       -3.267209    2.213547   -1.480419
     36          1           0       -2.184095    3.024530   -0.334430
     37          1           0       -3.928827    3.053813   -0.071358
     38          1           0       -5.159364    1.110876    0.478688
     39          1           0       -4.934529   -0.496849    2.219973
     40          1           0       -3.637327   -1.368242    1.392351
     41          1           0       -6.593364   -1.281358    0.601360
     42          1           0       -5.575903   -2.721329    0.745615
     43          1           0       -5.945538   -1.488903   -1.709340
     44          1           0       -4.372999   -2.195013   -1.287562
 ---------------------------------------------------------------------
 Rotational constants (GHZ):           1.5256271           0.1069630           0.1035881
 Standard basis: 6-31+G(2df,p) (6D, 7F)
 There are   700 symmetry adapted cartesian basis functions of A   symmetry.
 There are   652 symmetry adapted basis functions of A   symmetry.
   652 basis functions,   964 primitive gaussians,   700 cartesian basis functions
    64 alpha electrons       64 beta electrons
       nuclear repulsion energy      1095.4076730248 Hartrees.
 NAtoms=   44 NActive=   44 NUniq=   44 SFac= 1.00D+00 NAtFMM=   60 NAOKFM=F Big=F
 Integral buffers will be    131072 words long.
 Regular integral format.
 Two-electron integral symmetry is turned on.
 One-electron integrals computed using PRISM.
 PrsmSu:  requested number of processors reduced to:  12 ShMem   1 Linda.
 NBasis=   652 RedAO= T EigKep=  3.61D-06  NBF=   652
 NBsUse=   652 1.00D-06 EigRej= -1.00D+00 NBFU=   652
 ExpMin= 4.38D-02 ExpMax= 5.48D+03 ExpMxC= 8.25D+02 IAcc=3 IRadAn=         5 AccDes= 0.00D+00
 Harris functional with IExCor=  402 and IRadAn=       5 diagonalized for initial guess.
 HarFok:  IExCor=  402 AccDes= 0.00D+00 IRadAn=         5 IDoV= 1 UseB2=F ITyADJ=14
 ICtDFT=  3500011 ScaDFX=  1.000000  1.000000  1.000000  1.000000
 FoFCou: FMM=F IPFlag=           0 FMFlag=      100000 FMFlg1=           0
         NFxFlg=           0 DoJE=T BraDBF=F KetDBF=T FulRan=T
         wScrn=  0.000000 ICntrl=       500 IOpCl=  0 I1Cent=   200000004 NGrid=           0
         NMat0=    1 NMatS0=      1 NMatT0=    0 NMatD0=    1 NMtDS0=    0 NMtDT0=    0
 Petite list used in FoFCou.
 Requested convergence on RMS density matrix=1.00D-08 within 128 cycles.
 Requested convergence on MAX density matrix=1.00D-06.
 Requested convergence on             energy=1.00D-06.
 No special actions if energy rises.
 SCF Done:  E(RB3LYP) =  -700.874889582     A.U. after   14 cycles
            NFock= 14  Conv=0.13D-08     -V/T= 2.0084
 DoSCS=F DFT=T ScalE2(SS,OS)=  1.000000  1.000000
 ExpMin= 4.38D-02 ExpMax= 5.48D+03 ExpMxC= 8.25D+02 IAcc=3 IRadAn=         5 AccDes= 0.00D+00
 HarFok:  IExCor=  205 AccDes= 0.00D+00 IRadAn=         5 IDoV=-2 UseB2=F ITyADJ=14
 ICtDFT= 12500011 ScaDFX=  1.000000  1.000000  1.000000  1.000000
 Range of M.O.s used for correlation:    17   652
 NBasis=   652 NAE=    64 NBE=    64 NFC=    16 NFV=     0
 NROrb=    636 NOA=    48 NOB=    48 NVA=   588 NVB=   588

 **** Warning!!: The largest alpha MO coefficient is  0.13677428D+03

 Orbital symmetries:
       Occupied  (A) (A) (A) (A) (A) (A) (A) (A) (A) (A) (A) (A)
                 (A) (A) (A) (A) (A) (A) (A) (A) (A) (A) (A) (A)
                 (A) (A) (A) (A) (A) (A) (A) (A) (A) (A) (A) (A)
                 (A) (A) (A) (A) (A) (A) (A) (A) (A) (A) (A) (A)
                 (A) (A) (A) (A) (A) (A) (A) (A) (A) (A) (A) (A)
                 (A) (A) (A) (A)
       Virtual   (A) (A) (A) (A) (A) (A) (A) (A) (A) (A) (A) (A)
                 (A) (A) (A) (A) (A) (A) (A) (A) (A) (A) (A) (A)
                 (A) (A) (A) (A) (A) (A) (A) (A) (A) (A) (A) (A)
                 (A) (A) (A) (A) (A) (A) (A) (A) (A) (A) (A) (A)
                 (A) (A) (A) (A) (A) (A) (A) (A) (A) (A) (A) (A)
                 (A) (A) (A) (A) (A) (A) (A) (A) (A) (A) (A) (A)
                 (A) (A) (A) (A) (A) (A) (A) (A) (A) (A) (A) (A)
                 (A) (A) (A) (A) (A) (A) (A) (A) (A) (A) (A) (A)
                 (A) (A) (A) (A) (A) (A) (A) (A) (A) (A) (A) (A)
                 (A) (A) (A) (A) (A) (A) (A) (A) (A) (A) (A) (A)
                 (A) (A) (A) (A) (A) (A) (A) (A) (A) (A) (A) (A)
                 (A) (A) (A) (A) (A) (A) (A) (A) (A) (A) (A) (A)
                 (A) (A) (A) (A) (A) (A) (A) (A) (A) (A) (A) (A)
                 (A) (A) (A) (A) (A) (A) (A) (A) (A) (A) (A) (A)
                 (A) (A) (A) (A) (A) (A) (A) (A) (A) (A) (A) (A)
                 (A) (A) (A) (A) (A) (A) (A) (A) (A) (A) (A) (A)
                 (A) (A) (A) (A) (A) (A) (A) (A) (A) (A) (A) (A)
                 (A) (A) (A) (A) (A) (A) (A) (A) (A) (A) (A) (A)
                 (A) (A) (A) (A) (A) (A) (A) (A) (A) (A) (A) (A)
                 (A) (A) (A) (A) (A) (A) (A) (A) (A) (A) (A) (A)
                 (A) (A) (A) (A) (A) (A) (A) (A) (A) (A) (A) (A)
                 (A) (A) (A) (A) (A) (A) (A) (A) (A) (A) (A) (A)
                 (A) (A) (A) (A) (A) (A) (A) (A) (A) (A) (A) (A)
                 (A) (A) (A) (A) (A) (A) (A) (A) (A) (A) (A) (A)
                 (A) (A) (A) (A) (A) (A) (A) (A) (A) (A) (A) (A)
                 (A) (A) (A) (A) (A) (A) (A) (A) (A) (A) (A) (A)
                 (A) (A) (A) (A) (A) (A) (A) (A) (A) (A) (A) (A)
                 (A) (A) (A) (A) (A) (A) (A) (A) (A) (A) (A) (A)
                 (A) (A) (A) (A) (A) (A) (A) (A) (A) (A) (A) (A)
                 (A) (A) (A) (A) (A) (A) (A) (A) (A) (A) (A) (A)
                 (A) (A) (A) (A) (A) (A) (A) (A) (A) (A) (A) (A)
                 (A) (A) (A) (A) (A) (A) (A) (A) (A) (A) (A) (A)
                 (A) (A) (A) (A) (A) (A) (A) (A) (A) (A) (A) (A)
                 (A) (A) (A) (A) (A) (A) (A) (A) (A) (A) (A) (A)
                 (A) (A) (A) (A) (A) (A) (A) (A) (A) (A) (A) (A)
                 (A) (A) (A) (A) (A) (A) (A) (A) (A) (A) (A) (A)
                 (A) (A) (A) (A) (A) (A) (A) (A) (A) (A) (A) (A)
                 (A) (A) (A) (A) (A) (A) (A) (A) (A) (A) (A) (A)
                 (A) (A) (A) (A) (A) (A) (A) (A) (A) (A) (A) (A)
                 (A) (A) (A) (A) (A) (A) (A) (A) (A) (A) (A) (A)
                 (A) (A) (A) (A) (A) (A) (A) (A) (A) (A) (A) (A)
                 (A) (A) (A) (A) (A) (A) (A) (A) (A) (A) (A) (A)
                 (A) (A) (A) (A) (A) (A) (A) (A) (A) (A) (A) (A)
                 (A) (A) (A) (A) (A) (A) (A) (A) (A) (A) (A) (A)
                 (A) (A) (A) (A) (A) (A) (A) (A) (A) (A) (A) (A)
                 (A) (A) (A) (A) (A) (A) (A) (A) (A) (A) (A) (A)
                 (A) (A) (A) (A) (A) (A) (A) (A) (A) (A) (A) (A)
                 (A) (A) (A) (A) (A) (A) (A) (A) (A) (A) (A) (A)
                 (A) (A) (A) (A) (A) (A) (A) (A) (A) (A) (A) (A)
    40 initial guesses have been made.
 Convergence on wavefunction:    0.000001000000000
 Iteration     1 Dimension    40 NMult     0 NNew     40
 CISAX will form     2 AO SS matrices at one time.
 New state      3 was old state      5
 New state      4 was old state      9
 New state      5 was old state      6
 New state      6 was old state      4
 New state      9 was old state      3
 Iteration     2 Dimension    60 NMult    40 NNew     20
 Iteration     3 Dimension    80 NMult    60 NNew     20
 Iteration     4 Dimension   100 NMult    80 NNew     20
 Iteration     5 Dimension   120 NMult   100 NNew     20
 Iteration     6 Dimension   140 NMult   120 NNew     20
 Iteration     7 Dimension   160 NMult   140 NNew     20
 Iteration     8 Dimension   180 NMult   160 NNew     20
 Iteration     9 Dimension   200 NMult   180 NNew     20
 Iteration    10 Dimension   220 NMult   200 NNew     20
 Iteration    11 Dimension   236 NMult   220 NNew     16
 Iteration    12 Dimension   240 NMult   236 NNew      4
 ***********************************************************************
 Excited states from <AA,BB:AA,BB> singles matrix:
 ***********************************************************************
 
 Ground to excited state transition densities written to RWF  633
 Ground to excited state transition electric dipole moments (Au):
       state          X           Y           Z        Dip. S.      Osc.
         1         0.1971     -0.2017     -0.1290      0.0962      0.0141
         2        -0.0132     -0.0739     -0.0676      0.0102      0.0016
         3         0.2042      0.0307      0.1338      0.0605      0.0096
         4        -0.0081     -0.1595      0.3327      0.1362      0.0218
         5        -0.0270      0.0252     -0.0563      0.0045      0.0007
         6         0.0058      0.0009      0.0569      0.0033      0.0005
         7         0.0277     -0.1119      0.1202      0.0277      0.0046
         8         0.0616     -0.0046     -0.1306      0.0209      0.0035
         9        -0.0176     -0.0873     -0.0618      0.0117      0.0020
        10         0.0044      0.0211      0.0641      0.0046      0.0008
 Ground to excited state transition velocity dipole moments (Au):
       state          X           Y           Z        Dip. S.      Osc.
         1        -0.0395      0.0427      0.0298      0.0043      0.0129
         2         0.0052      0.0170      0.0153      0.0005      0.0016
         3        -0.0468     -0.0088     -0.0305      0.0032      0.0089
         4         0.0019      0.0359     -0.0752      0.0069      0.0193
         5         0.0041     -0.0049      0.0145      0.0003      0.0007
         6        -0.0015      0.0000     -0.0136      0.0002      0.0005
         7        -0.0062      0.0291     -0.0327      0.0020      0.0052
         8        -0.0144      0.0008      0.0346      0.0014      0.0038
         9         0.0058      0.0215      0.0154      0.0007      0.0019
        10        -0.0014     -0.0072     -0.0108      0.0002      0.0004
 Ground to excited state transition magnetic dipole moments (Au):
       state          X           Y           Z
         1         0.1977      0.2422     -0.4875
         2        -0.1721      0.0067      0.0546
         3        -0.0760     -0.3790      0.1431
         4         0.5315      0.5898      0.3247
         5         0.3159      0.1659      0.3283
         6         0.0794      0.0743     -0.0540
         7        -0.2059      0.3500      0.1810
         8         0.1318     -0.3948     -0.1539
         9        -0.0078     -0.0463     -0.2995
        10         0.3489      0.1495     -0.0230
 Ground to excited state transition velocity quadrupole moments (Au):
       state          XX          YY          ZZ          XY          XZ          YZ
         1         0.6450     -0.0802      0.1018     -0.4005     -0.2038      0.0365
         2        -0.1854      0.3232      0.0064     -0.3927     -0.2764      0.2518
         3         0.8015      0.0677     -0.0685      0.1155      0.3407      0.1113
         4         0.0863     -0.3536      0.3292      0.2951     -0.6186      0.3091
         5        -0.1671      0.0667      0.0353     -0.0448     -0.1894      0.0545
         6        -0.0537     -0.0528      0.0885      0.0041     -0.1703      0.0607
         7         0.0411      0.0730     -0.0196      0.0518     -0.4074      0.0699
         8         0.0033      0.1686     -0.0659     -0.2609      0.0889      0.0520
         9         0.0003      0.0346     -0.0099     -0.2263     -0.1784     -0.0054
        10        -0.0462     -0.0789      0.1314     -0.0862     -0.0292      0.0835
 <0|del|b> * <b|rxdel|0> + <0|del|b> * <b|delr+rdel|0>
 Rotatory Strengths (R) in cgs (10**-40 erg-esu-cm/Gauss)
       state          XX          YY          ZZ    R(velocity)    E-M Angle
         1       -11.9594    -19.0567     -7.6103    -12.8754      108.49
         2        -0.5721     11.0591    -10.3188      0.0561       90.00
         3        -2.3205     -3.6983     13.5007      2.4940       83.79
         4        -4.6729     -0.9771     -0.9164     -2.1888       91.79
         5         3.4326     10.0834      1.7198      5.0786       47.15
         6         0.9662      0.8198     -0.0408      0.5817       68.33
         7        20.4517     -4.7793      0.0650      5.2458       73.58
         8       -20.8712      1.4983     -1.9675     -7.1135      116.93
         9        -7.3463     -1.6811     -6.7687     -5.2653      133.52
        10        -0.1472     -1.8155     -1.7323     -1.2317      105.58
 1/2[<0|r|b>*<b|rxdel|0> + (<0|rxdel|b>*<b|r|0>)*]
 Rotatory Strengths (R) in cgs (10**-40 erg-esu-cm/Gauss)
       state          XX          YY          ZZ     R(length)
         1       -27.5557     34.5544    -44.4809    -12.4940
         2        -1.6051      0.3497      2.6097      0.4514
         3        10.9758      8.2158    -13.5319      1.8865
         4         3.0330     66.5441    -76.3768     -2.2666
         5         6.0213     -2.9599     13.0630      5.3748
         6        -0.3238     -0.0447      2.1721      0.6012
         7         4.0391     27.6915    -15.3895      5.4470
         8        -5.7414     -1.2800    -14.2159     -7.0791
         9        -0.0970     -2.8602    -13.0825     -5.3466
        10        -1.0847     -2.2271      1.0430     -0.7563
  1/2[<0|del|b>*<b|r|0> + (<0|r|b>*<b|del|0>)*] (Au)
       state          X           Y           Z        Dip. S.   Osc.(frdel)
         1        -0.0078     -0.0086     -0.0038      0.0202      0.0135
         2        -0.0001     -0.0013     -0.0010      0.0024      0.0016
         3        -0.0095     -0.0003     -0.0041      0.0139      0.0093
         4        -0.0000     -0.0057     -0.0250      0.0308      0.0205
         5        -0.0001     -0.0001     -0.0008      0.0011      0.0007
         6        -0.0000      0.0000     -0.0008      0.0008      0.0005
         7        -0.0002     -0.0033     -0.0039      0.0074      0.0049
         8        -0.0009     -0.0000     -0.0045      0.0054      0.0036
         9        -0.0001     -0.0019     -0.0009      0.0029      0.0019
        10        -0.0000     -0.0002     -0.0007      0.0008      0.0006

 Excitation energies and oscillator strengths:
 
 Excited State   1:      Singlet-A      5.9774 eV  207.42 nm  f=0.0141  <S**2>=0.000
      64 -> 65         0.68982
 This state for optimization and/or second-order correction.
 Total Energy, E(TD-HF/TD-DFT) =  -700.655225655    
 Copying the excited state density for this state as the 1-particle RhoCI density.
 
 Excited State   2:      Singlet-A      6.3163 eV  196.29 nm  f=0.0016  <S**2>=0.000
      64 -> 66         0.65448
      64 -> 67        -0.13998
      64 -> 70         0.20339
 
 Excited State   3:      Singlet-A      6.4819 eV  191.28 nm  f=0.0096  <S**2>=0.000
      64 -> 65        -0.11423
      64 -> 67         0.24489
      64 -> 68         0.57941
      64 -> 69        -0.24838
 
 Excited State   4:      Singlet-A      6.5293 eV  189.89 nm  f=0.0218  <S**2>=0.000
      63 -> 65        -0.20167
      63 -> 66         0.29286
      63 -> 67         0.51853
      63 -> 69         0.13866
      63 -> 70        -0.14370
      63 -> 71        -0.22178
 
 Excited State   5:      Singlet-A      6.6051 eV  187.71 nm  f=0.0007  <S**2>=0.000
      64 -> 67         0.21461
      64 -> 68         0.12506
      64 -> 69         0.56997
      64 -> 70         0.20392
      64 -> 71         0.20149
      64 -> 72         0.10428
 
 Excited State   6:      Singlet-A      6.7566 eV  183.50 nm  f=0.0005  <S**2>=0.000
      63 -> 65         0.61975
      63 -> 67         0.21289
      63 -> 68        -0.22687
 
 Excited State   7:      Singlet-A      6.7970 eV  182.41 nm  f=0.0046  <S**2>=0.000
      63 -> 66         0.37152
      63 -> 67        -0.26534
      63 -> 68         0.13488
      63 -> 69         0.10451
      63 -> 70        -0.28767
      63 -> 71         0.10810
      64 -> 66        -0.13137
      64 -> 67        -0.16396
      64 -> 70         0.28611
      64 -> 73        -0.12138
 
 Excited State   8:      Singlet-A      6.8005 eV  182.32 nm  f=0.0035  <S**2>=0.000
      63 -> 66        -0.24739
      63 -> 67         0.15825
      63 -> 70         0.19228
      64 -> 66        -0.20334
      64 -> 67        -0.28095
      64 -> 70         0.42372
      64 -> 73        -0.18403
 
 Excited State   9:      Singlet-A      6.8733 eV  180.39 nm  f=0.0020  <S**2>=0.000
      64 -> 67         0.48667
      64 -> 68        -0.23006
      64 -> 70         0.23010
      64 -> 71        -0.31318
      64 -> 73        -0.18015
 
 Excited State  10:      Singlet-A      6.9224 eV  179.11 nm  f=0.0008  <S**2>=0.000
      63 -> 65         0.21396
      63 -> 66        -0.22116
      63 -> 68         0.38684
      63 -> 69         0.31725
      63 -> 71        -0.34802
 SavETr:  write IOETrn=   770 NScale= 10 NData=  16 NLR=1 NState=   10 LETran=     190.
          IDoAtm=11111111111111111111111111111111111111111111
          Differentiating once with respect to electric field.
                with respect to dipole field.
          Differentiating once with respect to nuclear coordinates.
          There are     1 degrees of freedom in the 1st order CPHF.  IDoFFX=0 NUNeed=     1.
 LinEq1:  Iter=  0 NonCon=     1 RMS=7.67D-03 Max=1.98D-01 NDo=     1
 AX will form     1 AO Fock derivatives at one time.
 LinEq1:  Iter=  1 NonCon=     1 RMS=2.17D-03 Max=5.19D-02 NDo=     1
 LinEq1:  Iter=  2 NonCon=     1 RMS=1.20D-03 Max=2.36D-02 NDo=     1
 LinEq1:  Iter=  3 NonCon=     1 RMS=4.08D-04 Max=1.29D-02 NDo=     1
 LinEq1:  Iter=  4 NonCon=     1 RMS=1.71D-04 Max=2.82D-03 NDo=     1
 LinEq1:  Iter=  5 NonCon=     1 RMS=7.81D-05 Max=2.17D-03 NDo=     1
 LinEq1:  Iter=  6 NonCon=     1 RMS=2.23D-05 Max=4.81D-04 NDo=     1
 LinEq1:  Iter=  7 NonCon=     1 RMS=1.15D-05 Max=2.18D-04 NDo=     1
 LinEq1:  Iter=  8 NonCon=     1 RMS=5.34D-06 Max=1.07D-04 NDo=     1
 LinEq1:  Iter=  9 NonCon=     1 RMS=2.87D-06 Max=5.21D-05 NDo=     1
 LinEq1:  Iter= 10 NonCon=     1 RMS=1.54D-06 Max=2.29D-05 NDo=     1
 LinEq1:  Iter= 11 NonCon=     1 RMS=5.74D-07 Max=7.29D-06 NDo=     1
 LinEq1:  Iter= 12 NonCon=     1 RMS=2.76D-07 Max=4.37D-06 NDo=     1
 LinEq1:  Iter= 13 NonCon=     1 RMS=1.00D-07 Max=1.68D-06 NDo=     1
 LinEq1:  Iter= 14 NonCon=     1 RMS=3.63D-08 Max=7.33D-07 NDo=     1
 LinEq1:  Iter= 15 NonCon=     1 RMS=1.85D-08 Max=2.76D-07 NDo=     1
 LinEq1:  Iter= 16 NonCon=     1 RMS=6.25D-09 Max=1.09D-07 NDo=     1
 LinEq1:  Iter= 17 NonCon=     1 RMS=2.48D-09 Max=6.31D-08 NDo=     1
 LinEq1:  Iter= 18 NonCon=     1 RMS=1.12D-09 Max=2.91D-08 NDo=     1
 LinEq1:  Iter= 19 NonCon=     1 RMS=3.82D-10 Max=8.96D-09 NDo=     1
 LinEq1:  Iter= 20 NonCon=     1 RMS=1.26D-10 Max=2.42D-09 NDo=     1
 LinEq1:  Iter= 21 NonCon=     0 RMS=5.97D-11 Max=8.65D-10 NDo=     1
 Linear equations converged to 1.000D-10 1.000D-09 after    21 iterations.
 End of Minotr F.D. properties file   721 does not exist.
 End of Minotr F.D. properties file   722 does not exist.
 End of Minotr F.D. properties file   788 does not exist.

 **********************************************************************

            Population analysis using the SCF density.

 **********************************************************************

 Orbital symmetries:
       Occupied  (A) (A) (A) (A) (A) (A) (A) (A) (A) (A) (A) (A)
                 (A) (A) (A) (A) (A) (A) (A) (A) (A) (A) (A) (A)
                 (A) (A) (A) (A) (A) (A) (A) (A) (A) (A) (A) (A)
                 (A) (A) (A) (A) (A) (A) (A) (A) (A) (A) (A) (A)
                 (A) (A) (A) (A) (A) (A) (A) (A) (A) (A) (A) (A)
                 (A) (A) (A) (A)
       Virtual   (A) (A) (A) (A) (A) (A) (A) (A) (A) (A) (A) (A)
                 (A) (A) (A) (A) (A) (A) (A) (A) (A) (A) (A) (A)
                 (A) (A) (A) (A) (A) (A) (A) (A) (A) (A) (A) (A)
                 (A) (A) (A) (A) (A) (A) (A) (A) (A) (A) (A) (A)
                 (A) (A) (A) (A) (A) (A) (A) (A) (A) (A) (A) (A)
                 (A) (A) (A) (A) (A) (A) (A) (A) (A) (A) (A) (A)
                 (A) (A) (A) (A) (A) (A) (A) (A) (A) (A) (A) (A)
                 (A) (A) (A) (A) (A) (A) (A) (A) (A) (A) (A) (A)
                 (A) (A) (A) (A) (A) (A) (A) (A) (A) (A) (A) (A)
                 (A) (A) (A) (A) (A) (A) (A) (A) (A) (A) (A) (A)
                 (A) (A) (A) (A) (A) (A) (A) (A) (A) (A) (A) (A)
                 (A) (A) (A) (A) (A) (A) (A) (A) (A) (A) (A) (A)
                 (A) (A) (A) (A) (A) (A) (A) (A) (A) (A) (A) (A)
                 (A) (A) (A) (A) (A) (A) (A) (A) (A) (A) (A) (A)
                 (A) (A) (A) (A) (A) (A) (A) (A) (A) (A) (A) (A)
                 (A) (A) (A) (A) (A) (A) (A) (A) (A) (A) (A) (A)
                 (A) (A) (A) (A) (A) (A) (A) (A) (A) (A) (A) (A)
                 (A) (A) (A) (A) (A) (A) (A) (A) (A) (A) (A) (A)
                 (A) (A) (A) (A) (A) (A) (A) (A) (A) (A) (A) (A)
                 (A) (A) (A) (A) (A) (A) (A) (A) (A) (A) (A) (A)
                 (A) (A) (A) (A) (A) (A) (A) (A) (A) (A) (A) (A)
                 (A) (A) (A) (A) (A) (A) (A) (A) (A) (A) (A) (A)
                 (A) (A) (A) (A) (A) (A) (A) (A) (A) (A) (A) (A)
                 (A) (A) (A) (A) (A) (A) (A) (A) (A) (A) (A) (A)
                 (A) (A) (A) (A) (A) (A) (A) (A) (A) (A) (A) (A)
                 (A) (A) (A) (A) (A) (A) (A) (A) (A) (A) (A) (A)
                 (A) (A) (A) (A) (A) (A) (A) (A) (A) (A) (A) (A)
                 (A) (A) (A) (A) (A) (A) (A) (A) (A) (A) (A) (A)
                 (A) (A) (A) (A) (A) (A) (A) (A) (A) (A) (A) (A)
                 (A) (A) (A) (A) (A) (A) (A) (A) (A) (A) (A) (A)
                 (A) (A) (A) (A) (A) (A) (A) (A) (A) (A) (A) (A)
                 (A) (A) (A) (A) (A) (A) (A) (A) (A) (A) (A) (A)
                 (A) (A) (A) (A) (A) (A) (A) (A) (A) (A) (A) (A)
                 (A) (A) (A) (A) (A) (A) (A) (A) (A) (A) (A) (A)
                 (A) (A) (A) (A) (A) (A) (A) (A) (A) (A) (A) (A)
                 (A) (A) (A) (A) (A) (A) (A) (A) (A) (A) (A) (A)
                 (A) (A) (A) (A) (A) (A) (A) (A) (A) (A) (A) (A)
                 (A) (A) (A) (A) (A) (A) (A) (A) (A) (A) (A) (A)
                 (A) (A) (A) (A) (A) (A) (A) (A) (A) (A) (A) (A)
                 (A) (A) (A) (A) (A) (A) (A) (A) (A) (A) (A) (A)
                 (A) (A) (A) (A) (A) (A) (A) (A) (A) (A) (A) (A)
                 (A) (A) (A) (A) (A) (A) (A) (A) (A) (A) (A) (A)
                 (A) (A) (A) (A) (A) (A) (A) (A) (A) (A) (A) (A)
                 (A) (A) (A) (A) (A) (A) (A) (A) (A) (A) (A) (A)
                 (A) (A) (A) (A) (A) (A) (A) (A) (A) (A) (A) (A)
                 (A) (A) (A) (A) (A) (A) (A) (A) (A) (A) (A) (A)
                 (A) (A) (A) (A) (A) (A) (A) (A) (A) (A) (A) (A)
                 (A) (A) (A) (A) (A) (A) (A) (A) (A) (A) (A) (A)
                 (A) (A) (A) (A) (A) (A) (A) (A) (A) (A) (A) (A)
 The electronic state is 1-A.
 Alpha  occ. eigenvalues --  -19.14479 -19.13798 -10.22883 -10.22709 -10.22638
 Alpha  occ. eigenvalues --  -10.22607 -10.19022 -10.18758 -10.18675 -10.18139
 Alpha  occ. eigenvalues --  -10.18137 -10.17910 -10.17860 -10.17822 -10.17470
 Alpha  occ. eigenvalues --  -10.16866  -1.03695  -1.03207  -0.81700  -0.79788
 Alpha  occ. eigenvalues --   -0.78527  -0.77844  -0.74162  -0.71352  -0.68591
 Alpha  occ. eigenvalues --   -0.65252  -0.61902  -0.59927  -0.59545  -0.59014
 Alpha  occ. eigenvalues --   -0.57741  -0.54332  -0.50343  -0.49516  -0.49219
 Alpha  occ. eigenvalues --   -0.48763  -0.47410  -0.45373  -0.44543  -0.44007
 Alpha  occ. eigenvalues --   -0.42704  -0.42578  -0.41400  -0.40256  -0.40199
 Alpha  occ. eigenvalues --   -0.39602  -0.38147  -0.37682  -0.36706  -0.35931
 Alpha  occ. eigenvalues --   -0.35677  -0.35015  -0.34548  -0.33741  -0.33655
 Alpha  occ. eigenvalues --   -0.33363  -0.32907  -0.32354  -0.31813  -0.31631
 Alpha  occ. eigenvalues --   -0.30797  -0.30421  -0.25865  -0.24716
 Alpha virt. eigenvalues --    0.00208   0.01058   0.01355   0.01790   0.02079
 Alpha virt. eigenvalues --    0.02313   0.02946   0.03344   0.03536   0.04089
 Alpha virt. eigenvalues --    0.04316   0.04761   0.05144   0.05507   0.05816
 Alpha virt. eigenvalues --    0.06325   0.06680   0.06907   0.07293   0.07540
 Alpha virt. eigenvalues --    0.08086   0.08259   0.08894   0.09206   0.09306
 Alpha virt. eigenvalues --    0.09550   0.09913   0.10384   0.10925   0.11142
 Alpha virt. eigenvalues --    0.11388   0.12310   0.12775   0.12878   0.12922
 Alpha virt. eigenvalues --    0.13615   0.14265   0.14852   0.15447   0.15699
 Alpha virt. eigenvalues --    0.16350   0.16624   0.16932   0.17055   0.17887
 Alpha virt. eigenvalues --    0.18572   0.18990   0.19625   0.19737   0.20040
 Alpha virt. eigenvalues --    0.20152   0.20318   0.20710   0.20980   0.21330
 Alpha virt. eigenvalues --    0.21496   0.21760   0.21849   0.22420   0.22765
 Alpha virt. eigenvalues --    0.23416   0.23592   0.23751   0.24197   0.24624
 Alpha virt. eigenvalues --    0.25503   0.26396   0.26528   0.26772   0.27360
 Alpha virt. eigenvalues --    0.27517   0.27904   0.28108   0.28255   0.28806
 Alpha virt. eigenvalues --    0.29418   0.29581   0.29898   0.30219   0.30535
 Alpha virt. eigenvalues --    0.30594   0.31042   0.31799   0.32049   0.32601
 Alpha virt. eigenvalues --    0.32770   0.33401   0.33631   0.34376   0.35432
 Alpha virt. eigenvalues --    0.35849   0.36158   0.36294   0.37047   0.38183
 Alpha virt. eigenvalues --    0.38394   0.38611   0.39104   0.39970   0.40258
 Alpha virt. eigenvalues --    0.41165   0.42153   0.42567   0.42962   0.44467
 Alpha virt. eigenvalues --    0.46651   0.47770   0.49163   0.52452   0.55008
 Alpha virt. eigenvalues --    0.56989   0.57948   0.58739   0.60030   0.60538
 Alpha virt. eigenvalues --    0.61050   0.62079   0.62616   0.62993   0.63058
 Alpha virt. eigenvalues --    0.63752   0.64357   0.64466   0.64906   0.65216
 Alpha virt. eigenvalues --    0.65536   0.65831   0.66594   0.67368   0.68451
 Alpha virt. eigenvalues --    0.68611   0.69146   0.69809   0.70637   0.70915
 Alpha virt. eigenvalues --    0.71715   0.72326   0.72684   0.73385   0.74693
 Alpha virt. eigenvalues --    0.74819   0.75665   0.75845   0.76594   0.76794
 Alpha virt. eigenvalues --    0.77457   0.77543   0.77972   0.78646   0.79775
 Alpha virt. eigenvalues --    0.80523   0.81327   0.81678   0.82375   0.82983
 Alpha virt. eigenvalues --    0.83127   0.84291   0.84438   0.84856   0.86001
 Alpha virt. eigenvalues --    0.86545   0.87294   0.87790   0.88730   0.90220
 Alpha virt. eigenvalues --    0.90337   0.91389   0.92879   0.93988   0.95528
 Alpha virt. eigenvalues --    0.96274   0.97766   0.98312   0.99716   1.00241
 Alpha virt. eigenvalues --    1.01757   1.02492   1.03062   1.03634   1.05353
 Alpha virt. eigenvalues --    1.05858   1.06968   1.07619   1.08077   1.08390
 Alpha virt. eigenvalues --    1.10023   1.10279   1.11099   1.12587   1.14023
 Alpha virt. eigenvalues --    1.14666   1.15724   1.16189   1.17261   1.19495
 Alpha virt. eigenvalues --    1.19725   1.20194   1.20851   1.22170   1.23183
 Alpha virt. eigenvalues --    1.23760   1.24404   1.25102   1.25994   1.26234
 Alpha virt. eigenvalues --    1.27410   1.28324   1.28982   1.31552   1.33099
 Alpha virt. eigenvalues --    1.34227   1.36012   1.37555   1.38303   1.39039
 Alpha virt. eigenvalues --    1.40243   1.40438   1.41445   1.41920   1.42209
 Alpha virt. eigenvalues --    1.43688   1.44127   1.45089   1.47330   1.47463
 Alpha virt. eigenvalues --    1.49278   1.51069   1.51557   1.53277   1.54062
 Alpha virt. eigenvalues --    1.55088   1.55525   1.56588   1.58367   1.59765
 Alpha virt. eigenvalues --    1.60115   1.61571   1.62005   1.62978   1.64710
 Alpha virt. eigenvalues --    1.65501   1.65860   1.66353   1.69009   1.70858
 Alpha virt. eigenvalues --    1.71034   1.71524   1.72438   1.73065   1.74009
 Alpha virt. eigenvalues --    1.75135   1.77148   1.78632   1.79766   1.81048
 Alpha virt. eigenvalues --    1.82893   1.83346   1.83973   1.85029   1.86549
 Alpha virt. eigenvalues --    1.87323   1.89327   1.89939   1.91316   1.91646
 Alpha virt. eigenvalues --    1.92210   1.93884   1.95044   1.96304   1.97194
 Alpha virt. eigenvalues --    1.97302   1.98493   1.99445   2.00781   2.00930
 Alpha virt. eigenvalues --    2.02226   2.03737   2.04966   2.08357   2.11478
 Alpha virt. eigenvalues --    2.15511   2.15945   2.16832   2.17487   2.18352
 Alpha virt. eigenvalues --    2.19326   2.20259   2.22479   2.23467   2.25501
 Alpha virt. eigenvalues --    2.26760   2.28051   2.28619   2.30872   2.31784
 Alpha virt. eigenvalues --    2.34350   2.34808   2.36846   2.37754   2.38741
 Alpha virt. eigenvalues --    2.39589   2.40734   2.40901   2.43272   2.44698
 Alpha virt. eigenvalues --    2.45521   2.47222   2.48239   2.51844   2.52355
 Alpha virt. eigenvalues --    2.56706   2.58438   2.59380   2.62364   2.63295
 Alpha virt. eigenvalues --    2.66915   2.68669   2.70465   2.72625   2.72892
 Alpha virt. eigenvalues --    2.74183   2.74743   2.76384   2.77620   2.78279
 Alpha virt. eigenvalues --    2.78686   2.78870   2.79115   2.79943   2.81154
 Alpha virt. eigenvalues --    2.82356   2.83059   2.84050   2.84785   2.85534
 Alpha virt. eigenvalues --    2.86059   2.87795   2.88081   2.88719   2.90060
 Alpha virt. eigenvalues --    2.91497   2.92729   2.93603   2.93895   2.94913
 Alpha virt. eigenvalues --    2.95562   2.95928   2.96544   2.96908   2.97052
 Alpha virt. eigenvalues --    2.97576   2.98344   2.98663   2.99044   3.01101
 Alpha virt. eigenvalues --    3.01518   3.02065   3.03036   3.03561   3.04244
 Alpha virt. eigenvalues --    3.05435   3.05928   3.06782   3.08509   3.09216
 Alpha virt. eigenvalues --    3.12635   3.13068   3.13473   3.16024   3.16329
 Alpha virt. eigenvalues --    3.17123   3.18911   3.20245   3.21882   3.23725
 Alpha virt. eigenvalues --    3.23766   3.25963   3.27070   3.28470   3.29605
 Alpha virt. eigenvalues --    3.30765   3.32769   3.34602   3.36223   3.36995
 Alpha virt. eigenvalues --    3.37799   3.39352   3.39860   3.40786   3.42912
 Alpha virt. eigenvalues --    3.44261   3.44951   3.45517   3.47083   3.47667
 Alpha virt. eigenvalues --    3.48974   3.50258   3.51747   3.53237   3.53363
 Alpha virt. eigenvalues --    3.54703   3.55775   3.56941   3.57876   3.58638
 Alpha virt. eigenvalues --    3.59124   3.60082   3.61408   3.62558   3.64691
 Alpha virt. eigenvalues --    3.65688   3.66514   3.67367   3.69325   3.71554
 Alpha virt. eigenvalues --    3.72035   3.72386   3.74422   3.75478   3.75933
 Alpha virt. eigenvalues --    3.75964   3.77066   3.77781   3.78941   3.79839
 Alpha virt. eigenvalues --    3.80979   3.81248   3.81502   3.81769   3.82894
 Alpha virt. eigenvalues --    3.85186   3.89410   3.90927   3.92687   3.94645
 Alpha virt. eigenvalues --    3.96368   3.97140   4.01000   4.02203   4.05804
 Alpha virt. eigenvalues --    4.07682   4.09298   4.15462   4.18508   4.21670
 Alpha virt. eigenvalues --    4.24679   4.28792   4.31508   4.32565   4.35640
 Alpha virt. eigenvalues --    4.37389   4.38580   4.41406   4.41655   4.42671
 Alpha virt. eigenvalues --    4.43282   4.44550   4.45900   4.46847   4.47437
 Alpha virt. eigenvalues --    4.47835   4.48816   4.50139   4.50951   4.51696
 Alpha virt. eigenvalues --    4.52360   4.53528   4.54977   4.55541   4.55684
 Alpha virt. eigenvalues --    4.55912   4.56786   4.57555   4.58179   4.58649
[...]
 ---------------------------------------------------------------------
                    Distance matrix (angstroms):
                    1          2          3          4          5
     1  C    0.000000
     2  C    1.531857   0.000000
     3  C    2.540271   1.523943   0.000000
     4  O    3.768570   2.397302   1.413630   0.000000
     5  C    4.905236   3.694344   2.367499   1.413196   0.000000
     6  C    6.155115   4.779877   3.691704   2.393130   1.523732
     7  C    7.440036   6.159073   4.908244   3.768102   2.543766
     8  C    8.707250   7.330603   6.220802   4.947933   3.914711
     9  C    9.985701   8.676453   7.457154   6.279158   5.093479
    10  C   11.283345   9.908477   8.785972   7.526806   6.452232
    11  C   11.646067  10.230638   9.210078   7.905629   6.954164
    12  C   12.540620  11.219106  10.015126   8.825032   7.654121
    13  C   12.849996  11.587931  10.342075   9.228086   8.020814
    14  C   13.874500  12.677664  11.354044  10.318778   9.031329
    15  C   13.476559  12.301697  10.944345   9.936508   8.611940
    16  O   12.820531  11.566543  10.283644   9.178105   7.924504
    17  H    1.094401   2.178933   3.491233   4.570446   5.815950
    18  H    1.096426   2.185543   2.813612   4.107997   5.095507
    19  H    1.096406   2.185492   2.813656   4.107985   5.095572
    20  H    2.170888   1.096548   2.141702   2.618546   3.952042
    21  H    2.170914   1.096526   2.141639   2.618439   3.951989
    22  H    2.788572   2.170380   1.104600   2.070264   2.632404
    23  H    2.788617   2.170353   1.104640   2.070237   2.632345
    24  H    5.070938   4.030909   2.632541   2.069902   1.104326
    25  H    5.071451   4.031238   2.633084   2.070050   1.104436
    26  H    6.271254   4.843274   3.949921   2.615447   2.142634
    27  H    6.269415   4.841400   3.948638   2.614280   2.143054
    28  H    7.569379   6.383618   5.056043   4.070559   2.776074
    29  H    7.570965   6.385246   5.056950   4.071408   2.775341
    30  H    8.790201   7.370963   6.376422   5.055589   4.190358
    31  H    8.801004   7.382644   6.386980   5.067440   4.200527
    32  H   10.020420   8.779249   7.493086   6.408604   5.152243
    33  H   10.103312   8.854960   7.576900   6.482563   5.235320
    34  H   11.298772   9.889097   8.850099   7.550550   6.579412
    35  H   11.844508  10.480199   9.403773   8.165052   7.153273
    36  H   10.939425   9.491119   8.574239   7.232372   6.419271
    37  H   12.605776  11.163616  10.195499   8.862535   7.962471
    38  H   13.412956  12.049855  10.904393   9.664657   8.555923
    39  H   13.348159  12.051946  10.877093   9.722530   8.595721
    40  H   11.988979  10.772045   9.500003   8.445537   7.219330
    41  H   14.861593  13.629949  12.336418  11.257265   9.998301
    42  H   14.014314  12.889036  11.526737  10.579515   9.264434
    43  H   14.340144  13.178462  11.814481  10.820895   9.493311
    44  H   12.816059  11.715325  10.306314   9.393656   8.024600
                    6          7          8          9         10
     6  C    0.000000
     7  C    1.532370   0.000000
     8  C    2.554811   1.534174   0.000000
     9  C    3.920945   2.549719   1.533415   0.000000
    10  C    5.133933   3.942401   2.579983   1.546299   0.000000
    11  C    5.569382   4.583476   3.168361   2.571150   1.540359
    12  C    6.451897   5.115931   3.947144   2.582215   1.549372
    13  C    6.943182   5.584089   4.629085   3.304226   2.687601
    14  C    8.069973   6.614530   5.802341   4.335954   3.836219
    15  C    7.697191   6.192672   5.457967   3.924741   3.617625
    16  O    6.859758   5.424015   4.476599   2.989921   2.446735
    17  H    6.957925   8.318049   9.509452  10.846299  12.087326
    18  H    6.419647   7.613515   8.936055  10.150491  11.496880
    19  H    6.419211   7.612402   8.935213  10.148228  11.482310
    20  H    4.842810   6.274208   7.334510   8.728523   9.893508
    21  H    4.842138   6.272738   7.333389   8.725786   9.876578
    22  H    4.028739   5.074711   6.453395   7.589066   8.960394
    23  H    4.029395   5.076409   6.454531   7.592110   8.979086
    24  H    2.170634   2.793282   4.223099   5.231865   6.637766
    25  H    2.171458   2.796001   4.224325   5.235837   6.662461
    26  H    1.097423   2.170404   2.796093   4.224338   5.285479
    27  H    1.097320   2.169558   2.796530   4.221921   5.256719
    28  H    2.165547   1.099014   2.161956   2.768689   4.200136
    29  H    2.165597   1.099255   2.161191   2.771639   4.235781
    30  H    2.769445   2.157421   1.096651   2.175804   2.849413
    31  H    2.781416   2.161324   1.099325   2.161248   2.784883
    32  H    4.159677   2.722466   2.144188   1.097582   2.181639
    33  H    4.223227   2.799708   2.164148   1.098159   2.169393
    34  H    5.198742   4.185220   2.764863   2.164665   1.098184
    35  H    5.881128   4.816079   3.603005   2.858266   2.189594
    36  H    4.981573   4.252964   2.843202   2.818519   2.187546
    37  H    6.536818   5.606543   4.136753   3.523883   2.188711
    38  H    7.273673   6.022531   4.723973   3.499366   2.150216
    39  H    7.452124   6.208737   5.153562   4.012166   3.170626
    40  H    6.248192   4.891396   4.152554   2.936736   2.825076
    41  H    8.963100   7.536284   6.595283   5.145710   4.374190
    42  H    8.436081   6.975364   6.352855   4.932321   4.678154
    43  H    8.592303   7.092375   6.351897   4.831254   4.435798
    44  H    7.267583   5.736582   5.264266   3.780709   3.920119
                   11         12         13         14         15
    11  C    0.000000
    12  C    2.540263   0.000000
    13  C    3.976716   1.532591   0.000000
    14  C    4.900326   2.395370   1.535294   0.000000
    15  C    4.414020   2.342953   2.380260   1.522388   0.000000
    16  O    3.021931   1.427011   2.367608   2.365904   1.415830
    17  H   12.391734  13.391633  13.728647  14.801745  14.423958
    18  H   11.807100  12.726573  13.090315  14.031922  13.526391
    19  H   11.980586  12.667202  12.847750  13.848823  13.525805
    20  H   10.049948  11.269647  11.776167  12.878914  12.427183
    21  H   10.251856  11.202863  11.507524  12.680299  12.426396
    22  H    9.555266  10.091967  10.256588  11.239338  10.921405
    23  H    9.336062  10.166625  10.559817  11.464954  10.922206
    24  H    7.358905   7.703831   7.859691   8.836702   8.532878
    25  H    7.071352   7.800923   8.251108   9.121623   8.533591
    26  H    5.410526   6.705493   7.406514   8.530319   8.046990
    27  H    5.779796   6.595606   6.974267   8.230256   8.048823
    28  H    5.142082   5.151524   5.313789   6.310633   6.044703
    29  H    4.724234   5.290716   5.867857   6.695606   6.041252
    30  H    2.859942   4.335490   5.286608   6.418230   5.933788
    31  H    3.500082   4.151048   4.649990   6.000772   5.922694
    32  H    3.511074   2.726120   2.902193   3.917864   3.730329
    33  H    2.775560   2.903471   3.771239   4.468295   3.688560
    34  H    2.153316   2.088903   2.798294   4.198003   4.341419
    35  H    1.095600   2.838862   4.345554   4.976079   4.169585
    36  H    1.092424   3.498228   4.828517   5.876130   5.406741
    37  H    1.097524   2.756179   4.155272   5.031549   4.710294
    38  H    2.599354   1.107027   2.154313   2.796462   2.868588
    39  H    4.381423   2.185117   1.099374   2.209378   3.334878
    40  H    4.305167   2.169292   1.092376   2.183890   2.850492
    41  H    5.237984   2.838092   2.179161   1.097198   2.144376
    42  H    5.864329   3.360066   2.218497   1.097066   2.191644
    43  H    4.959580   3.151918   3.345370   2.253850   1.099785
    44  H    4.813720   2.954348   2.894468   2.208215   1.105129
                   16         17         18         19         20
    16  O    0.000000
    17  H   13.720019   0.000000
    18  H   12.887358   1.767615   0.000000
    19  H   12.965471   1.767593   1.769376   0.000000
    20  H   11.594189   2.514156   2.536821   3.089653   0.000000
    21  H   11.680272   2.514270   3.089708   2.536714   1.758210
    22  H   10.381742   3.792063   3.156370   2.612063   3.065273
    23  H   10.283748   3.792035   2.612037   3.156604   2.504943
    24  H    8.001261   6.035016   5.324330   5.020939   4.542403
    25  H    7.873292   6.035405   5.021370   5.325141   4.184971
    26  H    7.068215   6.989348   6.474776   6.710559   4.655283
    27  H    7.211656   6.987311   6.709185   6.472753   4.974488
    28  H    5.496435   8.492523   7.786329   7.582932   6.676806
    29  H    5.306467   8.494410   7.585653   7.786413   6.443379
    30  H    4.780212   9.532726   8.977502   9.147184   7.210951
    31  H    4.976555   9.544115   9.158897   8.985978   7.434002
    32  H    3.167473  10.921081  10.214570  10.064031   8.965692
    33  H    2.763596  10.999256  10.149601  10.303298   8.862103
    34  H    3.324309  12.055674  11.614293  11.467560   9.907199
    35  H    2.766859  12.623787  11.905253  12.206391  10.266684
    36  H    4.028271  11.629492  11.124187  11.337771   9.240131
    37  H    3.371247  13.318164  12.802121  12.947440  10.962257
    38  H    1.976546  14.228140  13.615962  13.580303  12.043524
    39  H    3.274948  14.184802  13.664394  13.332104  12.248126
    40  H    2.891360  12.885514  12.243271  11.931069  11.032200
    41  H    2.858659  15.769706  15.032571  14.859152  13.796149
    42  H    3.286422  14.969093  14.172145  13.906223  13.175173
    43  H    2.017683  15.293140  14.336919  14.419318  13.262449
    44  H    2.000244  13.797366  12.819173  12.829889  11.886813
                   21         22         23         24         25
    21  H    0.000000
    22  H    2.505019   0.000000
    23  H    3.065214   1.774979   0.000000
    24  H    4.184877   2.411858   2.994410   0.000000
    25  H    4.542658   2.995232   2.412326   1.775098   0.000000
    26  H    4.975967   4.541056   4.183500   3.066425   2.506152
    27  H    4.652732   4.182114   4.540460   2.506933   3.067276
    28  H    6.439837   4.980230   5.285770   2.571329   3.122072
    29  H    6.676965   5.284326   4.982864   3.117522   2.573381
    30  H    7.419747   6.784017   6.552618   4.742302   4.404325
    31  H    7.221177   6.559984   6.795587   4.410247   4.753109
    32  H    8.794757   7.463857   7.666301   5.055132   5.349188
    33  H    9.036490   7.757389   7.551433   5.441869   5.143623
    34  H    9.735779   8.986993   9.174019   6.713694   6.961528
    35  H   10.612158   9.781047   9.401290   7.596560   7.100358
    36  H    9.494527   9.006195   8.734828   6.942193   6.585692
    37  H   11.130487  10.542877  10.363246   8.357262   8.128864
    38  H   12.003343  11.030958  11.074945   8.667379   8.722791
    39  H   11.878541  10.777055  11.186779   8.419542   8.937599
    40  H   10.686759   9.342417   9.739238   6.959607   7.483550
    41  H   13.608044  12.251596  12.462058   9.843931  10.104310
    42  H   12.890366  11.311282  11.637756   8.945928   9.355076
    43  H   13.350766  11.828182  11.727349   9.461541   9.334866
    44  H   11.898130  10.238757  10.225388   7.888191   7.870597
                   26         27         28         29         30
    26  H    0.000000
    27  H    1.759238   0.000000
    28  H    3.076373   2.523989   0.000000
    29  H    2.525443   3.075858   1.755472   0.000000
    30  H    2.560089   3.102870   3.063529   2.513821   0.000000
    31  H    3.117866   2.572448   2.511369   3.066781   1.755752
    32  H    4.708997   4.377883   2.483968   3.027579   3.062811
    33  H    4.420727   4.763936   3.123911   2.570465   2.514763
    34  H    5.406926   5.088745   4.358135   4.725044   3.116822
    35  H    5.667290   6.274432   5.417285   4.702223   3.227657
    36  H    4.670757   5.158456   4.976049   4.469995   2.229185
    37  H    6.356891   6.645493   6.121385   5.807691   3.828479
    38  H    7.427194   7.364728   6.143676   6.217996   4.943211
    39  H    7.915073   7.332755   5.929335   6.634135   5.789581
    40  H    6.835740   6.265701   4.462508   5.230510   4.981269
    41  H    9.362180   9.085545   7.295642   7.635965   7.118954
    42  H    9.006048   8.586776   6.512953   7.054419   7.084537
    43  H    8.868678   9.003284   7.013358   6.839076   6.715067
    44  H    7.685695   7.706225   5.506707   5.476704   5.822268
                   31         32         33         34         35
    31  H    0.000000
    32  H    2.514951   0.000000
    33  H    3.068517   1.754459   0.000000
    34  H    2.516734   2.552917   3.067179   0.000000
    35  H    4.193682   3.811967   2.620314   3.075489   0.000000
    36  H    3.119776   3.850182   3.097687   2.519179   1.768725
    37  H    4.282237   4.347957   3.797449   2.481778   1.772705
    38  H    4.836902   3.777224   3.806737   2.468335   2.947197
    39  H    4.953449   3.646878   4.646106   2.915276   4.934790
    40  H    4.154005   2.221043   3.491925   2.883236   4.695021
    41  H    6.737979   4.852452   5.292672   4.660489   5.324641
    42  H    6.530879   4.305208   5.061909   4.978998   5.938163
    43  H    6.877950   4.753001   4.452814   5.214867   4.543926
    44  H    5.836288   3.445278   3.393452   4.702011   4.500352
                   36         37         38         39         40
    36  H    0.000000
    37  H    1.765596   0.000000
    38  H    3.617348   2.353644   0.000000
    39  H    5.174816   4.346171   2.381620   0.000000
    40  H    5.001226   4.700336   3.045873   1.777199   0.000000
    41  H    6.268374   5.143030   2.806658   2.433900   3.067370
    42  H    6.791460   6.068500   3.861006   2.775340   2.454740
    43  H    5.991771   5.144066   3.396561   4.181337   3.926658
    44  H    5.694769   5.318720   3.722197   3.953314   2.959490
                   41         42         43         44
    41  H    0.000000
    42  H    1.781687   0.000000
    43  H    2.440174   2.834783   0.000000
    44  H    3.063223   2.459509   1.775012   0.000000
 Stoichiometry    C14H28O2
 Framework group  C1[X(C14H28O2)]
 Deg. of freedom   126
 Full point group                 C1      NOp   1
 Largest Abelian subgroup         C1      NOp   1
 Largest concise Abelian subgroup C1      NOp   1
                         Standard orientation:                         
 ---------------------------------------------------------------------
 Center     Atomic      Atomic             Coordinates (Angstroms)
 Number     Number       Type             X           Y           Z
 ---------------------------------------------------------------------
      1          6           0        8.161800   -0.602755   -0.098750
      2          6           0        6.881354    0.171419    0.229429
      3          6           0        5.623281   -0.579332   -0.190128
      4          8           0        4.485724    0.191316    0.142159
      5          6           0        3.261156   -0.420925   -0.208152
      6          6           0        2.112539    0.494773    0.196737
      7          6           0        0.739338   -0.093700   -0.144109
      8          6           0       -0.419862    0.826444    0.259970
      9          6           0       -1.789396    0.226446   -0.080236
     10          6           0       -2.983074    1.091294    0.386894
     11          6           0       -3.078546    2.432900   -0.363895
     12          6           0       -4.336042    0.338288    0.331981
     13          6           0       -4.615961   -0.867306    1.235875
     14          6           0       -5.662595   -1.653619    0.433755
     15          6           0       -5.263658   -1.348616   -1.003426
     16          8           0       -4.616684   -0.089255   -1.000238
     17          1           0        9.049615   -0.043249    0.211815
     18          1           0        8.250243   -0.793315   -1.174860
     19          1           0        8.185973   -1.572381    0.412469
     20          1           0        6.888354    1.146900   -0.271376
     21          1           0        6.824359    0.372565    1.305840
     22          1           0        5.575734   -1.560192    0.315633
     23          1           0        5.640230   -0.778334   -1.276563
     24          1           0        3.169369   -1.398550    0.297180
     25          1           0        3.233437   -0.616066   -1.294858
     26          1           0        2.243889    1.462382   -0.304078
     27          1           0        2.182467    0.688420    1.274570
     28          1           0        0.620160   -1.066641    0.352898
     29          1           0        0.681081   -0.295729   -1.223067
     30          1           0       -0.292965    1.798715   -0.231181
     31          1           0       -0.367624    1.020293    1.340808
     32          1           0       -1.845996   -0.770551    0.375264
     33          1           0       -1.862580    0.069882   -1.164711
     34          1           0       -2.865513    1.304597    1.457730
     35          1           0       -3.249452    2.276626   -1.434741
     36          1           0       -2.160934    3.015067   -0.252277
     37          1           0       -3.904665    3.042944    0.023319
     38          1           0       -5.130325    1.090926    0.499789
     39          1           0       -4.983005   -0.547815    2.221689
     40          1           0       -3.705117   -1.452617    1.380990
     41          1           0       -6.668400   -1.253986    0.614009
     42          1           0       -5.670019   -2.729244    0.649463
     43          1           0       -6.067028   -1.274237   -1.750815
     44          1           0       -4.505605   -2.044764   -1.405972
 ---------------------------------------------------------------------
 Rotational constants (GHZ):           1.5573866           0.1053023           0.1021396
 Standard basis: 6-31+G(2df,p) (6D, 7F)
 There are   700 symmetry adapted cartesian basis functions of A   symmetry.
 There are   652 symmetry adapted basis functions of A   symmetry.
   652 basis functions,   964 primitive gaussians,   700 cartesian basis functions
    64 alpha electrons       64 beta electrons
       nuclear repulsion energy      1091.7262783614 Hartrees.
 NAtoms=   44 NActive=   44 NUniq=   44 SFac= 1.00D+00 NAtFMM=   60 NAOKFM=F Big=F
 Integral buffers will be    131072 words long.
 Regular integral format.
 Two-electron integral symmetry is turned on.
 One-electron integrals computed using PRISM.
 PrsmSu:  requested number of processors reduced to:  12 ShMem   1 Linda.
 NBasis=   652 RedAO= T EigKep=  3.74D-06  NBF=   652
 NBsUse=   652 1.00D-06 EigRej= -1.00D+00 NBFU=   652
 Initial guess from the checkpoint file:  "CCCOCCCCCCqCrC1CCCO1.chk"
 B after Tr=     0.000000   -0.000000   -0.000000
         Rot=    0.999900   -0.014041   -0.000374    0.001384 Ang=  -1.62 deg.
 ExpMin= 4.38D-02 ExpMax= 5.48D+03 ExpMxC= 8.25D+02 IAcc=2 IRadAn=         4 AccDes= 0.00D+00
 Harris functional with IExCor=  402 and IRadAn=       4 diagonalized for initial guess.
 HarFok:  IExCor=  402 AccDes= 0.00D+00 IRadAn=         4 IDoV= 1 UseB2=F ITyADJ=14
 ICtDFT=  3500011 ScaDFX=  1.000000  1.000000  1.000000  1.000000
 FoFCou: FMM=F IPFlag=           0 FMFlag=      100000 FMFlg1=           0
         NFxFlg=           0 DoJE=T BraDBF=F KetDBF=T FulRan=T
         wScrn=  0.000000 ICntrl=       500 IOpCl=  0 I1Cent=   200000004 NGrid=           0
         NMat0=    1 NMatS0=      1 NMatT0=    0 NMatD0=    1 NMtDS0=    0 NMtDT0=    0
 Petite list used in FoFCou.
 Requested convergence on RMS density matrix=1.00D-08 within 128 cycles.
 Requested convergence on MAX density matrix=1.00D-06.
 Requested convergence on             energy=1.00D-06.
 No special actions if energy rises.
 SCF Done:  E(RB3LYP) =  -700.870168529     A.U. after   11 cycles
            NFock= 11  Conv=0.36D-08     -V/T= 2.0084
slurmstepd: error: *** JOB 27500723 ON lewis4-r630-hpc4-node239 CANCELLED AT 2023-05-26T01:29:31 DUE TO TIME LIMIT ***
