### Starting Gaussian ###
 Entering Gaussian System, Link 0=g16
 Initial command:
 /cluster/software/gaussian/gaussian-16-A.03/avx2/g16/l1.exe "/local/scratch/ks29c/Gau-6600.inp" -scrdir="/local/scratch/ks29c/"
 Entering Link 1 = /cluster/software/gaussian/gaussian-16-A.03/avx2/g16/l1.exe PID=      6601.
  
 Copyright (c) 1988,1990,1992,1993,1995,1998,2003,2009,2016,
            Gaussian, Inc.  All Rights Reserved.
  
 This is part of the Gaussian(R) 16 program.  It is based on
 the Gaussian(R) 09 system (copyright 2009, Gaussian, Inc.),
 the Gaussian(R) 03 system (copyright 2003, Gaussian, Inc.),
 the Gaussian(R) 98 system (copyright 1998, Gaussian, Inc.),
 the Gaussian(R) 94 system (copyright 1995, Gaussian, Inc.),
 the Gaussian 92(TM) system (copyright 1992, Gaussian, Inc.),
 the Gaussian 90(TM) system (copyright 1990, Gaussian, Inc.),
 the Gaussian 88(TM) system (copyright 1988, Gaussian, Inc.),
 the Gaussian 86(TM) system (copyright 1986, Carnegie Mellon
 University), and the Gaussian 82(TM) system (copyright 1983,
 Carnegie Mellon University). Gaussian is a federally registered
 trademark of Gaussian, Inc.
  
 This software contains proprietary and confidential information,
 including trade secrets, belonging to Gaussian, Inc.
  
 This software is provided under written license and may be
 used, copied, transmitted, or stored only in accord with that
 written license.
  
 The following legend is applicable only to US Government
 contracts under FAR:
  
                    RESTRICTED RIGHTS LEGEND
  
 Use, reproduction and disclosure by the US Government is
 subject to restrictions as set forth in subparagraphs (a)
 and (c) of the Commercial Computer Software - Restricted
 Rights clause in FAR 52.227-19.
  
 Gaussian, Inc.
 340 Quinnipiac St., Bldg. 40, Wallingford CT 06492
  
  
 ---------------------------------------------------------------
 Warning -- This program may not be used in any manner that
 competes with the business of Gaussian, Inc. or will provide
 assistance to any competitor of Gaussian, Inc.  The licensee
 of this program is prohibited from giving any competitor of
 Gaussian, Inc. access to this program.  By using this program,
 the user acknowledges that Gaussian, Inc. is engaged in the
 business of creating and licensing software in the field of
 computational chemistry and represents and warrants to the
 licensee that it is not a competitor of Gaussian, Inc. and that
 it will not use this program in any manner prohibited above.
 ---------------------------------------------------------------
  

 Cite this work as:
 Gaussian 16, Revision A.03,
 M. J. Frisch, G. W. Trucks, H. B. Schlegel, G. E. Scuseria, 
 M. A. Robb, J. R. Cheeseman, G. Scalmani, V. Barone, 
 G. A. Petersson, H. Nakatsuji, X. Li, M. Caricato, A. V. Marenich, 
 J. Bloino, B. G. Janesko, R. Gomperts, B. Mennucci, H. P. Hratchian, 
 J. V. Ortiz, A. F. Izmaylov, J. L. Sonnenberg, D. Williams-Young, 
 F. Ding, F. Lipparini, F. Egidi, J. Goings, B. Peng, A. Petrone, 
 T. Henderson, D. Ranasinghe, V. G. Zakrzewski, J. Gao, N. Rega, 
 G. Zheng, W. Liang, M. Hada, M. Ehara, K. Toyota, R. Fukuda, 
 J. Hasegawa, M. Ishida, T. Nakajima, Y. Honda, O. Kitao, H. Nakai, 
 T. Vreven, K. Throssell, J. A. Montgomery, Jr., J. E. Peralta, 
 F. Ogliaro, M. J. Bearpark, J. J. Heyd, E. N. Brothers, K. N. Kudin, 
 V. N. Staroverov, T. A. Keith, R. Kobayashi, J. Normand, 
 K. Raghavachari, A. P. Rendell, J. C. Burant, S. S. Iyengar, 
 J. Tomasi, M. Cossi, J. M. Millam, M. Klene, C. Adamo, R. Cammi, 
 J. W. Ochterski, R. L. Martin, K. Morokuma, O. Farkas, 
 J. B. Foresman, and D. J. Fox, Gaussian, Inc., Wallingford CT, 2016.
 
 ******************************************
 Gaussian 16:  ES64L-G16RevA.03 25-Dec-2016
                22-May-2023 
 ******************************************
 %chk=CCCOCCCNCqCrCC1CCCCO1.chk
 %NProcShared=20
 Will use up to   20 processors via shared memory.
 -----------------------------
 # opt freq b3lyp/6-31g(2df,p)
 -----------------------------
 1/18=20,19=15,26=3,38=1/1,3;
 2/9=110,12=2,17=6,18=5,40=1/2;
 3/5=1,6=6,7=104,11=2,25=1,30=1,71=1,74=-5/1,2,3;
 4//1;
 5/5=2,38=5/2;
 6/7=2,8=2,9=2,10=2,28=1/1;
 7//1,2,3,16;
 1/18=20,19=15,26=3/3(2);
 2/9=110/2;
 99//99;
 2/9=110/2;
 3/5=1,6=6,7=104,11=2,25=1,30=1,71=1,74=-5/1,2,3;
 4/5=5,16=3,69=1/1;
 5/5=2,38=5/2;
 7//1,2,3,16;
 1/18=20,19=15,26=3/3(-5);
 2/9=110/2;
 6/7=2,8=2,9=2,10=2,19=2,28=1/1;
 99/9=1/99;
 -------------------
 Title Card Required
 -------------------
 Symbolic Z-matrix:
 Charge =  0 Multiplicity = 1
 C                     1.05131   0.02546  -0.06592 
 C                     2.5659    0.04187  -0.04112 
 C                     3.06185   0.76842   1.19311 
 O                     4.4827    0.77288   1.16591 
 C                     4.98768   1.43773   2.31228 
 C                     6.50269   1.41147   2.25932 
 C                     7.01403   2.09638   3.50559 
 N                     8.47202   2.00464   3.59066 
 C                     8.91819   2.60767   4.8561 
 C                     8.45224   1.78426   6.05979 
 C                     10.43391   2.82044   4.85295 
 C                     10.96099   3.70922   6.01025 
 C                     9.96401   4.58771   6.78781 
 C                     9.43261   5.74949   5.96084 
 C                     10.59019   6.54121   5.39109 
 C                     11.60172   5.62921   4.7063 
 O                     12.03088   4.55176   5.54442 
 H                     0.68904  -0.49572  -0.95533 
 H                     0.65458   1.04595  -0.07715 
 H                     0.65588  -0.48374   0.81908 
 H                     2.95885   0.53022  -0.94073 
 H                     2.96073  -0.98108  -0.05243 
 H                     2.71309   0.26064   2.10041 
 H                     2.69643   1.80199   1.20085 
 H                     4.63239   0.92962   3.21807 
 H                     4.62705   2.47368   2.3301 
 H                     6.86435   1.90708   1.35188 
 H                     6.85368   0.37353   2.21578 
 H                     6.54811   1.60433   4.3619 
 H                     6.69546   3.1476    3.51148 
 H                     8.87547   2.50893   2.80424 
 H                     8.43819   3.58001   4.8931 
 H                     8.6544    0.72029   5.9179 
 H                     7.37841   1.92408   6.22669 
 H                     8.93834   2.07309   6.99183 
 H                     10.75861   3.21675   3.88413 
 H                     10.93606   1.84298   4.91016 
 H                     11.41934   3.02403   6.73631 
 H                     10.49525   5.0065    7.65274 
 H                     9.12809   4.03111   7.21147 
 H                     8.78611   6.37819   6.58163 
 H                     8.80762   5.41943   5.12881 
 H                     11.07498   7.07632   6.21387 
 H                     10.21139   7.28339   4.6811 
 H                     12.48949   6.2091    4.43896 
 H                     11.19139   5.23499   3.77148 
 

 GradGradGradGradGradGradGradGradGradGradGradGradGradGradGradGradGradGrad
 Berny optimization.
 Initialization pass.
                           ----------------------------
                           !    Initial Parameters    !
                           ! (Angstroms and Degrees)  !
 --------------------------                            --------------------------
 ! Name  Definition              Value          Derivative Info.                !
 --------------------------------------------------------------------------------
 ! R1    R(1,2)                  1.5149         estimate D2E/DX2                !
 ! R2    R(1,18)                 1.0927         estimate D2E/DX2                !
 ! R3    R(1,19)                 1.095          estimate D2E/DX2                !
 ! R4    R(1,20)                 1.0949         estimate D2E/DX2                !
 ! R5    R(2,3)                  1.5156         estimate D2E/DX2                !
 ! R6    R(2,21)                 1.0964         estimate D2E/DX2                !
 ! R7    R(2,22)                 1.0966         estimate D2E/DX2                !
 ! R8    R(3,4)                  1.4211         estimate D2E/DX2                !
 ! R9    R(3,23)                 1.0967         estimate D2E/DX2                !
 ! R10   R(3,24)                 1.0963         estimate D2E/DX2                !
 ! R11   R(4,5)                  1.4182         estimate D2E/DX2                !
 ! R12   R(5,6)                  1.5162         estimate D2E/DX2                !
 ! R13   R(5,25)                 1.0977         estimate D2E/DX2                !
 ! R14   R(5,26)                 1.0971         estimate D2E/DX2                !
 ! R15   R(6,7)                  1.5112         estimate D2E/DX2                !
 ! R16   R(6,27)                 1.0954         estimate D2E/DX2                !
 ! R17   R(6,28)                 1.0965         estimate D2E/DX2                !
 ! R18   R(7,8)                  1.4633         estimate D2E/DX2                !
 ! R19   R(7,29)                 1.092          estimate D2E/DX2                !
 ! R20   R(7,30)                 1.0984         estimate D2E/DX2                !
 ! R21   R(8,9)                  1.4711         estimate D2E/DX2                !
 ! R22   R(8,31)                 1.0176         estimate D2E/DX2                !
 ! R23   R(9,10)                 1.531          estimate D2E/DX2                !
 ! R24   R(9,11)                 1.5306         estimate D2E/DX2                !
 ! R25   R(9,32)                 1.085          estimate D2E/DX2                !
 ! R26   R(10,33)                1.0923         estimate D2E/DX2                !
 ! R27   R(10,34)                1.0957         estimate D2E/DX2                !
 ! R28   R(10,35)                1.0901         estimate D2E/DX2                !
 ! R29   R(11,12)                1.5515         estimate D2E/DX2                !
 ! R30   R(11,36)                1.0959         estimate D2E/DX2                !
 ! R31   R(11,37)                1.1004         estimate D2E/DX2                !
 ! R32   R(12,13)                1.5396         estimate D2E/DX2                !
 ! R33   R(12,17)                1.4393         estimate D2E/DX2                !
 ! R34   R(12,38)                1.0985         estimate D2E/DX2                !
 ! R35   R(13,14)                1.5218         estimate D2E/DX2                !
 ! R36   R(13,39)                1.098          estimate D2E/DX2                !
 ! R37   R(13,40)                1.09           estimate D2E/DX2                !
 ! R38   R(14,15)                1.5137         estimate D2E/DX2                !
 ! R39   R(14,41)                1.0948         estimate D2E/DX2                !
 ! R40   R(14,42)                1.0917         estimate D2E/DX2                !
 ! R41   R(15,16)                1.5244         estimate D2E/DX2                !
 ! R42   R(15,43)                1.0947         estimate D2E/DX2                !
 ! R43   R(15,44)                1.0947         estimate D2E/DX2                !
 ! R44   R(16,17)                1.4309         estimate D2E/DX2                !
 ! R45   R(16,45)                1.0936         estimate D2E/DX2                !
 ! R46   R(16,46)                1.0944         estimate D2E/DX2                !
 ! A1    A(2,1,18)             110.4858         estimate D2E/DX2                !
 ! A2    A(2,1,19)             110.6298         estimate D2E/DX2                !
 ! A3    A(2,1,20)             110.6637         estimate D2E/DX2                !
 ! A4    A(18,1,19)            108.4252         estimate D2E/DX2                !
 ! A5    A(18,1,20)            108.4429         estimate D2E/DX2                !
 ! A6    A(19,1,20)            108.1113         estimate D2E/DX2                !
 ! A7    A(1,2,3)              110.2235         estimate D2E/DX2                !
 ! A8    A(1,2,21)             110.4695         estimate D2E/DX2                !
 ! A9    A(1,2,22)             110.4701         estimate D2E/DX2                !
 ! A10   A(3,2,21)             109.7161         estimate D2E/DX2                !
 ! A11   A(3,2,22)             109.7409         estimate D2E/DX2                !
 ! A12   A(21,2,22)            106.1404         estimate D2E/DX2                !
 ! A13   A(2,3,4)              108.2448         estimate D2E/DX2                !
 ! A14   A(2,3,23)             110.3465         estimate D2E/DX2                !
 ! A15   A(2,3,24)             110.403          estimate D2E/DX2                !
 ! A16   A(4,3,23)             109.5876         estimate D2E/DX2                !
 ! A17   A(4,3,24)             109.2953         estimate D2E/DX2                !
 ! A18   A(23,3,24)            108.9466         estimate D2E/DX2                !
 ! A19   A(3,4,5)              109.9995         estimate D2E/DX2                !
 ! A20   A(4,5,6)              108.6299         estimate D2E/DX2                !
 ! A21   A(4,5,25)             109.5591         estimate D2E/DX2                !
 ! A22   A(4,5,26)             109.802          estimate D2E/DX2                !
 ! A23   A(6,5,25)             110.1354         estimate D2E/DX2                !
 ! A24   A(6,5,26)             110.2058         estimate D2E/DX2                !
 ! A25   A(25,5,26)            108.5002         estimate D2E/DX2                !
 ! A26   A(5,6,7)              107.5448         estimate D2E/DX2                !
 ! A27   A(5,6,27)             110.5494         estimate D2E/DX2                !
 ! A28   A(5,6,28)             109.7323         estimate D2E/DX2                !
 ! A29   A(7,6,27)             111.4942         estimate D2E/DX2                !
 ! A30   A(7,6,28)             110.6976         estimate D2E/DX2                !
 ! A31   A(27,6,28)            106.8397         estimate D2E/DX2                !
 ! A32   A(6,7,8)              110.8949         estimate D2E/DX2                !
 ! A33   A(6,7,29)             107.3436         estimate D2E/DX2                !
 ! A34   A(6,7,30)             109.8783         estimate D2E/DX2                !
 ! A35   A(8,7,29)             110.565          estimate D2E/DX2                !
 ! A36   A(8,7,30)             110.4042         estimate D2E/DX2                !
 ! A37   A(29,7,30)            107.6545         estimate D2E/DX2                !
 ! A38   A(7,8,9)              109.0561         estimate D2E/DX2                !
 ! A39   A(7,8,31)             108.6037         estimate D2E/DX2                !
 ! A40   A(9,8,31)             109.9617         estimate D2E/DX2                !
 ! A41   A(8,9,10)             111.3175         estimate D2E/DX2                !
 ! A42   A(8,9,11)             110.8281         estimate D2E/DX2                !
 ! A43   A(8,9,32)             105.2197         estimate D2E/DX2                !
 ! A44   A(10,9,11)            112.1955         estimate D2E/DX2                !
 ! A45   A(10,9,32)            108.6949         estimate D2E/DX2                !
 ! A46   A(11,9,32)            108.2759         estimate D2E/DX2                !
 ! A47   A(9,10,33)            111.4341         estimate D2E/DX2                !
 ! A48   A(9,10,34)            110.4507         estimate D2E/DX2                !
 ! A49   A(9,10,35)            113.2025         estimate D2E/DX2                !
 ! A50   A(33,10,34)           108.995          estimate D2E/DX2                !
 ! A51   A(33,10,35)           106.6557         estimate D2E/DX2                !
 ! A52   A(34,10,35)           105.841          estimate D2E/DX2                !
 ! A53   A(9,11,12)            114.4896         estimate D2E/DX2                !
 ! A54   A(9,11,36)            110.2113         estimate D2E/DX2                !
 ! A55   A(9,11,37)            109.1667         estimate D2E/DX2                !
 ! A56   A(12,11,36)           110.5852         estimate D2E/DX2                !
 ! A57   A(12,11,37)           108.3639         estimate D2E/DX2                !
 ! A58   A(36,11,37)           103.4134         estimate D2E/DX2                !
 ! A59   A(11,12,13)           118.9215         estimate D2E/DX2                !
 ! A60   A(11,12,17)           110.2708         estimate D2E/DX2                !
 ! A61   A(11,12,38)           106.1084         estimate D2E/DX2                !
 ! A62   A(13,12,17)           108.1076         estimate D2E/DX2                !
 ! A63   A(13,12,38)           106.9953         estimate D2E/DX2                !
 ! A64   A(17,12,38)           105.5983         estimate D2E/DX2                !
 ! A65   A(12,13,14)           112.7851         estimate D2E/DX2                !
 ! A66   A(12,13,39)           107.5871         estimate D2E/DX2                !
 ! A67   A(12,13,40)           113.6752         estimate D2E/DX2                !
 ! A68   A(14,13,39)           107.8071         estimate D2E/DX2                !
 ! A69   A(14,13,40)           109.4664         estimate D2E/DX2                !
 ! A70   A(39,13,40)           105.0481         estimate D2E/DX2                !
 ! A71   A(13,14,15)           109.6808         estimate D2E/DX2                !
 ! A72   A(13,14,41)           109.6614         estimate D2E/DX2                !
 ! A73   A(13,14,42)           112.5349         estimate D2E/DX2                !
 ! A74   A(15,14,41)           111.3859         estimate D2E/DX2                !
 ! A75   A(15,14,42)           108.0026         estimate D2E/DX2                !
 ! A76   A(41,14,42)           105.528          estimate D2E/DX2                !
 ! A77   A(14,15,16)           111.3214         estimate D2E/DX2                !
 ! A78   A(14,15,43)           108.1454         estimate D2E/DX2                !
 ! A79   A(14,15,44)           109.517          estimate D2E/DX2                !
 ! A80   A(16,15,43)           109.6468         estimate D2E/DX2                !
 ! A81   A(16,15,44)           110.1123         estimate D2E/DX2                !
 ! A82   A(43,15,44)           108.0171         estimate D2E/DX2                !
 ! A83   A(15,16,17)           112.729          estimate D2E/DX2                !
 ! A84   A(15,16,45)           109.3449         estimate D2E/DX2                !
 ! A85   A(15,16,46)           110.5136         estimate D2E/DX2                !
 ! A86   A(17,16,45)           107.3974         estimate D2E/DX2                !
 ! A87   A(17,16,46)           109.9706         estimate D2E/DX2                !
 ! A88   A(45,16,46)           106.6532         estimate D2E/DX2                !
 ! A89   A(12,17,16)           114.0424         estimate D2E/DX2                !
 ! D1    D(18,1,2,3)           179.8846         estimate D2E/DX2                !
 ! D2    D(18,1,2,21)           58.4672         estimate D2E/DX2                !
 ! D3    D(18,1,2,22)          -58.6665         estimate D2E/DX2                !
 ! D4    D(19,1,2,3)            59.807          estimate D2E/DX2                !
 ! D5    D(19,1,2,21)          -61.6104         estimate D2E/DX2                !
 ! D6    D(19,1,2,22)         -178.7441         estimate D2E/DX2                !
 ! D7    D(20,1,2,3)           -59.9937         estimate D2E/DX2                !
 ! D8    D(20,1,2,21)          178.589          estimate D2E/DX2                !
 ! D9    D(20,1,2,22)           61.4553         estimate D2E/DX2                !
 ! D10   D(1,2,3,4)           -179.314          estimate D2E/DX2                !
 ! D11   D(1,2,3,23)            60.7701         estimate D2E/DX2                !
 ! D12   D(1,2,3,24)           -59.7212         estimate D2E/DX2                !
 ! D13   D(21,2,3,4)           -57.4493         estimate D2E/DX2                !
 ! D14   D(21,2,3,23)         -177.3653         estimate D2E/DX2                !
 ! D15   D(21,2,3,24)           62.1435         estimate D2E/DX2                !
 ! D16   D(22,2,3,4)            58.8044         estimate D2E/DX2                !
 ! D17   D(22,2,3,23)          -61.1116         estimate D2E/DX2                !
 ! D18   D(22,2,3,24)          178.3971         estimate D2E/DX2                !
 ! D19   D(2,3,4,5)           -179.6058         estimate D2E/DX2                !
 ! D20   D(23,3,4,5)           -59.2152         estimate D2E/DX2                !
 ! D21   D(24,3,4,5)            60.1072         estimate D2E/DX2                !
 ! D22   D(3,4,5,6)            179.4026         estimate D2E/DX2                !
 ! D23   D(3,4,5,25)            59.052          estimate D2E/DX2                !
 ! D24   D(3,4,5,26)           -60.0146         estimate D2E/DX2                !
 ! D25   D(4,5,6,7)           -178.7            estimate D2E/DX2                !
 ! D26   D(4,5,6,27)            59.3679         estimate D2E/DX2                !
 ! D27   D(4,5,6,28)           -58.2221         estimate D2E/DX2                !
 ! D28   D(25,5,6,7)           -58.7071         estimate D2E/DX2                !
 ! D29   D(25,5,6,27)          179.3607         estimate D2E/DX2                !
 ! D30   D(25,5,6,28)           61.7707         estimate D2E/DX2                !
 ! D31   D(26,5,6,7)            60.9672         estimate D2E/DX2                !
 ! D32   D(26,5,6,27)          -60.9649         estimate D2E/DX2                !
 ! D33   D(26,5,6,28)         -178.5549         estimate D2E/DX2                !
 ! D34   D(5,6,7,8)            174.8078         estimate D2E/DX2                !
 ! D35   D(5,6,7,29)            53.9353         estimate D2E/DX2                !
 ! D36   D(5,6,7,30)           -62.8578         estimate D2E/DX2                !
 ! D37   D(27,6,7,8)           -63.8494         estimate D2E/DX2                !
 ! D38   D(27,6,7,29)          175.2781         estimate D2E/DX2                !
 ! D39   D(27,6,7,30)           58.485          estimate D2E/DX2                !
 ! D40   D(28,6,7,8)            54.9414         estimate D2E/DX2                !
 ! D41   D(28,6,7,29)          -65.9311         estimate D2E/DX2                !
 ! D42   D(28,6,7,30)          177.2758         estimate D2E/DX2                !
 ! D43   D(6,7,8,9)           -176.4773         estimate D2E/DX2                !
 ! D44   D(6,7,8,31)            63.6964         estimate D2E/DX2                !
 ! D45   D(29,7,8,9)           -57.5282         estimate D2E/DX2                !
 ! D46   D(29,7,8,31)         -177.3545         estimate D2E/DX2                !
 ! D47   D(30,7,8,9)            61.4949         estimate D2E/DX2                !
 ! D48   D(30,7,8,31)          -58.3314         estimate D2E/DX2                !
 ! D49   D(7,8,9,10)            67.1097         estimate D2E/DX2                !
 ! D50   D(7,8,9,11)          -167.2763         estimate D2E/DX2                !
 ! D51   D(7,8,9,32)           -50.4547         estimate D2E/DX2                !
 ! D52   D(31,8,9,10)         -173.9071         estimate D2E/DX2                !
 ! D53   D(31,8,9,11)          -48.2931         estimate D2E/DX2                !
 ! D54   D(31,8,9,32)           68.5285         estimate D2E/DX2                !
 ! D55   D(8,9,10,33)           47.327          estimate D2E/DX2                !
 ! D56   D(8,9,10,34)          -73.9775         estimate D2E/DX2                !
 ! D57   D(8,9,10,35)          167.545          estimate D2E/DX2                !
 ! D58   D(11,9,10,33)         -77.5239         estimate D2E/DX2                !
 ! D59   D(11,9,10,34)         161.1716         estimate D2E/DX2                !
 ! D60   D(11,9,10,35)          42.6942         estimate D2E/DX2                !
 ! D61   D(32,9,10,33)         162.7657         estimate D2E/DX2                !
 ! D62   D(32,9,10,34)          41.4613         estimate D2E/DX2                !
 ! D63   D(32,9,10,35)         -77.0162         estimate D2E/DX2                !
 ! D64   D(8,9,11,12)          168.0521         estimate D2E/DX2                !
 ! D65   D(8,9,11,36)           42.6434         estimate D2E/DX2                !
 ! D66   D(8,9,11,37)          -70.2904         estimate D2E/DX2                !
 ! D67   D(10,9,11,12)         -66.8276         estimate D2E/DX2                !
 ! D68   D(10,9,11,36)         167.7637         estimate D2E/DX2                !
 ! D69   D(10,9,11,37)          54.8299         estimate D2E/DX2                !
 ! D70   D(32,9,11,12)          53.1271         estimate D2E/DX2                !
 ! D71   D(32,9,11,36)         -72.2816         estimate D2E/DX2                !
 ! D72   D(32,9,11,37)         174.7845         estimate D2E/DX2                !
 ! D73   D(9,11,12,13)         -16.569          estimate D2E/DX2                !
 ! D74   D(9,11,12,17)        -142.2023         estimate D2E/DX2                !
 ! D75   D(9,11,12,38)         103.9053         estimate D2E/DX2                !
 ! D76   D(36,11,12,13)        108.6434         estimate D2E/DX2                !
 ! D77   D(36,11,12,17)        -16.9899         estimate D2E/DX2                !
 ! D78   D(36,11,12,38)       -130.8822         estimate D2E/DX2                !
 ! D79   D(37,11,12,13)       -138.6651         estimate D2E/DX2                !
 ! D80   D(37,11,12,17)         95.7016         estimate D2E/DX2                !
 ! D81   D(37,11,12,38)        -18.1907         estimate D2E/DX2                !
 ! D82   D(11,12,13,14)        -70.1562         estimate D2E/DX2                !
 ! D83   D(11,12,13,39)        171.0861         estimate D2E/DX2                !
 ! D84   D(11,12,13,40)         55.2138         estimate D2E/DX2                !
 ! D85   D(17,12,13,14)         56.5078         estimate D2E/DX2                !
 ! D86   D(17,12,13,39)        -62.25           estimate D2E/DX2                !
 ! D87   D(17,12,13,40)       -178.1222         estimate D2E/DX2                !
 ! D88   D(38,12,13,14)        169.8215         estimate D2E/DX2                !
 ! D89   D(38,12,13,39)         51.0637         estimate D2E/DX2                !
 ! D90   D(38,12,13,40)        -64.8085         estimate D2E/DX2                !
 ! D91   D(11,12,17,16)         73.1307         estimate D2E/DX2                !
 ! D92   D(13,12,17,16)        -58.4117         estimate D2E/DX2                !
 ! D93   D(38,12,17,16)       -172.6525         estimate D2E/DX2                !
 ! D94   D(12,13,14,15)        -53.425          estimate D2E/DX2                !
 ! D95   D(12,13,14,41)       -176.0434         estimate D2E/DX2                !
 ! D96   D(12,13,14,42)         66.8251         estimate D2E/DX2                !
 ! D97   D(39,13,14,15)         65.2045         estimate D2E/DX2                !
 ! D98   D(39,13,14,41)        -57.4139         estimate D2E/DX2                !
 ! D99   D(39,13,14,42)       -174.5454         estimate D2E/DX2                !
 ! D100  D(40,13,14,15)        178.9552         estimate D2E/DX2                !
 ! D101  D(40,13,14,41)         56.3368         estimate D2E/DX2                !
 ! D102  D(40,13,14,42)        -60.7946         estimate D2E/DX2                !
 ! D103  D(13,14,15,16)         49.748          estimate D2E/DX2                !
 ! D104  D(13,14,15,43)        -70.7646         estimate D2E/DX2                !
 ! D105  D(13,14,15,44)        171.7519         estimate D2E/DX2                !
 ! D106  D(41,14,15,16)        171.3374         estimate D2E/DX2                !
 ! D107  D(41,14,15,43)         50.8248         estimate D2E/DX2                !
 ! D108  D(41,14,15,44)        -66.6587         estimate D2E/DX2                !
 ! D109  D(42,14,15,16)        -73.2225         estimate D2E/DX2                !
 ! D110  D(42,14,15,43)        166.2648         estimate D2E/DX2                !
 ! D111  D(42,14,15,44)         48.7813         estimate D2E/DX2                !
 ! D112  D(14,15,16,17)        -52.3017         estimate D2E/DX2                !
 ! D113  D(14,15,16,45)       -171.6841         estimate D2E/DX2                !
 ! D114  D(14,15,16,46)         71.2095         estimate D2E/DX2                !
 ! D115  D(43,15,16,17)         67.3233         estimate D2E/DX2                !
 ! D116  D(43,15,16,45)        -52.0591         estimate D2E/DX2                !
 ! D117  D(43,15,16,46)       -169.1656         estimate D2E/DX2                !
 ! D118  D(44,15,16,17)       -173.96           estimate D2E/DX2                !
 ! D119  D(44,15,16,45)         66.6576         estimate D2E/DX2                !
 ! D120  D(44,15,16,46)        -50.4488         estimate D2E/DX2                !
 ! D121  D(15,16,17,12)         58.0423         estimate D2E/DX2                !
 ! D122  D(45,16,17,12)        178.5475         estimate D2E/DX2                !
 ! D123  D(46,16,17,12)        -65.7696         estimate D2E/DX2                !
 --------------------------------------------------------------------------------
 Trust Radius=3.00D-01 FncErr=1.00D-07 GrdErr=1.00D-06 EigMax=2.50D+02 EigMin=1.00D-04
 Number of steps in this run=    268 maximum allowed number of steps=    276.
 GradGradGradGradGradGradGradGradGradGradGradGradGradGradGradGradGradGrad

                          Input orientation:                          
 ---------------------------------------------------------------------
 Center     Atomic      Atomic             Coordinates (Angstroms)
 Number     Number       Type             X           Y           Z
 ---------------------------------------------------------------------
      1          6           0        1.051310    0.025460   -0.065920
      2          6           0        2.565900    0.041870   -0.041120
      3          6           0        3.061850    0.768420    1.193110
      4          8           0        4.482700    0.772880    1.165910
      5          6           0        4.987680    1.437730    2.312280
      6          6           0        6.502690    1.411470    2.259320
      7          6           0        7.014030    2.096380    3.505590
      8          7           0        8.472020    2.004640    3.590660
      9          6           0        8.918190    2.607670    4.856100
     10          6           0        8.452240    1.784260    6.059790
     11          6           0       10.433910    2.820440    4.852950
     12          6           0       10.960990    3.709220    6.010250
     13          6           0        9.964010    4.587710    6.787810
     14          6           0        9.432610    5.749490    5.960840
     15          6           0       10.590190    6.541210    5.391090
     16          6           0       11.601720    5.629210    4.706300
     17          8           0       12.030880    4.551760    5.544420
     18          1           0        0.689040   -0.495720   -0.955330
     19          1           0        0.654580    1.045950   -0.077150
     20          1           0        0.655880   -0.483740    0.819080
     21          1           0        2.958850    0.530220   -0.940730
     22          1           0        2.960730   -0.981080   -0.052430
     23          1           0        2.713090    0.260640    2.100410
     24          1           0        2.696430    1.801990    1.200850
     25          1           0        4.632390    0.929620    3.218070
     26          1           0        4.627050    2.473680    2.330100
     27          1           0        6.864350    1.907080    1.351880
     28          1           0        6.853680    0.373530    2.215780
     29          1           0        6.548110    1.604330    4.361900
     30          1           0        6.695460    3.147600    3.511480
     31          1           0        8.875470    2.508930    2.804240
     32          1           0        8.438190    3.580010    4.893100
     33          1           0        8.654400    0.720290    5.917900
     34          1           0        7.378410    1.924080    6.226690
     35          1           0        8.938340    2.073090    6.991830
     36          1           0       10.758610    3.216750    3.884130
     37          1           0       10.936060    1.842980    4.910160
     38          1           0       11.419340    3.024030    6.736310
     39          1           0       10.495250    5.006500    7.652740
     40          1           0        9.128090    4.031110    7.211470
     41          1           0        8.786110    6.378190    6.581630
     42          1           0        8.807620    5.419430    5.128810
     43          1           0       11.074980    7.076320    6.213870
     44          1           0       10.211390    7.283390    4.681100
     45          1           0       12.489490    6.209100    4.438960
     46          1           0       11.191390    5.234990    3.771480
 ---------------------------------------------------------------------
                    Distance matrix (angstroms):
                    1          2          3          4          5
     1  C    0.000000
     2  C    1.514882   0.000000
     3  C    2.485843   1.515640   0.000000
     4  O    3.721623   2.380214   1.421117   0.000000
     5  C    4.810962   3.654030   2.325798   1.418166   0.000000
     6  C    6.086486   4.760897   3.659193   2.384052   1.516163
     7  C    7.252477   6.048638   4.767680   3.692342   2.442110
     8  N    8.506155   7.205869   6.045364   4.828180   3.754500
     9  C    9.632336   8.421264   7.148220   6.054546   4.825836
    10  C    9.766855   8.654827   7.332995   6.382022   5.115378
    11  C   10.956294   9.673570   8.482481   7.294084   6.166710
    12  C   12.193920  10.979347   9.708221   8.605694   7.383433
    13  C   12.133588  11.046763   9.670959   8.729459   7.397067
    14  C   11.803921  10.758818   9.387699   8.500565   7.187536
    15  C   12.775922  11.667886  10.374201   9.403574   8.180018
    16  C   12.864185  11.636254  10.435476   9.316585   8.188123
    17  O   13.134469  11.879529  10.662601   9.509275   8.351681
    18  H    1.092666   2.155780   3.441522   4.527788   5.735313
    19  H    1.094952   2.159310   2.735970   4.034138   4.963731
    20  H    1.094931   2.159719   2.737973   4.042763   4.968519
    21  H    2.158422   1.096446   2.149563   2.611309   3.939772
    22  H    2.158516   1.096561   2.149964   2.622426   3.943478
    23  H    2.740403   2.157702   1.096662   2.065720   2.569862
    24  H    2.732615   2.158136   1.096293   2.061807   2.572506
    25  H    4.942290   3.959899   2.567692   2.063573   1.097662
    26  H    4.951829   3.972999   2.578858   2.066131   1.097071
    27  H    6.272327   4.888367   3.972501   2.644476   2.159756
    28  H    6.244582   4.856815   3.947121   2.623596   2.150300
    29  H    7.232789   6.138881   4.784766   3.895071   2.581403
    30  H    7.375770   6.270550   4.923257   4.004660   2.697823
    31  H    8.696144   7.348002   6.278797   4.999442   4.062561
    32  H    9.580851   8.446819   7.106335   6.117011   4.812070
    33  H    9.700302   8.546345   7.321378   6.323548   5.192307
    34  H    9.123261   8.123325   6.730911   5.943222   4.612454
    35  H   10.780068   9.705474   8.358257   7.448800   6.157076
    36  H   10.955314   9.623302   8.513285   7.262800   6.240133
    37  H   11.214858   9.890336   8.773501   7.537266   6.503571
    38  H   12.757657  11.541674  10.279226   9.176819   7.965842
    39  H   13.174842  12.112705  10.721174   9.805777   8.461085
    40  H   11.586199  10.562975   9.146861   8.291231   6.918864
    41  H   12.015583  11.077038   9.657785   8.903306   7.554043
    42  H   10.781488   9.726531   8.374694   7.483311   6.195056
    43  H   13.770416  12.689083  11.366965  10.424654   9.169042
    44  H   12.614231  11.540905  10.282355   9.357414   8.189640
    45  H   13.760934  12.513332  11.358562  10.216361   9.141438
    46  H   12.028552  10.765848   9.627443   8.467936   7.418522
                    6          7          8          9         10
     6  C    0.000000
     7  C    1.511211   0.000000
     8  N    2.450016   1.463348   0.000000
     9  C    3.742833   2.389795   1.471071   0.000000
    10  C    4.287574   2.947847   2.479024   1.531007   0.000000
    11  C    4.915954   3.746361   2.471420   1.530584   2.541092
    12  C    6.263032   4.945004   3.867167   2.592008   3.162555
    13  C    6.525064   5.067749   4.372648   2.957330   3.267230
    14  C    6.411248   5.022250   4.534797   3.369883   4.085825
    15  C    7.268416   6.008373   5.320588   4.307498   5.258000
    16  C    7.055292   5.913501   4.917030   4.043943   5.151194
    17  O    7.156409   5.945965   4.792753   3.733913   4.553167
    18  H    6.911575   8.162370   9.353748  10.541473  10.708758
    19  H    6.308176   7.374417   8.688169   9.750035   9.950409
    20  H    6.312789   7.368882   8.658276   9.701552   9.663959
    21  H    4.855484   6.218288   7.287143   8.569292   8.986503
    22  H    4.859420   6.209630   7.249893   8.512586   8.669661
    23  H    3.963676   4.882884   6.199004   7.183707   7.136943
    24  H    3.969947   4.903077   6.253775   7.260873   7.532527
    25  H    2.156247   2.667622   4.004654   4.885394   4.837048
    26  H    2.156693   2.687342   4.073427   4.981216   5.386833
    27  H    1.095388   2.167188   2.757944   4.121728   4.970000
    28  H    1.096544   2.158132   2.677656   4.028011   4.395676
    29  H    2.111895   1.091999   2.111040   2.620726   2.557522
    30  H    2.149235   1.098447   2.113952   2.653310   3.382138
    31  H    2.670476   2.031514   1.017613   2.054679   3.361975
    32  H    3.922438   2.480841   2.044330   1.084995   2.141514
    33  H    4.300325   3.225473   2.664369   2.181561   1.092261
    34  H    4.095080   2.750790   2.855018   2.171804   1.095681
    35  H    5.363467   3.982133   3.433671   2.201709   1.090144
    36  H    4.900194   3.926882   2.604578   2.168606   3.479205
    37  H    5.183428   4.173649   2.799769   2.158581   2.737601
    38  H    6.842312   5.541195   4.429556   3.156627   3.286091
    39  H    7.612736   6.147076   5.441058   4.007830   4.134515
    40  H    6.187005   4.684653   4.200866   2.760074   2.613709
    41  H    6.968836   5.562031   5.307777   4.148701   4.635513
    42  H    5.441546   4.110288   3.760229   2.827117   3.769281
    43  H    8.284614   6.973227   6.275235   5.144328   5.908334
    44  H    7.355197   6.205643   5.663892   4.854415   5.935977
    45  H    7.975579   6.911317   5.876833   5.089056   6.205295
    46  H    6.236172   5.231817   4.226444   3.639595   4.964559
                   11         12         13         14         15
    11  C    0.000000
    12  C    1.551479   0.000000
    13  C    2.662280   1.539582   0.000000
    14  C    3.287758   2.549723   1.521840   0.000000
    15  C    3.762731   2.922502   2.481751   1.513746   0.000000
    16  C    3.045402   2.407734   2.845962   2.508660   1.524426
    17  O    2.454773   1.439283   2.412315   2.891188   2.461099
    18  H   11.819286  13.103961  13.108110  12.778344  13.705043
    19  H   11.094593  12.262607  12.096992  11.646219  12.602217
    20  H   11.081497  12.276989  12.164975  11.929872  12.997835
    21  H    9.730794  11.066002  11.192222  10.806573  11.595745
    22  H    9.714048  11.079673  11.262603  11.106089  12.017713
    23  H    8.587206   9.757428   9.657696   9.496438  10.598247
    24  H    8.616477   9.750426   9.580818   9.144199  10.115818
    25  H    6.317093   7.454772   7.385854   7.334579   8.468019
    26  H    6.340713   7.428920   7.267974   6.856137   7.840504
    27  H    5.082664   6.459921   6.807570   6.527066   7.188342
    28  H    5.075439   6.511131   6.952476   7.041115   7.879364
    29  H    4.101158   5.159567   5.143342   5.297103   6.463004
    30  H    3.985296   4.975341   4.846821   4.501243   5.497131
    31  H    2.592872   4.008565   4.623319   4.558043   5.088353
    32  H    2.135757   2.762108   2.633156   2.614495   3.694293
    33  H    2.951509   3.776584   4.174777   5.089234   6.156941
    34  H    3.467954   4.008547   3.754345   4.350193   5.686092
    35  H    2.714787   2.780564   2.723405   3.850086   5.025443
    36  H    1.095949   2.191773   3.307911   3.533521   3.653947
    37  H    1.100389   2.166488   3.464678   4.315682   4.735429
    38  H    2.135314   1.098514   2.136758   3.460720   3.855861
    39  H    3.552667   2.144207   1.098046   2.131611   2.734851
    40  H    2.955250   2.214964   1.089979   2.147007   3.428137
    41  H    4.284993   3.489983   2.153086   1.094809   2.167641
    42  H    3.078257   2.887691   2.186613   1.091708   2.122437
    43  H    4.513933   3.375177   2.785111   2.126472   1.094683
    44  H    4.471797   3.886288   3.430177   2.144081   1.094717
    45  H    3.984948   3.324856   3.811043   3.445559   2.150393
    46  H    2.751982   2.719035   3.320193   2.855051   2.165823
                   16         17         18         19         20
    16  C    0.000000
    17  O    1.430916   0.000000
    18  H   13.735189  14.012892   0.000000
    19  H   12.795606  13.164838   1.774580   0.000000
    20  H   13.125930  13.306980   1.774760   1.772902   0.000000
    21  H   11.514680  11.854606   2.490944   2.514241   3.070622
    22  H   11.874685  12.008525   2.492264   3.070471   2.513804
    23  H   10.706071  10.821096   3.742513   3.097732   2.535354
    24  H   10.307278  10.656444   3.736067   2.524685   3.087743
    25  H    8.536541   8.559758   5.915984   5.166718   4.854418
    26  H    8.015592   8.334685   5.926155   4.859402   5.176843
    27  H    6.895583   7.159941   7.016489   6.430001   6.674204
    28  H    7.507912   7.439143   6.986725   6.643683   6.410804
    29  H    6.469717   6.336124   8.186076   7.399368   7.185401
    30  H    5.626488   5.879729   8.324858   7.333991   7.544016
    31  H    4.559212   4.651704   9.496311   8.833219   8.969871
    32  H    3.773862   3.778351  10.529247   9.576504   9.678639
    33  H    5.852535   5.120573  10.590889  10.002190   9.561589
    34  H    5.820303   5.386620  10.108636   9.258477   8.957246
    35  H    4.996322   4.219313  11.739126  10.938289  10.641399
    36  H    2.684541   2.481428  11.772810  11.067770  11.187194
    37  H    3.849701   2.989717  12.036399  11.455014  11.306311
    38  H    3.307743   2.031881  13.663429  12.892482  12.773806
    39  H    3.208357   2.647633  14.161040  13.125393  13.177816
    40  H    3.866348   3.387672  12.585960  11.568731  11.533640
    41  H    3.464894   3.865253  13.023784  11.785326  12.099327
    42  H    2.833640   3.363776  11.743811  10.616092  10.948610
    43  H    2.155075   2.781243  14.717370  13.584073  13.957647
    44  H    2.161010   3.393769  13.526235  12.364434  12.905475
    45  H    1.093562   2.044295  14.604917  13.679125  14.068830
    46  H    1.094380   2.077225  12.864024  11.974321  12.345749
                   21         22         23         24         25
    21  H    0.000000
    22  H    1.753028   0.000000
    23  H    3.062940   2.497582   0.000000
    24  H    2.504522   3.063665   1.784726   0.000000
    25  H    4.500653   4.140216   2.319571   2.928847   0.000000
    26  H    4.154306   4.515356   2.934884   2.335309   1.781191
    27  H    4.733364   5.054879   4.528137   4.171979   3.069159
    28  H    5.015756   4.704764   4.143735   4.511464   2.499590
    29  H    6.492641   6.248196   4.650507   4.986657   2.331001
    30  H    6.374567   6.610269   5.117121   4.810605   3.043318
    31  H    7.276434   7.438070   6.597356   6.422707   4.546340
    32  H    8.564926   8.675504   7.182904   7.054210   4.930964
    33  H    8.917187   8.423620   7.076982   7.675809   4.848656
    34  H    8.535061   8.208727   6.446583   6.869855   4.193015
    35  H   10.052873   9.730435   8.121866   8.518825   5.838664
    36  H    9.556829   9.691502   8.755035   8.613959   6.573064
    37  H    9.979586   9.808593   8.832651   9.036159   6.590421
    38  H   11.693414  11.561833  10.243373  10.403070   7.926365
    39  H   12.275265  12.328412  10.673030  10.616843   8.405973
    40  H   10.806207  10.766737   9.027270   9.080902   6.765930
    41  H   11.168778  11.493679   9.715314   9.326232   7.632420
    42  H    9.744321  10.099401   8.539767   8.115503   6.421983
    43  H   12.645604  13.039527  11.545356  11.097253   9.394876
    44  H   11.393402  11.969956  10.592614   9.931390   8.581147
    45  H   12.329795  12.754158  11.680368  11.216595   9.544501
    46  H   10.588413  11.000254   9.970868   9.516195   7.865301
                   26         27         28         29         30
    26  H    0.000000
    27  H    2.506683   0.000000
    28  H    3.062937   1.760174   0.000000
    29  H    2.928217   3.041691   2.492804   0.000000
    30  H    2.475509   2.496254   3.065834   1.768222   0.000000
    31  H    4.274941   2.552680   2.998975   2.942993   2.379187
    32  H    4.724164   4.220889   4.467687   2.785298   2.265604
    33  H    5.671528   5.045918   4.131407   2.763896   3.939561
    34  H    4.801610   4.901869   4.332083   2.066175   3.055452
    35  H    6.362344   6.011491   5.481329   3.584615   4.277607
    36  H    6.368924   4.826260   5.110359   4.533925   4.080789
    37  H    6.845298   5.407799   5.107327   4.428504   4.651992
    38  H    8.114972   7.140560   6.950223   5.601986   5.721000
    39  H    8.317538   7.905104   8.017854   6.163141   5.919793
    40  H    6.820024   6.631049   6.596041   4.545944   4.515330
    41  H    7.114667   7.143827   7.671432   5.720628   4.922738
    42  H    5.829870   5.511633   6.145302   4.499836   3.498312
    43  H    8.822911   8.251630   8.873077   7.339279   6.474407
    44  H    7.735979   7.154795   8.068345   6.765592   5.552885
    45  H    8.956485   7.725260   8.411823   7.517303   6.618443
    46  H    7.265877   5.970990   6.698487   5.923710   4.963686
                   31         32         33         34         35
    31  H    0.000000
    32  H    2.387836   0.000000
    33  H    3.597636   3.045482   0.000000
    34  H    3.781058   2.375647   1.781183   0.000000
    35  H    4.210679   2.631658   1.750433   1.743853   0.000000
    36  H    2.283284   2.556233   3.846587   4.310955   3.778775
    37  H    3.020665   3.042518   2.735314   3.794299   2.894337
    38  H    4.711452   3.548773   3.690787   4.218853   2.669258
    39  H    5.689420   3.725853   4.976946   4.609731   3.386099
    40  H    4.669532   2.460547   3.585978   2.910455   1.979416
    41  H    5.408127   3.286639   5.698221   4.684730   4.327277
    42  H    3.725485   1.890900   4.767395   3.932614   3.832222
    43  H    6.109376   4.573978   6.807784   6.341165   5.495704
    44  H    5.301203   4.111472   6.857709   6.255943   5.840150
    45  H    5.424455   4.850916   6.857275   6.905108   6.019501
    46  H    3.705461   3.402514   5.605886   5.615069   5.044254
                   36         37         38         39         40
    36  H    0.000000
    37  H    1.723795   0.000000
    38  H    2.934048   2.227838   0.000000
    39  H    4.180309   4.209978   2.371492   0.000000
    40  H    3.793807   3.654134   2.547511   1.736442   0.000000
    41  H    4.600214   5.290012   4.267109   2.439256   2.454065
    42  H    3.194901   4.167620   3.891411   3.064120   2.523412
    43  H    4.519299   5.395072   4.100315   2.586617   3.749519
    44  H    4.179973   5.493239   4.881104   3.754391   4.260708
    45  H    3.501134   4.658130   4.070345   3.968831   4.871290
    46  H    2.067192   3.587132   3.705472   3.949810   4.188086
                   41         42         43         44         45
    41  H    0.000000
    42  H    1.740796   0.000000
    43  H    2.421066   3.010575   0.000000
    44  H    2.542209   2.375997   1.771454   0.000000
    45  H    4.281898   3.828268   2.429653   2.530310   0.000000
    46  H    3.871592   2.749313   3.060934   2.446171   1.754846
                   46
    46  H    0.000000
 Stoichiometry    C14H29NO2
 Framework group  C1[X(C14H29NO2)]
 Deg. of freedom   132
 Full point group                 C1      NOp   1
 Largest Abelian subgroup         C1      NOp   1
 Largest concise Abelian subgroup C1      NOp   1
                         Standard orientation:                         
 ---------------------------------------------------------------------
 Center     Atomic      Atomic             Coordinates (Angstroms)
 Number     Number       Type             X           Y           Z
 ---------------------------------------------------------------------
      1          6           0       -7.987844    0.665162    0.439913
      2          6           0       -6.809193    0.315638   -0.445232
      3          6           0       -5.523487    0.349852    0.356612
      4          8           0       -4.446916    0.032456   -0.515071
      5          6           0       -3.222994    0.045024    0.201204
      6          6           0       -2.099791   -0.311308   -0.752836
      7          6           0       -0.813996   -0.322410    0.041121
      8          7           0        0.305036   -0.778649   -0.784108
      9          6           0        1.515745   -0.854741    0.048024
     10          6           0        1.396984   -1.956956    1.103960
     11          6           0        2.764421   -1.019337   -0.821692
     12          6           0        4.104936   -0.817865   -0.067031
     13          6           0        4.089633   -0.117257    1.303819
     14          6           0        3.770410    1.367336    1.203433
     15          6           0        4.713466    2.026177    0.219563
     16          6           0        4.770874    1.255364   -1.094373
     17          8           0        5.052768   -0.135051   -0.907813
     18          1           0       -8.917079    0.643763   -0.134529
     19          1           0       -7.867054    1.666767    0.865493
     20          1           0       -8.075086   -0.047619    1.266476
     21          1           0       -6.739736    1.016366   -1.285679
     22          1           0       -6.943428   -0.678686   -0.887663
     23          1           0       -5.563559   -0.381503    1.172811
     24          1           0       -5.363992    1.348139    0.780691
     25          1           0       -3.268939   -0.684492    1.020080
     26          1           0       -3.053930    1.040268    0.630705
     27          1           0       -2.055038    0.406301   -1.579219
     28          1           0       -2.289574   -1.295774   -1.196930
     29          1           0       -0.961927   -0.992035    0.890933
     30          1           0       -0.612092    0.681303    0.439089
     31          1           0        0.444258   -0.111525   -1.539820
     32          1           0        1.575927    0.104372    0.551705
     33          1           0        1.034481   -2.890350    0.667611
     34          1           0        0.714807   -1.648722    1.904049
     35          1           0        2.343843   -2.187469    1.592568
     36          1           0        2.709202   -0.356533   -1.692752
     37          1           0        2.764825   -2.025850   -1.266425
     38          1           0        4.520011   -1.822665    0.090521
     39          1           0        5.093202   -0.216312    1.738264
     40          1           0        3.420941   -0.584514    2.026713
     41          1           0        3.842016    1.827339    2.194330
     42          1           0        2.748437    1.553784    0.867823
     43          1           0        5.710000    2.057925    0.671495
     44          1           0        4.391124    3.056453    0.037808
     45          1           0        5.565048    1.668610   -1.722380
     46          1           0        3.836270    1.375876   -1.650845
 ---------------------------------------------------------------------
 Rotational constants (GHZ):           1.2447427           0.1095303           0.1075668
 Standard basis: 6-31G(2df,p) (6D, 7F)
 There are   672 symmetry adapted cartesian basis functions of A   symmetry.
 There are   621 symmetry adapted basis functions of A   symmetry.
   621 basis functions,   951 primitive gaussians,   672 cartesian basis functions
    68 alpha electrons       68 beta electrons
       nuclear repulsion energy      1250.9541801456 Hartrees.
 NAtoms=   46 NActive=   46 NUniq=   46 SFac= 1.00D+00 NAtFMM=   60 NAOKFM=F Big=F
 Integral buffers will be    131072 words long.
 Raffenetti 2 integral format.
 Two-electron integral symmetry is turned on.
 One-electron integrals computed using PRISM.
 PrsmSu:  requested number of processors reduced to:  12 ShMem   1 Linda.
 NBasis=   621 RedAO= T EigKep=  2.96D-04  NBF=   621
 NBsUse=   621 1.00D-06 EigRej= -1.00D+00 NBFU=   621
 ExpMin= 1.61D-01 ExpMax= 5.48D+03 ExpMxC= 8.25D+02 IAcc=3 IRadAn=         5 AccDes= 0.00D+00
 Harris functional with IExCor=  402 and IRadAn=       5 diagonalized for initial guess.
 HarFok:  IExCor=  402 AccDes= 0.00D+00 IRadAn=         5 IDoV= 1 UseB2=F ITyADJ=14
 ICtDFT=  3500011 ScaDFX=  1.000000  1.000000  1.000000  1.000000
 FoFCou: FMM=F IPFlag=           0 FMFlag=      100000 FMFlg1=           0
         NFxFlg=           0 DoJE=T BraDBF=F KetDBF=T FulRan=T
         wScrn=  0.000000 ICntrl=       500 IOpCl=  0 I1Cent=   200000004 NGrid=           0
         NMat0=    1 NMatS0=      1 NMatT0=    0 NMatD0=    1 NMtDS0=    0 NMtDT0=    0
 Petite list used in FoFCou.
 Requested convergence on RMS density matrix=1.00D-08 within 128 cycles.
 Requested convergence on MAX density matrix=1.00D-06.
 Requested convergence on             energy=1.00D-06.
 No special actions if energy rises.
 Integral accuracy reduced to 1.0D-05 until final iterations.
 Initial convergence to 1.0D-05 achieved.  Increase integral accuracy.
 SCF Done:  E(RB3LYP) =  -756.174964051     A.U. after   12 cycles
            NFock= 12  Conv=0.49D-08     -V/T= 2.0077

 **********************************************************************

            Population analysis using the SCF density.

 **********************************************************************

 Orbital symmetries:
       Occupied  (A) (A) (A) (A) (A) (A) (A) (A) (A) (A) (A) (A)
                 (A) (A) (A) (A) (A) (A) (A) (A) (A) (A) (A) (A)
                 (A) (A) (A) (A) (A) (A) (A) (A) (A) (A) (A) (A)
                 (A) (A) (A) (A) (A) (A) (A) (A) (A) (A) (A) (A)
                 (A) (A) (A) (A) (A) (A) (A) (A) (A) (A) (A) (A)
                 (A) (A) (A) (A) (A) (A) (A) (A)
       Virtual   (A) (A) (A) (A) (A) (A) (A) (A) (A) (A) (A) (A)
                 (A) (A) (A) (A) (A) (A) (A) (A) (A) (A) (A) (A)
                 (A) (A) (A) (A) (A) (A) (A) (A) (A) (A) (A) (A)
                 (A) (A) (A) (A) (A) (A) (A) (A) (A) (A) (A) (A)
                 (A) (A) (A) (A) (A) (A) (A) (A) (A) (A) (A) (A)
                 (A) (A) (A) (A) (A) (A) (A) (A) (A) (A) (A) (A)
                 (A) (A) (A) (A) (A) (A) (A) (A) (A) (A) (A) (A)
                 (A) (A) (A) (A) (A) (A) (A) (A) (A) (A) (A) (A)
                 (A) (A) (A) (A) (A) (A) (A) (A) (A) (A) (A) (A)
                 (A) (A) (A) (A) (A) (A) (A) (A) (A) (A) (A) (A)
                 (A) (A) (A) (A) (A) (A) (A) (A) (A) (A) (A) (A)
                 (A) (A) (A) (A) (A) (A) (A) (A) (A) (A) (A) (A)
                 (A) (A) (A) (A) (A) (A) (A) (A) (A) (A) (A) (A)
                 (A) (A) (A) (A) (A) (A) (A) (A) (A) (A) (A) (A)
                 (A) (A) (A) (A) (A) (A) (A) (A) (A) (A) (A) (A)
                 (A) (A) (A) (A) (A) (A) (A) (A) (A) (A) (A) (A)
                 (A) (A) (A) (A) (A) (A) (A) (A) (A) (A) (A) (A)
                 (A) (A) (A) (A) (A) (A) (A) (A) (A) (A) (A) (A)
                 (A) (A) (A) (A) (A) (A) (A) (A) (A) (A) (A) (A)
                 (A) (A) (A) (A) (A) (A) (A) (A) (A) (A) (A) (A)
                 (A) (A) (A) (A) (A) (A) (A) (A) (A) (A) (A) (A)
                 (A) (A) (A) (A) (A) (A) (A) (A) (A) (A) (A) (A)
                 (A) (A) (A) (A) (A) (A) (A) (A) (A) (A) (A) (A)
                 (A) (A) (A) (A) (A) (A) (A) (A) (A) (A) (A) (A)
                 (A) (A) (A) (A) (A) (A) (A) (A) (A) (A) (A) (A)
                 (A) (A) (A) (A) (A) (A) (A) (A) (A) (A) (A) (A)
                 (A) (A) (A) (A) (A) (A) (A) (A) (A) (A) (A) (A)
                 (A) (A) (A) (A) (A) (A) (A) (A) (A) (A) (A) (A)
                 (A) (A) (A) (A) (A) (A) (A) (A) (A) (A) (A) (A)
                 (A) (A) (A) (A) (A) (A) (A) (A) (A) (A) (A) (A)
                 (A) (A) (A) (A) (A) (A) (A) (A) (A) (A) (A) (A)
                 (A) (A) (A) (A) (A) (A) (A) (A) (A) (A) (A) (A)
                 (A) (A) (A) (A) (A) (A) (A) (A) (A) (A) (A) (A)
                 (A) (A) (A) (A) (A) (A) (A) (A) (A) (A) (A) (A)
                 (A) (A) (A) (A) (A) (A) (A) (A) (A) (A) (A) (A)
                 (A) (A) (A) (A) (A) (A) (A) (A) (A) (A) (A) (A)
                 (A) (A) (A) (A) (A) (A) (A) (A) (A) (A) (A) (A)
                 (A) (A) (A) (A) (A) (A) (A) (A) (A) (A) (A) (A)
                 (A) (A) (A) (A) (A) (A) (A) (A) (A) (A) (A) (A)
                 (A) (A) (A) (A) (A) (A) (A) (A) (A) (A) (A) (A)
                 (A) (A) (A) (A) (A) (A) (A) (A) (A) (A) (A) (A)
                 (A) (A) (A) (A) (A) (A) (A) (A) (A) (A) (A) (A)
                 (A) (A) (A) (A) (A) (A) (A) (A) (A) (A) (A) (A)
                 (A) (A) (A) (A) (A) (A) (A) (A) (A) (A) (A) (A)
                 (A) (A) (A) (A) (A) (A) (A) (A) (A) (A) (A) (A)
                 (A) (A) (A) (A) (A) (A) (A) (A) (A) (A) (A) (A)
                 (A)
 The electronic state is 1-A.
 Alpha  occ. eigenvalues --  -19.12961 -19.12853 -14.30503 -10.22776 -10.22059
 Alpha  occ. eigenvalues --  -10.21899 -10.21813 -10.20304 -10.19750 -10.17661
 Alpha  occ. eigenvalues --  -10.17560 -10.17509 -10.17453 -10.17442 -10.17279
 Alpha  occ. eigenvalues --  -10.17141 -10.17022  -1.02261  -1.01656  -0.90322
 Alpha  occ. eigenvalues --   -0.80302  -0.79361  -0.78230  -0.76183  -0.73276
 Alpha  occ. eigenvalues --   -0.69499  -0.67654  -0.63743  -0.63374  -0.61511
 Alpha  occ. eigenvalues --   -0.59372  -0.58024  -0.57043  -0.53739  -0.50067
 Alpha  occ. eigenvalues --   -0.49453  -0.48674  -0.48114  -0.47061  -0.46245
 Alpha  occ. eigenvalues --   -0.44925  -0.44343  -0.43717  -0.42493  -0.41998
 Alpha  occ. eigenvalues --   -0.41635  -0.41033  -0.40001  -0.38667  -0.38190
 Alpha  occ. eigenvalues --   -0.37848  -0.37090  -0.36517  -0.36012  -0.35286
 Alpha  occ. eigenvalues --   -0.34520  -0.34270  -0.33428  -0.33158  -0.32611
 Alpha  occ. eigenvalues --   -0.32066  -0.31738  -0.31222  -0.31007  -0.27748
 Alpha  occ. eigenvalues --   -0.24983  -0.24279  -0.21773
 Alpha virt. eigenvalues --    0.06834   0.08639   0.08829   0.09773   0.10518
 Alpha virt. eigenvalues --    0.10635   0.11300   0.11943   0.12743   0.13456
 Alpha virt. eigenvalues --    0.13486   0.13950   0.14758   0.15267   0.15500
 Alpha virt. eigenvalues --    0.15972   0.16453   0.16832   0.17695   0.17928
 Alpha virt. eigenvalues --    0.18133   0.18715   0.19088   0.19750   0.19886
 Alpha virt. eigenvalues --    0.20293   0.20769   0.21195   0.21391   0.22023
 Alpha virt. eigenvalues --    0.22112   0.22691   0.23401   0.23731   0.24043
 Alpha virt. eigenvalues --    0.24432   0.25614   0.25833   0.26355   0.27244
 Alpha virt. eigenvalues --    0.28831   0.29471   0.31544   0.32843   0.34114
 Alpha virt. eigenvalues --    0.35142   0.41283   0.42921   0.44416   0.45797
 Alpha virt. eigenvalues --    0.46878   0.47740   0.49034   0.49638   0.49854
 Alpha virt. eigenvalues --    0.50185   0.50583   0.50959   0.51629   0.52097
 Alpha virt. eigenvalues --    0.52777   0.53722   0.54334   0.55056   0.55200
 Alpha virt. eigenvalues --    0.55938   0.56076   0.57498   0.58216   0.58801
 Alpha virt. eigenvalues --    0.59561   0.59597   0.60410   0.61048   0.61615
 Alpha virt. eigenvalues --    0.63241   0.63753   0.64151   0.65077   0.67081
 Alpha virt. eigenvalues --    0.67530   0.68210   0.68762   0.69927   0.70364
 Alpha virt. eigenvalues --    0.70904   0.71339   0.72250   0.72955   0.73426
 Alpha virt. eigenvalues --    0.73992   0.74207   0.74350   0.74985   0.75482
 Alpha virt. eigenvalues --    0.75716   0.76302   0.76588   0.76803   0.77323
 Alpha virt. eigenvalues --    0.77560   0.78313   0.78700   0.79342   0.79850
 Alpha virt. eigenvalues --    0.81110   0.81417   0.81497   0.82563   0.83962
 Alpha virt. eigenvalues --    0.84386   0.84944   0.85885   0.86279   0.87107
 Alpha virt. eigenvalues --    0.87373   0.87776   0.88770   0.89006   0.89618
 Alpha virt. eigenvalues --    0.90287   0.91324   0.92595   0.92834   0.94687
 Alpha virt. eigenvalues --    0.96102   0.96563   0.97359   0.98773   1.00446
 Alpha virt. eigenvalues --    1.02531   1.05147   1.06955   1.08200   1.09768
 Alpha virt. eigenvalues --    1.11022   1.13454   1.14132   1.14523   1.15889
 Alpha virt. eigenvalues --    1.16758   1.17592   1.17901   1.19271   1.19652
 Alpha virt. eigenvalues --    1.20393   1.21412   1.23216   1.23949   1.25003
 Alpha virt. eigenvalues --    1.26094   1.28164   1.28687   1.29992   1.31539
 Alpha virt. eigenvalues --    1.32391   1.34073   1.34759   1.36429   1.37602
 Alpha virt. eigenvalues --    1.37920   1.38295   1.38604   1.39388   1.40334
 Alpha virt. eigenvalues --    1.40643   1.42246   1.43235   1.44099   1.45062
 Alpha virt. eigenvalues --    1.45404   1.46217   1.48687   1.49554   1.50260
 Alpha virt. eigenvalues --    1.51209   1.51570   1.53030   1.54217   1.55034
 Alpha virt. eigenvalues --    1.55856   1.57287   1.57678   1.58429   1.59979
 Alpha virt. eigenvalues --    1.61121   1.61778   1.62459   1.63077   1.64692
 Alpha virt. eigenvalues --    1.64965   1.66291   1.67238   1.69161   1.69543
 Alpha virt. eigenvalues --    1.70977   1.71611   1.72919   1.74022   1.74771
 Alpha virt. eigenvalues --    1.77165   1.77813   1.80104   1.80574   1.82171
 Alpha virt. eigenvalues --    1.82973   1.84421   1.84881   1.85926   1.86673
 Alpha virt. eigenvalues --    1.87544   1.89903   1.91236   1.91849   1.92750
 Alpha virt. eigenvalues --    1.94128   1.94353   1.94513   1.94858   1.95576
 Alpha virt. eigenvalues --    1.97244   1.98400   2.00059   2.01704   2.03627
 Alpha virt. eigenvalues --    2.05232   2.09711   2.13540   2.15012   2.15541
 Alpha virt. eigenvalues --    2.16847   2.19035   2.20632   2.21753   2.21909
 Alpha virt. eigenvalues --    2.25011   2.26296   2.26788   2.26982   2.28498
 Alpha virt. eigenvalues --    2.29059   2.30207   2.31916   2.32045   2.34738
 Alpha virt. eigenvalues --    2.36266   2.36824   2.37451   2.38653   2.39440
 Alpha virt. eigenvalues --    2.41737   2.43200   2.43955   2.44807   2.47005
 Alpha virt. eigenvalues --    2.47906   2.49287   2.51678   2.52656   2.53297
 Alpha virt. eigenvalues --    2.55039   2.56536   2.58249   2.59693   2.62666
 Alpha virt. eigenvalues --    2.64533   2.64837   2.67800   2.68171   2.71108
 Alpha virt. eigenvalues --    2.71332   2.73258   2.73534   2.74003   2.75001
 Alpha virt. eigenvalues --    2.75452   2.76601   2.77194   2.77431   2.77812
 Alpha virt. eigenvalues --    2.79104   2.79972   2.81404   2.81871   2.82556
 Alpha virt. eigenvalues --    2.83142   2.84278   2.84517   2.84828   2.85427
 Alpha virt. eigenvalues --    2.86425   2.87406   2.88157   2.88683   2.89279
 Alpha virt. eigenvalues --    2.90425   2.91921   2.92583   2.92631   2.93801
 Alpha virt. eigenvalues --    2.94223   2.94615   2.95709   2.96507   2.97345
 Alpha virt. eigenvalues --    2.98279   2.98872   2.99520   3.00001   3.01162
 Alpha virt. eigenvalues --    3.02552   3.03484   3.04110   3.04622   3.08324
 Alpha virt. eigenvalues --    3.08856   3.08956   3.11934   3.13267   3.14242
 Alpha virt. eigenvalues --    3.15012   3.16044   3.16405   3.17114   3.19874
 Alpha virt. eigenvalues --    3.21264   3.22819   3.24657   3.25794   3.27639
 Alpha virt. eigenvalues --    3.29346   3.30341   3.32312   3.33087   3.33461
 Alpha virt. eigenvalues --    3.34410   3.35568   3.36285   3.37299   3.37584
 Alpha virt. eigenvalues --    3.38156   3.39110   3.39717   3.41017   3.42872
 Alpha virt. eigenvalues --    3.43481   3.44210   3.45238   3.46878   3.47667
 Alpha virt. eigenvalues --    3.48820   3.48933   3.49860   3.52827   3.53937
 Alpha virt. eigenvalues --    3.54928   3.56844   3.57852   3.58004   3.59577
 Alpha virt. eigenvalues --    3.61842   3.62155   3.63189   3.64639   3.65155
 Alpha virt. eigenvalues --    3.66329   3.66871   3.68608   3.69282   3.70603
 Alpha virt. eigenvalues --    3.71422   3.72380   3.73145   3.74425   3.75688
 Alpha virt. eigenvalues --    3.76163   3.76971   3.77811   3.78159   3.79617
 Alpha virt. eigenvalues --    3.80740   3.80951   3.82288   3.83270   3.86509
 Alpha virt. eigenvalues --    3.89847   3.90654   3.91963   3.95636   3.96966
 Alpha virt. eigenvalues --    3.99740   4.00541   4.01572   4.05650   4.08547
 Alpha virt. eigenvalues --    4.09473   4.10478   4.12571   4.14532   4.15632
 Alpha virt. eigenvalues --    4.23430   4.24992   4.25896   4.27745   4.30172
 Alpha virt. eigenvalues --    4.33441   4.34339   4.35361   4.38270   4.39126
 Alpha virt. eigenvalues --    4.39738   4.41549   4.41847   4.42889   4.42934
 Alpha virt. eigenvalues --    4.44301   4.45385   4.45589   4.47340   4.48833
 Alpha virt. eigenvalues --    4.49514   4.50130   4.50742   4.51225   4.51506
 Alpha virt. eigenvalues --    4.52780   4.52956   4.53753   4.54851   4.55348
 Alpha virt. eigenvalues --    4.55678   4.56793   4.58042   4.58729   4.59089
 Alpha virt. eigenvalues --    4.59645   4.60112   4.61407   4.61756   4.62738
 Alpha virt. eigenvalues --    4.63471   4.64741   4.64985   4.65569   4.65870
 Alpha virt. eigenvalues --    4.66153   4.66476   4.66874   4.68136   4.69426
 Alpha virt. eigenvalues --    4.70168   4.71750   4.73149   4.73381   4.74373
 Alpha virt. eigenvalues --    4.74830   4.75384   4.76151   4.76864   4.77843
 Alpha virt. eigenvalues --    4.79485   4.79907   4.80096   4.81657   4.82466
 Alpha virt. eigenvalues --    4.82679   4.83446   4.84537   4.85035   4.85853
 Alpha virt. eigenvalues --    4.86741   4.87434   4.88004   4.88868   4.89422
 Alpha virt. eigenvalues --    4.90104   4.91292   4.91604   4.92987   4.93288
 Alpha virt. eigenvalues --    4.94243   4.94344   4.94883   4.96483   4.98578
 Alpha virt. eigenvalues --    4.99602   4.99938   5.00924   5.03878   5.06482
 Alpha virt. eigenvalues --    5.07176   5.09118   5.12006   5.16065   5.18528
 Alpha virt. eigenvalues --    5.21202   5.22767   5.23416   5.30697   5.31611
 Alpha virt. eigenvalues --    5.33113   5.36924   5.38393   5.39506   5.40803
 Alpha virt. eigenvalues --    5.43032   5.43485   5.43725   5.46893   5.49382
 Alpha virt. eigenvalues --    5.51071   5.53721   5.54707   5.56467   5.58732
 Alpha virt. eigenvalues --    5.62431   5.64062   5.69054   5.76158   5.77979
 Alpha virt. eigenvalues --    5.86509   5.87703   5.92737   5.97948   6.03209
 Alpha virt. eigenvalues --    6.05372   6.07456   6.09984   6.21067   6.24273
 Alpha virt. eigenvalues --    6.32324   6.41302   6.90214   7.07763   7.18764
 Alpha virt. eigenvalues --   11.05995  11.17417  11.22195  11.39106  11.50151
 Alpha virt. eigenvalues --   11.73559  11.76909  11.89404  11.96972  12.09576
 Alpha virt. eigenvalues --   12.21371  12.41660  12.45835  12.53600  12.88267
 Alpha virt. eigenvalues --   13.47978  13.54669  15.97251
          Condensed to atoms (all electrons):
               1          2          3          4          5          6
     1  C    4.964505   0.372412  -0.038556   0.002198  -0.000270   0.000003
     2  C    0.372412   4.814933   0.444776  -0.033077   0.003815  -0.000335
     3  C   -0.038556   0.444776   4.708149   0.356343  -0.070102   0.003535
     4  O    0.002198  -0.033077   0.356343   7.715207   0.361279  -0.029776
     5  C   -0.000270   0.003815  -0.070102   0.361279   4.751518   0.408545
     6  C    0.000003  -0.000335   0.003535  -0.029776   0.408545   4.920079
     7  C    0.000000   0.000002  -0.000366   0.001685  -0.046904   0.383861
     8  N    0.000000  -0.000000   0.000000  -0.000006   0.002376  -0.038788
     9  C    0.000000   0.000000  -0.000000   0.000000  -0.000219   0.000763
    10  C   -0.000000  -0.000000  -0.000000   0.000000  -0.000018   0.000787
    11  C    0.000000  -0.000000   0.000000  -0.000000   0.000001  -0.000231
    12  C   -0.000000   0.000000   0.000000   0.000000  -0.000000   0.000001
    13  C    0.000000   0.000000   0.000000  -0.000000   0.000000   0.000000
    14  C   -0.000000  -0.000000  -0.000000  -0.000000  -0.000000  -0.000000
    15  C    0.000000   0.000000   0.000000   0.000000   0.000000   0.000000
    16  C    0.000000  -0.000000   0.000000  -0.000000   0.000000  -0.000000
    17  O    0.000000   0.000000   0.000000  -0.000000   0.000000  -0.000000
    18  H    0.376021  -0.020688   0.002881  -0.000047   0.000001  -0.000000
    19  H    0.380691  -0.031115  -0.004787   0.000035   0.000006   0.000000
    20  H    0.380782  -0.031026  -0.004682   0.000034   0.000007   0.000000
    21  H   -0.031735   0.367440  -0.029156   0.003005   0.000204   0.000018
    22  H   -0.031791   0.367622  -0.028898   0.002945   0.000211   0.000015
    23  H    0.000727  -0.036156   0.349447  -0.031288  -0.005709   0.000257
    24  H    0.000677  -0.036780   0.349610  -0.031473  -0.005226   0.000237
    25  H    0.000032   0.000228  -0.006252  -0.031735   0.350893  -0.035677
    26  H    0.000033   0.000216  -0.006208  -0.031683   0.347625  -0.035414
    27  H    0.000000   0.000013   0.000122   0.002389  -0.026493   0.360428
    28  H    0.000000   0.000014   0.000211   0.002464  -0.024161   0.355754
    29  H    0.000000   0.000000  -0.000011  -0.000008  -0.008595  -0.024407
    30  H    0.000000   0.000000   0.000026  -0.000001   0.002764  -0.045545
    31  H   -0.000000   0.000000  -0.000000   0.000001  -0.000261   0.001009
    32  H    0.000000   0.000000   0.000000   0.000000   0.000101   0.000120
    33  H    0.000000   0.000000   0.000000   0.000000   0.000017  -0.000139
    34  H    0.000000  -0.000000  -0.000000  -0.000000  -0.000005  -0.000080
    35  H   -0.000000   0.000000  -0.000000   0.000000  -0.000000  -0.000008
    36  H    0.000000  -0.000000   0.000000   0.000000   0.000000   0.000001
    37  H   -0.000000   0.000000   0.000000   0.000000   0.000000   0.000012
    38  H    0.000000  -0.000000   0.000000  -0.000000   0.000000  -0.000000
    39  H    0.000000  -0.000000  -0.000000   0.000000  -0.000000  -0.000000
    40  H   -0.000000   0.000000   0.000000   0.000000   0.000000   0.000000
    41  H    0.000000   0.000000   0.000000   0.000000   0.000000   0.000000
    42  H   -0.000000   0.000000   0.000000  -0.000000  -0.000000  -0.000002
    43  H    0.000000   0.000000  -0.000000  -0.000000  -0.000000  -0.000000
    44  H   -0.000000   0.000000  -0.000000  -0.000000  -0.000000  -0.000000
    45  H    0.000000  -0.000000   0.000000  -0.000000   0.000000  -0.000000
    46  H   -0.000000   0.000000  -0.000000  -0.000000  -0.000000  -0.000000
               7          8          9         10         11         12
     1  C    0.000000   0.000000   0.000000  -0.000000   0.000000  -0.000000
     2  C    0.000002  -0.000000   0.000000  -0.000000  -0.000000   0.000000
     3  C   -0.000366   0.000000  -0.000000  -0.000000   0.000000   0.000000
     4  O    0.001685  -0.000006   0.000000   0.000000  -0.000000   0.000000
     5  C   -0.046904   0.002376  -0.000219  -0.000018   0.000001  -0.000000
     6  C    0.383861  -0.038788   0.000763   0.000787  -0.000231   0.000001
     7  C    4.852999   0.387897  -0.060053  -0.005606   0.001903  -0.000171
     8  N    0.387897   6.442471   0.370977  -0.030489  -0.024447   0.001353
     9  C   -0.060053   0.370977   4.695732   0.365709   0.358994  -0.023143
    10  C   -0.005606  -0.030489   0.365709   5.055126  -0.020924  -0.004424
    11  C    0.001903  -0.024447   0.358994  -0.020924   5.088322   0.367843
    12  C   -0.000171   0.001353  -0.023143  -0.004424   0.367843   4.608498
    13  C    0.000051   0.000287   0.004479  -0.006725  -0.046273   0.398168
    14  C   -0.000014   0.000208  -0.003462   0.000857  -0.006940  -0.015231
    15  C    0.000000  -0.000013   0.000748  -0.000013  -0.002294  -0.009031
    16  C    0.000000  -0.000011  -0.000322   0.000005  -0.002176  -0.092522
    17  O    0.000000  -0.000016   0.001627   0.000009  -0.035271   0.385311
    18  H    0.000000  -0.000000   0.000000  -0.000000  -0.000000   0.000000
    19  H    0.000000   0.000000   0.000000  -0.000000   0.000000  -0.000000
    20  H    0.000000   0.000000   0.000000   0.000000   0.000000  -0.000000
    21  H    0.000000   0.000000   0.000000  -0.000000   0.000000  -0.000000
    22  H    0.000000   0.000000   0.000000  -0.000000   0.000000  -0.000000
    23  H    0.000049   0.000000   0.000000  -0.000000   0.000000   0.000000
    24  H    0.000055   0.000000   0.000000   0.000000   0.000000  -0.000000
    25  H   -0.001459   0.000025   0.000042  -0.000032   0.000000   0.000000
    26  H    0.001744  -0.000002   0.000024   0.000001   0.000000   0.000000
    27  H   -0.029582  -0.001573   0.000002  -0.000005   0.000002  -0.000000
    28  H   -0.023787   0.004119   0.000412  -0.000076   0.000009   0.000000
    29  H    0.360935  -0.019488  -0.007138   0.003618   0.000355  -0.000003
    30  H    0.350206  -0.048363   0.000697  -0.002784   0.000353   0.000043
    31  H   -0.048981   0.339819  -0.051065   0.006867  -0.002624  -0.000170
    32  H   -0.003869  -0.056576   0.369409  -0.066609  -0.059488  -0.004241
    33  H    0.000668   0.001819  -0.020310   0.356598  -0.003790  -0.000046
    34  H   -0.002212  -0.001566  -0.020403   0.370496   0.004087  -0.000001
    35  H    0.000100   0.002073  -0.024165   0.375097  -0.007455   0.000513
    36  H    0.000207  -0.003349  -0.028307   0.005283   0.352855  -0.026941
    37  H    0.000096   0.002147  -0.023184  -0.011273   0.348121  -0.021557
    38  H    0.000002  -0.000080   0.002083   0.000277  -0.047248   0.364230
    39  H   -0.000001  -0.000007  -0.000687   0.000243   0.005622  -0.025817
    40  H   -0.000018   0.000121  -0.000190  -0.002333  -0.002448  -0.022089
    41  H    0.000000  -0.000002   0.000209  -0.000055  -0.000044   0.002995
    42  H   -0.000138  -0.000318  -0.006352   0.000051   0.004004  -0.005128
    43  H   -0.000000   0.000000  -0.000028   0.000001   0.000158  -0.000528
    44  H   -0.000000  -0.000000  -0.000026   0.000000   0.000082   0.000306
    45  H    0.000000  -0.000000   0.000006   0.000000   0.000116   0.003661
    46  H   -0.000011   0.000049  -0.001663   0.000033   0.005916  -0.001856
              13         14         15         16         17         18
     1  C    0.000000  -0.000000   0.000000   0.000000   0.000000   0.376021
     2  C    0.000000  -0.000000   0.000000  -0.000000   0.000000  -0.020688
     3  C    0.000000  -0.000000   0.000000   0.000000   0.000000   0.002881
     4  O   -0.000000  -0.000000   0.000000  -0.000000  -0.000000  -0.000047
     5  C    0.000000  -0.000000   0.000000   0.000000   0.000000   0.000001
     6  C    0.000000  -0.000000   0.000000  -0.000000  -0.000000  -0.000000
     7  C    0.000051  -0.000014   0.000000   0.000000   0.000000   0.000000
     8  N    0.000287   0.000208  -0.000013  -0.000011  -0.000016  -0.000000
     9  C    0.004479  -0.003462   0.000748  -0.000322   0.001627   0.000000
    10  C   -0.006725   0.000857  -0.000013   0.000005   0.000009  -0.000000
    11  C   -0.046273  -0.006940  -0.002294  -0.002176  -0.035271  -0.000000
    12  C    0.398168  -0.015231  -0.009031  -0.092522   0.385311   0.000000
    13  C    4.929200   0.416804  -0.027204  -0.017804  -0.036155   0.000000
    14  C    0.416804   4.829812   0.421781  -0.029394  -0.011332   0.000000
    15  C   -0.027204   0.421781   4.902730   0.387406  -0.043912   0.000000
    16  C   -0.017804  -0.029394   0.387406   4.746677   0.397189   0.000000
    17  O   -0.036155  -0.011332  -0.043912   0.397189   7.690979   0.000000
    18  H    0.000000   0.000000   0.000000   0.000000   0.000000   0.596715
    19  H    0.000000  -0.000000   0.000000   0.000000   0.000000  -0.031415
    20  H    0.000000   0.000000   0.000000   0.000000   0.000000  -0.031405
    21  H    0.000000   0.000000  -0.000000   0.000000   0.000000  -0.002587
    22  H    0.000000   0.000000  -0.000000   0.000000   0.000000  -0.002513
    23  H    0.000000  -0.000000  -0.000000   0.000000   0.000000  -0.000160
    24  H    0.000000   0.000000  -0.000000  -0.000000   0.000000  -0.000148
    25  H    0.000000  -0.000000  -0.000000   0.000000   0.000000   0.000000
    26  H    0.000000  -0.000000   0.000000  -0.000000  -0.000000   0.000000
    27  H    0.000000   0.000000  -0.000000  -0.000000   0.000000   0.000000
    28  H    0.000000  -0.000000   0.000000  -0.000000  -0.000000   0.000000
    29  H    0.000003   0.000002  -0.000000  -0.000000   0.000000   0.000000
    30  H    0.000001  -0.000108   0.000004   0.000000  -0.000000  -0.000000
    31  H    0.000032   0.000013  -0.000001  -0.000028  -0.000012   0.000000
    32  H    0.004260  -0.005168   0.000067   0.000011   0.000200   0.000000
    33  H    0.000347  -0.000019   0.000001  -0.000000  -0.000001  -0.000000
    34  H   -0.000205   0.000027   0.000000  -0.000000  -0.000000  -0.000000
    35  H   -0.003048  -0.000007   0.000003   0.000004   0.000027   0.000000
    36  H    0.000950   0.000568   0.000178   0.000470  -0.006030  -0.000000
    37  H    0.004178  -0.000163   0.000028   0.000040   0.001723   0.000000
    38  H   -0.050943   0.004681   0.000299   0.004351  -0.019081   0.000000
    39  H    0.355824  -0.036856  -0.005368   0.000419   0.001107   0.000000
    40  H    0.356611  -0.034598   0.004279   0.000408   0.002633   0.000000
    41  H   -0.031504   0.369520  -0.028569   0.003834  -0.000034   0.000000
    42  H   -0.038236   0.367362  -0.036816  -0.002106  -0.000315  -0.000000
    43  H   -0.003284  -0.038166   0.360552  -0.027983   0.000785   0.000000
    44  H    0.004687  -0.033265   0.353817  -0.024626   0.002515   0.000000
    45  H    0.000386   0.004115  -0.036633   0.374561  -0.018396   0.000000
    46  H   -0.000398  -0.008240  -0.053151   0.352192  -0.039804   0.000000
              19         20         21         22         23         24
     1  C    0.380691   0.380782  -0.031735  -0.031791   0.000727   0.000677
     2  C   -0.031115  -0.031026   0.367440   0.367622  -0.036156  -0.036780
     3  C   -0.004787  -0.004682  -0.029156  -0.028898   0.349447   0.349610
     4  O    0.000035   0.000034   0.003005   0.002945  -0.031288  -0.031473
     5  C    0.000006   0.000007   0.000204   0.000211  -0.005709  -0.005226
     6  C    0.000000   0.000000   0.000018   0.000015   0.000257   0.000237
     7  C    0.000000   0.000000   0.000000   0.000000   0.000049   0.000055
     8  N    0.000000   0.000000   0.000000   0.000000   0.000000   0.000000
     9  C    0.000000   0.000000   0.000000   0.000000   0.000000   0.000000
    10  C   -0.000000   0.000000  -0.000000  -0.000000  -0.000000   0.000000
    11  C    0.000000   0.000000   0.000000   0.000000   0.000000   0.000000
    12  C   -0.000000  -0.000000  -0.000000  -0.000000   0.000000  -0.000000
    13  C    0.000000   0.000000   0.000000   0.000000   0.000000   0.000000
    14  C   -0.000000   0.000000   0.000000   0.000000  -0.000000   0.000000
    15  C    0.000000   0.000000  -0.000000  -0.000000  -0.000000  -0.000000
    16  C    0.000000   0.000000   0.000000   0.000000   0.000000  -0.000000
    17  O    0.000000   0.000000   0.000000   0.000000   0.000000   0.000000
    18  H   -0.031415  -0.031405  -0.002587  -0.002513  -0.000160  -0.000148
    19  H    0.600983  -0.034064  -0.004593   0.005626  -0.000514   0.005387
    20  H   -0.034064   0.600610   0.005623  -0.004620   0.005225  -0.000518
    21  H   -0.004593   0.005623   0.629657  -0.041528   0.006794  -0.007378
    22  H    0.005626  -0.004620  -0.041528   0.629047  -0.007560   0.006776
    23  H   -0.000514   0.005225   0.006794  -0.007560   0.686179  -0.061841
[...]
 00000054,0.00000039,-0.00000052,-0.00000050,-0.00000204,-0.00000224,0.
 00000108,-0.00000110,-0.00000074,-0.00000027,-0.00000201,-0.00000349,-
 0.00000031,0.00000308,-0.00000189,-0.00000254,-0.00000128,-0.00000007,
 0.00000602,0.00000039,-0.00000475,-0.00000174,-0.00000161,-0.00001002,
 0.00000152,0.00000957,-0.00000630,-0.00000821,-0.00001375,0.00002333,0
 .00002648,0.00004694,0.00000751,-0.00003030,0.00000150,-0.00000977,0.0
 0000347,-0.00000344,-0.00000236,0.00000353,0.00000087,0.00000293,0.000
 00438,-0.00005846,0.00000942,0.00015952,0.00004086,-0.00010347,0.00006
 087,0.00009484,-0.00010271,-0.00005533,0.00026147,-0.00054088,0.001003
 45,0.00027059,0.00035690,0.00035996,0.00128707,0.00059952,-0.00000724,
 -0.00605344,-0.00151877,0.00228413,0.13006544,0.00000046,0.00000019,-0
 .00000021,0.00000015,0.00000008,-0.00000005,0.00000286,0.00000073,-0.0
 0000045,-0.00000401,-0.00000132,-0.00000063,0.00000343,0.00000115,0.00
 000159,0.00000050,0.00000131,-0.00000265,0.00000976,0.00000068,0.00000
 481,0.00001240,0.00002212,0.00002125,0.00005546,-0.00002871,0.00007087
 ,-0.00003803,-0.00001512,-0.00001087,-0.00009045,0.00014205,-0.0001058
 9,-0.00016218,-0.00025959,0.00000900,-0.00026916,0.00006369,-0.0010795
 3,-0.00218359,-0.00133675,-0.00376906,-0.02978440,-0.06113068,-0.04338
 966,-0.01385389,-0.00781782,-0.02602569,0.00010653,0.00294011,0.001485
 21,-0.00000014,-0.00000004,-0.00000013,-0.00000021,0.00000011,0.000000
 06,-0.00000016,-0.00000028,0.00000017,0.00000008,-0.00000034,0.0000001
 4,-0.00000004,0.00000028,0.,-0.00000035,-0.00000068,0.00000042,-0.0000
 0061,0.00000046,0.00000022,-0.00000107,-0.00000126,0.00000019,-0.00000
 097,0.00000044,-0.00000016,0.00000119,-0.00000191,0.00000177,0.0000003
 8,0.00000125,0.00000013,-0.00000367,-0.00000282,0.00000151,-0.00000261
 ,0.00000187,0.00000033,0.00001981,-0.00000232,0.00000270,-0.00002757,0
 .00000607,0.00000878,0.00000047,0.00000240,-0.00000249,0.00000247,-0.0
 0000873,0.00001259,-0.00000020,-0.00000129,0.00001434,0.00012707,-0.00
 008093,0.00010385,0.00000763,0.00004922,0.00000670,-0.00003618,-0.0000
 5772,0.00003178,-0.00016477,-0.00007986,0.00036121,0.00011096,0.000036
 82,0.00013734,0.00017539,0.00036157,0.00045373,-0.00083328,0.00074341,
 0.00005437,0.03160175,0.06349739,0.00000230,0.00000030,-0.00000202,-0.
 00000192,0.00000069,0.00000161,0.00002848,0.00000767,0.00000152,-0.000
 03668,-0.00001323,-0.00001774,0.00002182,0.00000710,0.00000957,-0.0000
 1087,0.00000468,0.00000220,0.00004555,0.00000443,-0.00000811,-0.000060
 89,-0.00001740,0.00000834,0.00011388,-0.00001011,0.00001978,-0.0000453
 2,-0.00000758,-0.00000033,-0.00013784,0.00013743,-0.00013669,0.0003693
 9,-0.00016369,-0.00014873,0.00016101,-0.00009481,0.00077998,0.00452229
 ,0.00235271,0.00671732,-0.10839235,-0.04534108,-0.21924997,-0.00731839
 ,-0.00301325,-0.01593896,0.00007818,0.00047834,0.00277580,-0.00000151,
 -0.00000058,-0.00000199,-0.00000064,0.00000065,0.00000046,-0.00000067,
 -0.00000090,0.00000107,0.00000050,-0.00000109,0.00000046,0.00000013,0.
 00000055,-0.00000006,-0.00000290,-0.00000248,0.00000150,-0.00000347,0.
 00000077,0.00000061,-0.00000323,-0.00000297,-0.00000049,-0.00000202,0.
 00000031,-0.00000171,0.00000145,-0.00000347,0.00000278,0.00000118,0.00
 000091,0.00000059,-0.00000651,-0.00000429,0.00000573,-0.00001276,0.000
 00600,0.00000260,0.00002904,0.00000159,0.00000969,-0.00002885,0.000005
 46,0.00001538,0.00000389,0.00000439,-0.00000386,-0.00000876,-0.0000192
 8,0.00001014,0.00000559,0.00000584,-0.00000372,0.00007351,-0.00009196,
 0.00001535,-0.00001969,0.00004694,-0.00000357,-0.00008586,-0.00003575,
 0.00003610,-0.00010672,-0.00035761,0.00013175,-0.00006636,-0.00015540,
 0.00012519,-0.00073917,0.00008082,0.00074709,0.00210394,0.00077277,0.0
 0085571,0.11733531,0.05283106,0.23918135,0.00000063,-0.00000039,-0.000
 00113,-0.00000148,-0.00000116,0.00000165,0.00000845,-0.00000003,0.0000
 0113,-0.00001328,-0.00000262,-0.00001342,0.00000969,0.00000221,0.00000
 803,-0.00000258,-0.00000532,0.00000963,0.00002552,0.00002147,0.0000064
 8,0.00002703,-0.00006729,-0.00009102,-0.00008359,0.00010778,0.00015028
 ,0.00003761,0.00001184,0.00000745,0.00031212,0.00001757,-0.00003326,-0
 .00171528,0.00043159,0.00075666,-0.00694099,0.00026179,0.00048492,-0.0
 0215072,-0.02640534,0.02098909,-0.04754808,-0.01317993,0.01138646,0.00
 088844,0.00733282,-0.01025711,0.00058600,0.00475385,0.00081155,-0.0000
 0068,-0.00000041,-0.00000055,-0.00000026,0.00000005,0.00000048,0.00000
 024,0.00000066,-0.00000010,0.00000018,0.00000069,-0.00000089,0.0000000
 4,0.00000007,-0.00000012,-0.00000101,0.00000049,-0.00000026,-0.0000014
 1,0.00000029,0.00000052,0.00000034,0.00000185,-0.00000129,-0.00000080,
 -0.00000073,-0.00000014,-0.00000014,0.00000208,-0.00000379,0.00000033,
 0.00000029,-0.00000141,0.00000034,0.00000210,0.00000013,-0.00000391,-0
 .00000265,0.00000435,-0.00001113,0.00000326,0.00000408,0.00010747,-0.0
 0004961,-0.00003121,0.00000042,-0.00002008,-0.00000629,-0.00000127,-0.
 00000137,-0.00000500,-0.00001411,0.00002529,-0.00001625,-0.00003376,0.
 00001399,0.00000280,-0.00004458,-0.00008254,-0.00010048,0.00022760,-0.
 00002742,-0.00011783,0.00004951,0.00014105,0.00013313,-0.00009385,-0.0
 0185819,0.00117055,0.00124665,0.00062392,-0.00015921,0.00141354,0.0001
 2832,-0.00068829,0.00085289,0.01313098,-0.00995404,0.05245647,0.000002
 38,-0.00000025,-0.00000342,-0.00000430,-0.00000213,0.00000475,0.000031
 92,0.00000415,0.00000307,-0.00004911,-0.00001335,-0.00003920,0.0000340
 5,0.00000788,0.00001879,-0.00002659,-0.00000867,0.00002510,0.00007359,
 0.00001556,-0.00003146,-0.00014977,-0.00009448,-0.00003891,0.00008017,
 0.00008518,-0.00005665,-0.00001182,0.00000539,0.00000600,-0.00015023,-
 0.00014585,0.00023701,0.00204013,0.00098753,-0.00057770,-0.00117567,0.
 00128640,-0.00035919,-0.00059804,-0.00306816,0.00217150,-0.01392545,-0
 .19817819,0.12320873,-0.00426622,-0.01769952,0.02054957,0.00197768,-0.
 00714442,-0.00239758,-0.00000237,-0.00000122,-0.00000240,-0.00000063,0
 .00000031,0.00000109,0.00000022,0.00000076,0.00000043,0.00000047,0.000
 00124,-0.00000165,0.00000023,-0.00000007,-0.00000011,-0.00000334,-0.00
 000029,-0.00000009,-0.00000473,0.00000098,0.00000118,-0.00000040,0.000
 00191,-0.00000350,-0.00000271,-0.00000072,-0.00000187,-0.00000009,0.00
 000407,-0.00000601,0.00000186,-0.00000015,-0.00000022,-0.00000145,0.00
 000253,0.00000321,-0.00002027,0.00000500,0.00000678,0.00000717,0.00000
 776,0.00002202,-0.00000873,-0.00002209,-0.00000781,0.00000857,0.000004
 99,0.00000321,-0.00002515,-0.00002262,-0.00000089,0.00000963,0.0000131
 6,-0.00004236,-0.00004572,0.00003697,-0.00005487,0.00002665,0.00002922
 ,0.00002936,-0.00012477,-0.00000206,0.00006401,0.00005577,-0.00004269,
 0.00011717,0.00023884,-0.00009948,0.00018137,-0.00037926,0.00053189,-0
 .00006537,-0.00016588,0.00012421,-0.00024076,0.00093050,0.00606430,-0.
 00482349,0.01579545,0.21571400,-0.00000208,0.00000018,0.00000239,0.000
 00247,0.00000070,-0.00000304,-0.00002409,-0.00000437,-0.00000241,0.000
 03506,0.00001135,0.00002706,-0.00002310,-0.00000763,-0.00001760,0.0000
 0982,0.00000153,-0.00000993,-0.00004181,-0.00002399,0.00000177,0.00003
 122,0.00006603,0.00006885,0.00002441,-0.00008729,-0.00008739,-0.000015
 58,-0.00000560,-0.00000107,-0.00009408,0.00006221,0.00002711,0.0008652
 0,-0.00032056,-0.00050846,0.00214601,-0.00015984,0.00066985,-0.0006851
 0,0.00500336,-0.00505474,0.01173070,0.12501591,-0.15288832,-0.00231374
 ,-0.01029690,0.00884774,0.00121592,-0.00395576,0.00080286,0.00000166,0
 .00000080,0.00000174,0.00000048,-0.00000033,-0.00000080,0.00000009,-0.
 00000028,-0.00000051,-0.00000045,-0.00000041,0.00000087,-0.00000019,0.
 00000004,0.00000027,0.00000264,0.00000108,-0.00000054,0.00000338,-0.00
 000088,-0.00000085,0.00000155,0.00000037,0.00000192,0.00000118,0.00000
 076,0.00000189,-0.00000034,-0.00000079,0.00000087,-0.00000123,0.000000
 89,0.00000083,0.00000216,0.00000147,-0.00000278,0.00000893,0.00000020,
 -0.00000279,-0.00000093,-0.00000743,-0.00001182,-0.00005840,0.00003890
 ,0.00002544,-0.00000407,0.00001112,0.00000218,0.00000773,0.00000908,-0
 .00000102,0.00000454,-0.00001299,0.00001327,0.00000859,-0.00001191,-0.
 00002081,0.00001040,0.00003776,0.00004982,-0.00018510,0.00001863,0.000
 04360,-0.00004951,-0.00042752,0.00045014,0.00003905,0.00080915,-0.0000
 5020,-0.00008855,-0.00014058,-0.00024169,0.00025963,-0.00029997,0.0008
 5025,0.00208986,0.02035341,-0.01636435,-0.01431053,-0.13715235,0.16254
 961,0.00000342,0.00000030,-0.00000442,-0.00000552,-0.00000036,0.000004
 67,0.00004244,0.00001309,0.00000541,-0.00006259,-0.00002579,-0.0000491
 2,0.00004049,0.00001946,0.00002805,-0.00002609,0.00000215,0.00002041,0
 .00007727,0.00003135,-0.00001331,-0.00011224,-0.00009808,-0.00004724,0
 .00016554,0.00001966,0.00007579,-0.00008191,-0.00001194,0.00000569,-0.
 00002688,0.00028253,-0.00002307,0.00305390,0.00039008,-0.00051645,0.00
 019899,0.00005481,-0.00042153,0.00082200,0.00292513,0.00103938,-0.0108
 5140,-0.00097340,0.00022911,-0.30332708,-0.02404639,0.03296230,-0.0020
 8199,-0.00596090,0.00449425,-0.00000339,-0.00000134,-0.00000354,-0.000
 00013,0.,0.00000129,-0.00000033,-0.00000007,0.00000117,0.00000017,0.00
 000100,-0.00000066,0.00000090,-0.00000133,-0.00000082,-0.00000484,-0.0
 0000301,0.00000131,-0.00000483,-0.00000038,0.00000039,-0.00000299,-0.0
 0000283,-0.00000304,0.00000062,-0.00000320,-0.00000408,-0.00000018,0.0
 0000136,0.00000072,0.00000273,-0.00000507,-0.00000135,-0.00000750,-0.0
 0000579,0.00000708,-0.00001626,0.00000063,0.00000066,0.00001996,0.0000
 2789,0.00003980,0.00001145,-0.00001675,-0.00001237,0.00001093,-0.00000
 437,-0.00000291,-0.00002002,-0.00004116,0.00001153,0.00000695,0.000014
 16,-0.00003385,0.00008526,-0.00007919,0.00014849,0.00001748,-0.0000530
 7,-0.00000549,-0.00025303,-0.00008158,0.00011205,-0.00000981,-0.000030
 26,0.00006809,-0.00003927,-0.00000259,0.00000782,-0.00074709,-0.000302
 77,0.00035295,0.00035795,-0.00001787,-0.00010099,0.00106296,-0.0001175
 4,0.00035126,-0.00004591,0.00060079,-0.00014337,0.32515524,0.00000218,
 -0.00000016,-0.00000285,-0.00000384,-0.00000058,0.00000269,0.00002863,
 0.00000499,0.00000091,-0.00004335,-0.00001276,-0.00002671,0.00003138,0
 .00000490,0.00000679,-0.00003260,-0.00000049,0.00001993,0.00007838,-0.
 00001068,-0.00005007,-0.00019681,-0.00007279,0.00001019,0.00016172,-0.
 00000452,-0.00018581,-0.00008804,0.00001083,0.00003886,-0.00011672,0.0
 0010468,0.00057252,0.00208895,-0.00340685,0.00222220,-0.00038815,-0.00
 065467,0.00029049,0.00083390,-0.00541868,-0.00266387,0.02799069,0.0043
 2298,-0.00423888,-0.01614077,-0.04719018,-0.00006227,-0.03408962,-0.01
 261528,0.01261323,-0.00000196,-0.00000078,-0.00000191,-0.00000060,0.00
 000038,0.00000070,-0.00000021,-0.00000014,0.00000067,0.00000034,0.0000
 0014,-0.00000047,0.00000014,0.00000020,-0.00000005,-0.00000305,-0.0000
 0119,0.00000072,-0.00000408,0.00000090,0.00000080,-0.00000174,0.000000
 10,-0.00000196,-0.00000327,0.00000042,-0.00000127,0.00000079,0.0000005
 0,-0.00000365,0.00000130,0.00000031,0.00000116,-0.00000445,0.00000218,
 0.00000583,-0.00002398,0.00001126,0.00000724,0.00001999,0.00000904,0.0
 0002105,-0.00005523,0.00001146,0.00002057,0.00000931,0.00000760,-0.000
 00212,-0.00003015,-0.00004429,-0.00001500,0.00001586,0.00000868,-0.000
 07680,0.00006354,0.00003262,-0.00013458,0.00001351,0.00000165,-0.00001
 002,-0.00121519,-0.00031582,0.00058604,-0.00000901,0.00011811,-0.00004
 039,-0.00008738,0.00033440,0.00001383,0.00191110,0.00034354,-0.0006998
 2,-0.00012211,-0.00005077,0.00017484,-0.00072911,0.00116686,0.00030529
 ,-0.00067673,0.00066911,0.00075139,0.02794813,0.06167742,-0.00000041,-
 0.00000013,0.00000073,0.00000083,0.00000040,-0.00000067,-0.00000644,-0
 .00000146,-0.00000066,0.00001016,0.00000307,0.00000727,-0.00000558,-0.
 00000274,-0.00000024,0.00001036,0.00000490,-0.00000907,-0.00000353,0.0
 0000050,0.00002950,0.00009146,0.00006046,0.00001894,0.00016508,-0.0001
 1749,0.00029261,-0.00009147,-0.00005543,-0.00003847,-0.00023295,0.0003
 1136,-0.00057918,-0.00168218,0.00252228,-0.00165753,-0.00010133,0.0002
 3771,0.00017398,0.00021611,-0.00269251,-0.00041199,0.01525168,-0.00041
 980,-0.00192561,0.02512726,-0.00020062,-0.05262201,0.02588358,0.010979
 01,-0.00793425,0.00000042,0.00000020,0.00000054,0.00000013,-0.00000006
 ,-0.00000022,0.,0.00000006,-0.00000020,-0.00000001,-0.00000011,0.00000
 023,-0.00000005,-0.00000002,0.00000006,0.00000059,0.00000010,-0.000000
 04,0.00000081,0.00000007,-0.00000020,-0.00000077,-0.00000061,0.0000006
 0,0.00000003,0.00000053,0.00000015,0.00000144,-0.00000208,0.00000354,-
 0.00000027,0.00000032,0.00000057,-0.00000567,-0.00000352,0.00000119,0.
 00000083,0.00000060,-0.00000211,0.00003313,0.00000766,0.00000721,-0.00
 002653,0.00001025,0.00000487,-0.00000272,0.00000622,-0.00000131,0.0000
 1663,-0.00001608,0.00004433,-0.00000564,-0.00000560,0.00006266,0.00034
 324,-0.00026252,0.00040054,0.00002212,0.00000319,0.00003755,0.00085265
 ,0.00032929,-0.00027193,0.00000047,0.00000816,-0.00003736,0.00004178,-
 0.00012999,-0.00001518,0.00080026,0.00015883,0.00002472,0.00038889,-0.
 00000494,0.00012956,0.00007036,0.00087230,0.00041833,-0.00024605,-0.00
 005214,0.00026211,-0.03939119,-0.00878344,0.05944408,-0.00000048,0.000
 00009,0.00000178,0.00000314,0.00000101,-0.00000298,-0.00001130,-0.0000
 0231,-0.00000193,0.00002109,0.00000785,0.00002280,-0.00001508,-0.00000
 545,-0.00000765,0.00002528,0.00000496,-0.00002033,-0.00002977,-0.00001
 214,0.00004876,0.00013926,0.00011584,0.00002395,0.00004226,0.00016725,
 0.00031864,0.00000936,-0.00002381,0.00000730,-0.00000328,-0.00025716,-
 0.00079478,0.00023256,0.00058812,0.00173724,-0.00012206,0.00001598,0.0
 0022173,0.00147424,-0.00016513,0.00051813,0.00527099,0.00393305,0.0116
 6693,-0.10083417,-0.02105785,-0.09046031,0.00649740,0.00262962,0.00271
 839,0.00000128,0.00000058,0.00000108,-0.00000036,0.00000033,-0.0000003
 9,-0.00000035,-0.00000071,-0.00000002,0.00000009,-0.00000147,0.0000010
 3,-0.00000039,0.00000117,0.00000024,0.00000123,-0.00000052,0.00000062,
 0.00000127,0.00000070,-0.00000004,-0.00000114,-0.00000170,0.00000221,-
 0.00000156,0.00000172,0.00000133,0.00000189,-0.00000589,0.00000361,-0.
 00000040,0.00000511,0.00000060,-0.00000401,-0.00000170,-0.00000102,0.0
 0000496,0.00000056,0.00000015,0.00003664,-0.00002788,-0.00001846,-0.00
 002341,-0.00001537,0.00001502,-0.00000799,0.00000551,-0.00000723,0.000
 00872,0.00001709,0.00000460,-0.00000506,-0.00000100,0.00002858,-0.0010
 8841,-0.00149743,0.00036631,-0.00005437,0.00006295,-0.00007034,-0.0000
 6912,0.00003373,-0.00011365,-0.00008099,-0.00002915,-0.00006719,0.0000
 1464,-0.00004887,-0.00001390,0.00007402,-0.00009308,-0.00022315,0.0001
 2107,0.00005465,-0.00028253,-0.00006459,0.00220538,0.00179868,0.000457
 31,-0.00077337,-0.00046040,-0.01340538,-0.00713170,-0.02752750,0.10138
 496,0.00000103,-0.00000009,-0.00000123,-0.00000167,0.00000039,0.000001
 30,0.00001553,0.00000369,0.00000087,-0.00002117,-0.00000740,-0.0000118
 6,0.00001302,0.00000245,0.00000250,-0.00001248,0.00000326,0.00000810,0
 .00002179,-0.00001363,-0.00001572,-0.00011849,-0.00007753,-0.00001082,
 0.00021313,0.00001199,-0.00016051,0.00001008,0.00000820,0.00003915,-0.
 00097170,0.00021271,-0.00036174,0.00400674,0.00202730,-0.00068416,-0.0
 0033266,-0.00038595,0.00002494,-0.00137652,0.00058666,0.00071510,-0.01
 216972,-0.00607685,-0.02571274,-0.02312113,-0.05801568,-0.04470663,0.0
 1087887,-0.00483690,0.03664563,-0.00000087,-0.00000033,-0.00000106,-0.
 00000016,0.00000030,0.00000020,-0.00000024,-0.00000025,0.00000051,0.00
 000026,-0.00000032,0.00000006,0.00000009,0.00000004,-0.00000005,-0.000
 00151,-0.00000081,0.00000054,-0.00000174,0.00000022,0.00000024,-0.0000
 0090,-0.00000028,-0.00000070,-0.00000031,-0.00000001,-0.00000096,-0.00
 000047,0.00000040,-0.00000027,0.00000022,-0.00000167,0.00000087,-0.000
 00361,0.00000001,0.00000106,-0.00000706,0.00000525,0.00000151,0.000000
 50,0.00001761,0.00002988,0.00003865,0.00001970,-0.00001353,-0.00000154
 ,0.00000407,0.00000693,-0.00001872,0.00000327,-0.00001476,0.00001939,0
 .00000173,-0.00003881,-0.00101427,-0.00063995,0.00003058,0.00010177,-0
 .00023788,-0.00010939,-0.00035707,-0.00012104,-0.00004160,0.00002725,-
 0.00011291,0.00007042,-0.00011948,0.00029079,0.00002521,0.00001195,0.0
 0005231,0.00036558,0.00070275,0.00026153,0.00032688,0.00316545,-0.0042
 7641,-0.00289631,-0.00042990,0.00094188,0.00072107,-0.00044548,0.00095
 538,-0.00276620,0.02130044,0.06939473,0.00000219,0.00000044,-0.0000012
 2,-0.00000033,0.00000147,-0.00000096,0.00002211,0.00000766,0.00000001,
 -0.00002443,-0.00001036,-0.00000197,0.00001587,0.00000572,0.00000690,0
 .00000757,0.00001458,-0.00001602,0.00005368,0.00001885,0.00003892,0.00
 013265,0.00011648,0.00008366,0.00044967,-0.00025024,0.00065268,-0.0002
 6145,-0.00009457,-0.00006906,-0.00012060,0.00072539,-0.00049289,-0.005
 48836,-0.00188823,0.00065150,0.00069151,0.00040507,-0.00005317,-0.0010
 2301,0.00076622,0.00012442,-0.00800267,-0.00542931,-0.01258195,-0.0873
 0088,-0.04372284,-0.22605856,-0.00436222,0.01529836,-0.02647198,-0.000
 00085,-0.00000017,-0.00000105,-0.00000087,0.00000072,0.00000026,-0.000
 00099,-0.00000165,0.00000106,0.00000044,-0.00000190,0.00000136,-0.0000
 0005,0.00000108,-0.00000011,-0.00000238,-0.00000363,0.00000225,-0.0000
 0275,0.00000127,0.00000050,-0.00000592,-0.00000646,0.00000130,-0.00000
 307,0.00000147,-0.00000131,0.00000438,-0.00000986,0.00001044,0.0000009
 0,0.00000343,0.00000103,-0.00001626,-0.00001361,0.00001009,-0.00001453
 ,0.00000811,0.00000050,0.00009478,0.00001693,0.00001423,-0.00008632,0.
 00001293,0.00002668,-0.00000013,0.00000366,-0.00001755,0.00002267,-0.0
 0006548,0.00008987,-0.00000682,0.00000541,0.00009004,0.00072165,-0.000
 74516,0.00101714,-0.00001421,0.00003902,-0.00017361,0.00049680,0.00019
 980,0.00007289,-0.00012714,-0.00001403,0.00021580,0.00023710,-0.000173
 91,-0.00012125,0.00015540,0.00000446,0.00038949,0.00098492,0.00005761,
 0.00012184,0.00128850,-0.00245434,0.00000430,0.00011030,-0.00069435,0.
 00056868,0.00080914,-0.00066597,0.00414237,0.10056406,0.03852994,0.257
 72246\\0.00000016,-0.00000002,-0.00000110,-0.00000374,-0.00000076,0.00
 000070,0.00000606,0.00000159,-0.00000323,-0.00000678,-0.00000033,0.000
 00592,0.00000289,-0.00000176,-0.00000733,-0.00000322,0.00000157,0.0000
 0524,0.00001257,-0.00000293,-0.00001191,-0.00000789,0.00000712,0.00001
 429,0.00000847,0.00000062,-0.00001947,0.00000795,-0.00001262,0.0000157
 1,-0.00001343,-0.00000903,0.00000363,0.00000189,0.00000809,0.00000491,
 0.00000544,-0.00000308,-0.00000054,0.00000208,0.00000556,0.00000424,0.
 00000193,-0.00000410,-0.00000659,-0.00000566,0.00000008,0.00000812,-0.
 00000572,-0.00000095,-0.00000755,-0.00000109,-0.00000016,0.00000004,-0
 .00000036,0.00000009,0.,-0.00000061,0.00000028,0.00000007,0.00000076,0
 .,-0.00000005,0.00000029,0.00000006,0.00000025,-0.00000081,-0.00000016
 ,0.00000042,-0.00000078,0.00000051,0.00000011,0.00000036,-0.00000053,0
 .00000010,-0.00000138,0.00000042,0.00000165,-0.00000331,-0.00000020,-0
 .00000031,0.00000296,0.00000149,0.00000049,-0.00000479,0.00000314,0.00
 000129,0.00000023,0.00000313,-0.00000110,0.00000130,-0.00000404,-0.000
 00206,0.00000027,0.00000268,-0.00000041,-0.00000306,0.00000358,-0.0000
 0078,0.00000074,0.00000170,-0.00000004,-0.00000200,-0.00000084,0.00000
 066,0.00000061,0.00000321,-0.00000335,0.00000400,0.00000032,0.00000069
 ,0.00000039,-0.00000220,0.00000040,0.00000147,0.00000019,-0.00000078,0
 .00000052,0.00000024,0.00000092,-0.00000002,0.00000252,-0.00000310,0.0
 0000010,-0.00000286,-0.00000125,-0.00000015,-0.00000083,0.00000137,-0.
 00000020,0.00000075,0.00000065,0.00000134,0.00000042,0.00000144,0.0000
 0019,-0.00000195,-0.00000234\\\@


 HE THAT RISETH LATE MUST TROT ALL DAY.

                  -- BENJAMIN FRANKLIN
 Job cpu time:       0 days 17 hours 10 minutes 54.2 seconds.
 Elapsed time:       0 days  4 hours 21 minutes 48.9 seconds.
 File lengths (MBytes):  RWF=   1217 Int=      0 D2E=      0 Chk=     33 Scr=      1
 Normal termination of Gaussian 16 at Tue May 23 01:05:47 2023.
### All Done ###
