### Starting Gaussian ###
 Entering Gaussian System, Link 0=g16
 Initial command:
 /cluster/software/gaussian/gaussian-16-A.03/avx2/g16/l1.exe "/local/scratch/yxie/Gau-5696.inp" -scrdir="/local/scratch/yxie/"
 Entering Link 1 = /cluster/software/gaussian/gaussian-16-A.03/avx2/g16/l1.exe PID=      5697.
  
 Copyright (c) 1988,1990,1992,1993,1995,1998,2003,2009,2016,
            Gaussian, Inc.  All Rights Reserved.
  
 This is part of the Gaussian(R) 16 program.  It is based on
 the Gaussian(R) 09 system (copyright 2009, Gaussian, Inc.),
 the Gaussian(R) 03 system (copyright 2003, Gaussian, Inc.),
 the Gaussian(R) 98 system (copyright 1998, Gaussian, Inc.),
 the Gaussian(R) 94 system (copyright 1995, Gaussian, Inc.),
 the Gaussian 92(TM) system (copyright 1992, Gaussian, Inc.),
 the Gaussian 90(TM) system (copyright 1990, Gaussian, Inc.),
 the Gaussian 88(TM) system (copyright 1988, Gaussian, Inc.),
 the Gaussian 86(TM) system (copyright 1986, Carnegie Mellon
 University), and the Gaussian 82(TM) system (copyright 1983,
 Carnegie Mellon University). Gaussian is a federally registered
 trademark of Gaussian, Inc.
  
 This software contains proprietary and confidential information,
 including trade secrets, belonging to Gaussian, Inc.
  
 This software is provided under written license and may be
 used, copied, transmitted, or stored only in accord with that
 written license.
  
 The following legend is applicable only to US Government
 contracts under FAR:
  
                    RESTRICTED RIGHTS LEGEND
  
 Use, reproduction and disclosure by the US Government is
 subject to restrictions as set forth in subparagraphs (a)
 and (c) of the Commercial Computer Software - Restricted
 Rights clause in FAR 52.227-19.
  
 Gaussian, Inc.
 340 Quinnipiac St., Bldg. 40, Wallingford CT 06492
  
  
 ---------------------------------------------------------------
 Warning -- This program may not be used in any manner that
 competes with the business of Gaussian, Inc. or will provide
 assistance to any competitor of Gaussian, Inc.  The licensee
 of this program is prohibited from giving any competitor of
 Gaussian, Inc. access to this program.  By using this program,
 the user acknowledges that Gaussian, Inc. is engaged in the
 business of creating and licensing software in the field of
 computational chemistry and represents and warrants to the
 licensee that it is not a competitor of Gaussian, Inc. and that
 it will not use this program in any manner prohibited above.
 ---------------------------------------------------------------
  

 Cite this work as:
 Gaussian 16, Revision A.03,
 M. J. Frisch, G. W. Trucks, H. B. Schlegel, G. E. Scuseria, 
 M. A. Robb, J. R. Cheeseman, G. Scalmani, V. Barone, 
 G. A. Petersson, H. Nakatsuji, X. Li, M. Caricato, A. V. Marenich, 
 J. Bloino, B. G. Janesko, R. Gomperts, B. Mennucci, H. P. Hratchian, 
 J. V. Ortiz, A. F. Izmaylov, J. L. Sonnenberg, D. Williams-Young, 
 F. Ding, F. Lipparini, F. Egidi, J. Goings, B. Peng, A. Petrone, 
 T. Henderson, D. Ranasinghe, V. G. Zakrzewski, J. Gao, N. Rega, 
 G. Zheng, W. Liang, M. Hada, M. Ehara, K. Toyota, R. Fukuda, 
 J. Hasegawa, M. Ishida, T. Nakajima, Y. Honda, O. Kitao, H. Nakai, 
 T. Vreven, K. Throssell, J. A. Montgomery, Jr., J. E. Peralta, 
 F. Ogliaro, M. J. Bearpark, J. J. Heyd, E. N. Brothers, K. N. Kudin, 
 V. N. Staroverov, T. A. Keith, R. Kobayashi, J. Normand, 
 K. Raghavachari, A. P. Rendell, J. C. Burant, S. S. Iyengar, 
 J. Tomasi, M. Cossi, J. M. Millam, M. Klene, C. Adamo, R. Cammi, 
 J. W. Ochterski, R. L. Martin, K. Morokuma, O. Farkas, 
 J. B. Foresman, and D. J. Fox, Gaussian, Inc., Wallingford CT, 2016.
 
 ******************************************
 Gaussian 16:  ES64L-G16RevA.03 25-Dec-2016
                21-May-2023 
 ******************************************
 %chk=CCCOCCCCOCCCCCCOOCC.chk
 %NProcShared=20
 Will use up to   20 processors via shared memory.
 -----------------------------
 # opt freq b3lyp/6-31g(2df,p)
 -----------------------------
 1/18=20,19=15,26=3,38=1/1,3;
 2/9=110,12=2,17=6,18=5,40=1/2;
 3/5=1,6=6,7=104,11=2,25=1,30=1,71=1,74=-5/1,2,3;
 4//1;
 5/5=2,38=5/2;
 6/7=2,8=2,9=2,10=2,28=1/1;
 7//1,2,3,16;
 1/18=20,19=15,26=3/3(2);
 2/9=110/2;
 99//99;
 2/9=110/2;
 3/5=1,6=6,7=104,11=2,25=1,30=1,71=1,74=-5/1,2,3;
 4/5=5,16=3,69=1/1;
 5/5=2,38=5/2;
 7//1,2,3,16;
 1/18=20,19=15,26=3/3(-5);
 2/9=110/2;
 6/7=2,8=2,9=2,10=2,19=2,28=1/1;
 99/9=1/99;
 -------------------
 Title Card Required
 -------------------
 Symbolic Z-matrix:
 Charge =  0 Multiplicity = 1
 C                     0.96996   0.10906   0.01382 
 C                     2.48762   0.0889    0.04306 
 C                     2.98245  -0.72686   1.22584 
 O                     4.40734  -0.73285   1.23453 
 C                     4.88461  -1.49544   2.34022 
 C                     6.40048  -1.48518   2.32535 
 C                     6.94659  -2.29144   3.49435 
 C                     8.46148  -2.27927   3.47671 
 O                     8.93479  -3.04157   4.58197 
 C                     10.35728  -3.04679   4.58955 
 C                     10.8404  -3.86301   5.77301 
 C                     12.36199  -3.87834   5.79523 
 C                     12.87945  -4.69025   6.97243 
 C                     14.401   -4.69552   6.98006 
 C                     14.92938  -5.50308   8.15097 
 O                     16.35037  -5.46662   8.0981 
 O                     16.78388  -6.25392   9.23962 
 C                     18.20535  -6.22038   9.19099 
 C                     18.7275  -7.02647   10.35976 
 H                     0.6087    0.69495  -0.83566 
 H                     0.57006   0.55261   0.93169 
 H                     0.57006  -0.90651  -0.07465 
 H                     2.87929   1.11101   0.10501 
 H                     2.87929  -0.33217  -0.89034 
 H                     2.61763  -1.75765   1.14899 
 H                     2.61763  -0.28877   2.16206 
 H                     4.51663  -2.52469   2.26011 
 H                     4.51663  -1.05485   3.27385 
 H                     6.76421  -0.4511    2.36886 
 H                     6.76421  -1.89327   1.3742 
 H                     6.58527  -3.32646   3.45231 
 H                     6.58527  -1.88439   4.4469 
 H                     8.83082  -1.25071   3.55811 
 H                     8.83082  -2.72081   2.54418 
 H                     10.72534  -2.01742   4.66874 
 H                     10.72534  -3.48656   3.65549 
 H                     10.44339  -4.88319   5.7081 
 H                     10.44339  -3.43986   6.70356 
 H                     12.74077  -2.851     5.85922 
 H                     12.74077  -4.30318   4.85766 
 H                     12.50389  -5.71802   6.90724 
 H                     12.50389  -4.26414   7.90997 
 H                     14.78803  -3.67083   7.03622 
 H                     14.78803  -5.11209   6.04219 
 H                     14.59037  -6.5423    8.08575 
 H                     14.59037  -5.07288   9.0992 
 H                     18.54672  -5.18249   9.25858 
 H                     18.54672  -6.65233   8.24484 
 H                     18.36334  -6.60991   11.30442 
 H                     19.82037  -7.03438   10.37122 
 H                     18.36334  -8.0575    10.30602 
 

 GradGradGradGradGradGradGradGradGradGradGradGradGradGradGradGradGradGrad
 Berny optimization.
 Initialization pass.
                           ----------------------------
                           !    Initial Parameters    !
                           ! (Angstroms and Degrees)  !
 --------------------------                            --------------------------
 ! Name  Definition              Value          Derivative Info.                !
 --------------------------------------------------------------------------------
 ! R1    R(1,2)                  1.5181         estimate D2E/DX2                !
 ! R2    R(1,20)                 1.0933         estimate D2E/DX2                !
 ! R3    R(1,21)                 1.0951         estimate D2E/DX2                !
 ! R4    R(1,22)                 1.095          estimate D2E/DX2                !
 ! R5    R(2,3)                  1.5196         estimate D2E/DX2                !
 ! R6    R(2,23)                 1.0963         estimate D2E/DX2                !
 ! R7    R(2,24)                 1.0963         estimate D2E/DX2                !
 ! R8    R(3,4)                  1.4249         estimate D2E/DX2                !
 ! R9    R(3,25)                 1.0961         estimate D2E/DX2                !
 ! R10   R(3,26)                 1.0961         estimate D2E/DX2                !
 ! R11   R(4,5)                  1.4254         estimate D2E/DX2                !
 ! R12   R(5,6)                  1.516          estimate D2E/DX2                !
 ! R13   R(5,27)                 1.096          estimate D2E/DX2                !
 ! R14   R(5,28)                 1.096          estimate D2E/DX2                !
 ! R15   R(6,7)                  1.5215         estimate D2E/DX2                !
 ! R16   R(6,29)                 1.097          estimate D2E/DX2                !
 ! R17   R(6,30)                 1.0971         estimate D2E/DX2                !
 ! R18   R(7,8)                  1.515          estimate D2E/DX2                !
 ! R19   R(7,31)                 1.0971         estimate D2E/DX2                !
 ! R20   R(7,32)                 1.0971         estimate D2E/DX2                !
 ! R21   R(8,9)                  1.4236         estimate D2E/DX2                !
 ! R22   R(8,33)                 1.0959         estimate D2E/DX2                !
 ! R23   R(8,34)                 1.0959         estimate D2E/DX2                !
 ! R24   R(9,10)                 1.4225         estimate D2E/DX2                !
 ! R25   R(10,11)                1.5166         estimate D2E/DX2                !
 ! R26   R(10,35)                1.0961         estimate D2E/DX2                !
 ! R27   R(10,36)                1.0961         estimate D2E/DX2                !
 ! R28   R(11,12)                1.5218         estimate D2E/DX2                !
 ! R29   R(11,37)                1.0966         estimate D2E/DX2                !
 ! R30   R(11,38)                1.0966         estimate D2E/DX2                !
 ! R31   R(12,13)                1.5208         estimate D2E/DX2                !
 ! R32   R(12,39)                1.0968         estimate D2E/DX2                !
 ! R33   R(12,40)                1.0968         estimate D2E/DX2                !
 ! R34   R(13,14)                1.5216         estimate D2E/DX2                !
 ! R35   R(13,41)                1.0962         estimate D2E/DX2                !
 ! R36   R(13,42)                1.0962         estimate D2E/DX2                !
 ! R37   R(14,15)                1.5174         estimate D2E/DX2                !
 ! R38   R(14,43)                1.0968         estimate D2E/DX2                !
 ! R39   R(14,44)                1.0968         estimate D2E/DX2                !
 ! R40   R(15,16)                1.4224         estimate D2E/DX2                !
 ! R41   R(15,45)                1.0951         estimate D2E/DX2                !
 ! R42   R(15,46)                1.0951         estimate D2E/DX2                !
 ! R43   R(16,17)                1.4529         estimate D2E/DX2                !
 ! R44   R(17,18)                1.4227         estimate D2E/DX2                !
 ! R45   R(18,19)                1.5128         estimate D2E/DX2                !
 ! R46   R(18,47)                1.0947         estimate D2E/DX2                !
 ! R47   R(18,48)                1.0947         estimate D2E/DX2                !
 ! R48   R(19,49)                1.0948         estimate D2E/DX2                !
 ! R49   R(19,50)                1.093          estimate D2E/DX2                !
 ! R50   R(19,51)                1.0948         estimate D2E/DX2                !
 ! A1    A(2,1,20)             110.6348         estimate D2E/DX2                !
 ! A2    A(2,1,21)             110.7519         estimate D2E/DX2                !
 ! A3    A(2,1,22)             110.7524         estimate D2E/DX2                !
 ! A4    A(20,1,21)            108.2718         estimate D2E/DX2                !
 ! A5    A(20,1,22)            108.2728         estimate D2E/DX2                !
 ! A6    A(21,1,22)            108.0596         estimate D2E/DX2                !
 ! A7    A(1,2,3)              110.344          estimate D2E/DX2                !
 ! A8    A(1,2,23)             110.2345         estimate D2E/DX2                !
 ! A9    A(1,2,24)             110.2343         estimate D2E/DX2                !
 ! A10   A(3,2,23)             109.8865         estimate D2E/DX2                !
 ! A11   A(3,2,24)             109.8863         estimate D2E/DX2                !
 ! A12   A(23,2,24)            106.1735         estimate D2E/DX2                !
 ! A13   A(2,3,4)              109.4278         estimate D2E/DX2                !
 ! A14   A(2,3,25)             109.9905         estimate D2E/DX2                !
 ! A15   A(2,3,26)             109.99           estimate D2E/DX2                !
 ! A16   A(4,3,25)             109.2255         estimate D2E/DX2                !
 ! A17   A(4,3,26)             109.2253         estimate D2E/DX2                !
 ! A18   A(25,3,26)            108.9624         estimate D2E/DX2                !
 ! A19   A(3,4,5)              109.9862         estimate D2E/DX2                !
 ! A20   A(4,5,6)              108.8789         estimate D2E/DX2                !
 ! A21   A(4,5,27)             109.4689         estimate D2E/DX2                !
 ! A22   A(4,5,28)             109.4686         estimate D2E/DX2                !
 ! A23   A(6,5,27)             109.9602         estimate D2E/DX2                !
 ! A24   A(6,5,28)             109.9599         estimate D2E/DX2                !
 ! A25   A(27,5,28)            109.0905         estimate D2E/DX2                !
 ! A26   A(5,6,7)              110.3521         estimate D2E/DX2                !
 ! A27   A(5,6,29)             109.7259         estimate D2E/DX2                !
 ! A28   A(5,6,30)             109.7256         estimate D2E/DX2                !
 ! A29   A(7,6,29)             110.489          estimate D2E/DX2                !
 ! A30   A(7,6,30)             110.4887         estimate D2E/DX2                !
 ! A31   A(29,6,30)            105.9677         estimate D2E/DX2                !
 ! A32   A(6,7,8)              110.2244         estimate D2E/DX2                !
 ! A33   A(6,7,31)             110.6274         estimate D2E/DX2                !
 ! A34   A(6,7,32)             110.627          estimate D2E/DX2                !
 ! A35   A(8,7,31)             109.6605         estimate D2E/DX2                !
 ! A36   A(8,7,32)             109.6602         estimate D2E/DX2                !
 ! A37   A(31,7,32)            105.9526         estimate D2E/DX2                !
 ! A38   A(7,8,9)              108.6081         estimate D2E/DX2                !
 ! A39   A(7,8,33)             110.1002         estimate D2E/DX2                !
 ! A40   A(7,8,34)             110.1            estimate D2E/DX2                !
 ! A41   A(9,8,33)             109.4418         estimate D2E/DX2                !
 ! A42   A(9,8,34)             109.4417         estimate D2E/DX2                !
 ! A43   A(33,8,34)            109.1336         estimate D2E/DX2                !
 ! A44   A(8,9,10)             109.7893         estimate D2E/DX2                !
 ! A45   A(9,10,11)            108.9457         estimate D2E/DX2                !
 ! A46   A(9,10,35)            109.4349         estimate D2E/DX2                !
 ! A47   A(9,10,36)            109.4345         estimate D2E/DX2                !
 ! A48   A(11,10,35)           110.004          estimate D2E/DX2                !
 ! A49   A(11,10,36)           110.004          estimate D2E/DX2                !
 ! A50   A(35,10,36)           109.0035         estimate D2E/DX2                !
 ! A51   A(10,11,12)           109.5914         estimate D2E/DX2                !
 ! A52   A(10,11,37)           109.825          estimate D2E/DX2                !
 ! A53   A(10,11,38)           109.8255         estimate D2E/DX2                !
 ! A54   A(12,11,37)           110.6993         estimate D2E/DX2                !
 ! A55   A(12,11,38)           110.6996         estimate D2E/DX2                !
 ! A56   A(37,11,38)           106.1484         estimate D2E/DX2                !
 ! A57   A(11,12,13)           110.9091         estimate D2E/DX2                !
 ! A58   A(11,12,39)           109.6765         estimate D2E/DX2                !
 ! A59   A(11,12,40)           109.6767         estimate D2E/DX2                !
 ! A60   A(13,12,39)           109.7182         estimate D2E/DX2                !
 ! A61   A(13,12,40)           109.718          estimate D2E/DX2                !
 ! A62   A(39,12,40)           107.0624         estimate D2E/DX2                !
 ! A63   A(12,13,14)           110.2419         estimate D2E/DX2                !
 ! A64   A(12,13,41)           109.7521         estimate D2E/DX2                !
 ! A65   A(12,13,42)           109.7519         estimate D2E/DX2                !
 ! A66   A(14,13,41)           109.8557         estimate D2E/DX2                !
 ! A67   A(14,13,42)           109.8562         estimate D2E/DX2                !
 ! A68   A(41,13,42)           107.3345         estimate D2E/DX2                !
 ! A69   A(13,14,15)           110.7279         estimate D2E/DX2                !
 ! A70   A(13,14,43)           110.4807         estimate D2E/DX2                !
 ! A71   A(13,14,44)           110.4812         estimate D2E/DX2                !
 ! A72   A(15,14,43)           109.5627         estimate D2E/DX2                !
 ! A73   A(15,14,44)           109.5634         estimate D2E/DX2                !
 ! A74   A(43,14,44)           105.9089         estimate D2E/DX2                !
 ! A75   A(14,15,16)           107.791          estimate D2E/DX2                !
 ! A76   A(14,15,45)           110.5676         estimate D2E/DX2                !
 ! A77   A(14,15,46)           110.5683         estimate D2E/DX2                !
 ! A78   A(16,15,45)           109.3523         estimate D2E/DX2                !
 ! A79   A(16,15,46)           109.3527         estimate D2E/DX2                !
 ! A80   A(45,15,46)           109.1812         estimate D2E/DX2                !
 ! A81   A(15,16,17)           104.7726         estimate D2E/DX2                !
 ! A82   A(16,17,18)           104.9806         estimate D2E/DX2                !
 ! A83   A(17,18,19)           107.812          estimate D2E/DX2                !
 ! A84   A(17,18,47)           109.3792         estimate D2E/DX2                !
 ! A85   A(17,18,48)           109.3792         estimate D2E/DX2                !
 ! A86   A(19,18,47)           110.4797         estimate D2E/DX2                !
 ! A87   A(19,18,48)           110.48           estimate D2E/DX2                !
 ! A88   A(47,18,48)           109.2834         estimate D2E/DX2                !
 ! A89   A(18,19,49)           110.4325         estimate D2E/DX2                !
 ! A90   A(18,19,50)           110.9218         estimate D2E/DX2                !
 ! A91   A(18,19,51)           110.432          estimate D2E/DX2                !
 ! A92   A(49,19,50)           109.0453         estimate D2E/DX2                !
 ! A93   A(49,19,51)           106.8614         estimate D2E/DX2                !
 ! A94   A(50,19,51)           109.0448         estimate D2E/DX2                !
 ! D1    D(20,1,2,3)           179.9997         estimate D2E/DX2                !
 ! D2    D(20,1,2,23)           58.4441         estimate D2E/DX2                !
 ! D3    D(20,1,2,24)          -58.4451         estimate D2E/DX2                !
 ! D4    D(21,1,2,3)            59.9373         estimate D2E/DX2                !
 ! D5    D(21,1,2,23)          -61.6183         estimate D2E/DX2                !
 ! D6    D(21,1,2,24)         -178.5076         estimate D2E/DX2                !
 ! D7    D(22,1,2,3)           -59.9362         estimate D2E/DX2                !
 ! D8    D(22,1,2,23)          178.5082         estimate D2E/DX2                !
 ! D9    D(22,1,2,24)           61.6189         estimate D2E/DX2                !
 ! D10   D(1,2,3,4)            179.9999         estimate D2E/DX2                !
 ! D11   D(1,2,3,25)            60.0091         estimate D2E/DX2                !
 ! D12   D(1,2,3,26)           -60.0098         estimate D2E/DX2                !
 ! D13   D(23,2,3,4)           -58.2384         estimate D2E/DX2                !
 ! D14   D(23,2,3,25)         -178.2292         estimate D2E/DX2                !
 ! D15   D(23,2,3,26)           61.7519         estimate D2E/DX2                !
 ! D16   D(24,2,3,4)            58.2387         estimate D2E/DX2                !
 ! D17   D(24,2,3,25)          -61.7522         estimate D2E/DX2                !
 ! D18   D(24,2,3,26)          178.229          estimate D2E/DX2                !
 ! D19   D(2,3,4,5)            180.0            estimate D2E/DX2                !
 ! D20   D(25,3,4,5)           -59.5414         estimate D2E/DX2                !
 ! D21   D(26,3,4,5)            59.542          estimate D2E/DX2                !
 ! D22   D(3,4,5,6)           -180.0            estimate D2E/DX2                !
 ! D23   D(3,4,5,27)            59.7654         estimate D2E/DX2                !
 ! D24   D(3,4,5,28)           -59.7659         estimate D2E/DX2                !
 ! D25   D(4,5,6,7)           -179.9998         estimate D2E/DX2                !
 ! D26   D(4,5,6,29)            58.0208         estimate D2E/DX2                !
 ! D27   D(4,5,6,30)           -58.021          estimate D2E/DX2                !
 ! D28   D(27,5,6,7)           -60.0691         estimate D2E/DX2                !
 ! D29   D(27,5,6,29)          177.9515         estimate D2E/DX2                !
 ! D30   D(27,5,6,30)           61.9097         estimate D2E/DX2                !
 ! D31   D(28,5,6,7)            60.0699         estimate D2E/DX2                !
 ! D32   D(28,5,6,29)          -61.9094         estimate D2E/DX2                !
 ! D33   D(28,5,6,30)         -177.9513         estimate D2E/DX2                !
 ! D34   D(5,6,7,8)            180.0            estimate D2E/DX2                !
 ! D35   D(5,6,7,31)            58.5475         estimate D2E/DX2                !
 ! D36   D(5,6,7,32)           -58.5481         estimate D2E/DX2                !
 ! D37   D(29,6,7,8)           -58.472          estimate D2E/DX2                !
 ! D38   D(29,6,7,31)         -179.9246         estimate D2E/DX2                !
 ! D39   D(29,6,7,32)           62.9799         estimate D2E/DX2                !
 ! D40   D(30,6,7,8)            58.4726         estimate D2E/DX2                !
 ! D41   D(30,6,7,31)          -62.9799         estimate D2E/DX2                !
 ! D42   D(30,6,7,32)          179.9246         estimate D2E/DX2                !
 ! D43   D(6,7,8,9)           -180.0            estimate D2E/DX2                !
 ! D44   D(6,7,8,33)            60.185          estimate D2E/DX2                !
 ! D45   D(6,7,8,34)           -60.1852         estimate D2E/DX2                !
 ! D46   D(31,7,8,9)           -57.974          estimate D2E/DX2                !
 ! D47   D(31,7,8,33)         -177.789          estimate D2E/DX2                !
 ! D48   D(31,7,8,34)           61.8407         estimate D2E/DX2                !
 ! D49   D(32,7,8,9)            57.9747         estimate D2E/DX2                !
 ! D50   D(32,7,8,33)          -61.8403         estimate D2E/DX2                !
 ! D51   D(32,7,8,34)          177.7895         estimate D2E/DX2                !
 ! D52   D(7,8,9,10)          -179.9998         estimate D2E/DX2                !
 ! D53   D(33,8,9,10)          -59.7752         estimate D2E/DX2                !
 ! D54   D(34,8,9,10)           59.7759         estimate D2E/DX2                !
 ! D55   D(8,9,10,11)          179.9995         estimate D2E/DX2                !
 ! D56   D(8,9,10,35)           59.6913         estimate D2E/DX2                !
 ! D57   D(8,9,10,36)          -59.6925         estimate D2E/DX2                !
 ! D58   D(9,10,11,12)         179.9996         estimate D2E/DX2                !
 ! D59   D(9,10,11,37)          58.1876         estimate D2E/DX2                !
 ! D60   D(9,10,11,38)         -58.1878         estimate D2E/DX2                !
 ! D61   D(35,10,11,12)        -60.0437         estimate D2E/DX2                !
 ! D62   D(35,10,11,37)        178.1443         estimate D2E/DX2                !
 ! D63   D(35,10,11,38)         61.7689         estimate D2E/DX2                !
 ! D64   D(36,10,11,12)         60.0432         estimate D2E/DX2                !
 ! D65   D(36,10,11,37)        -61.7688         estimate D2E/DX2                !
 ! D66   D(36,10,11,38)       -178.1441         estimate D2E/DX2                !
 ! D67   D(10,11,12,13)       -179.9998         estimate D2E/DX2                !
 ! D68   D(10,11,12,39)         58.6552         estimate D2E/DX2                !
 ! D69   D(10,11,12,40)        -58.6547         estimate D2E/DX2                !
 ! D70   D(37,11,12,13)        -58.7135         estimate D2E/DX2                !
 ! D71   D(37,11,12,39)        179.9415         estimate D2E/DX2                !
 ! D72   D(37,11,12,40)         62.6316         estimate D2E/DX2                !
 ! D73   D(38,11,12,13)         58.7132         estimate D2E/DX2                !
 ! D74   D(38,11,12,39)        -62.6319         estimate D2E/DX2                !
 ! D75   D(38,11,12,40)       -179.9418         estimate D2E/DX2                !
 ! D76   D(11,12,13,14)        179.9999         estimate D2E/DX2                !
 ! D77   D(11,12,13,41)         58.865          estimate D2E/DX2                !
 ! D78   D(11,12,13,42)        -58.8647         estimate D2E/DX2                !
 ! D79   D(39,12,13,14)        -58.6796         estimate D2E/DX2                !
 ! D80   D(39,12,13,41)       -179.8145         estimate D2E/DX2                !
 ! D81   D(39,12,13,42)         62.4559         estimate D2E/DX2                !
 ! D82   D(40,12,13,14)         58.6792         estimate D2E/DX2                !
 ! D83   D(40,12,13,41)        -62.4557         estimate D2E/DX2                !
 ! D84   D(40,12,13,42)        179.8146         estimate D2E/DX2                !
 ! D85   D(12,13,14,15)        179.9996         estimate D2E/DX2                !
 ! D86   D(12,13,14,43)         58.4316         estimate D2E/DX2                !
 ! D87   D(12,13,14,44)        -58.4312         estimate D2E/DX2                !
 ! D88   D(41,13,14,15)        -58.9274         estimate D2E/DX2                !
 ! D89   D(41,13,14,43)        179.5046         estimate D2E/DX2                !
 ! D90   D(41,13,14,44)         62.6418         estimate D2E/DX2                !
 ! D91   D(42,13,14,15)         58.9264         estimate D2E/DX2                !
 ! D92   D(42,13,14,43)        -62.6416         estimate D2E/DX2                !
 ! D93   D(42,13,14,44)       -179.5043         estimate D2E/DX2                !
 ! D94   D(13,14,15,16)       -179.9999         estimate D2E/DX2                !
 ! D95   D(13,14,15,45)         60.52           estimate D2E/DX2                !
 ! D96   D(13,14,15,46)        -60.5189         estimate D2E/DX2                !
 ! D97   D(43,14,15,16)        -57.8931         estimate D2E/DX2                !
 ! D98   D(43,14,15,45)       -177.3732         estimate D2E/DX2                !
 ! D99   D(43,14,15,46)         61.5878         estimate D2E/DX2                !
 ! D100  D(44,14,15,16)         57.8923         estimate D2E/DX2                !
 ! D101  D(44,14,15,45)        -61.5878         estimate D2E/DX2                !
 ! D102  D(44,14,15,46)        177.3732         estimate D2E/DX2                !
 ! D103  D(14,15,16,17)       -179.9997         estimate D2E/DX2                !
 ! D104  D(45,15,16,17)        -59.7509         estimate D2E/DX2                !
 ! D105  D(46,15,16,17)         59.7505         estimate D2E/DX2                !
 ! D106  D(15,16,17,18)       -179.9999         estimate D2E/DX2                !
 ! D107  D(16,17,18,19)        179.9999         estimate D2E/DX2                !
 ! D108  D(16,17,18,47)         59.8292         estimate D2E/DX2                !
 ! D109  D(16,17,18,48)        -59.8291         estimate D2E/DX2                !
 ! D110  D(17,18,19,49)        -58.9877         estimate D2E/DX2                !
 ! D111  D(17,18,19,50)        179.9997         estimate D2E/DX2                !
 ! D112  D(17,18,19,51)         58.988          estimate D2E/DX2                !
 ! D113  D(47,18,19,49)         60.4869         estimate D2E/DX2                !
 ! D114  D(47,18,19,50)        -60.5257         estimate D2E/DX2                !
 ! D115  D(47,18,19,51)        178.4626         estimate D2E/DX2                !
 ! D116  D(48,18,19,49)       -178.4624         estimate D2E/DX2                !
 ! D117  D(48,18,19,50)         60.525          estimate D2E/DX2                !
 ! D118  D(48,18,19,51)        -60.4867         estimate D2E/DX2                !
 --------------------------------------------------------------------------------
 Trust Radius=3.00D-01 FncErr=1.00D-07 GrdErr=1.00D-06 EigMax=2.50D+02 EigMin=1.00D-04
 Number of steps in this run=    272 maximum allowed number of steps=    306.
 GradGradGradGradGradGradGradGradGradGradGradGradGradGradGradGradGradGrad

 Stoichiometry    C15H32O4
 Framework group  C1[X(C15H32O4)]
 Deg. of freedom   147
 Full point group                 C1      NOp   1
 Largest Abelian subgroup         C1      NOp   1
 Largest concise Abelian subgroup C1      NOp   1
                         Standard orientation:                         
 ---------------------------------------------------------------------
 Center     Atomic      Atomic             Coordinates (Angstroms)
 Number     Number       Type             X           Y           Z
 ---------------------------------------------------------------------
      1          6           0      -10.928333   -0.370136   -0.000004
      2          6           0       -9.667045    0.474674    0.000001
      3          6           0       -8.435173   -0.415148   -0.000001
      4          8           0       -7.264106    0.396656    0.000001
      5          6           0       -6.100514   -0.426710    0.000000
      6          6           0       -4.871541    0.460878    0.000003
      7          6           0       -3.607380   -0.385733   -0.000002
      8          6           0       -2.381146    0.504042    0.000001
      9          8           0       -1.221089   -0.321180   -0.000006
     10          6           0       -0.052762    0.490346    0.000000
     11          6           0        1.170008   -0.406890    0.000006
     12          6           0        2.429603    0.447151    0.000001
     13          6           0        3.676073   -0.424099    0.000001
     14          6           0        4.925431    0.444408   -0.000006
     15          6           0        6.176426   -0.414301    0.000003
     16          8           0        7.301249    0.456395   -0.000001
     17          8           0        8.454124   -0.427753   -0.000000
     18          6           0        9.582303    0.439010   -0.000001
     19          6           0       10.826710   -0.421164    0.000003
     20          1           0      -11.817872    0.265563    0.000002
     21          1           0      -10.965233   -1.012267    0.886251
     22          1           0      -10.965229   -1.012273   -0.886248
     23          1           0       -9.651585    1.132958    0.876571
     24          1           0       -9.651584    1.132954   -0.876566
     25          1           0       -8.432905   -1.051972   -0.892177
     26          1           0       -8.432909   -1.051965    0.892177
     27          1           0       -6.102877   -1.062445   -0.892758
     28          1           0       -6.102878   -1.062444    0.892767
     29          1           0       -4.891579    1.121042    0.875958
     30          1           0       -4.891580    1.121043   -0.875956
     31          1           0       -3.584368   -1.045935   -0.875896
     32          1           0       -3.584367   -1.045935    0.875896
     33          1           0       -2.376833    1.139372    0.892924
     34          1           0       -2.376838    1.139377   -0.892923
     35          1           0       -0.050808    1.126802    0.892335
     36          1           0       -0.050805    1.126796   -0.892335
     37          1           0        1.148148   -1.065360   -0.876656
     38          1           0        1.148150   -1.065361    0.876667
     39          1           0        2.433780    1.099067    0.882035
     40          1           0        2.433781    1.099065   -0.882036
     41          1           0        3.674100   -1.073553   -0.883069
     42          1           0        3.674098   -1.073550    0.883067
     43          1           0        4.933509    1.105115    0.875401
     44          1           0        4.933509    1.105114   -0.875407
     45          1           0        6.208065   -1.048005   -0.892509
     46          1           0        6.208065   -1.048003    0.892505
     47          1           0        9.554152    1.071860    0.892762
     48          1           0        9.554152    1.071858   -0.892763
     49          1           0       10.840553   -1.073276    0.879250
     50          1           0       11.728258    0.196711   -0.000002
     51          1           0       10.840550   -1.073274   -0.879249
 ---------------------------------------------------------------------
 Rotational constants (GHZ):           4.8645427           0.0408875           0.0407011
 Standard basis: 6-31G(2df,p) (6D, 7F)
 There are   749 symmetry adapted cartesian basis functions of A   symmetry.
 There are   692 symmetry adapted basis functions of A   symmetry.
   692 basis functions,  1060 primitive gaussians,   749 cartesian basis functions
    77 alpha electrons       77 beta electrons
       nuclear repulsion energy      1315.8992017736 Hartrees.
 NAtoms=   51 NActive=   51 NUniq=   51 SFac= 1.00D+00 NAtFMM=   60 NAOKFM=F Big=F
 Integral buffers will be    131072 words long.
 Raffenetti 2 integral format.
 Two-electron integral symmetry is turned on.
 One-electron integrals computed using PRISM.
 PrsmSu:  requested number of processors reduced to:  12 ShMem   1 Linda.
 NBasis=   692 RedAO= T EigKep=  5.24D-04  NBF=   692
 NBsUse=   692 1.00D-06 EigRej= -1.00D+00 NBFU=   692
 ExpMin= 1.61D-01 ExpMax= 5.48D+03 ExpMxC= 8.25D+02 IAcc=3 IRadAn=         5 AccDes= 0.00D+00
 Harris functional with IExCor=  402 and IRadAn=       5 diagonalized for initial guess.
 HarFok:  IExCor=  402 AccDes= 0.00D+00 IRadAn=         5 IDoV= 1 UseB2=F ITyADJ=14
 ICtDFT=  3500011 ScaDFX=  1.000000  1.000000  1.000000  1.000000
 FoFCou: FMM=F IPFlag=           0 FMFlag=      100000 FMFlg1=           0
         NFxFlg=           0 DoJE=T BraDBF=F KetDBF=T FulRan=T
         wScrn=  0.000000 ICntrl=       500 IOpCl=  0 I1Cent=   200000004 NGrid=           0
         NMat0=    1 NMatS0=      1 NMatT0=    0 NMatD0=    1 NMtDS0=    0 NMtDT0=    0
 Petite list used in FoFCou.
 Requested convergence on RMS density matrix=1.00D-08 within 128 cycles.
 Requested convergence on MAX density matrix=1.00D-06.
 Requested convergence on             energy=1.00D-06.
 No special actions if energy rises.
 Integral accuracy reduced to 1.0D-05 until final iterations.
 Initial convergence to 1.0D-05 achieved.  Increase integral accuracy.
 SCF Done:  E(RB3LYP) =  -891.726296533     A.U. after   13 cycles
            NFock= 13  Conv=0.31D-08     -V/T= 2.0075

 **********************************************************************

            Population analysis using the SCF density.

 **********************************************************************

 Orbital symmetries:
       Occupied  (A) (A) (A) (A) (A) (A) (A) (A) (A) (A) (A) (A)
                 (A) (A) (A) (A) (A) (A) (A) (A) (A) (A) (A) (A)
                 (A) (A) (A) (A) (A) (A) (A) (A) (A) (A) (A) (A)
                 (A) (A) (A) (A) (A) (A) (A) (A) (A) (A) (A) (A)
                 (A) (A) (A) (A) (A) (A) (A) (A) (A) (A) (A) (A)
                 (A) (A) (A) (A) (A) (A) (A) (A) (A) (A) (A) (A)
                 (A) (A) (A) (A) (A)
       Virtual   (A) (A) (A) (A) (A) (A) (A) (A) (A) (A) (A) (A)
                 (A) (A) (A) (A) (A) (A) (A) (A) (A) (A) (A) (A)
                 (A) (A) (A) (A) (A) (A) (A) (A) (A) (A) (A) (A)
                 (A) (A) (A) (A) (A) (A) (A) (A) (A) (A) (A) (A)
                 (A) (A) (A) (A) (A) (A) (A) (A) (A) (A) (A) (A)
                 (A) (A) (A) (A) (A) (A) (A) (A) (A) (A) (A) (A)
                 (A) (A) (A) (A) (A) (A) (A) (A) (A) (A) (A) (A)
                 (A) (A) (A) (A) (A) (A) (A) (A) (A) (A) (A) (A)
                 (A) (A) (A) (A) (A) (A) (A) (A) (A) (A) (A) (A)
                 (A) (A) (A) (A) (A) (A) (A) (A) (A) (A) (A) (A)
                 (A) (A) (A) (A) (A) (A) (A) (A) (A) (A) (A) (A)
                 (A) (A) (A) (A) (A) (A) (A) (A) (A) (A) (A) (A)
                 (A) (A) (A) (A) (A) (A) (A) (A) (A) (A) (A) (A)
                 (A) (A) (A) (A) (A) (A) (A) (A) (A) (A) (A) (A)
                 (A) (A) (A) (A) (A) (A) (A) (A) (A) (A) (A) (A)
                 (A) (A) (A) (A) (A) (A) (A) (A) (A) (A) (A) (A)
                 (A) (A) (A) (A) (A) (A) (A) (A) (A) (A) (A) (A)
                 (A) (A) (A) (A) (A) (A) (A) (A) (A) (A) (A) (A)
                 (A) (A) (A) (A) (A) (A) (A) (A) (A) (A) (A) (A)
                 (A) (A) (A) (A) (A) (A) (A) (A) (A) (A) (A) (A)
                 (A) (A) (A) (A) (A) (A) (A) (A) (A) (A) (A) (A)
                 (A) (A) (A) (A) (A) (A) (A) (A) (A) (A) (A) (A)
                 (A) (A) (A) (A) (A) (A) (A) (A) (A) (A) (A) (A)
                 (A) (A) (A) (A) (A) (A) (A) (A) (A) (A) (A) (A)
                 (A) (A) (A) (A) (A) (A) (A) (A) (A) (A) (A) (A)
                 (A) (A) (A) (A) (A) (A) (A) (A) (A) (A) (A) (A)
                 (A) (A) (A) (A) (A) (A) (A) (A) (A) (A) (A) (A)
                 (A) (A) (A) (A) (A) (A) (A) (A) (A) (A) (A) (A)
                 (A) (A) (A) (A) (A) (A) (A) (A) (A) (A) (A) (A)
                 (A) (A) (A) (A) (A) (A) (A) (A) (A) (A) (A) (A)
                 (A) (A) (A) (A) (A) (A) (A) (A) (A) (A) (A) (A)
                 (A) (A) (A) (A) (A) (A) (A) (A) (A) (A) (A) (A)
                 (A) (A) (A) (A) (A) (A) (A) (A) (A) (A) (A) (A)
                 (A) (A) (A) (A) (A) (A) (A) (A) (A) (A) (A) (A)
                 (A) (A) (A) (A) (A) (A) (A) (A) (A) (A) (A) (A)
                 (A) (A) (A) (A) (A) (A) (A) (A) (A) (A) (A) (A)
                 (A) (A) (A) (A) (A) (A) (A) (A) (A) (A) (A) (A)
                 (A) (A) (A) (A) (A) (A) (A) (A) (A) (A) (A) (A)
                 (A) (A) (A) (A) (A) (A) (A) (A) (A) (A) (A) (A)
                 (A) (A) (A) (A) (A) (A) (A) (A) (A) (A) (A) (A)
                 (A) (A) (A) (A) (A) (A) (A) (A) (A) (A) (A) (A)
                 (A) (A) (A) (A) (A) (A) (A) (A) (A) (A) (A) (A)
                 (A) (A) (A) (A) (A) (A) (A) (A) (A) (A) (A) (A)
                 (A) (A) (A) (A) (A) (A) (A) (A) (A) (A) (A) (A)
                 (A) (A) (A) (A) (A) (A) (A) (A) (A) (A) (A) (A)
                 (A) (A) (A) (A) (A) (A) (A) (A) (A) (A) (A) (A)
                 (A) (A) (A) (A) (A) (A) (A) (A) (A) (A) (A) (A)
                 (A) (A) (A) (A) (A) (A) (A) (A) (A) (A) (A) (A)
                 (A) (A) (A) (A) (A) (A) (A) (A) (A) (A) (A) (A)
                 (A) (A) (A) (A) (A) (A) (A) (A) (A) (A) (A) (A)
                 (A) (A) (A) (A) (A) (A) (A) (A) (A) (A) (A) (A)
                 (A) (A) (A)
 The electronic state is 1-A.
 Alpha  occ. eigenvalues --  -19.17724 -19.17710 -19.13019 -19.12943 -10.22385
 Alpha  occ. eigenvalues --  -10.22060 -10.21948 -10.21939 -10.21872 -10.21845
 Alpha  occ. eigenvalues --  -10.18108 -10.18046 -10.17948 -10.17923 -10.17694
 Alpha  occ. eigenvalues --  -10.17671 -10.17555 -10.17458 -10.17338  -1.10259
 Alpha  occ. eigenvalues --   -1.02140  -1.01920  -0.91773  -0.81388  -0.80086
 Alpha  occ. eigenvalues --   -0.77947  -0.76518  -0.73922  -0.71702  -0.68540
 Alpha  occ. eigenvalues --   -0.65750  -0.62105  -0.60773  -0.60255  -0.59208
 Alpha  occ. eigenvalues --   -0.58367  -0.58265  -0.57478  -0.50576  -0.49981
 Alpha  occ. eigenvalues --   -0.49332  -0.48483  -0.48203  -0.47335  -0.47317
 Alpha  occ. eigenvalues --   -0.46236  -0.45428  -0.44636  -0.44160  -0.42630
 Alpha  occ. eigenvalues --   -0.42600  -0.40816  -0.40160  -0.39715  -0.38464
 Alpha  occ. eigenvalues --   -0.38454  -0.37953  -0.36866  -0.36450  -0.36283
 Alpha  occ. eigenvalues --   -0.35814  -0.35258  -0.35125  -0.33956  -0.33800
 Alpha  occ. eigenvalues --   -0.33162  -0.32994  -0.32795  -0.32460  -0.32412
 Alpha  occ. eigenvalues --   -0.31190  -0.31102  -0.30687  -0.30438  -0.25037
 Alpha  occ. eigenvalues --   -0.24848  -0.22298
 Alpha virt. eigenvalues --    0.04133   0.08315   0.08829   0.09301   0.09843
 Alpha virt. eigenvalues --    0.10426   0.11033   0.11073   0.11619   0.12236
 Alpha virt. eigenvalues --    0.12509   0.13405   0.13993   0.14266   0.15255
 Alpha virt. eigenvalues --    0.15455   0.15732   0.15855   0.16105   0.17010
 Alpha virt. eigenvalues --    0.17275   0.17444   0.17941   0.17992   0.18383
 Alpha virt. eigenvalues --    0.19365   0.19445   0.19716   0.19887   0.20059
 Alpha virt. eigenvalues --    0.20268   0.20460   0.20561   0.20881   0.21326
 Alpha virt. eigenvalues --    0.21498   0.21895   0.22089   0.22118   0.23259
 Alpha virt. eigenvalues --    0.23857   0.24379   0.24558   0.25177   0.26019
 Alpha virt. eigenvalues --    0.26548   0.29864   0.32177   0.33523   0.35672
 Alpha virt. eigenvalues --    0.39326   0.41673   0.43868   0.45900   0.47783
 Alpha virt. eigenvalues --    0.48323   0.48527   0.48946   0.49637   0.50244
 Alpha virt. eigenvalues --    0.51241   0.51548   0.51570   0.51708   0.51762
 Alpha virt. eigenvalues --    0.51851   0.52027   0.52724   0.53444   0.53873
 Alpha virt. eigenvalues --    0.54466   0.54699   0.55266   0.56831   0.57199
 Alpha virt. eigenvalues --    0.58764   0.59455   0.59756   0.60316   0.61107
 Alpha virt. eigenvalues --    0.61535   0.62011   0.62875   0.63250   0.64215
 Alpha virt. eigenvalues --    0.64282   0.65097   0.65843   0.67566   0.67638
 Alpha virt. eigenvalues --    0.68415   0.69645   0.70400   0.70542   0.71024
 Alpha virt. eigenvalues --    0.71630   0.72047   0.72409   0.72959   0.73257
 Alpha virt. eigenvalues --    0.73757   0.74591   0.74943   0.75013   0.75271
 Alpha virt. eigenvalues --    0.75506   0.75998   0.76034   0.76739   0.76761
 Alpha virt. eigenvalues --    0.76999   0.77272   0.77406   0.77762   0.79272
 Alpha virt. eigenvalues --    0.79281   0.79768   0.79904   0.80230   0.81218
 Alpha virt. eigenvalues --    0.81766   0.82158   0.82348   0.82840   0.84027
 Alpha virt. eigenvalues --    0.84735   0.86269   0.86739   0.87397   0.87844
 Alpha virt. eigenvalues --    0.88480   0.88598   0.88856   0.89160   0.89501
 Alpha virt. eigenvalues --    0.90379   0.91529   0.91934   0.93534   0.94990
 Alpha virt. eigenvalues --    0.96642   0.96660   0.99466   1.00398   1.01965
 Alpha virt. eigenvalues --    1.02604   1.02882   1.03468   1.05013   1.05573
 Alpha virt. eigenvalues --    1.09245   1.10163   1.12080   1.13969   1.14336
 Alpha virt. eigenvalues --    1.16035   1.16951   1.16963   1.18064   1.18682
 Alpha virt. eigenvalues --    1.18751   1.19454   1.19829   1.20532   1.20980
 Alpha virt. eigenvalues --    1.21853   1.22786   1.24158   1.24863   1.25014
 Alpha virt. eigenvalues --    1.26643   1.27160   1.27891   1.29239   1.30728
 Alpha virt. eigenvalues --    1.31444   1.33462   1.35336   1.36965   1.37343
 Alpha virt. eigenvalues --    1.37612   1.37902   1.38296   1.38561   1.39317
 Alpha virt. eigenvalues --    1.39616   1.40780   1.41944   1.42064   1.43103
 Alpha virt. eigenvalues --    1.43215   1.43441   1.44570   1.46960   1.47871
 Alpha virt. eigenvalues --    1.49115   1.50586   1.50940   1.51460   1.52948
 Alpha virt. eigenvalues --    1.53530   1.56561   1.57306   1.58567   1.59069
 Alpha virt. eigenvalues --    1.60919   1.61038   1.61953   1.62023   1.62294
 Alpha virt. eigenvalues --    1.63773   1.66464   1.67494   1.67531   1.68057
 Alpha virt. eigenvalues --    1.70248   1.71042   1.71219   1.71764   1.73499
 Alpha virt. eigenvalues --    1.75239   1.75529   1.77988   1.78204   1.78700
 Alpha virt. eigenvalues --    1.79516   1.80618   1.81736   1.81877   1.82240
 Alpha virt. eigenvalues --    1.83521   1.84806   1.85251   1.85548   1.86561
 Alpha virt. eigenvalues --    1.87753   1.88248   1.90665   1.91778   1.92640
 Alpha virt. eigenvalues --    1.93006   1.93438   1.94093   1.94926   1.95231
 Alpha virt. eigenvalues --    1.95622   1.95709   1.96146   1.96947   1.99128
 Alpha virt. eigenvalues --    1.99984   2.02968   2.12804   2.13933   2.15550
 Alpha virt. eigenvalues --    2.15838   2.16379   2.17358   2.17968   2.18337
 Alpha virt. eigenvalues --    2.19012   2.19552   2.20098   2.20450   2.21030
 Alpha virt. eigenvalues --    2.22674   2.26536   2.26639   2.29230   2.30657
 Alpha virt. eigenvalues --    2.32282   2.32429   2.32807   2.33733   2.35812
 Alpha virt. eigenvalues --    2.36567   2.36724   2.38251   2.39401   2.40640
 Alpha virt. eigenvalues --    2.42745   2.42835   2.45607   2.48958   2.53707
 Alpha virt. eigenvalues --    2.54282   2.55172   2.56104   2.56714   2.59660
 Alpha virt. eigenvalues --    2.60382   2.63694   2.65228   2.67615   2.68721
 Alpha virt. eigenvalues --    2.69149   2.70814   2.71463   2.73213   2.73375
 Alpha virt. eigenvalues --    2.73901   2.74044   2.74336   2.74405   2.74711
 Alpha virt. eigenvalues --    2.76140   2.76407   2.76556   2.76816   2.76954
 Alpha virt. eigenvalues --    2.77749   2.78007   2.78397   2.79166   2.79364
 Alpha virt. eigenvalues --    2.80353   2.81610   2.82098   2.82639   2.83264
 Alpha virt. eigenvalues --    2.83564   2.84469   2.84603   2.84806   2.85820
 Alpha virt. eigenvalues --    2.86854   2.86858   2.87002   2.88015   2.88351
 Alpha virt. eigenvalues --    2.89716   2.90746   2.91193   2.92030   2.93698
 Alpha virt. eigenvalues --    2.94038   2.94129   2.94941   2.95728   2.96549
 Alpha virt. eigenvalues --    2.96944   2.97959   2.98655   2.99166   2.99538
 Alpha virt. eigenvalues --    3.00345   3.01542   3.01609   3.03710   3.04273
 Alpha virt. eigenvalues --    3.05854   3.06302   3.08517   3.09527   3.12622
 Alpha virt. eigenvalues --    3.14944   3.16414   3.18010   3.20167   3.21077
 Alpha virt. eigenvalues --    3.21835   3.23350   3.24795   3.26953   3.27843
 Alpha virt. eigenvalues --    3.29119   3.29424   3.29976   3.30734   3.32235
 Alpha virt. eigenvalues --    3.32557   3.34721   3.35296   3.36113   3.36674
 Alpha virt. eigenvalues --    3.36825   3.38298   3.38653   3.39102   3.39851
 Alpha virt. eigenvalues --    3.40409   3.40930   3.41391   3.44052   3.46978
 Alpha virt. eigenvalues --    3.46987   3.47909   3.48253   3.50683   3.50982
 Alpha virt. eigenvalues --    3.53775   3.55224   3.55307   3.56381   3.56988
 Alpha virt. eigenvalues --    3.57199   3.58522   3.58875   3.60240   3.60403
 Alpha virt. eigenvalues --    3.60699   3.61682   3.62305   3.64730   3.65169
 Alpha virt. eigenvalues --    3.66121   3.66567   3.67096   3.68704   3.72059
 Alpha virt. eigenvalues --    3.73289   3.73551   3.73989   3.74392   3.74401
 Alpha virt. eigenvalues --    3.75848   3.76897   3.78200   3.78684   3.79385
 Alpha virt. eigenvalues --    3.79828   3.80392   3.81553   3.82116   3.82676
 Alpha virt. eigenvalues --    3.85200   3.87419   3.90579   3.90633   3.91351
 Alpha virt. eigenvalues --    3.97645   3.99521   4.03159   4.04702   4.07167
 Alpha virt. eigenvalues --    4.08715   4.08953   4.09737   4.14025   4.20975
 Alpha virt. eigenvalues --    4.23850   4.24843   4.27566   4.30079   4.32938
 Alpha virt. eigenvalues --    4.34094   4.36430   4.36918   4.37497   4.38737
 Alpha virt. eigenvalues --    4.39690   4.39853   4.40998   4.41473   4.41779
 Alpha virt. eigenvalues --    4.42514   4.43231   4.43491   4.44484   4.44501
 Alpha virt. eigenvalues --    4.45709   4.45745   4.46495   4.46540   4.47493
 Alpha virt. eigenvalues --    4.48547   4.49207   4.49697   4.50119   4.50550
 Alpha virt. eigenvalues --    4.50600   4.51613   4.51851   4.53482   4.53799
 Alpha virt. eigenvalues --    4.54693   4.55324   4.55855   4.56449   4.57246
 Alpha virt. eigenvalues --    4.57287   4.57744   4.58158   4.58358   4.58843
 Alpha virt. eigenvalues --    4.59387   4.60020   4.60142   4.61870   4.62805
 Alpha virt. eigenvalues --    4.63207   4.63260   4.63286   4.64147   4.64789
 Alpha virt. eigenvalues --    4.64827   4.65046   4.65305   4.66162   4.66455
 Alpha virt. eigenvalues --    4.67084   4.67420   4.67693   4.69669   4.71522
 Alpha virt. eigenvalues --    4.72043   4.74028   4.75123   4.75488   4.76307
 Alpha virt. eigenvalues --    4.76414   4.76879   4.76991   4.77226   4.77444
 Alpha virt. eigenvalues --    4.78178   4.79687   4.80272   4.80744   4.83156
 Alpha virt. eigenvalues --    4.83642   4.83807   4.84702   4.85041   4.85413
 Alpha virt. eigenvalues --    4.86187   4.88323   4.89379   4.90324   4.91971
 Alpha virt. eigenvalues --    4.92310   4.93406   4.94122   4.94857   4.95837
 Alpha virt. eigenvalues --    4.96046   4.96304   4.97745   4.98634   4.98757
 Alpha virt. eigenvalues --    5.00181   5.00794   5.04265   5.08176   5.09072
 Alpha virt. eigenvalues --    5.11660   5.12798   5.17581   5.21374   5.26041
 Alpha virt. eigenvalues --    5.28107   5.33653   5.36769   5.38858   5.39943
 Alpha virt. eigenvalues --    5.41582   5.42488   5.43508   5.43792   5.45485
 Alpha virt. eigenvalues --    5.48665   5.49983   5.50412   5.52584   5.54620
 Alpha virt. eigenvalues --    5.57892   5.58178   5.59084   5.59877   5.62373
 Alpha virt. eigenvalues --    5.65245   5.66339   5.77231   5.83895   5.86686
 Alpha virt. eigenvalues --    5.87481   5.89508   5.90529   5.91245   5.97134
 Alpha virt. eigenvalues --    6.02154   6.02516   6.02595   6.05405   6.13310
 Alpha virt. eigenvalues --    6.15529   6.20388   6.26752   6.26986   6.35326
 Alpha virt. eigenvalues --    6.37558   6.46696   6.88460   7.06653   7.08229
 Alpha virt. eigenvalues --    7.20741  11.13861  11.16226  11.19649  11.21171
 Alpha virt. eigenvalues --   11.46982  11.66945  11.78719  11.83592  11.84849
 Alpha virt. eigenvalues --   12.00040  12.08203  12.16033  12.23135  12.34042
 Alpha virt. eigenvalues --   12.48550  13.19525  13.46805  13.48859  13.62384
          Condensed to atoms (all electrons):
 Mulliken charges:
               1
     1  C   -0.375147
     2  C   -0.186560
     3  C   -0.021013
     4  O   -0.266070
     5  C   -0.048707
     6  C   -0.199824
     7  C   -0.199802
     8  C   -0.048356
     9  O   -0.264375
    10  C   -0.045654
    11  C   -0.206305
    12  C   -0.171580
    13  C   -0.179505
    14  C   -0.213895
    15  C   -0.009135
    16  O   -0.204257
    17  O   -0.194873
    18  C    0.010097
    19  C   -0.397224
    20  H    0.113924
    21  H    0.114651
    22  H    0.114652
    23  H    0.104418
    24  H    0.104418
    25  H    0.082719
    26  H    0.082719
    27  H    0.085206
    28  H    0.085205
    29  H    0.104637
    30  H    0.104636
    31  H    0.104559
    32  H    0.104558
    33  H    0.085178
    34  H    0.085176
    35  H    0.083243
    36  H    0.083244
    37  H    0.103127
    38  H    0.103127
    39  H    0.096014
    40  H    0.096014
    41  H    0.098847
    42  H    0.098847
    43  H    0.106332
    44  H    0.106334
    45  H    0.096413
    46  H    0.096415
    47  H    0.097888
    48  H    0.097889
    49  H    0.129168
    50  H    0.123459
    51  H    0.129167
 Sum of Mulliken charges =  -0.00000
 Mulliken charges with hydrogens summed into heavy atoms:
               1
     1  C   -0.031920
     2  C    0.022277
     3  C    0.144425
     4  O   -0.266070
     5  C    0.121704
     6  C    0.009449
     7  C    0.009316
     8  C    0.121998
     9  O   -0.264375
    10  C    0.120832
    11  C   -0.000051
    12  C    0.020449
    13  C    0.018189
    14  C   -0.001229
    15  C    0.183692
    16  O   -0.204257
    17  O   -0.194873
    18  C    0.205874
    19  C   -0.015431
 Electronic spatial extent (au):  <R**2>=          25397.8799
 Charge=             -0.0000 electrons
 Dipole moment (field-independent basis, Debye):
    X=             -0.1668    Y=              0.0279    Z=              0.0000  Tot=              0.1692
 Quadrupole moment (field-independent basis, Debye-Ang):
   XX=           -110.2544   YY=           -121.9662   ZZ=           -118.1146
   XY=              6.7151   XZ=              0.0001   YZ=             -0.0000
 Traceless Quadrupole moment (field-independent basis, Debye-Ang):
   XX=              6.5240   YY=             -5.1878   ZZ=             -1.3362
   XY=              6.7151   XZ=              0.0001   YZ=             -0.0000
 Octapole moment (field-independent basis, Debye-Ang**2):
  XXX=            110.0270  YYY=              0.4573  ZZZ=             -0.0000  XYY=             12.3195
  XXY=            -20.2571  XXZ=             -0.0001  XZZ=             10.3080  YZZ=             -0.3922
  YYZ=             -0.0000  XYZ=             -0.0007
 Hexadecapole moment (field-independent basis, Debye-Ang**3):
 XXXX=         -29508.0271 YYYY=           -398.9875 ZZZZ=           -218.8722 XXXY=            503.0681
 XXXZ=              0.0010 YYYX=            -18.5510 YYYZ=              0.0000 ZZZX=              0.0001
 ZZZY=             -0.0000 XXYY=          -5578.8316 XXZZ=          -5413.1731 YYZZ=            -94.2433
 XXYZ=              0.0006 YYXZ=              0.0005 ZZXY=             -3.8288
 N-N= 1.315899201774D+03 E-N=-4.708832973618D+03  KE= 8.850949851916D+02
 PrsmSu:  requested number of processors reduced to:  12 ShMem   1 Linda.
 Calling FoFJK, ICntrl=      2127 FMM=F ISym2X=0 I1Cent= 0 IOpClX= 0 NMat=1 NMatS=1 NMatT=0.
 ***** Axes restored to original set *****
 -------------------------------------------------------------------
 Center     Atomic                   Forces (Hartrees/Bohr)
 Number     Number              X              Y              Z
 -------------------------------------------------------------------
      1        6          -0.004063706    0.001655769   -0.002392554
      2        6           0.002930909    0.000264325   -0.000381761
      3        6           0.015315360    0.006212597   -0.009006587
      4        8          -0.007209172   -0.005590389    0.008104527
      5        6           0.004127725    0.010850409   -0.015726005
      6        6          -0.002813430    0.000318238   -0.000467139
      7        6           0.002208096    0.000044594   -0.000059742
      8        6          -0.005084046   -0.010737459    0.015563786
      9        8           0.006994018    0.006107061   -0.008853212
     10        6          -0.016448390   -0.006581475    0.009545186
     11        6          -0.000914767    0.003400535   -0.004933103
     12        6          -0.006464957   -0.003778965    0.005477888
     13        6           0.006789161    0.002989443   -0.004339479
     14        6           0.006566259   -0.001967366    0.002861663
     15        6           0.009502142    0.000901468   -0.001318447
     16        8          -0.004666814    0.000856850   -0.001241530
     17        8           0.005736739   -0.002013826    0.002919803
     18        6          -0.003178854    0.000906462   -0.001311539
     19        6          -0.006448176   -0.004248789    0.006155764
     20        1          -0.002114706   -0.000242541    0.000350110
     21        1          -0.001730381    0.000055867   -0.000380824
     22        1          -0.001731411    0.000333267   -0.000188719
     23        1           0.000925730   -0.000622446    0.001645690
     24        1           0.000927185   -0.001318060    0.001163570
     25        1          -0.003633377   -0.003292188    0.001780645
     26        1          -0.003633740   -0.000494945    0.003711307
     27        1          -0.002352178   -0.003645881    0.002526547
     28        1          -0.002351453   -0.001067799    0.004303231
     29        1          -0.001559376    0.000327617    0.000719757
     30        1          -0.001559968   -0.000787967   -0.000048597
     31        1           0.001453793   -0.000248143   -0.000850385
     32        1           0.001454263    0.000881957   -0.000071651
     33        1           0.002225924    0.003763071   -0.002650872
     34        1           0.002225506    0.001141905   -0.004457623
     35        1           0.003275486    0.003398266   -0.001947885
     36        1           0.003276906    0.000612559   -0.003870279
     37        1           0.000241544    0.000130429   -0.001512479
     38        1           0.000241625    0.001368023   -0.000659324
     39        1           0.000974202    0.000304932   -0.000476375
     40        1           0.000973265    0.000337570   -0.000453444
     41        1          -0.000922376   -0.000504562    0.000786789
     42        1          -0.000922501   -0.000555230    0.000753787
     43        1          -0.000650963    0.000215599    0.001241030
     44        1          -0.000650075   -0.001238684    0.000237058
     45        1          -0.001262728   -0.002196968    0.001557247
     46        1          -0.001264143   -0.000672188    0.002611077
     47        1           0.000851870    0.002351766   -0.002200429
     48        1           0.000852309    0.001220619   -0.002980676
     49        1           0.001931130    0.000829135    0.000224807
     50        1          -0.000300904    0.000528900   -0.000766138
     51        1           0.001931446   -0.000503363   -0.000694472
 -------------------------------------------------------------------
 Cartesian Forces:  Max     0.016448390 RMS     0.004211775

 GradGradGradGradGradGradGradGradGradGradGradGradGradGradGradGradGradGrad
 Berny optimization.
 FormGI is forming the generalized inverse of G from B-inverse, IUseBI=4.
 Internal  Forces:  Max     0.016175454 RMS     0.002993853
 Search for a local minimum.
 Step number   1 out of a maximum of  272
 All quantities printed in internal units (Hartrees-Bohrs-Radians)
 Mixed Optimization -- RFO/linear search
 Second derivative matrix not updated -- first step.
 ITU=  0
     Eigenvalues ---    0.00477   0.00481   0.00482   0.00491   0.00506
     Eigenvalues ---    0.00527   0.00536   0.00546   0.00555   0.00567
     Eigenvalues ---    0.00595   0.00597   0.01355   0.01362   0.01379
     Eigenvalues ---    0.01392   0.01394   0.01395   0.03786   0.03799
     Eigenvalues ---    0.03829   0.03837   0.03845   0.03871   0.03899
     Eigenvalues ---    0.04951   0.04967   0.04969   0.04972   0.04976
     Eigenvalues ---    0.04981   0.04991   0.05269   0.05348   0.05359
     Eigenvalues ---    0.05396   0.05457   0.05494   0.05670   0.05682
     Eigenvalues ---    0.05684   0.05829   0.05871   0.05912   0.05922
     Eigenvalues ---    0.05948   0.05951   0.05959   0.07945   0.07985
     Eigenvalues ---    0.08059   0.08062   0.08074   0.08100   0.08131
     Eigenvalues ---    0.11204   0.11213   0.11242   0.11248   0.11273
     Eigenvalues ---    0.11322   0.11887   0.11925   0.11973   0.11980
     Eigenvalues ---    0.11987   0.12013   0.12031   0.13616   0.13616
     Eigenvalues ---    0.13672   0.13688   0.13699   0.13731   0.16000
     Eigenvalues ---    0.16000   0.16000   0.16000   0.16000   0.16000
     Eigenvalues ---    0.21815   0.21823   0.21827   0.21834   0.21835
     Eigenvalues ---    0.21880   0.21885   0.22015   0.22021   0.22035
     Eigenvalues ---    0.22037   0.22040   0.22044   0.25000   0.25000
     Eigenvalues ---    0.25000   0.25000   0.30191   0.30215   0.30226
     Eigenvalues ---    0.30292   0.30402   0.30553   0.30623   0.30692
     Eigenvalues ---    0.30757   0.30849   0.31075   0.34007   0.34007
     Eigenvalues ---    0.34010   0.34011   0.34037   0.34037   0.34040
     Eigenvalues ---    0.34041   0.34058   0.34058   0.34091   0.34091
     Eigenvalues ---    0.34108   0.34109   0.34112   0.34113   0.34122
     Eigenvalues ---    0.34122   0.34130   0.34130   0.34140   0.34141
     Eigenvalues ---    0.34234   0.34235   0.34235   0.34236   0.34267
     Eigenvalues ---    0.34267   0.34278   0.34278   0.34430   0.34473
     Eigenvalues ---    0.37871   0.41651   0.41727   0.41918   0.42057
     Eigenvalues ---    0.42083   0.42095
 RFO step:  Lambda=-1.01074544D-02 EMin= 4.77185793D-03
 Linear search not attempted -- first point.
 Iteration  1 RMS(Cart)=  0.12451245 RMS(Int)=  0.00091187
 Iteration  2 RMS(Cart)=  0.00440729 RMS(Int)=  0.00008926
 Iteration  3 RMS(Cart)=  0.00000650 RMS(Int)=  0.00008926
 Iteration  4 RMS(Cart)=  0.00000000 RMS(Int)=  0.00008926
 Variable       Old X    -DE/DX   Delta X   Delta X   Delta X     New X
                                 (Linear)    (Quad)   (Total)
    R1        2.86875   0.00971   0.00000   0.03077   0.03077   2.89952
    R2        2.06611   0.00030   0.00000   0.00084   0.00084   2.06695
    R3        2.06935   0.00034   0.00000   0.00095   0.00095   2.07030
    R4        2.06934   0.00034   0.00000   0.00096   0.00096   2.07030
    R5        2.87169   0.00179   0.00000   0.00571   0.00571   2.87740
    R6        2.07177  -0.00016   0.00000  -0.00045  -0.00045   2.07133
    R7        2.07176  -0.00015   0.00000  -0.00044  -0.00044   2.07133
    R8        2.69273  -0.00316   0.00000  -0.00739  -0.00739   2.68534
    R9        2.07141   0.00418   0.00000   0.01190   0.01190   2.08331
   R10        2.07141   0.00418   0.00000   0.01190   0.01190   2.08331
   R11        2.69369  -0.00370   0.00000  -0.00867  -0.00867   2.68502
   R12        2.86478   0.00453   0.00000   0.01425   0.01425   2.87904
   R13        2.07111   0.00403   0.00000   0.01147   0.01147   2.08258
   R14        2.07112   0.00403   0.00000   0.01146   0.01146   2.08258
   R15        2.87515   0.00864   0.00000   0.02765   0.02765   2.90280
   R16        2.07312  -0.00018   0.00000  -0.00051  -0.00051   2.07261
   R17        2.07313  -0.00018   0.00000  -0.00052  -0.00052   2.07261
   R18        2.86301   0.00532   0.00000   0.01669   0.01669   2.87971
   R19        2.07318  -0.00021   0.00000  -0.00061  -0.00061   2.07258
   R20        2.07319  -0.00021   0.00000  -0.00061  -0.00061   2.07258
   R21        2.69027  -0.00164   0.00000  -0.00383  -0.00383   2.68645
   R22        2.07093   0.00409   0.00000   0.01162   0.01162   2.08255
   R23        2.07094   0.00408   0.00000   0.01162   0.01162   2.08255
   R24        2.68817  -0.00091   0.00000  -0.00210  -0.00210   2.68607
   R25        2.86603   0.00508   0.00000   0.01603   0.01603   2.88207
   R26        2.07125   0.00415   0.00000   0.01181   0.01181   2.08306
   R27        2.07124   0.00415   0.00000   0.01182   0.01182   2.08306
   R28        2.87584   0.00957   0.00000   0.03067   0.03067   2.90651
   R29        2.07233  -0.00012   0.00000  -0.00034  -0.00034   2.07199
   R30        2.07233  -0.00012   0.00000  -0.00034  -0.00034   2.07199
   R31        2.87385   0.00986   0.00000   0.03151   0.03151   2.90536
   R32        2.07267   0.00059   0.00000   0.00170   0.00170   2.07437
   R33        2.07268   0.00059   0.00000   0.00169   0.00169   2.07437
   R34        2.87537   0.00900   0.00000   0.02883   0.02883   2.90420
   R35        2.07148   0.00074   0.00000   0.00211   0.00211   2.07359
   R36        2.07147   0.00074   0.00000   0.00212   0.00212   2.07359
   R37        2.86739   0.00465   0.00000   0.01470   0.01470   2.88208
   R38        2.07262   0.00004   0.00000   0.00010   0.00010   2.07272
   R39        2.07261   0.00004   0.00000   0.00011   0.00011   2.07272
   R40        2.68802  -0.00329   0.00000  -0.00764  -0.00764   2.68038
   R41        2.06937   0.00238   0.00000   0.00676   0.00676   2.07613
   R42        2.06935   0.00239   0.00000   0.00678   0.00678   2.07613
   R43        2.74553   0.00197   0.00000   0.00507   0.00507   2.75060
   R44        2.68851  -0.00428   0.00000  -0.00993  -0.00993   2.67857
   R45        2.85870   0.00461   0.00000   0.01438   0.01438   2.87308
   R46        2.06864   0.00236   0.00000   0.00669   0.00669   2.07533
   R47        2.06864   0.00236   0.00000   0.00669   0.00669   2.07533
   R48        2.06881  -0.00013   0.00000  -0.00038  -0.00038   2.06844
   R49        2.06539  -0.00031   0.00000  -0.00088  -0.00088   2.06451
   R50        2.06882  -0.00013   0.00000  -0.00038  -0.00038   2.06844
    A1        1.93094   0.00227   0.00000   0.01323   0.01317   1.94411
    A2        1.93299   0.00163   0.00000   0.00966   0.00960   1.94259
    A3        1.93299   0.00163   0.00000   0.00965   0.00960   1.94259
    A4        1.88970  -0.00205   0.00000  -0.01215  -0.01221   1.87749
    A5        1.88972  -0.00205   0.00000  -0.01216  -0.01222   1.87749
    A6        1.88600  -0.00168   0.00000  -0.00969  -0.00974   1.87626
    A7        1.92587   0.00706   0.00000   0.03188   0.03195   1.95782
    A8        1.92396  -0.00122   0.00000   0.00189   0.00208   1.92604
    A9        1.92395  -0.00122   0.00000   0.00190   0.00209   1.92604
   A10        1.91788  -0.00328   0.00000  -0.02051  -0.02072   1.89716
   A11        1.91788  -0.00328   0.00000  -0.02050  -0.02071   1.89716
   A12        1.85308   0.00161   0.00000   0.00372   0.00340   1.85648
   A13        1.90988  -0.00094   0.00000   0.00085   0.00083   1.91070
   A14        1.91970   0.00030   0.00000  -0.00041  -0.00046   1.91924
   A15        1.91969   0.00030   0.00000  -0.00040  -0.00045   1.91924
   A16        1.90634   0.00118   0.00000   0.01252   0.01252   1.91886
   A17        1.90634   0.00118   0.00000   0.01253   0.01252   1.91886
   A18        1.90175  -0.00200   0.00000  -0.02495  -0.02501   1.87675
   A19        1.91962   0.01399   0.00000   0.05380   0.05380   1.97342
   A20        1.90030   0.00068   0.00000   0.00803   0.00796   1.90826
   A21        1.91059   0.00029   0.00000   0.00717   0.00713   1.91772
   A22        1.91059   0.00029   0.00000   0.00717   0.00713   1.91772
   A23        1.91917   0.00039   0.00000   0.00199   0.00193   1.92110
   A24        1.91916   0.00039   0.00000   0.00200   0.00193   1.92110
   A25        1.90399  -0.00203   0.00000  -0.02616  -0.02617   1.87782
   A26        1.92601   0.00866   0.00000   0.03861   0.03869   1.96470
   A27        1.91508  -0.00345   0.00000  -0.01866  -0.01879   1.89629
   A28        1.91507  -0.00345   0.00000  -0.01865  -0.01878   1.89629
   A29        1.92840  -0.00214   0.00000  -0.00502  -0.00486   1.92354
   A30        1.92839  -0.00214   0.00000  -0.00501  -0.00485   1.92354
   A31        1.84949   0.00211   0.00000   0.00673   0.00649   1.85597
   A32        1.92378   0.00925   0.00000   0.04135   0.04144   1.96522
   A33        1.93081  -0.00242   0.00000  -0.00685  -0.00670   1.92411
   A34        1.93081  -0.00242   0.00000  -0.00684  -0.00670   1.92411
   A35        1.91394  -0.00355   0.00000  -0.01834  -0.01845   1.89548
   A36        1.91393  -0.00355   0.00000  -0.01834  -0.01845   1.89548
   A37        1.84922   0.00224   0.00000   0.00687   0.00663   1.85585
   A38        1.89557   0.00195   0.00000   0.01416   0.01406   1.90963
   A39        1.92161  -0.00005   0.00000  -0.00057  -0.00068   1.92093
   A40        1.92161  -0.00005   0.00000  -0.00056  -0.00067   1.92093
   A41        1.91012   0.00003   0.00000   0.00726   0.00721   1.91733
   A42        1.91012   0.00003   0.00000   0.00726   0.00721   1.91733
   A43        1.90474  -0.00188   0.00000  -0.02718  -0.02722   1.87752
   A44        1.91618   0.01618   0.00000   0.06219   0.06219   1.97837
   A45        1.90146   0.00173   0.00000   0.01291   0.01282   1.91428
   A46        1.91000   0.00005   0.00000   0.00691   0.00686   1.91686
   A47        1.90999   0.00005   0.00000   0.00692   0.00687   1.91686
   A48        1.91993   0.00002   0.00000  -0.00011  -0.00021   1.91972
   A49        1.91993   0.00002   0.00000  -0.00011  -0.00021   1.91972
   A50        1.90247  -0.00185   0.00000  -0.02636  -0.02639   1.87608
   A51        1.91273   0.01225   0.00000   0.05585   0.05596   1.96869
   A52        1.91681  -0.00428   0.00000  -0.01962  -0.01974   1.89707
   A53        1.91682  -0.00428   0.00000  -0.01963  -0.01974   1.89707
   A54        1.93207  -0.00348   0.00000  -0.01207  -0.01195   1.92011
   A55        1.93207  -0.00348   0.00000  -0.01207  -0.01196   1.92012
   A56        1.85264   0.00274   0.00000   0.00493   0.00456   1.85720
   A57        1.93573   0.01004   0.00000   0.04926   0.04916   1.98489
   A58        1.91422  -0.00261   0.00000  -0.00672  -0.00676   1.90745
   A59        1.91422  -0.00262   0.00000  -0.00673  -0.00677   1.90745
   A60        1.91494  -0.00315   0.00000  -0.01263  -0.01285   1.90209
   A61        1.91494  -0.00315   0.00000  -0.01263  -0.01285   1.90210
   A62        1.86859   0.00112   0.00000  -0.01293  -0.01318   1.85541
   A63        1.92408   0.01107   0.00000   0.05469   0.05455   1.97864
   A64        1.91553  -0.00328   0.00000  -0.01170  -0.01191   1.90362
   A65        1.91553  -0.00328   0.00000  -0.01169  -0.01191   1.90362
   A66        1.91734  -0.00302   0.00000  -0.00900  -0.00912   1.90822
   A67        1.91735  -0.00302   0.00000  -0.00900  -0.00913   1.90823
   A68        1.87334   0.00118   0.00000  -0.01544  -0.01573   1.85761
   A69        1.93257   0.00652   0.00000   0.02840   0.02846   1.96102
   A70        1.92825  -0.00213   0.00000  -0.00955  -0.00953   1.91872
   A71        1.92826  -0.00213   0.00000  -0.00956  -0.00954   1.91872
   A72        1.91223  -0.00218   0.00000  -0.00945  -0.00942   1.90281
   A73        1.91224  -0.00218   0.00000  -0.00946  -0.00943   1.90281
   A74        1.84846   0.00180   0.00000   0.00835   0.00826   1.85672
   A75        1.88131  -0.00195   0.00000  -0.00647  -0.00646   1.87485
   A76        1.92977   0.00123   0.00000   0.00734   0.00734   1.93711
   A77        1.92978   0.00123   0.00000   0.00733   0.00733   1.93711
   A78        1.90856   0.00055   0.00000   0.00306   0.00307   1.91163
   A79        1.90857   0.00055   0.00000   0.00305   0.00306   1.91163
   A80        1.90557  -0.00160   0.00000  -0.01411  -0.01412   1.89145
   A81        1.82863   0.00205   0.00000   0.00789   0.00789   1.83652
   A82        1.83226   0.00021   0.00000   0.00081   0.00081   1.83307
   A83        1.88167  -0.00515   0.00000  -0.02118  -0.02109   1.86059
   A84        1.90903   0.00115   0.00000   0.00256   0.00266   1.91169
   A85        1.90903   0.00115   0.00000   0.00256   0.00266   1.91169
   A86        1.92824   0.00262   0.00000   0.01579   0.01575   1.94398
   A87        1.92824   0.00262   0.00000   0.01578   0.01574   1.94398
   A88        1.90736  -0.00239   0.00000  -0.01557  -0.01569   1.89166
   A89        1.92741   0.00114   0.00000   0.00973   0.00960   1.93701
   A90        1.93595  -0.00222   0.00000  -0.01927  -0.01927   1.91668
   A91        1.92740   0.00114   0.00000   0.00973   0.00961   1.93701
   A92        1.90320  -0.00029   0.00000  -0.00760  -0.00760   1.89560
   A93        1.86508   0.00062   0.00000   0.01592   0.01567   1.88076
   A94        1.90319  -0.00029   0.00000  -0.00759  -0.00759   1.89560
    D1        3.14159   0.00000   0.00000   0.00000   0.00000   3.14159
    D2        1.02004   0.00026   0.00000   0.00342   0.00335   1.02339
    D3       -1.02006  -0.00025   0.00000  -0.00340  -0.00334  -1.02340
    D4        1.04610   0.00002   0.00000   0.00024   0.00023   1.04634
    D5       -1.07544   0.00027   0.00000   0.00365   0.00358  -1.07186
    D6       -3.11555  -0.00024   0.00000  -0.00317  -0.00311  -3.11865
    D7       -1.04608  -0.00002   0.00000  -0.00025  -0.00025  -1.04633
    D8        3.11556   0.00024   0.00000   0.00316   0.00310   3.11866
    D9        1.07545  -0.00027   0.00000  -0.00366  -0.00359   1.07186
   D10        3.14159  -0.00000   0.00000   0.00000   0.00000   3.14159
   D11        1.04736  -0.00105   0.00000  -0.01568  -0.01567   1.03169
   D12       -1.04737   0.00105   0.00000   0.01569   0.01568  -1.03169
   D13       -1.01645   0.00094   0.00000   0.00972   0.00955  -1.00691
   D14       -3.11069  -0.00011   0.00000  -0.00596  -0.00612  -3.11681
   D15        1.07777   0.00198   0.00000   0.02541   0.02522   1.10300
   D16        1.01646  -0.00094   0.00000  -0.00973  -0.00956   1.00690
   D17       -1.07778  -0.00198   0.00000  -0.02541  -0.02522  -1.10300
   D18        3.11068   0.00011   0.00000   0.00596   0.00612   3.11680
   D19        3.14159   0.00000   0.00000   0.00000   0.00000  -3.14159
   D20       -1.03919   0.00051   0.00000   0.00771   0.00773  -1.03146
   D21        1.03920  -0.00051   0.00000  -0.00772  -0.00774   1.03146
   D22       -3.14159  -0.00000   0.00000  -0.00000  -0.00000   3.14159
   D23        1.04310  -0.00106   0.00000  -0.01163  -0.01168   1.03143
   D24       -1.04311   0.00106   0.00000   0.01164   0.01168  -1.03143
   D25       -3.14159   0.00000   0.00000  -0.00000  -0.00000  -3.14159
   D26        1.01265  -0.00070   0.00000  -0.00665  -0.00652   1.00614
   D27       -1.01266   0.00070   0.00000   0.00665   0.00652  -1.00614
   D28       -1.04840   0.00101   0.00000   0.01492   0.01492  -1.03348
   D29        3.10584   0.00031   0.00000   0.00827   0.00841   3.11425
   D30        1.08053   0.00171   0.00000   0.02157   0.02145   1.10197
   D31        1.04842  -0.00101   0.00000  -0.01493  -0.01493   1.03349
   D32       -1.08052  -0.00171   0.00000  -0.02157  -0.02145  -1.10197
   D33       -3.10584  -0.00031   0.00000  -0.00827  -0.00841  -3.11424
   D34        3.14159   0.00000   0.00000   0.00000   0.00000  -3.14159
   D35        1.02185  -0.00010   0.00000   0.00003  -0.00001   1.02184
   D36       -1.02186   0.00010   0.00000  -0.00002   0.00001  -1.02184
   D37       -1.02053   0.00000   0.00000  -0.00108  -0.00104  -1.02157
   D38       -3.14028  -0.00010   0.00000  -0.00106  -0.00105  -3.14132
   D39        1.09921   0.00011   0.00000  -0.00110  -0.00103   1.09818
   D40        1.02054  -0.00000   0.00000   0.00108   0.00104   1.02158
   D41       -1.09921  -0.00011   0.00000   0.00110   0.00103  -1.09818
   D42        3.14028   0.00010   0.00000   0.00106   0.00105   3.14133
   D43       -3.14159   0.00000   0.00000   0.00000   0.00000  -3.14159
   D44        1.05043  -0.00120   0.00000  -0.01723  -0.01723   1.03320
   D45       -1.05043   0.00120   0.00000   0.01724   0.01723  -1.03320
   D46       -1.01184   0.00068   0.00000   0.00633   0.00620  -1.00563
   D47       -3.10300  -0.00053   0.00000  -0.01090  -0.01102  -3.11403
   D48        1.07932   0.00188   0.00000   0.02357   0.02344   1.10276
   D49        1.01185  -0.00068   0.00000  -0.00634  -0.00621   1.00564
   D50       -1.07932  -0.00188   0.00000  -0.02357  -0.02344  -1.10275
   D51        3.10301   0.00053   0.00000   0.01090   0.01102   3.11403
   D52       -3.14159   0.00000   0.00000   0.00000   0.00000  -3.14159
   D53       -1.04327   0.00113   0.00000   0.01220   0.01227  -1.03100
   D54        1.04329  -0.00113   0.00000  -0.01220  -0.01227   1.03101
   D55        3.14158   0.00000   0.00000   0.00000   0.00000   3.14159
   D56        1.04181  -0.00110   0.00000  -0.01191  -0.01197   1.02984
   D57       -1.04183   0.00110   0.00000   0.01191   0.01197  -1.02986
   D58        3.14158   0.00000   0.00000   0.00001   0.00001   3.14159
   D59        1.01556  -0.00083   0.00000  -0.00842  -0.00828   1.00728
   D60       -1.01557   0.00083   0.00000   0.00842   0.00829  -1.00728
   D61       -1.04796   0.00114   0.00000   0.01638   0.01638  -1.03158
   D62        3.10921   0.00031   0.00000   0.00796   0.00809   3.11729
   D63        1.07807   0.00196   0.00000   0.02480   0.02466   1.10273
   D64        1.04795  -0.00114   0.00000  -0.01638  -0.01638   1.03158
   D65       -1.07807  -0.00196   0.00000  -0.02481  -0.02467  -1.10273
   D66       -3.10920  -0.00031   0.00000  -0.00796  -0.00809  -3.11730
   D67       -3.14159  -0.00000   0.00000  -0.00000  -0.00000  -3.14159
   D68        1.02373  -0.00085   0.00000  -0.01180  -0.01183   1.01190
   D69       -1.02372   0.00085   0.00000   0.01179   0.01182  -1.01190
   D70       -1.02474   0.00047   0.00000   0.00446   0.00447  -1.02028
   D71        3.14057  -0.00038   0.00000  -0.00733  -0.00736   3.13321
   D72        1.09313   0.00133   0.00000   0.01625   0.01629   1.10942
   D73        1.02474  -0.00047   0.00000  -0.00446  -0.00446   1.02028
   D74       -1.09313  -0.00133   0.00000  -0.01625  -0.01629  -1.10942
   D75       -3.14058   0.00038   0.00000   0.00734   0.00736  -3.13321
   D76        3.14159   0.00000   0.00000   0.00000   0.00000   3.14159
   D77        1.02739  -0.00123   0.00000  -0.01635  -0.01630   1.01109
   D78       -1.02738   0.00123   0.00000   0.01635   0.01630  -1.01108
   D79       -1.02415   0.00117   0.00000   0.01529   0.01522  -1.00894
   D80       -3.13835  -0.00006   0.00000  -0.00106  -0.00109  -3.13944
   D81        1.09006   0.00240   0.00000   0.03164   0.03151   1.12157
   D82        1.02415  -0.00117   0.00000  -0.01529  -0.01521   1.00893
   D83       -1.09006  -0.00241   0.00000  -0.03164  -0.03151  -1.12157
   D84        3.13836   0.00006   0.00000   0.00106   0.00109   3.13944
   D85        3.14159   0.00000   0.00000   0.00001   0.00001   3.14159
   D86        1.01982  -0.00019   0.00000  -0.00068  -0.00066   1.01916
   D87       -1.01982   0.00019   0.00000   0.00068   0.00066  -1.01916
   D88       -1.02848   0.00109   0.00000   0.01482   0.01482  -1.01365
   D89        3.13295   0.00090   0.00000   0.01413   0.01416  -3.13608
   D90        1.09331   0.00128   0.00000   0.01549   0.01548   1.10878
   D91        1.02846  -0.00109   0.00000  -0.01481  -0.01481   1.01365
   D92       -1.09330  -0.00128   0.00000  -0.01550  -0.01548  -1.10878
   D93       -3.13294  -0.00090   0.00000  -0.01414  -0.01416   3.13608
   D94       -3.14159   0.00000   0.00000  -0.00000  -0.00000  -3.14159
   D95        1.05627  -0.00019   0.00000  -0.00402  -0.00401   1.05226
   D96       -1.05625   0.00019   0.00000   0.00400   0.00400  -1.05226
   D97       -1.01043   0.00015   0.00000   0.00034   0.00032  -1.01010
   D98       -3.09575  -0.00004   0.00000  -0.00367  -0.00369  -3.09944
   D99        1.07491   0.00034   0.00000   0.00434   0.00432   1.07923
   D100       1.01041  -0.00015   0.00000  -0.00033  -0.00031   1.01010
   D101      -1.07491  -0.00034   0.00000  -0.00434  -0.00432  -1.07923
   D102       3.09575   0.00004   0.00000   0.00368   0.00369   3.09944
   D103      -3.14159  -0.00000   0.00000  -0.00001  -0.00001  -3.14159
   D104      -1.04285   0.00065   0.00000   0.00677   0.00677  -1.03608
   D105       1.04284  -0.00065   0.00000  -0.00676  -0.00676   1.03608
   D106      -3.14159   0.00000   0.00000   0.00000   0.00000  -3.14159
   D107       3.14159   0.00000   0.00000   0.00000   0.00000   3.14159
   D108       1.04422  -0.00077   0.00000  -0.00795  -0.00797   1.03625
   D109      -1.04422   0.00077   0.00000   0.00795   0.00797  -1.03625
   D110      -1.02953  -0.00108   0.00000  -0.01586  -0.01592  -1.04545
   D111       3.14159   0.00000   0.00000   0.00000   0.00000   3.14159
   D112       1.02954   0.00108   0.00000   0.01585   0.01591   1.04545
   D113       1.05570  -0.00131   0.00000  -0.01651  -0.01664   1.03905
   D114      -1.05637  -0.00023   0.00000  -0.00066  -0.00072  -1.05709
   D115       3.11476   0.00086   0.00000   0.01519   0.01519   3.12995
[...]
 6,-0.00000029,-0.00000265,0.00000073,0.00000162,0.00000088,-0.00000019
 ,-0.00000187,0.00000106,0.00000297,0.00000573,-0.00000063,-0.00000099,
 -0.00000066,-0.00001311,0.00000114,0.00000338,0.00000566,-0.00000245,-
 0.00001009,0.00001763,0.00001866,0.00003945,-0.00008331,0.00001212,-0.
 00001774,-0.00017298,0.00000226,0.00007124,0.00749494,-0.01278971,-0.0
 2730829,-0.03242880,0.09583128,-0.00000039,-0.00000034,0.00000037,0.00
 000059,0.00000011,-0.00000090,-0.00000600,-0.00000068,-0.00000143,0.00
 000930,-0.00000290,0.00000630,-0.00000582,0.00000121,-0.00000450,0.000
 00253,0.00000165,-0.00000341,0.00000017,-0.00000262,0.00000213,-0.0000
 0868,0.00001244,-0.00002465,0.00003275,-0.00001729,0.00003207,-0.00001
 073,0.00001180,-0.00002710,-0.00000961,-0.00002147,0.00002708,0.000046
 39,0.00001658,-0.00003587,-0.00005053,-0.00006932,0.00007340,0.0002103
 5,0.00005877,-0.00013270,-0.00103034,-0.00017838,0.00040858,0.00061501
 ,-0.00058163,0.00300728,0.00523718,0.00246397,0.00182558,0.06293747,-0
 .08721989,-0.23259228,0.00665292,-0.00996937,-0.02158324,0.00000059,-0
 .00000045,0.00000049,-0.00000013,0.00000020,0.00000002,0.00000014,0.00
 000026,-0.00000022,0.,-0.00000003,-0.00000001,-0.00000019,0.00000011,0
 .00000047,0.00000078,0.00000054,0.,0.00000057,0.00000023,0.00000033,0.
 00000050,-0.00000003,0.00000034,-0.00000015,0.00000029,0.00000113,0.00
 000006,-0.00000014,-0.00000013,-0.00000012,0.00000021,0.00000114,0.000
 00022,0.00000030,-0.00000054,-0.00000066,0.00000074,0.00000061,0.00000
 043,-0.00000238,0.00000199,-0.00000035,0.00000017,0.00000520,0.0000022
 2,-0.00000102,0.00000102,0.00000183,0.00000090,0.00000613,0.00000119,0
 .00000162,-0.00000091,-0.00000275,0.00000189,0.00000131,-0.00000042,-0
 .00000298,0.00000001,-0.00000136,0.00000174,0.00001215,0.00000669,0.00
 000558,-0.00000160,-0.00000243,0.00000395,0.00000445,-0.00000634,-0.00
 000382,-0.00000513,0.00000188,0.00000911,0.00002401,0.00006375,0.00008
 951,-0.00001524,-0.00005431,0.00007276,-0.00019957,0.00054826,-0.00099
 026,-0.00203331,-0.07346063,0.09312533,0.25201969,-0.00000038,-0.00000
 026,0.00000039,0.00000034,0.00000037,-0.00000030,-0.00000515,0.0000004
 8,-0.00000009,0.00000761,-0.00000287,0.00000367,-0.00000458,0.00000203
 ,-0.00000236,0.00000158,0.00000142,-0.00000178,0.00000006,-0.00000087,
 0.00000148,-0.00000670,0.00000975,-0.00001293,0.00002228,-0.00001197,0
 .00001629,-0.00001082,0.00000894,-0.00001112,-0.00000490,-0.00000831,0
 .00001199,0.00001627,0.00000974,-0.00001207,-0.00002297,-0.00002093,0.
 00002735,0.00007011,0.00003104,-0.00002829,-0.00018819,-0.00004684,0.0
 0007929,-0.00003533,0.00005935,0.00026217,0.00136908,-0.00037357,-0.00
 023284,0.00252546,-0.00469519,-0.00964880,-0.07723196,0.03596107,0.077
 52637,0.00000040,-0.00000022,0.00000038,0.00000008,0.00000005,-0.00000
 023,0.,0.00000009,-0.00000011,-0.00000006,-0.00000008,0.00000005,0.,-0
 .00000005,0.,0.00000054,0.00000011,-0.00000005,0.00000057,-0.00000009,
 -0.00000032,0.00000018,-0.00000041,0.00000024,0.00000032,-0.00000020,0
 .00000025,-0.00000008,-0.00000034,0.00000006,-0.00000003,0.00000004,0.
 00000012,-0.00000013,-0.00000014,-0.00000023,0.,0.00000023,-0.00000016
 ,0.00000005,-0.00000213,0.00000117,0.00000020,-0.00000059,0.00000204,0
 .00000133,-0.00000145,0.00000058,0.00000138,-0.00000037,0.00000103,-0.
 00000013,0.00000002,-0.00000042,0.00000003,0.00000037,-0.00000046,-0.0
 0000039,-0.00000269,0.00000090,-0.00000025,-0.00000026,0.00000246,0.00
 000148,0.00000052,-0.00000101,0.00000096,0.00000155,-0.00000138,-0.000
 00394,-0.00000432,-0.00000006,-0.00000153,-0.00000177,0.00000798,0.000
 02281,0.00000952,-0.00001058,-0.00000589,0.00002309,-0.00000338,0.0000
 1046,-0.00027351,0.00069264,-0.00006909,0.00105611,-0.00177100,0.07939
 288,0.00000004,0.00000003,-0.00000005,0.00000003,0.00000003,-0.0000000
 6,0.00000047,0.00000007,-0.00000022,-0.00000058,-0.00000015,0.00000029
 ,0.00000037,0.00000014,-0.00000032,-0.00000008,0.00000004,-0.00000002,
 0.00000012,0.00000003,-0.00000015,0.00000050,0.00000026,-0.00000022,-0
 .00000187,-0.00000026,0.00000019,0.00000112,0.00000045,-0.00000011,0.0
 0000055,0.00000084,-0.00000189,-0.00000434,0.00000033,0.00000171,0.000
 00336,0.00000679,-0.00001285,-0.00005266,0.00000001,0.00001257,0.00004
 869,0.00003236,-0.00017306,-0.00023447,-0.00006961,-0.00012416,-0.0004
 5315,0.00041490,-0.00109056,-0.00789854,0.00825854,0.01820613,0.036595
 09,-0.09307355,-0.09290125,0.00000002,-0.00000003,0.00000004,-0.000000
 03,0.00000006,0.00000004,-0.00000002,-0.00000005,-0.00000004,-0.000000
 02,-0.00000008,-0.00000001,-0.00000003,0.00000004,0.00000009,-0.000000
 03,-0.00000011,-0.00000002,-0.00000005,0.00000008,0.00000014,-0.000000
 09,-0.00000012,-0.00000008,-0.00000010,0.00000014,0.00000012,0.,-0.000
 00014,0.00000002,0.,0.00000003,0.00000014,-0.00000006,-0.00000016,-0.0
 0000012,-0.00000005,0.00000019,0.00000013,-0.00000011,-0.00000021,-0.0
 0000003,-0.00000013,0.00000008,0.00000017,-0.00000011,-0.00000055,0.00
 000018,-0.00000015,-0.00000006,0.00000042,-0.00000015,-0.00000055,-0.0
 0000052,0.00000010,0.00000073,0.00000030,-0.00000014,-0.00000097,0.000
 00080,-0.00000027,-0.00000063,0.00000042,-0.00000073,-0.00000188,-0.00
 000193,0.00000087,0.00000266,0.00000097,0.00000067,-0.00000409,0.00000
 634,-0.00000181,-0.00000513,0.00000017,0.00000313,-0.00000917,-0.00000
 852,0.00003918,0.00001682,0.00000584,-0.00069894,0.00116158,-0.0005576
 8,0.00200206,-0.00129084,0.00333089,-0.04057237,0.09696002,0.00000016,
 0.00000008,-0.00000018,-0.00000003,-0.00000019,-0.00000021,0.00000152,
 -0.00000050,-0.00000085,-0.00000206,0.00000067,0.00000039,0.00000129,-
 0.00000071,-0.00000077,-0.00000047,-0.00000046,0.00000004,0.00000024,-
 0.00000017,-0.00000088,0.00000213,-0.00000316,0.00000032,-0.00000802,0
 .00000330,-0.00000021,0.00000549,-0.00000330,-0.00000164,0.00000233,-0
 .00000018,-0.00000294,-0.00000043,-0.00000253,-0.00000198,0.00000429,-
 0.00000578,-0.00000407,0.00001248,0.00000499,-0.00000962,0.00004410,-0
 .00001422,0.00002115,-0.00033496,0.00017655,0.00052903,0.00076070,-0.0
 0062818,0.00170195,0.00997430,-0.01109350,-0.02533285,0.07616895,-0.09
 110141,-0.23716683,-0.00000004,-0.00000006,-0.00000002,-0.00000014,0.0
 0000009,0.00000019,0.00000004,0.00000002,-0.00000004,0.00000004,-0.000
 00002,-0.00000005,-0.00000009,0.00000011,0.00000028,-0.00000010,0.0000
 0006,0.00000006,-0.00000023,0.00000020,0.00000050,-0.00000002,0.000000
 15,-0.00000007,-0.00000045,0.00000040,0.00000047,0.00000013,0.00000007
 ,-0.00000011,0.00000001,0.00000010,0.00000058,0.00000013,0.00000006,-0
 .00000013,-0.00000044,0.00000033,0.00000060,0.00000011,0.00000067,-0.0
 0000028,-0.00000040,0.00000079,0.00000073,-0.00000018,0.00000040,-0.00
 000010,-0.00000041,0.00000090,0.00000270,0.00000013,0.00000007,-0.0000
 0048,-0.00000236,0.00000158,0.00000182,0.00000067,0.00000018,-0.000000
 99,0.00000013,0.00000107,0.00000550,0.00000007,-0.00000004,-0.00000111
 ,-0.00000827,0.00000487,0.00000491,0.00000159,-0.00000052,-0.00000574,
 0.00000500,0.00000191,0.00002044,-0.00000977,-0.00000104,0.00000099,-0
 .00007520,0.00003503,0.00002006,0.00016750,0.00006583,0.00138235,-0.00
 225201,0.00371262,-0.00265982,-0.08408350,0.09818573,0.26095964,0.0000
 0073,0.00000055,-0.00000080,-0.00000071,-0.00000054,0.00000076,0.00001
 006,-0.00000042,0.00000060,-0.00001499,0.00000536,-0.00000776,0.000008
 97,-0.00000360,0.00000520,-0.00000331,-0.00000265,0.00000385,-0.000000
 23,0.00000202,-0.00000292,0.00001322,-0.00001910,0.00002769,-0.0000456
 1,0.00002414,-0.00003498,0.00002056,-0.00001755,0.00002544,0.00001162,
 0.00001959,-0.00002839,-0.00004282,-0.00002134,0.00003094,0.00006010,0
 .00005324,-0.00007719,-0.00018825,-0.00008463,0.00012269,0.00038040,0.
 00018344,-0.00026597,-0.00046861,-0.00025029,0.00036289,0.00109728,0.0
 0169903,-0.00246344,-0.00979870,-0.00146513,0.00212420,-0.31251671,0.0
 0548291,-0.00795267,-0.00000082,0.00000048,-0.00000070,-0.00000006,-0.
 00000015,0.00000032,-0.00000005,-0.00000024,0.00000025,0.00000007,0.00
 000008,-0.00000007,0.00000006,0.00000004,-0.00000010,-0.00000110,-0.00
 000034,0.00000012,-0.00000109,0.,0.00000037,-0.00000044,0.00000065,-0.
 00000050,-0.00000044,0.00000023,-0.00000078,0.00000013,0.00000057,-0.0
 0000002,0.00000014,-0.00000018,-0.00000054,0.00000022,0.00000018,0.000
 00049,0.00000022,-0.00000052,0.,-0.00000017,0.00000409,-0.00000243,-0.
 00000017,0.00000082,-0.00000469,-0.00000274,0.00000258,-0.00000120,-0.
 00000273,0.00000021,-0.00000286,0.00000010,-0.00000052,0.00000065,0.00
 000011,-0.00000042,0.00000069,0.00000092,0.00000526,-0.00000136,0.0000
 0093,-0.00000059,-0.00000540,-0.00000354,-0.00000262,0.00000120,-0.000
 00354,-0.00000019,0.00000288,0.00000868,0.00000920,0.00000151,0.000008
 68,-0.00000468,-0.00000805,-0.00004329,-0.00003143,0.00002422,-0.00004
 329,-0.00001147,0.00003799,0.00041387,0.00049020,0.00001592,0.00041387
 ,-0.00018904,-0.00045255,-0.00950477,-0.00038769,-0.00080762,0.3397416
 8,-0.00000034,-0.00000023,0.00000038,0.00000039,0.00000034,-0.00000028
 ,-0.00000463,0.00000027,0.00000009,0.00000700,-0.00000241,0.00000306,-
 0.00000445,0.00000143,-0.00000158,0.00000203,0.00000161,-0.00000204,-0
 .00000016,-0.00000153,0.00000235,-0.00000675,0.00001128,-0.00001519,0.
 00002749,-0.00001495,0.00002068,-0.00000911,0.00001270,-0.00001642,-0.
 00000893,-0.00001804,0.00002560,0.00004822,0.00001871,-0.00002517,-0.0
 0004746,-0.00007458,0.00009093,0.00028091,0.00008512,-0.00010740,-0.00
 038470,-0.00037166,0.00055354,0.00181074,0.00046441,0.00056234,-0.0002
 7012,-0.00227188,0.00324707,0.01891281,-0.00057928,-0.00213418,0.00427
 899,-0.04550424,0.00061718,0.00000036,-0.00000017,0.00000030,0.0000000
 8,0.00000003,-0.00000020,0.,0.00000007,-0.00000008,-0.00000006,-0.0000
 0007,0.00000004,0.,-0.00000004,-0.00000002,0.00000051,0.00000014,-0.00
 000004,0.00000053,-0.00000009,-0.00000032,0.00000024,-0.00000026,0.000
 00023,0.00000036,-0.00000023,0.00000013,-0.00000009,-0.00000027,0.0000
 0004,-0.00000004,0.00000003,0.00000007,-0.00000005,0.00000003,-0.00000
 017,0.00000005,0.00000013,-0.00000028,0.00000010,-0.00000239,0.0000014
 0,0.00000023,-0.00000070,0.00000241,0.00000147,-0.00000169,0.00000061,
 0.00000150,-0.00000033,0.00000133,0.00000029,0.00000108,0.00000007,0.0
 0000034,-0.00000032,-0.00000116,-0.00000111,-0.00000321,0.00000003,-0.
 00000108,0.00000058,0.00000269,0.00000342,0.00000576,0.00000158,0.0000
 0497,-0.00000202,-0.00000447,-0.00000958,-0.00000618,-0.00000887,-0.00
 001002,0.00000863,-0.00000254,0.00004822,0.00004269,0.00000580,0.00004
 237,0.00000270,-0.00005262,-0.00041540,0.00011988,-0.00081463,-0.00047
 600,0.00052057,-0.00020246,0.01337705,-0.00112535,0.00118642,-0.006382
 10,0.04655140,0.00000049,0.00000038,-0.00000052,-0.00000056,-0.0000002
 8,0.00000055,0.00000673,0.00000010,0.00000020,-0.00001015,0.00000306,-
 0.00000474,0.00000645,-0.00000158,0.00000262,-0.00000295,-0.00000203,0
 .00000316,0.00000023,0.00000236,-0.00000332,0.00000978,-0.00001519,0.0
 0002283,-0.00003986,0.00002068,-0.00003068,0.00001321,-0.00001642,0.00
 002518,0.00001295,0.00002561,-0.00003750,-0.00006992,-0.00002517,0.000
 03785,0.00006882,0.00009093,-0.00014371,-0.00040729,-0.00010741,0.0001
 6677,0.00055776,0.00055355,-0.00079249,-0.00262541,0.00056231,0.000036
 92,0.00039167,0.00324708,-0.00474036,-0.02742197,-0.00213440,0.0010430
 2,-0.00620709,0.00061719,-0.04597355,-0.00000052,0.00000030,-0.0000004
 0,-0.00000004,-0.00000006,0.00000018,-0.00000009,-0.00000021,0.0000001
 3,0.00000003,0.,-0.00000005,0.00000007,0.00000003,-0.00000008,-0.00000
 076,-0.00000041,0.00000005,-0.00000074,0.00000005,0.00000028,-0.000000
 47,0.00000014,-0.00000037,-0.00000039,0.00000022,-0.00000039,0.0000000
 7,0.00000018,-0.00000002,0.00000011,-0.00000007,-0.00000032,-0.0000000
 4,-0.00000024,0.00000030,0.00000004,-0.00000021,0.00000021,-0.00000028
 ,0.00000305,-0.00000215,-0.00000019,0.00000076,-0.00000384,-0.00000216
 ,0.00000184,-0.00000107,-0.00000214,0.00000009,-0.00000243,-0.00000048
 ,-0.00000170,0.00000009,-0.00000044,0.00000061,0.00000150,0.00000158,0
 .00000413,-0.00000045,0.00000159,-0.00000141,-0.00000424,-0.00000662,-
 0.00000743,-0.00000093,-0.00000555,0.00000454,0.00000686,0.00001436,0.
 00000309,0.00001297,0.00001406,-0.00001450,-0.00000184,-0.00006365,-0.
 00006782,0.00002050,-0.00006769,0.00002100,0.00006049,0.00066712,-0.00
 005015,0.00090717,0.00062534,-0.00096693,0.00050648,0.02788494,0.00054
 685,0.00194477,0.00925671,-0.00224443,0.04825780,-0.00000037,-0.000000
 27,0.00000039,0.00000034,0.00000015,-0.00000045,-0.00000514,-0.0000000
 8,-0.00000048,0.00000761,-0.00000241,0.00000398,-0.00000458,0.00000149
 ,-0.00000273,0.00000159,0.00000117,-0.00000196,0.00000006,-0.00000107,
 0.00000133,-0.00000669,0.00000863,-0.00001370,0.00002228,-0.00001099,0
 .00001697,-0.00001083,0.00000722,-0.00001231,-0.00000490,-0.00000827,0
 .00001202,0.00001627,0.00000782,-0.00001339,-0.00002297,-0.00001812,0.
 00002928,0.00007011,0.00001542,-0.00003906,-0.00018821,-0.00005747,0.0
 0007195,-0.00003532,-0.00026615,0.00003767,0.00136907,0.00035040,0.000
 26648,0.00252533,0.01068747,0.00096059,-0.07723013,-0.08524271,-0.0060
 6916,0.00000040,-0.00000027,0.00000034,0.,0.00000007,-0.00000013,0.000
 00008,0.00000020,-0.00000013,0.,0.00000002,0.00000005,-0.00000006,-0.0
 0000002,0.00000010,0.00000058,0.00000033,-0.00000003,0.00000054,0.0000
 0001,-0.00000012,0.00000032,-0.00000016,0.00000028,0.00000018,-0.00000
 008,0.00000047,-0.00000003,-0.00000013,0.,-0.00000008,0.00000006,0.000
 00034,0.,0.00000006,-0.00000027,-0.00000013,0.00000027,0.00000005,0.00
 000020,-0.00000170,0.00000127,0.00000005,-0.00000033,0.00000241,0.0000
 0139,-0.00000082,0.00000071,0.00000133,-0.00000003,0.00000157,0.000000
 04,0.00000030,-0.00000051,-0.00000014,0.00000039,-0.00000016,-0.000000
 24,-0.00000221,0.00000111,-0.00000039,0.00000012,0.00000284,0.00000096
 ,0.00000074,-0.00000194,0.00000148,0.00000076,-0.00000085,-0.00000154,
 -0.00000684,0.00000448,-0.00000394,0.00000159,0.00000402,-0.00000590,-
 0.00000505,-0.00002279,0.00002282,0.00000651,-0.00001266,-0.00006909,0
 .00128018,-0.00161645,0.00001046,-0.00055027,0.00050174,0.00365080,0.0
 1161240,0.00043364,-0.00950444,-0.03081850,-0.00259663,0.07939085,-0.0
 0000016,-0.00000015,0.00000015,0.00000001,-0.00000025,-0.00000007,-0.0
 0000159,-0.00000097,-0.00000010,0.00000213,0.00000063,0.00000037,-0.00
 000133,-0.00000099,-0.00000026,0.00000048,-0.00000012,-0.00000040,-0.0
 0000026,-0.00000088,0.00000018,-0.00000218,-0.00000080,-0.00000275,0.0
 0000816,0.00000093,0.00000284,-0.00000553,-0.00000249,-0.00000217,-0.0
 0000238,-0.00000316,0.00000133,0.00000195,-0.00000196,-0.00000166,-0.0
 0000521,-0.00000889,0.00000018,0.00000704,-0.00000256,0.00000598,-0.00
 005850,-0.00003964,0.00001315,0.00039639,0.00047087,-0.00002888,-0.000
 55008,0.00096865,-0.00083866,-0.00651686,-0.01872993,-0.00083503,-0.08
 419915,-0.28008921,-0.02001695,0.00000003,-0.00000002,-0.00000007,-0.0
 0000002,-0.00000005,0.00000001,0.00000014,0.00000022,0.00000003,0.0000
 0009,0.00000031,0.,-0.00000002,-0.00000006,-0.00000003,0.00000024,0.00
 000056,0.00000001,0.00000010,0.00000005,0.,0.00000045,0.00000061,0.000
 00023,0.00000005,-0.00000005,0.00000012,0.,0.00000059,-0.00000012,-0.0
 0000013,-0.00000009,0.00000005,0.00000043,0.00000070,0.00000014,-0.000
 00011,-0.00000015,0.00000006,0.00000042,0.00000097,0.00000044,-0.00000
 006,-0.00000006,0.00000062,0.00000045,0.00000280,-0.00000019,0.0000002
 0,0.00000003,0.00000019,0.00000218,0.00000232,0.00000098,-0.00000008,-
 0.00000065,0.00000011,-0.00000002,0.00000522,-0.00000115,-0.00000058,-
 0.00000066,0.00000006,0.00000742,0.00000656,0.00000338,0.00000020,-0.0
 0000186,-0.00000005,-0.00000403,0.00001790,-0.00000684,-0.00000173,-0.
 00000360,-0.00000071,0.00005636,0.00003322,0.00002879,0.00000802,-0.00
 000346,-0.00000322,0.00139369,-0.00014768,0.00327810,0.00009176,0.0011
 9112,0.00005459,-0.00453112,-0.01127353,-0.00052928,0.00089256,0.00213
 255,-0.00005206,0.09301018,0.30547713,0.00000002,0.00000002,0.,-0.0000
 0003,0.00000005,0.00000008,0.00000012,0.00000018,0.00000019,-0.0000002
 0,-0.00000002,-0.00000040,0.00000012,0.00000011,0.00000036,-0.00000009
 ,0.00000005,0.00000020,-0.00000003,0.00000019,0.00000002,0.00000029,0.
 00000018,0.00000140,-0.00000110,-0.00000027,-0.00000142,0.00000089,0.0
 0000101,0.00000132,0.00000032,-0.00000038,0.00000105,0.00000391,0.0000
 0258,0.00000031,-0.00000161,-0.00000689,0.00001160,0.00005366,0.000013
 55,-0.00000703,-0.00002988,-0.00014569,0.00009313,0.00010018,-0.000329
 60,-0.00001143,0.00069389,-0.00130103,0.00114822,0.01092678,0.02846482
 ,0.00165575,-0.00714409,-0.02181679,-0.05015301,-0.00000003,0.00000004
 ,-0.00000002,0.00000003,-0.00000004,-0.00000004,-0.00000003,-0.0000000
 2,0.00000003,0.,-0.00000002,0.,0.00000003,-0.00000002,-0.00000006,-0.0
 0000004,-0.00000005,0.00000002,0.,-0.00000008,-0.00000010,-0.00000006,
 -0.00000006,0.00000001,0.00000008,-0.00000011,-0.00000014,0.,-0.000000
 08,0.00000001,0.00000004,0.,-0.00000017,-0.00000011,-0.00000007,0.0000
 0009,0.00000010,-0.00000012,-0.00000014,-0.00000002,-0.00000017,-0.000
 00016,0.00000014,-0.00000009,-0.00000043,0.,-0.00000066,-0.00000015,0.
 00000004,-0.00000004,-0.00000069,-0.00000093,-0.00000030,0.00000024,0.
 00000019,-0.00000048,-0.00000039,0.00000029,-0.00000180,-0.00000035,0.
 00000037,0.00000069,-0.00000130,-0.00000375,-0.00000052,0.00000101,0.0
 0000070,-0.00000193,-0.00000112,0.00000347,-0.00000859,-0.00000260,-0.
 00000006,0.00000615,-0.00000623,-0.00006333,-0.00000040,0.00000366,-0.
 00000639,-0.00001069,-0.00000471,-0.00267158,0.00289636,-0.00380299,0.
 00071285,-0.00056891,0.00135281,-0.01070033,-0.02542681,-0.00140755,0.
 00007540,-0.00069182,-0.00131345,0.00804981,0.01892858,0.05244456\\-0.
 00000511,-0.00000301,0.00000436,-0.00001244,-0.00000071,0.00000102,0.0
 0002645,0.00000583,-0.00000846,-0.00000466,-0.00000291,0.00000422,0.00
 000282,0.00000819,-0.00001189,0.00001355,-0.00000551,0.00000800,-0.000
 00720,0.00000305,-0.00000443,0.00000010,-0.00000602,0.00000876,-0.0000
 0300,0.00000209,-0.00000305,-0.00002982,-0.00000241,0.00000349,0.00001
 115,0.00000670,-0.00000972,-0.00000387,-0.00000722,0.00001047,-0.00000
 995,0.00001290,-0.00001870,-0.00001336,-0.00000330,0.00000478,0.000004
 41,0.00001418,-0.00002055,-0.00001413,-0.00001072,0.00001556,0.0000279
 8,0.00001007,-0.00001460,0.00000486,-0.00001054,0.00001527,0.00000811,
 -0.00000369,0.00000536,0.00000842,0.00000001,-0.00000002,0.00000034,-0
 .00000124,-0.00000199,0.00000035,0.00000230,0.00000045,0.00000339,-0.0
 0000105,0.00000337,0.00000339,-0.00000277,0.00000218,-0.00000371,-0.00
 000140,0.00000240,-0.00000371,-0.00000174,0.00000216,-0.00000264,-0.00
 000248,0.00000404,-0.00000264,-0.00000290,0.00000376,-0.00000218,-0.00
 000091,-0.00000069,-0.00000218,0.00000097,0.00000060,0.00000166,0.0000
 0087,0.00000060,0.00000165,-0.00000087,-0.00000060,0.00000280,0.000001
 64,-0.00000321,0.00000280,0.00000242,-0.00000268,0.00000354,0.00000231
 ,-0.00000238,0.00000354,0.00000141,-0.00000300,-0.00000116,0.00000190,
 -0.00000086,-0.00000115,0.00000013,-0.00000208,-0.00000105,-0.00000345
 ,-0.00000546,-0.00000105,0.00000633,0.00000128,0.00000126,0.00000263,0
 .00000475,0.00000126,-0.00000538,-0.00000077,-0.00000177,-0.00000393,0
 .00000158,-0.00000178,-0.00000007,0.00000424,0.00000268,0.00000082,0.0
 0000139,0.00000268,-0.00000160,-0.00000029,-0.00000781,-0.00000091,-0.
 00000192,-0.00000781,0.00000212,0.00000017,0.00000276,0.00000213,0.,-0
 .00000048,-0.00000351,0.00000509,0.00000275,-0.00000075,-0.00000199\\\
 @


 THE GREAT THING ABOUT BEING IMPERFECT IS THE JOY IT BRINGS OTHERS.
   -- SIGN OUTSIDE LAKE AGASSIZ JR. HIGH SCHOOL, FARGO, N.D.
 Job cpu time:       0 days 15 hours 37 minutes  1.5 seconds.
 Elapsed time:       0 days  3 hours 54 minutes 17.3 seconds.
 File lengths (MBytes):  RWF=   1716 Int=      0 D2E=      0 Chk=     40 Scr=      1
 Normal termination of Gaussian 16 at Sun May 21 19:44:05 2023.
### All Done ###
