### Starting Gaussian ###
 Entering Gaussian System, Link 0=g16
 Initial command:
 /cluster/software/gaussian/gaussian-16-A.03/avx2/g16/l1.exe "/local/scratch/ks29c/Gau-18612.inp" -scrdir="/local/scratch/ks29c/"
 Entering Link 1 = /cluster/software/gaussian/gaussian-16-A.03/avx2/g16/l1.exe PID=     18619.
  
 Copyright (c) 1988,1990,1992,1993,1995,1998,2003,2009,2016,
            Gaussian, Inc.  All Rights Reserved.
  
 This is part of the Gaussian(R) 16 program.  It is based on
 the Gaussian(R) 09 system (copyright 2009, Gaussian, Inc.),
 the Gaussian(R) 03 system (copyright 2003, Gaussian, Inc.),
 the Gaussian(R) 98 system (copyright 1998, Gaussian, Inc.),
 the Gaussian(R) 94 system (copyright 1995, Gaussian, Inc.),
 the Gaussian 92(TM) system (copyright 1992, Gaussian, Inc.),
 the Gaussian 90(TM) system (copyright 1990, Gaussian, Inc.),
 the Gaussian 88(TM) system (copyright 1988, Gaussian, Inc.),
 the Gaussian 86(TM) system (copyright 1986, Carnegie Mellon
 University), and the Gaussian 82(TM) system (copyright 1983,
 Carnegie Mellon University). Gaussian is a federally registered
 trademark of Gaussian, Inc.
  
 This software contains proprietary and confidential information,
 including trade secrets, belonging to Gaussian, Inc.
  
 This software is provided under written license and may be
 used, copied, transmitted, or stored only in accord with that
 written license.
  
 The following legend is applicable only to US Government
 contracts under FAR:
  
                    RESTRICTED RIGHTS LEGEND
  
 Use, reproduction and disclosure by the US Government is
 subject to restrictions as set forth in subparagraphs (a)
 and (c) of the Commercial Computer Software - Restricted
 Rights clause in FAR 52.227-19.
  
 Gaussian, Inc.
 340 Quinnipiac St., Bldg. 40, Wallingford CT 06492
  
  
 ---------------------------------------------------------------
 Warning -- This program may not be used in any manner that
 competes with the business of Gaussian, Inc. or will provide
 assistance to any competitor of Gaussian, Inc.  The licensee
 of this program is prohibited from giving any competitor of
 Gaussian, Inc. access to this program.  By using this program,
 the user acknowledges that Gaussian, Inc. is engaged in the
 business of creating and licensing software in the field of
 computational chemistry and represents and warrants to the
 licensee that it is not a competitor of Gaussian, Inc. and that
 it will not use this program in any manner prohibited above.
 ---------------------------------------------------------------
  

 Cite this work as:
 Gaussian 16, Revision A.03,
 M. J. Frisch, G. W. Trucks, H. B. Schlegel, G. E. Scuseria, 
 M. A. Robb, J. R. Cheeseman, G. Scalmani, V. Barone, 
 G. A. Petersson, H. Nakatsuji, X. Li, M. Caricato, A. V. Marenich, 
 J. Bloino, B. G. Janesko, R. Gomperts, B. Mennucci, H. P. Hratchian, 
 J. V. Ortiz, A. F. Izmaylov, J. L. Sonnenberg, D. Williams-Young, 
 F. Ding, F. Lipparini, F. Egidi, J. Goings, B. Peng, A. Petrone, 
 T. Henderson, D. Ranasinghe, V. G. Zakrzewski, J. Gao, N. Rega, 
 G. Zheng, W. Liang, M. Hada, M. Ehara, K. Toyota, R. Fukuda, 
 J. Hasegawa, M. Ishida, T. Nakajima, Y. Honda, O. Kitao, H. Nakai, 
 T. Vreven, K. Throssell, J. A. Montgomery, Jr., J. E. Peralta, 
 F. Ogliaro, M. J. Bearpark, J. J. Heyd, E. N. Brothers, K. N. Kudin, 
 V. N. Staroverov, T. A. Keith, R. Kobayashi, J. Normand, 
 K. Raghavachari, A. P. Rendell, J. C. Burant, S. S. Iyengar, 
 J. Tomasi, M. Cossi, J. M. Millam, M. Klene, C. Adamo, R. Cammi, 
 J. W. Ochterski, R. L. Martin, K. Morokuma, O. Farkas, 
 J. B. Foresman, and D. J. Fox, Gaussian, Inc., Wallingford CT, 2016.
 
 ******************************************
 Gaussian 16:  ES64L-G16RevA.03 25-Dec-2016
                27-May-2023 
 ******************************************
 %chk=CCCqdOrC1SCC1CdCCtN.chk
 %NProcShared=20
 Will use up to   20 processors via shared memory.
 -----------------------------
 # opt freq b3lyp/6-31g(2df,p)
 -----------------------------
 1/18=20,19=15,26=3,38=1/1,3;
 2/9=110,12=2,17=6,18=5,40=1/2;
 3/5=1,6=6,7=104,11=2,25=1,30=1,71=1,74=-5/1,2,3;
 4//1;
 5/5=2,38=5/2;
 6/7=2,8=2,9=2,10=2,28=1/1;
 7//1,2,3,16;
 1/18=20,19=15,26=3/3(2);
 2/9=110/2;
 99//99;
 2/9=110/2;
 3/5=1,6=6,7=104,11=2,25=1,30=1,71=1,74=-5/1,2,3;
 4/5=5,16=3,69=1/1;
 5/5=2,38=5/2;
 7//1,2,3,16;
 1/18=20,19=15,26=3/3(-5);
 2/9=110/2;
 6/7=2,8=2,9=2,10=2,19=2,28=1/1;
 99/9=1/99;
 -------------------
 Title Card Required
 -------------------
 Symbolic Z-matrix:
 Charge =  0 Multiplicity = 1
 C                     1.01767   0.08806  -0.03407 
 C                     2.52733   0.03744  -0.0469 
 C                     3.02354  -1.32752  -0.51141 
 O                     2.21885  -2.22484  -0.80905 
 C                     4.54472  -1.56688  -0.62913 
 S                     5.56409  -0.36038   0.30352 
 C                     6.40021  -1.92445   0.63425 
 C                     5.14246  -2.75023   0.21313 
 C                     5.45812  -3.99675  -0.56229 
 C                     4.48764  -4.86318  -0.89843 
 C                     4.76373  -6.05807  -1.6213 
 N                     5.0045   -7.03075  -2.20984 
 H                     0.66749   1.06474   0.30769 
 H                     0.62332  -0.68125   0.63763 
 H                     0.62465  -0.09903  -1.03778 
 H                     2.89186   0.23217   0.96739 
 H                     2.92051   0.80559  -0.72272 
 H                     4.83004  -1.5972   -1.68866 
 H                     6.69609  -2.04016   1.68071 
 H                     7.2873   -2.04361   0.00605 
 H                     4.52041  -3.00995   1.08523 
 H                     6.49329  -4.19513  -0.83363 
 H                     3.44925  -4.68948  -0.63189 
 

 GradGradGradGradGradGradGradGradGradGradGradGradGradGradGradGradGradGrad
 Berny optimization.
 Initialization pass.
                           ----------------------------
                           !    Initial Parameters    !
                           ! (Angstroms and Degrees)  !
 --------------------------                            --------------------------
 ! Name  Definition              Value          Derivative Info.                !
 --------------------------------------------------------------------------------
 ! R1    R(1,2)                  1.5106         estimate D2E/DX2                !
 ! R2    R(1,13)                 1.0924         estimate D2E/DX2                !
 ! R3    R(1,14)                 1.0948         estimate D2E/DX2                !
 ! R4    R(1,15)                 1.094          estimate D2E/DX2                !
 ! R5    R(2,3)                  1.5248         estimate D2E/DX2                !
 ! R6    R(2,16)                 1.0953         estimate D2E/DX2                !
 ! R7    R(2,17)                 1.0961         estimate D2E/DX2                !
 ! R8    R(3,4)                  1.2415         estimate D2E/DX2                !
 ! R9    R(3,5)                  1.5444         estimate D2E/DX2                !
 ! R10   R(5,6)                  1.8343         estimate D2E/DX2                !
 ! R11   R(5,8)                  1.5707         estimate D2E/DX2                !
 ! R12   R(5,18)                 1.0977         estimate D2E/DX2                !
 ! R13   R(6,7)                  1.8041         estimate D2E/DX2                !
 ! R14   R(7,8)                  1.5624         estimate D2E/DX2                !
 ! R15   R(7,19)                 1.0936         estimate D2E/DX2                !
 ! R16   R(7,20)                 1.0935         estimate D2E/DX2                !
 ! R17   R(8,9)                  1.5016         estimate D2E/DX2                !
 ! R18   R(8,21)                 1.1023         estimate D2E/DX2                !
 ! R19   R(9,10)                 1.3437         estimate D2E/DX2                !
 ! R20   R(9,22)                 1.0884         estimate D2E/DX2                !
 ! R21   R(10,11)                1.4236         estimate D2E/DX2                !
 ! R22   R(10,23)                1.086          estimate D2E/DX2                !
 ! R23   R(11,12)                1.1621         estimate D2E/DX2                !
 ! A1    A(2,1,13)             110.6702         estimate D2E/DX2                !
 ! A2    A(2,1,14)             109.978          estimate D2E/DX2                !
 ! A3    A(2,1,15)             110.2125         estimate D2E/DX2                !
 ! A4    A(13,1,14)            108.7145         estimate D2E/DX2                !
 ! A5    A(13,1,15)            108.9511         estimate D2E/DX2                !
 ! A6    A(14,1,15)            108.2597         estimate D2E/DX2                !
 ! A7    A(1,2,3)              110.9657         estimate D2E/DX2                !
 ! A8    A(1,2,16)             108.5906         estimate D2E/DX2                !
 ! A9    A(1,2,17)             109.8924         estimate D2E/DX2                !
 ! A10   A(3,2,16)             109.4483         estimate D2E/DX2                !
 ! A11   A(3,2,17)             108.8311         estimate D2E/DX2                !
 ! A12   A(16,2,17)            109.0874         estimate D2E/DX2                !
 ! A13   A(2,3,4)              120.6042         estimate D2E/DX2                !
 ! A14   A(2,3,5)              118.8479         estimate D2E/DX2                !
 ! A15   A(4,3,5)              120.5392         estimate D2E/DX2                !
 ! A16   A(3,5,6)              113.9965         estimate D2E/DX2                !
 ! A17   A(3,5,8)              116.791          estimate D2E/DX2                !
 ! A18   A(3,5,18)             109.5042         estimate D2E/DX2                !
 ! A19   A(6,5,8)               90.6535         estimate D2E/DX2                !
 ! A20   A(6,5,18)             111.3766         estimate D2E/DX2                !
 ! A21   A(8,5,18)             113.4451         estimate D2E/DX2                !
 ! A22   A(5,6,7)               77.3221         estimate D2E/DX2                !
 ! A23   A(6,7,8)               92.0467         estimate D2E/DX2                !
 ! A24   A(6,7,19)             113.112          estimate D2E/DX2                !
 ! A25   A(6,7,20)             111.4154         estimate D2E/DX2                !
 ! A26   A(8,7,19)             114.8205         estimate D2E/DX2                !
 ! A27   A(8,7,20)             116.1426         estimate D2E/DX2                !
 ! A28   A(19,7,20)            108.5842         estimate D2E/DX2                !
 ! A29   A(5,8,7)               93.0205         estimate D2E/DX2                !
 ! A30   A(5,8,9)              115.3734         estimate D2E/DX2                !
 ! A31   A(5,8,21)             112.7696         estimate D2E/DX2                !
 ! A32   A(7,8,9)              114.1237         estimate D2E/DX2                !
 ! A33   A(7,8,21)             111.4432         estimate D2E/DX2                !
 ! A34   A(9,8,21)             109.3666         estimate D2E/DX2                !
 ! A35   A(8,9,10)             120.8397         estimate D2E/DX2                !
 ! A36   A(8,9,22)             118.6853         estimate D2E/DX2                !
 ! A37   A(10,9,22)            120.467          estimate D2E/DX2                !
 ! A38   A(9,10,11)            121.883          estimate D2E/DX2                !
 ! A39   A(9,10,23)            121.7379         estimate D2E/DX2                !
 ! A40   A(11,10,23)           116.379          estimate D2E/DX2                !
 ! A41   L(10,11,12,22,-1)     179.2322         estimate D2E/DX2                !
 ! A42   L(10,11,12,22,-2)     179.8715         estimate D2E/DX2                !
 ! D1    D(13,1,2,3)           179.5028         estimate D2E/DX2                !
 ! D2    D(13,1,2,16)           59.1665         estimate D2E/DX2                !
 ! D3    D(13,1,2,17)          -60.083          estimate D2E/DX2                !
 ! D4    D(14,1,2,3)            59.368          estimate D2E/DX2                !
 ! D5    D(14,1,2,16)          -60.9684         estimate D2E/DX2                !
 ! D6    D(14,1,2,17)          179.7822         estimate D2E/DX2                !
 ! D7    D(15,1,2,3)           -59.9141         estimate D2E/DX2                !
 ! D8    D(15,1,2,16)          179.7495         estimate D2E/DX2                !
 ! D9    D(15,1,2,17)           60.5001         estimate D2E/DX2                !
 ! D10   D(1,2,3,4)             -0.5613         estimate D2E/DX2                !
 ! D11   D(1,2,3,5)            178.3767         estimate D2E/DX2                !
 ! D12   D(16,2,3,4)           119.2646         estimate D2E/DX2                !
 ! D13   D(16,2,3,5)           -61.7973         estimate D2E/DX2                !
 ! D14   D(17,2,3,4)          -121.603          estimate D2E/DX2                !
 ! D15   D(17,2,3,5)            57.3351         estimate D2E/DX2                !
 ! D16   D(2,3,5,6)             18.454          estimate D2E/DX2                !
 ! D17   D(2,3,5,8)            122.2675         estimate D2E/DX2                !
 ! D18   D(2,3,5,18)          -107.0628         estimate D2E/DX2                !
 ! D19   D(4,3,5,6)           -162.6072         estimate D2E/DX2                !
 ! D20   D(4,3,5,8)            -58.7937         estimate D2E/DX2                !
 ! D21   D(4,3,5,18)            71.8759         estimate D2E/DX2                !
 ! D22   D(3,5,6,7)            138.3638         estimate D2E/DX2                !
 ! D23   D(8,5,6,7)             18.4637         estimate D2E/DX2                !
 ! D24   D(18,5,6,7)           -97.1153         estimate D2E/DX2                !
 ! D25   D(3,5,8,7)           -138.4086         estimate D2E/DX2                !
 ! D26   D(3,5,8,9)            103.0366         estimate D2E/DX2                !
 ! D27   D(3,5,8,21)           -23.626          estimate D2E/DX2                !
 ! D28   D(6,5,8,7)            -20.9328         estimate D2E/DX2                !
 ! D29   D(6,5,8,9)           -139.4876         estimate D2E/DX2                !
 ! D30   D(6,5,8,21)            93.8498         estimate D2E/DX2                !
 ! D31   D(18,5,8,7)            92.7873         estimate D2E/DX2                !
 ! D32   D(18,5,8,9)           -25.7675         estimate D2E/DX2                !
 ! D33   D(18,5,8,21)         -152.4301         estimate D2E/DX2                !
 ! D34   D(5,6,7,8)            -18.5757         estimate D2E/DX2                !
 ! D35   D(5,6,7,19)          -136.7368         estimate D2E/DX2                !
 ! D36   D(5,6,7,20)           100.6073         estimate D2E/DX2                !
 ! D37   D(6,7,8,5)             21.3126         estimate D2E/DX2                !
 ! D38   D(6,7,8,9)            140.9036         estimate D2E/DX2                !
 ! D39   D(6,7,8,21)           -94.6071         estimate D2E/DX2                !
 ! D40   D(19,7,8,5)           138.0103         estimate D2E/DX2                !
 ! D41   D(19,7,8,9)          -102.3987         estimate D2E/DX2                !
 ! D42   D(19,7,8,21)           22.0906         estimate D2E/DX2                !
 ! D43   D(20,7,8,5)           -93.8086         estimate D2E/DX2                !
 ! D44   D(20,7,8,9)            25.7823         estimate D2E/DX2                !
 ! D45   D(20,7,8,21)          150.2716         estimate D2E/DX2                !
 ! D46   D(5,8,9,10)           -79.3871         estimate D2E/DX2                !
 ! D47   D(5,8,9,22)           101.6388         estimate D2E/DX2                !
 ! D48   D(7,8,9,10)           174.5743         estimate D2E/DX2                !
 ! D49   D(7,8,9,22)            -4.3999         estimate D2E/DX2                !
 ! D50   D(21,8,9,10)           48.9833         estimate D2E/DX2                !
 ! D51   D(21,8,9,22)         -129.9908         estimate D2E/DX2                !
 ! D52   D(8,9,10,11)         -179.3541         estimate D2E/DX2                !
 ! D53   D(8,9,10,23)            0.5857         estimate D2E/DX2                !
 ! D54   D(22,9,10,11)          -0.3982         estimate D2E/DX2                !
 ! D55   D(22,9,10,23)         179.5416         estimate D2E/DX2                !
 --------------------------------------------------------------------------------
 Trust Radius=3.00D-01 FncErr=1.00D-07 GrdErr=1.00D-06 EigMax=2.50D+02 EigMin=1.00D-04
 Number of steps in this run=    130 maximum allowed number of steps=    138.
 GradGradGradGradGradGradGradGradGradGradGradGradGradGradGradGradGradGrad

                          Input orientation:                          
 ---------------------------------------------------------------------
 Center     Atomic      Atomic             Coordinates (Angstroms)
 Number     Number       Type             X           Y           Z
 ---------------------------------------------------------------------
      1          6           0        1.017670    0.088060   -0.034070
      2          6           0        2.527330    0.037440   -0.046900
      3          6           0        3.023540   -1.327520   -0.511410
      4          8           0        2.218850   -2.224840   -0.809050
      5          6           0        4.544720   -1.566880   -0.629130
      6         16           0        5.564090   -0.360380    0.303520
      7          6           0        6.400210   -1.924450    0.634250
      8          6           0        5.142460   -2.750230    0.213130
      9          6           0        5.458120   -3.996750   -0.562290
     10          6           0        4.487640   -4.863180   -0.898430
     11          6           0        4.763730   -6.058070   -1.621300
     12          7           0        5.004500   -7.030750   -2.209840
     13          1           0        0.667490    1.064740    0.307690
     14          1           0        0.623320   -0.681250    0.637630
     15          1           0        0.624650   -0.099030   -1.037780
     16          1           0        2.891860    0.232170    0.967390
     17          1           0        2.920510    0.805590   -0.722720
     18          1           0        4.830040   -1.597200   -1.688660
     19          1           0        6.696090   -2.040160    1.680710
     20          1           0        7.287300   -2.043610    0.006050
     21          1           0        4.520410   -3.009950    1.085230
     22          1           0        6.493290   -4.195130   -0.833630
     23          1           0        3.449250   -4.689480   -0.631890
 ---------------------------------------------------------------------
                    Distance matrix (angstroms):
                    1          2          3          4          5
     1  C    0.000000
     2  C    1.510563   0.000000
     3  C    2.501047   1.524831   0.000000
     4  O    2.718995   2.407061   1.241491   0.000000
     5  C    3.941193   2.642479   1.544390   2.423830   0.000000
     6  S    4.580939   3.082688   2.837933   3.988064   1.834283
     7  C    5.785204   4.394562   3.615351   4.433635   2.273066
     8  C    5.013072   3.831139   2.653090   3.141398   1.570673
     9  C    6.056590   5.012968   3.613109   3.700463   2.596736
    10  C    6.107584   5.346400   3.846331   3.480838   3.307775
    11  C    7.370697   6.680978   5.161223   4.672239   4.604688
    12  N    8.444302   7.795767   6.271818   5.728772   5.706480
    13  H    1.092396   2.154085   3.456126   3.804624   4.778699
    14  H    1.094774   2.147173   2.738433   2.649768   4.215021
    15  H    1.094030   2.149572   2.746075   2.666994   4.205773
    16  H    2.129854   1.095256   2.153328   3.105733   2.918459
    17  H    2.147065   1.096074   2.146025   3.111798   2.876705
    18  H    4.484633   3.266481   2.173036   2.825944   1.097693
    19  H    6.301924   4.967858   4.335997   5.126274   3.191825
    20  H    6.622227   5.195275   4.354331   5.136771   2.855253
    21  H    4.808293   3.813223   2.760516   3.082511   2.240998
    22  H    6.997673   5.853412   4.512890   4.706749   3.278177
    23  H    5.393965   4.851384   3.390947   2.760384   3.309183
                    6          7          8          9         10
     6  S    0.000000
     7  C    1.804105   0.000000
     8  C    2.428441   1.562431   0.000000
     9  C    3.739524   2.571705   1.501576   0.000000
    10  C    4.783162   3.826639   2.475664   1.343697   0.000000
    11  C    6.067057   4.985217   3.801365   2.419240   1.423562
    12  N    7.150102   6.009256   4.920637   3.482147   2.585595
    13  H    5.099772   6.473483   5.881181   7.023224   7.154614
    14  H    4.962438   5.909147   4.988337   5.983948   5.897541
    15  H    5.124984   6.283704   5.385559   6.227419   6.135082
    16  H    2.816496   4.131648   3.811669   5.177777   5.656005
    17  H    3.066133   4.626316   4.296130   5.433937   5.884023
    18  H    2.457099   2.822842   2.245861   2.724157   3.377621
    19  H    2.449436   1.093623   2.252056   3.223641   4.415728
    20  H    2.427180   1.093509   2.267715   2.735629   4.075065
    21  H    2.953059   2.217057   1.102252   2.137147   2.714856
    22  H    4.106316   2.705425   2.237897   1.088374   2.114976
    23  H    4.908019   4.237531   2.709559   2.126094   1.086034
                   11         12         13         14         15
    11  C    0.000000
    12  N    1.162091   0.000000
    13  H    8.440060   9.522845   0.000000
    14  H    7.152339   8.223076   1.777440   0.000000
    15  H    7.278917   8.282847   1.779462   1.773691   0.000000
    16  H    7.054951   8.204148   2.464995   2.467661   3.044773
    17  H    7.163430   8.243953   2.490984   3.055868   2.487684
    18  H    4.461871   5.461276   5.328992   4.893576   4.511481
    19  H    5.548052   6.550103   6.918786   6.309769   6.929687
    20  H    5.013239   5.915481   7.319475   6.831072   7.018681
    21  H    4.083570   5.220983   5.661507   4.561853   5.306371
    22  H    2.661268   3.485856   7.931506   6.997750   7.159654
    23  H    2.140053   3.223395   6.460035   5.065912   5.405122
                   16         17         18         19         20
    16  H    0.000000
    17  H    1.784966   0.000000
    18  H    3.762677   3.217568   0.000000
    19  H    4.488260   5.303751   3.876985   0.000000
    20  H    5.042147   5.264779   3.018187   1.775958   0.000000
    21  H    3.630069   4.515164   3.128290   2.455336   3.123159
    22  H    5.984560   6.146890   3.201049   3.317669   2.442243
    23  H    5.204903   5.521196   3.547610   4.786333   4.705127
                   21         22         23
    21  H    0.000000
    22  H    2.996486   0.000000
    23  H    2.629963   3.090511   0.000000
 Stoichiometry    C9H11NOS
 Framework group  C1[X(C9H11NOS)]
 Deg. of freedom    63
 Full point group                 C1      NOp   1
 Largest Abelian subgroup         C1      NOp   1
 Largest concise Abelian subgroup C1      NOp   1
                         Standard orientation:                         
 ---------------------------------------------------------------------
 Center     Atomic      Atomic             Coordinates (Angstroms)
 Number     Number       Type             X           Y           Z
 ---------------------------------------------------------------------
      1          6           0       -3.411719   -2.155108    0.225779
      2          6           0       -2.827754   -0.795620   -0.078488
      3          6           0       -1.307551   -0.864093   -0.175462
      4          8           0       -0.710849   -1.938707   -0.000958
      5          6           0       -0.524141    0.421720   -0.519110
      6         16           0       -1.472736    1.968099   -0.248052
      7          6           0        0.162897    2.390807    0.385048
      8          6           0        0.563000    0.886079    0.515060
      9          6           0        1.984420    0.593474    0.129473
     10          6           0        2.503355   -0.635220    0.292385
     11          6           0        3.851746   -0.933796   -0.052902
     12          7           0        4.955084   -1.162255   -0.337344
     13          1           0       -4.499940   -2.098867    0.302859
     14          1           0       -3.011425   -2.530656    1.173017
     15          1           0       -3.147660   -2.865179   -0.563507
     16          1           0       -3.111296   -0.106250    0.723982
     17          1           0       -3.226452   -0.422692   -1.028932
     18          1           0       -0.148580    0.357956   -1.548585
     19          1           0        0.128640    2.940038    1.330133
     20          1           0        0.731680    2.979696   -0.339837
     21          1           0        0.374410    0.505400    1.532152
     22          1           0        2.594250    1.401557   -0.270109
     23          1           0        1.915851   -1.454594    0.696037
 ---------------------------------------------------------------------
 Rotational constants (GHZ):           1.1498095           0.4671799           0.3433467
 Standard basis: 6-31G(2df,p) (6D, 7F)
 There are   431 symmetry adapted cartesian basis functions of A   symmetry.
 There are   395 symmetry adapted basis functions of A   symmetry.
   395 basis functions,   629 primitive gaussians,   431 cartesian basis functions
    48 alpha electrons       48 beta electrons
       nuclear repulsion energy       737.9367972604 Hartrees.
 NAtoms=   23 NActive=   23 NUniq=   23 SFac= 1.00D+00 NAtFMM=   60 NAOKFM=F Big=F
 Integral buffers will be    131072 words long.
 Raffenetti 2 integral format.
 Two-electron integral symmetry is turned on.
 One-electron integrals computed using PRISM.
 PrsmSu:  requested number of processors reduced to:  13 ShMem   1 Linda.
 NBasis=   395 RedAO= T EigKep=  1.53D-04  NBF=   395
 NBsUse=   395 1.00D-06 EigRej= -1.00D+00 NBFU=   395
 ExpMin= 1.17D-01 ExpMax= 2.19D+04 ExpMxC= 3.30D+03 IAcc=3 IRadAn=         5 AccDes= 0.00D+00
 Harris functional with IExCor=  402 and IRadAn=       5 diagonalized for initial guess.
 HarFok:  IExCor=  402 AccDes= 0.00D+00 IRadAn=         5 IDoV= 1 UseB2=F ITyADJ=14
 ICtDFT=  3500011 ScaDFX=  1.000000  1.000000  1.000000  1.000000
 FoFCou: FMM=F IPFlag=           0 FMFlag=      100000 FMFlg1=           0
         NFxFlg=           0 DoJE=T BraDBF=F KetDBF=T FulRan=T
         wScrn=  0.000000 ICntrl=       500 IOpCl=  0 I1Cent=   200000004 NGrid=           0
         NMat0=    1 NMatS0=      1 NMatT0=    0 NMatD0=    1 NMtDS0=    0 NMtDT0=    0
 Petite list used in FoFCou.
 Requested convergence on RMS density matrix=1.00D-08 within 128 cycles.
 Requested convergence on MAX density matrix=1.00D-06.
 Requested convergence on             energy=1.00D-06.
 No special actions if energy rises.
 Integral accuracy reduced to 1.0D-05 until final iterations.
 Initial convergence to 1.0D-05 achieved.  Increase integral accuracy.
 SCF Done:  E(RB3LYP) =  -877.716173215     A.U. after   15 cycles
            NFock= 15  Conv=0.37D-08     -V/T= 2.0057

 **********************************************************************

            Population analysis using the SCF density.

 **********************************************************************

 Orbital symmetries:
       Occupied  (A) (A) (A) (A) (A) (A) (A) (A) (A) (A) (A) (A)
                 (A) (A) (A) (A) (A) (A) (A) (A) (A) (A) (A) (A)
                 (A) (A) (A) (A) (A) (A) (A) (A) (A) (A) (A) (A)
                 (A) (A) (A) (A) (A) (A) (A) (A) (A) (A) (A) (A)
       Virtual   (A) (A) (A) (A) (A) (A) (A) (A) (A) (A) (A) (A)
                 (A) (A) (A) (A) (A) (A) (A) (A) (A) (A) (A) (A)
                 (A) (A) (A) (A) (A) (A) (A) (A) (A) (A) (A) (A)
                 (A) (A) (A) (A) (A) (A) (A) (A) (A) (A) (A) (A)
                 (A) (A) (A) (A) (A) (A) (A) (A) (A) (A) (A) (A)
                 (A) (A) (A) (A) (A) (A) (A) (A) (A) (A) (A) (A)
                 (A) (A) (A) (A) (A) (A) (A) (A) (A) (A) (A) (A)
                 (A) (A) (A) (A) (A) (A) (A) (A) (A) (A) (A) (A)
                 (A) (A) (A) (A) (A) (A) (A) (A) (A) (A) (A) (A)
                 (A) (A) (A) (A) (A) (A) (A) (A) (A) (A) (A) (A)
                 (A) (A) (A) (A) (A) (A) (A) (A) (A) (A) (A) (A)
                 (A) (A) (A) (A) (A) (A) (A) (A) (A) (A) (A) (A)
                 (A) (A) (A) (A) (A) (A) (A) (A) (A) (A) (A) (A)
                 (A) (A) (A) (A) (A) (A) (A) (A) (A) (A) (A) (A)
                 (A) (A) (A) (A) (A) (A) (A) (A) (A) (A) (A) (A)
                 (A) (A) (A) (A) (A) (A) (A) (A) (A) (A) (A) (A)
                 (A) (A) (A) (A) (A) (A) (A) (A) (A) (A) (A) (A)
                 (A) (A) (A) (A) (A) (A) (A) (A) (A) (A) (A) (A)
                 (A) (A) (A) (A) (A) (A) (A) (A) (A) (A) (A) (A)
                 (A) (A) (A) (A) (A) (A) (A) (A) (A) (A) (A) (A)
                 (A) (A) (A) (A) (A) (A) (A) (A) (A) (A) (A) (A)
                 (A) (A) (A) (A) (A) (A) (A) (A) (A) (A) (A) (A)
                 (A) (A) (A) (A) (A) (A) (A) (A) (A) (A) (A) (A)
                 (A) (A) (A) (A) (A) (A) (A) (A) (A) (A) (A) (A)
                 (A) (A) (A) (A) (A) (A) (A) (A) (A) (A) (A) (A)
                 (A) (A) (A) (A) (A) (A) (A) (A) (A) (A) (A) (A)
                 (A) (A) (A) (A) (A) (A) (A) (A) (A) (A) (A) (A)
                 (A) (A) (A) (A) (A) (A) (A) (A) (A) (A) (A) (A)
                 (A) (A) (A) (A) (A) (A) (A) (A) (A) (A) (A)
 The electronic state is 1-A.
 Alpha  occ. eigenvalues --  -88.88477 -19.15197 -14.33019 -10.29366 -10.24997
 Alpha  occ. eigenvalues --  -10.24246 -10.23621 -10.23421 -10.23182 -10.22193
 Alpha  occ. eigenvalues --  -10.20496 -10.18171  -7.94927  -5.91370  -5.91105
 Alpha  occ. eigenvalues --   -5.90423  -1.04441  -0.90199  -0.88971  -0.81953
 Alpha  occ. eigenvalues --   -0.79298  -0.72951  -0.71655  -0.65134  -0.62557
 Alpha  occ. eigenvalues --   -0.59391  -0.54921  -0.53490  -0.50112  -0.48549
 Alpha  occ. eigenvalues --   -0.47759  -0.45815  -0.45269  -0.43503  -0.41377
 Alpha  occ. eigenvalues --   -0.39981  -0.38716  -0.37271  -0.37165  -0.36836
 Alpha  occ. eigenvalues --   -0.36161  -0.35836  -0.35297  -0.33141  -0.31840
 Alpha  occ. eigenvalues --   -0.27856  -0.26662  -0.23957
 Alpha virt. eigenvalues --   -0.06129  -0.04161  -0.00583   0.03462   0.04936
 Alpha virt. eigenvalues --    0.07223   0.08246   0.09361   0.10400   0.11657
 Alpha virt. eigenvalues --    0.13279   0.14179   0.14683   0.15054   0.16033
 Alpha virt. eigenvalues --    0.16529   0.17814   0.18562   0.19632   0.20389
 Alpha virt. eigenvalues --    0.21984   0.22573   0.26011   0.27697   0.28521
 Alpha virt. eigenvalues --    0.29030   0.30749   0.33401   0.35156   0.36976
 Alpha virt. eigenvalues --    0.38320   0.38613   0.40450   0.41595   0.42244
 Alpha virt. eigenvalues --    0.44750   0.47167   0.47568   0.48540   0.49649
 Alpha virt. eigenvalues --    0.50477   0.50928   0.51941   0.53766   0.54095
 Alpha virt. eigenvalues --    0.55289   0.56411   0.57160   0.57868   0.59639
 Alpha virt. eigenvalues --    0.61106   0.62712   0.63859   0.65703   0.66243
 Alpha virt. eigenvalues --    0.66760   0.68390   0.69614   0.70378   0.70906
 Alpha virt. eigenvalues --    0.71268   0.72373   0.73530   0.73773   0.74490
 Alpha virt. eigenvalues --    0.74884   0.75632   0.76029   0.77071   0.77570
 Alpha virt. eigenvalues --    0.78892   0.79062   0.80239   0.81133   0.82021
 Alpha virt. eigenvalues --    0.82489   0.84717   0.85294   0.87110   0.87671
 Alpha virt. eigenvalues --    0.89147   0.90213   0.90952   0.91585   0.93518
 Alpha virt. eigenvalues --    0.95591   0.96517   0.98260   1.01175   1.02134
 Alpha virt. eigenvalues --    1.04366   1.07562   1.09162   1.11535   1.12852
 Alpha virt. eigenvalues --    1.14531   1.15830   1.17016   1.19164   1.20508
 Alpha virt. eigenvalues --    1.21342   1.25522   1.26753   1.28405   1.29492
 Alpha virt. eigenvalues --    1.31683   1.32448   1.33833   1.34978   1.36677
 Alpha virt. eigenvalues --    1.37643   1.39010   1.42113   1.42436   1.44316
 Alpha virt. eigenvalues --    1.45734   1.47432   1.49373   1.51466   1.52385
 Alpha virt. eigenvalues --    1.53029   1.53542   1.56445   1.57487   1.58614
 Alpha virt. eigenvalues --    1.60122   1.61983   1.64445   1.67341   1.68123
 Alpha virt. eigenvalues --    1.69279   1.73267   1.73589   1.74362   1.76491
 Alpha virt. eigenvalues --    1.76610   1.77689   1.78795   1.80144   1.83516
 Alpha virt. eigenvalues --    1.85175   1.86249   1.88886   1.89561   1.92561
 Alpha virt. eigenvalues --    1.94097   1.95458   1.98350   2.02040   2.02569
 Alpha virt. eigenvalues --    2.04461   2.07380   2.10688   2.12435   2.14303
 Alpha virt. eigenvalues --    2.17354   2.21942   2.22198   2.24944   2.27042
 Alpha virt. eigenvalues --    2.28227   2.32096   2.32592   2.34764   2.35843
 Alpha virt. eigenvalues --    2.37253   2.39194   2.41899   2.46465   2.47366
 Alpha virt. eigenvalues --    2.50141   2.52955   2.56202   2.56890   2.59964
 Alpha virt. eigenvalues --    2.65472   2.66429   2.71203   2.72218   2.73764
 Alpha virt. eigenvalues --    2.75497   2.76897   2.77379   2.78399   2.80535
 Alpha virt. eigenvalues --    2.81481   2.82490   2.84153   2.84655   2.85246
 Alpha virt. eigenvalues --    2.86433   2.87736   2.89139   2.91872   2.92392
 Alpha virt. eigenvalues --    2.93338   2.94945   2.96635   2.99382   2.99431
 Alpha virt. eigenvalues --    3.01280   3.03221   3.06507   3.07733   3.11349
 Alpha virt. eigenvalues --    3.12988   3.13774   3.15435   3.16421   3.19377
 Alpha virt. eigenvalues --    3.21931   3.22059   3.24205   3.26069   3.27296
 Alpha virt. eigenvalues --    3.31427   3.33226   3.33752   3.35557   3.37088
 Alpha virt. eigenvalues --    3.38393   3.42563   3.43413   3.45116   3.46460
 Alpha virt. eigenvalues --    3.47910   3.50945   3.54040   3.54747   3.58420
 Alpha virt. eigenvalues --    3.60114   3.61630   3.62671   3.63654   3.64923
 Alpha virt. eigenvalues --    3.67651   3.68023   3.68621   3.70965   3.72340
 Alpha virt. eigenvalues --    3.72925   3.74971   3.77859   3.80271   3.81263
 Alpha virt. eigenvalues --    3.83958   3.89092   3.90978   3.93289   3.96019
 Alpha virt. eigenvalues --    3.98520   4.01565   4.03930   4.08125   4.11906
 Alpha virt. eigenvalues --    4.14031   4.14710   4.16109   4.17256   4.18848
 Alpha virt. eigenvalues --    4.20870   4.22512   4.23491   4.26494   4.28858
 Alpha virt. eigenvalues --    4.30954   4.34080   4.35825   4.38310   4.40174
 Alpha virt. eigenvalues --    4.40901   4.42575   4.44747   4.45294   4.46255
 Alpha virt. eigenvalues --    4.48246   4.48586   4.49695   4.50024   4.52700
 Alpha virt. eigenvalues --    4.55443   4.56696   4.57507   4.58824   4.61070
 Alpha virt. eigenvalues --    4.63071   4.64407   4.66906   4.67887   4.69648
 Alpha virt. eigenvalues --    4.71387   4.72847   4.73380   4.75753   4.76865
 Alpha virt. eigenvalues --    4.78997   4.79402   4.80926   4.82840   4.86948
 Alpha virt. eigenvalues --    4.88387   4.90308   4.90737   4.93469   4.94439
 Alpha virt. eigenvalues --    4.96303   4.98854   5.01721   5.04517   5.07723
 Alpha virt. eigenvalues --    5.08091   5.13539   5.17216   5.21375   5.22551
 Alpha virt. eigenvalues --    5.28028   5.30868   5.33166   5.37124   5.37416
 Alpha virt. eigenvalues --    5.40133   5.44905   5.47955   5.50059   5.55345
 Alpha virt. eigenvalues --    5.62789   5.68717   5.81226   5.97885   6.01769
 Alpha virt. eigenvalues --    6.34149   6.38178   6.44478   6.58992   6.84765
 Alpha virt. eigenvalues --    9.99839  10.78411  10.99760  11.39748  11.42709
 Alpha virt. eigenvalues --   11.54509  11.74360  12.12840  12.30880  12.67408
 Alpha virt. eigenvalues --   13.13398  18.41822
          Condensed to atoms (all electrons):
               1          2          3          4          5          6
     1  C    4.943740   0.387203  -0.019732  -0.001517   0.004884  -0.000078
     2  C    0.387203   5.125002   0.308169  -0.078191  -0.110002   0.002322
     3  C   -0.019732   0.308169   4.320202   0.733405   0.388676  -0.038593
     4  O   -0.001517  -0.078191   0.733405   7.706271  -0.057244   0.003002
     5  C    0.004884  -0.110002   0.388676  -0.057244   5.073345   0.231157
     6  S   -0.000078   0.002322  -0.038593   0.003002   0.231157  15.898690
     7  C   -0.000006  -0.000305   0.002491   0.000153  -0.080757   0.269507
     8  C   -0.000024   0.001636  -0.004803  -0.001443   0.364009  -0.077904
     9  C    0.000004  -0.000119  -0.001714  -0.002968  -0.024834   0.002923
    10  C   -0.000000   0.000051   0.000682   0.000286  -0.007960   0.000457
    11  C   -0.000000   0.000001   0.000031   0.000224  -0.000080   0.000027
    12  N   -0.000000  -0.000000  -0.000000  -0.000000   0.000004  -0.000000
    13  H    0.369493  -0.023413   0.003344   0.000675  -0.000074  -0.000013
    14  H    0.381822  -0.029285  -0.003067   0.005240   0.000300  -0.000002
    15  H    0.379421  -0.027926  -0.002346   0.004820   0.000167  -0.000013
    16  H   -0.035594   0.365056  -0.012661   0.000349  -0.001654   0.003777
    17  H   -0.034743   0.356628  -0.014685   0.000835   0.001762   0.000362
    18  H   -0.000132   0.004480  -0.022691  -0.000697   0.342328  -0.042677
    19  H   -0.000000   0.000034  -0.000024   0.000001   0.007254  -0.045090
    20  H    0.000000   0.000007  -0.000058  -0.000000   0.000306  -0.045656
    21  H   -0.000044   0.000920  -0.001363   0.001060  -0.038916   0.010173
    22  H   -0.000000   0.000002   0.000041  -0.000014   0.001576  -0.000130
    23  H   -0.000004   0.000156   0.001321   0.010547  -0.000827  -0.000026
               7          8          9         10         11         12
     1  C   -0.000006  -0.000024   0.000004  -0.000000  -0.000000  -0.000000
     2  C   -0.000305   0.001636  -0.000119   0.000051   0.000001  -0.000000
     3  C    0.002491  -0.004803  -0.001714   0.000682   0.000031  -0.000000
     4  O    0.000153  -0.001443  -0.002968   0.000286   0.000224  -0.000000
     5  C   -0.080757   0.364009  -0.024834  -0.007960  -0.000080   0.000004
     6  S    0.269507  -0.077904   0.002923   0.000457   0.000027  -0.000000
     7  C    5.009253   0.357787  -0.020039   0.002406  -0.000186  -0.000000
     8  C    0.357787   4.765042   0.404992  -0.020195   0.003848  -0.000001
     9  C   -0.020039   0.404992   4.809619   0.653210  -0.021782  -0.009506
    10  C    0.002406  -0.020195   0.653210   4.847217   0.405980  -0.019590
    11  C   -0.000186   0.003848  -0.021782   0.405980   4.375225   1.013396
    12  N   -0.000000  -0.000001  -0.009506  -0.019590   1.013396   6.341279
    13  H   -0.000000   0.000001   0.000000  -0.000000  -0.000000   0.000000
    14  H    0.000001   0.000008  -0.000000  -0.000000  -0.000000   0.000000
    15  H    0.000000  -0.000006   0.000000   0.000000  -0.000000  -0.000000
    16  H    0.000021  -0.000248   0.000003  -0.000002  -0.000000  -0.000000
    17  H    0.000086   0.000183  -0.000004  -0.000000  -0.000000   0.000000
    18  H    0.002793  -0.028530  -0.001738   0.001313  -0.000024  -0.000001
    19  H    0.372558  -0.012988   0.000574  -0.000142   0.000006  -0.000000
    20  H    0.370748  -0.026093  -0.003245   0.000461  -0.000002  -0.000000
    21  H   -0.032915   0.362854  -0.032535  -0.007294   0.000080   0.000001
    22  H   -0.006761  -0.045250   0.363556  -0.028545  -0.010942   0.000634
    23  H    0.000145  -0.009128  -0.039129   0.362669  -0.032134   0.000525
              13         14         15         16         17         18
     1  C    0.369493   0.381822   0.379421  -0.035594  -0.034743  -0.000132
     2  C   -0.023413  -0.029285  -0.027926   0.365056   0.356628   0.004480
     3  C    0.003344  -0.003067  -0.002346  -0.012661  -0.014685  -0.022691
     4  O    0.000675   0.005240   0.004820   0.000349   0.000835  -0.000697
     5  C   -0.000074   0.000300   0.000167  -0.001654   0.001762   0.342328
     6  S   -0.000013  -0.000002  -0.000013   0.003777   0.000362  -0.042677
     7  C   -0.000000   0.000001   0.000000   0.000021   0.000086   0.002793
     8  C    0.000001   0.000008  -0.000006  -0.000248   0.000183  -0.028530
     9  C    0.000000  -0.000000   0.000000   0.000003  -0.000004  -0.001738
    10  C   -0.000000  -0.000000   0.000000  -0.000002  -0.000000   0.001313
    11  C   -0.000000  -0.000000  -0.000000  -0.000000  -0.000000  -0.000024
    12  N    0.000000   0.000000  -0.000000  -0.000000   0.000000  -0.000001
    13  H    0.605464  -0.030926  -0.030731  -0.002351  -0.002233   0.000002
    14  H   -0.030926   0.572152  -0.028574  -0.003963   0.005229  -0.000002
    15  H   -0.030731  -0.028574   0.573441   0.004991  -0.003803  -0.000011
    16  H   -0.002351  -0.003963   0.004991   0.558082  -0.030035   0.000189
    17  H   -0.002233   0.005229  -0.003803  -0.030035   0.586491  -0.000311
    18  H    0.000002  -0.000002  -0.000011   0.000189  -0.000311   0.594457
    19  H    0.000000  -0.000000   0.000000  -0.000021  -0.000000  -0.000450
    20  H    0.000000  -0.000000  -0.000000   0.000003  -0.000000   0.002568
    21  H    0.000000   0.000003  -0.000001   0.000091   0.000002   0.004505
    22  H    0.000000  -0.000000   0.000000   0.000000  -0.000000   0.000828
    23  H   -0.000000  -0.000001  -0.000001  -0.000005  -0.000001   0.000371
              19         20         21         22         23
     1  C   -0.000000   0.000000  -0.000044  -0.000000  -0.000004
     2  C    0.000034   0.000007   0.000920   0.000002   0.000156
     3  C   -0.000024  -0.000058  -0.001363   0.000041   0.001321
     4  O    0.000001  -0.000000   0.001060  -0.000014   0.010547
     5  C    0.007254   0.000306  -0.038916   0.001576  -0.000827
     6  S   -0.045090  -0.045656   0.010173  -0.000130  -0.000026
     7  C    0.372558   0.370748  -0.032915  -0.006761   0.000145
     8  C   -0.012988  -0.026093   0.362854  -0.045250  -0.009128
     9  C    0.000574  -0.003245  -0.032535   0.363556  -0.039129
    10  C   -0.000142   0.000461  -0.007294  -0.028545   0.362669
    11  C    0.000006  -0.000002   0.000080  -0.010942  -0.032134
    12  N   -0.000000  -0.000000   0.000001   0.000634   0.000525
    13  H    0.000000   0.000000   0.000000   0.000000  -0.000000
    14  H   -0.000000  -0.000000   0.000003  -0.000000  -0.000001
    15  H    0.000000  -0.000000  -0.000001   0.000000  -0.000001
    16  H   -0.000021   0.000003   0.000091   0.000000  -0.000005
    17  H   -0.000000  -0.000000   0.000002  -0.000000  -0.000001
    18  H   -0.000450   0.002568   0.004505   0.000828   0.000371
    19  H    0.591313  -0.042525  -0.006832   0.000158  -0.000000
    20  H   -0.042525   0.596861   0.003914   0.005323   0.000010
    21  H   -0.006832   0.003914   0.603232   0.004602   0.002908
    22  H    0.000158   0.005323   0.004602   0.580789   0.005364
    23  H   -0.000000   0.000010   0.002908   0.005364   0.535574
 Mulliken charges:
               1
     1  C   -0.374694
     2  C   -0.282426
     3  C    0.363376
     4  O   -0.324795
     5  C   -0.093422
     6  S   -0.172215
     7  C   -0.246979
     8  C   -0.033746
     9  C   -0.077268
    10  C   -0.191004
    11  C    0.266332
    12  N   -0.326741
    13  H    0.110763
    14  H    0.131065
    15  H    0.130571
    16  H    0.153972
    17  H    0.134238
    18  H    0.143429
    19  H    0.136174
    20  H    0.137379
    21  H    0.125555
    22  H    0.128770
    23  H    0.161665
 Sum of Mulliken charges =  -0.00000
 Mulliken charges with hydrogens summed into heavy atoms:
               1
     1  C   -0.002294
     2  C    0.005785
     3  C    0.363376
     4  O   -0.324795
     5  C    0.050008
     6  S   -0.172215
     7  C    0.026574
     8  C    0.091809
     9  C    0.051501
    10  C   -0.029339
    11  C    0.266332
    12  N   -0.326741
 Electronic spatial extent (au):  <R**2>=           3082.5800
 Charge=             -0.0000 electrons
 Dipole moment (field-independent basis, Debye):
    X=             -3.9733    Y=              2.7041    Z=              0.8988  Tot=              4.8894
 Quadrupole moment (field-independent basis, Debye-Ang):
   XX=           -102.0960   YY=            -81.3345   ZZ=            -75.2925
   XY=             11.3668   XZ=              3.2490   YZ=              0.6297
 Traceless Quadrupole moment (field-independent basis, Debye-Ang):
   XX=            -15.8551   YY=              4.9065   ZZ=             10.9485
   XY=             11.3668   XZ=              3.2490   YZ=              0.6297
 Octapole moment (field-independent basis, Debye-Ang**2):
  XXX=           -184.9705  YYY=             13.8638  ZZZ=              1.1187  XYY=              4.0674
  XXY=             28.9029  XXZ=             13.7291  XZZ=             -4.8247  YZZ=             -3.7191
  YYZ=              6.5684  XYZ=             -8.5893
 Hexadecapole moment (field-independent basis, Debye-Ang**3):
 XXXX=          -3742.4396 YYYY=          -1155.1540 ZZZZ=           -153.2911 XXXY=            252.9439
 XXXZ=             82.8116 YYYX=             24.1808 YYYZ=             15.9401 ZZZX=              0.1478
 ZZZY=              4.6357 XXYY=           -719.5980 XXZZ=           -507.3400 YYZZ=           -217.7994
 XXYZ=            -21.3399 YYXZ=              0.0615 ZZXY=             10.0241
 N-N= 7.379367972604D+02 E-N=-3.536282074098D+03  KE= 8.727129869463D+02
 PrsmSu:  requested number of processors reduced to:  13 ShMem   1 Linda.
 Calling FoFJK, ICntrl=      2127 FMM=F ISym2X=0 I1Cent= 0 IOpClX= 0 NMat=1 NMatS=1 NMatT=0.
 ***** Axes restored to original set *****
 -------------------------------------------------------------------
 Center     Atomic                   Forces (Hartrees/Bohr)
 Number     Number              X              Y              Z
 -------------------------------------------------------------------
      1        6          -0.009242521   -0.000456761   -0.001569637
      2        6          -0.002521695   -0.007624580   -0.000486495
      3        6          -0.023222254   -0.028773704   -0.013682630
      4        8           0.033936130    0.026544119    0.011589621
      5        6          -0.021219249    0.004571046    0.009781956
      6       16           0.003609860    0.018446716   -0.002777941
      7        6           0.000610728   -0.010606470    0.017271554
      8        6           0.020585165    0.000577450   -0.011540269
      9        6          -0.014062514   -0.006449942    0.002788026
     10        6           0.007292399   -0.002808991   -0.001413251
     11        6           0.002722210   -0.006892441   -0.005169390
     12        7          -0.002535307    0.006362083    0.004146185
     13        1          -0.000535755    0.000591296   -0.000018793
     14        1          -0.001746178    0.001267165   -0.002050847
     15        1          -0.002561260   -0.000226313    0.001935665
     16        1           0.007018820    0.001579698   -0.002969294
     17        1           0.005925179    0.001296730    0.002558974
     18        1          -0.001203923   -0.002724781    0.002840559
     19        1           0.000971668   -0.000549357   -0.001327283
     20        1          -0.003308193   -0.004460941   -0.002526935
     21        1           0.001259066    0.007311165   -0.005972840
     22        1          -0.002023474    0.000898800   -0.000990806
     23        1           0.000251099    0.002128014   -0.000416128
 -------------------------------------------------------------------
 Cartesian Forces:  Max     0.033936130 RMS     0.009579836

 GradGradGradGradGradGradGradGradGradGradGradGradGradGradGradGradGradGrad
 Berny optimization.
 FormGI is forming the generalized inverse of G from B-inverse, IUseBI=4.
 Internal  Forces:  Max     0.043960197 RMS     0.005631084
 Search for a local minimum.
 Step number   1 out of a maximum of  130
 All quantities printed in internal units (Hartrees-Bohrs-Radians)
 Mixed Optimization -- RFO/linear search
 Second derivative matrix not updated -- first step.
 ITU=  0
     Eigenvalues ---    0.00230   0.00335   0.00370   0.00437   0.00626
     Eigenvalues ---    0.00745   0.01599   0.02783   0.02834   0.02834
     Eigenvalues ---    0.03891   0.04338   0.04424   0.04648   0.04839
     Eigenvalues ---    0.04839   0.05055   0.05604   0.05777   0.05866
     Eigenvalues ---    0.05874   0.06682   0.08183   0.08863   0.09020
     Eigenvalues ---    0.10206   0.10583   0.12609   0.12725   0.15998
     Eigenvalues ---    0.16000   0.16000   0.16000   0.16000   0.19611
     Eigenvalues ---    0.22000   0.22000   0.22004   0.23030   0.24434
     Eigenvalues ---    0.24996   0.25000   0.25546   0.26008   0.28134
     Eigenvalues ---    0.29906   0.31294   0.32213   0.33434   0.33938
     Eigenvalues ---    0.34120   0.34212   0.34267   0.34351   0.34397
     Eigenvalues ---    0.34410   0.34537   0.35001   0.35275   0.41928
     Eigenvalues ---    0.56384   0.86462   1.26435
 RFO step:  Lambda=-1.56278188D-02 EMin= 2.30000000D-03
 Linear search not attempted -- first point.
 Iteration  1 RMS(Cart)=  0.09768686 RMS(Int)=  0.00300920
 Iteration  2 RMS(Cart)=  0.00545745 RMS(Int)=  0.00065824
 Iteration  3 RMS(Cart)=  0.00000879 RMS(Int)=  0.00065821
 Iteration  4 RMS(Cart)=  0.00000001 RMS(Int)=  0.00065821
 Variable       Old X    -DE/DX   Delta X   Delta X   Delta X     New X
                                 (Linear)    (Quad)   (Total)
    R1        2.85455   0.01410   0.00000   0.04292   0.04292   2.89747
    R2        2.06433   0.00069   0.00000   0.00192   0.00192   2.06625
    R3        2.06882  -0.00152   0.00000  -0.00424  -0.00424   2.06458
    R4        2.06742  -0.00082   0.00000  -0.00228  -0.00228   2.06514
    R5        2.88151  -0.00280   0.00000  -0.00889  -0.00889   2.87262
    R6        2.06973  -0.00013   0.00000  -0.00037  -0.00037   2.06936
    R7        2.07128   0.00146   0.00000   0.00408   0.00408   2.07536
    R8        2.34608  -0.04396   0.00000  -0.04994  -0.04994   2.29614
    R9        2.91847  -0.00820   0.00000  -0.02761  -0.02761   2.89086
   R10        3.46629   0.01008   0.00000   0.03712   0.03690   3.50319
   R11        2.96814  -0.00218   0.00000  -0.01406  -0.01418   2.95396
   R12        2.07434  -0.00298   0.00000  -0.00839  -0.00839   2.06595
   R13        3.40926   0.01420   0.00000   0.06242   0.06280   3.47206
   R14        2.95257  -0.00443   0.00000  -0.01839  -0.01844   2.93412
   R15        2.06665  -0.00095   0.00000  -0.00264  -0.00264   2.06401
   R16        2.06643  -0.00075   0.00000  -0.00207  -0.00207   2.06436
   R17        2.83757   0.00440   0.00000   0.01304   0.01304   2.85060
   R18        2.08295  -0.00716   0.00000  -0.02046  -0.02046   2.06250
   R19        2.53922  -0.00409   0.00000  -0.00706  -0.00706   2.53216
   R20        2.05673  -0.00184   0.00000  -0.00504  -0.00504   2.05169
   R21        2.69014   0.00100   0.00000   0.00230   0.00230   2.69244
   R22        2.05231  -0.00000   0.00000  -0.00001  -0.00001   2.05230
   R23        2.19603  -0.00795   0.00000  -0.00621  -0.00621   2.18982
    A1        1.93156  -0.00074   0.00000  -0.00439  -0.00438   1.92718
    A2        1.91948   0.00280   0.00000   0.01598   0.01588   1.93536
    A3        1.92357   0.00379   0.00000   0.02172   0.02163   1.94520
    A4        1.89743  -0.00113   0.00000  -0.00674  -0.00672   1.89071
    A5        1.90156  -0.00162   0.00000  -0.00929  -0.00928   1.89228
    A6        1.88949  -0.00326   0.00000  -0.01818  -0.01837   1.87112
    A7        1.93672   0.00596   0.00000   0.03548   0.03506   1.97178
    A8        1.89526   0.00371   0.00000   0.04245   0.04254   1.93780
    A9        1.91798   0.00111   0.00000   0.01965   0.01989   1.93787
   A10        1.91023  -0.00454   0.00000  -0.02722  -0.02867   1.88156
   A11        1.89946  -0.00327   0.00000  -0.02304  -0.02386   1.87560
   A12        1.90393  -0.00313   0.00000  -0.04898  -0.05002   1.85392
   A13        2.10494   0.00591   0.00000   0.02232   0.02230   2.12724
   A14        2.07429   0.00480   0.00000   0.01814   0.01812   2.09241
   A15        2.10381  -0.01071   0.00000  -0.04026  -0.04029   2.06352
   A16        1.98961   0.00688   0.00000   0.08734   0.08856   2.07817
   A17        2.03839  -0.00214   0.00000  -0.02124  -0.02365   2.01473
   A18        1.91121  -0.00068   0.00000  -0.02190  -0.02482   1.88639
   A19        1.58220   0.00061   0.00000   0.01309   0.01239   1.59459
   A20        1.94389  -0.00107   0.00000  -0.00087  -0.00135   1.94254
   A21        1.97999  -0.00313   0.00000  -0.04579  -0.04653   1.93346
   A22        1.34952  -0.00313   0.00000  -0.00477  -0.00644   1.34308
   A23        1.60652  -0.00012   0.00000   0.00591   0.00485   1.61137
   A24        1.97418   0.00159   0.00000   0.02335   0.02328   1.99745
   A25        1.94457   0.00098   0.00000   0.00665   0.00638   1.95094
   A26        2.00400   0.00323   0.00000   0.02167   0.02133   2.02532
   A27        2.02707  -0.00743   0.00000  -0.06393  -0.06364   1.96343
   A28        1.89515   0.00160   0.00000   0.00785   0.00754   1.90270
   A29        1.62351   0.00565   0.00000   0.03569   0.03397   1.65748
   A30        2.01365  -0.00068   0.00000   0.00978   0.00800   2.02165
   A31        1.96820  -0.00542   0.00000  -0.06776  -0.06761   1.90059
   A32        1.99184   0.00052   0.00000   0.04583   0.04586   2.03770
   A33        1.94505  -0.00212   0.00000  -0.02654  -0.02655   1.91850
   A34        1.90881   0.00204   0.00000   0.00406   0.00378   1.91259
   A35        2.10905   0.00851   0.00000   0.03625   0.03606   2.14511
   A36        2.07145  -0.00400   0.00000  -0.01648  -0.01666   2.05478
   A37        2.10255  -0.00449   0.00000  -0.01921  -0.01939   2.08315
   A38        2.12726   0.00239   0.00000   0.01016   0.00995   2.13721
   A39        2.12473  -0.00294   0.00000  -0.01501  -0.01523   2.10950
   A40        2.03120   0.00055   0.00000   0.00489   0.00467   2.03587
   A41        3.12819   0.00205   0.00000   0.03203   0.03203   3.16022
   A42        3.13935  -0.00022   0.00000  -0.00346  -0.00346   3.13589
    D1        3.13292  -0.00001   0.00000   0.00361   0.00381   3.13673
    D2        1.03265  -0.00044   0.00000  -0.01178  -0.01218   1.02047
    D3       -1.04865   0.00047   0.00000   0.01058   0.01077  -1.03787
    D4        1.03617   0.00005   0.00000   0.00447   0.00473   1.04089
    D5       -1.06410  -0.00038   0.00000  -0.01092  -0.01127  -1.07537
    D6        3.13779   0.00054   0.00000   0.01144   0.01169  -3.13371
    D7       -1.04570  -0.00003   0.00000   0.00337   0.00352  -1.04218
    D8        3.13722  -0.00046   0.00000  -0.01202  -0.01248   3.12474
    D9        1.05593   0.00045   0.00000   0.01034   0.01048   1.06640
   D10       -0.00980  -0.00122   0.00000  -0.03190  -0.03190  -0.04169
   D11        3.11326  -0.00108   0.00000  -0.01984  -0.01961   3.09365
   D12        2.08156   0.00419   0.00000   0.02548   0.02454   2.10610
   D13       -1.07857   0.00433   0.00000   0.03754   0.03683  -1.04174
   D14       -2.12237  -0.00422   0.00000  -0.06356  -0.06296  -2.18534
   D15        1.00069  -0.00408   0.00000  -0.05150  -0.05068   0.95001
   D16        0.32208   0.00092   0.00000   0.06204   0.06261   0.38470
   D17        2.13397   0.00478   0.00000   0.12117   0.12050   2.25447
   D18       -1.86860  -0.00230   0.00000   0.01496   0.01541  -1.85319
   D19       -2.83803   0.00125   0.00000   0.07478   0.07512  -2.76291
   D20       -1.02614   0.00511   0.00000   0.13391   0.13300  -0.89315
   D21        1.25447  -0.00197   0.00000   0.02769   0.02791   1.28238
   D22        2.41490  -0.00497   0.00000  -0.06195  -0.06065   2.35426
   D23        0.32225  -0.00473   0.00000  -0.06831  -0.06791   0.25434
   D24       -1.69498  -0.00137   0.00000  -0.02387  -0.02228  -1.71726
   D25       -2.41569  -0.00429   0.00000  -0.03387  -0.03231  -2.44800
   D26        1.79833  -0.00789   0.00000  -0.11005  -0.10919   1.68914
   D27       -0.41235  -0.00527   0.00000  -0.06312  -0.06285  -0.47520
   D28       -0.36535   0.00341   0.00000   0.06857   0.06992  -0.29542
   D29       -2.43452  -0.00019   0.00000  -0.00762  -0.00695  -2.44147
   D30        1.63799   0.00244   0.00000   0.03931   0.03938   1.67737
   D31        1.61944   0.00189   0.00000   0.06457   0.06489   1.68433
   D32       -0.44973  -0.00171   0.00000  -0.01161  -0.01199  -0.46172
   D33       -2.66041   0.00091   0.00000   0.03532   0.03435  -2.62606
   D34       -0.32421   0.00451   0.00000   0.06824   0.06797  -0.25624
   D35       -2.38651   0.00053   0.00000   0.03471   0.03458  -2.35193
   D36        1.75593  -0.00350   0.00000   0.00209   0.00157   1.75750
   D37        0.37198  -0.00398   0.00000  -0.07287  -0.07366   0.29832
   D38        2.45923  -0.00150   0.00000  -0.02784  -0.02726   2.43197
   D39       -1.65121  -0.00008   0.00000  -0.00801  -0.00811  -1.65931
   D40        2.40873  -0.00136   0.00000  -0.03730  -0.03805   2.37069
   D41       -1.78719   0.00111   0.00000   0.00774   0.00835  -1.77884
   D42        0.38555   0.00254   0.00000   0.02756   0.02751   0.41306
   D43       -1.63727  -0.00303   0.00000  -0.06656  -0.06729  -1.70456
   D44        0.44999  -0.00056   0.00000  -0.02152  -0.02089   0.42909
   D45        2.62273   0.00087   0.00000  -0.00170  -0.00174   2.62099
   D46       -1.38557   0.00522   0.00000   0.08127   0.08151  -1.30406
   D47        1.77393   0.00408   0.00000   0.04526   0.04547   1.81940
   D48        3.04690  -0.00182   0.00000   0.00189   0.00200   3.04890
   D49       -0.07679  -0.00296   0.00000  -0.03412  -0.03404  -0.11083
   D50        0.85492  -0.00103   0.00000  -0.00058  -0.00088   0.85404
   D51       -2.26877  -0.00217   0.00000  -0.03659  -0.03692  -2.30569
   D52       -3.13032  -0.00115   0.00000  -0.03129  -0.03126   3.12161
   D53        0.01022   0.00061   0.00000   0.00876   0.00878   0.01900
   D54       -0.00695   0.00002   0.00000   0.00540   0.00538  -0.00157
   D55        3.13359   0.00178   0.00000   0.04545   0.04542  -3.10417
         Item               Value     Threshold  Converged?
 Maximum Force            0.043960     0.000450     NO 
 RMS     Force            0.005631     0.000300     NO 
 Maximum Displacement     0.339769     0.001800     NO 
 RMS     Displacement     0.098997     0.001200     NO 
 Predicted change in Energy=-9.134989D-03
 GradGradGradGradGradGradGradGradGradGradGradGradGradGradGradGradGradGrad

                          Input orientation:                          
 ---------------------------------------------------------------------
 Center     Atomic      Atomic             Coordinates (Angstroms)
 Number     Number       Type             X           Y           Z
 ---------------------------------------------------------------------
      1          6           0        0.963663    0.013497   -0.070307
      2          6           0        2.496876    0.007944   -0.083100
      3          6           0        3.082296   -1.346689   -0.447843
      4          8           0        2.378432   -2.315043   -0.655793
      5          6           0        4.597996   -1.514308   -0.569400
      6         16           0        5.709751   -0.309226    0.295691
      7          6           0        6.472584   -1.933689    0.689402
      8          6           0        5.207725   -2.709635    0.232425
      9          6           0        5.435619   -3.978443   -0.550956
     10          6           0        4.439792   -4.797215   -0.916252
     11          6           0        4.663424   -5.981154   -1.676698
     12          7           0        4.824702   -6.950789   -2.290395
     13          1           0        0.588019    1.003837    0.201122
     14          1           0        0.577513   -0.710123    0.651417
     15          1           0        0.554856   -0.254957   -1.047587
     16          1           0        2.899019    0.294316    0.894360
     17          1           0        2.887690    0.740298   -0.802153
     18          1           0        4.846685   -1.592452   -1.631119
     19          1           0        6.758573   -2.056887    1.736299
     20          1           0        7.339608   -2.138252    0.057114
     21          1           0        4.569728   -2.920349    1.092525
     22          1           0        6.454582   -4.218149   -0.839087
     23          1           0        3.407939   -4.563391   -0.671165
 ---------------------------------------------------------------------
                    Distance matrix (angstroms):
                    1          2          3          4          5
     1  C    0.000000
     2  C    1.533276   0.000000
     3  C    2.545829   1.520126   0.000000
     4  O    2.786838   2.395470   1.215063   0.000000
     5  C    3.973872   2.639781   1.529777   2.361166   0.000000
     6  S    4.771106   3.250638   2.921077   4.003287   1.853808
     7  C    5.892105   4.491431   3.623803   4.326322   2.296637
     8  C    5.051649   3.851428   2.614926   2.991577   1.563170
     9  C    6.013735   4.974574   3.531982   3.481994   2.602675
    10  C    5.995168   5.249630   3.737423   3.237008   3.304968
    11  C    7.225272   6.565271   5.048595   4.438896   4.602510
    12  N    8.266661   7.662564   6.151172   5.490565   5.706886
    13  H    1.093414   2.171709   3.488200   3.867150   4.797361
    14  H    1.092531   2.176945   2.808474   2.743697   4.278012
    15  H    1.092825   2.184215   2.817716   2.779009   4.261644
    16  H    2.180607   1.095060   2.127909   3.079406   2.881013
    17  H    2.183052   1.098233   2.125775   3.100947   2.839466
    18  H    4.482529   3.237165   2.138600   2.750577   1.093252
    19  H    6.413368   5.073046   4.334728   4.997437   3.206046
    20  H    6.730448   5.298856   4.359617   5.015252   2.880671
    21  H    4.792007   3.775408   2.657366   2.867889   2.177095
    22  H    6.974815   5.839077   4.446422   4.502267   3.290958
    23  H    5.223353   4.698187   3.240847   2.472890   3.274675
                    6          7          8          9         10
     6  S    0.000000
     7  C    1.837336   0.000000
     8  C    2.453160   1.552671   0.000000
     9  C    3.775595   2.606685   1.508475   0.000000
    10  C    4.819092   3.861367   2.503433   1.339963   0.000000
    11  C    6.095562   5.025282   3.826728   2.423722   1.424780
    12  N    7.182027   6.063498   4.949618   3.497672   2.583468
    13  H    5.288214   6.595117   5.927270   6.991993   7.052438
    14  H    5.160147   6.020831   5.060876   5.977358   5.837731
    15  H    5.327315   6.391774   5.414155   6.158965   5.978469
    16  H    2.936474   4.216204   3.846037   5.174916   5.619252
    17  H    3.204808   4.714489   4.284268   5.368572   5.752051
    18  H    2.470658   2.853911   2.202554   2.684502   3.308641
    19  H    2.495936   1.092227   2.256732   3.267127   4.463426
    20  H    2.461441   1.092413   2.214077   2.716841   4.052957
    21  H    2.958472   2.181024   1.091427   2.137840   2.752217
    22  H    4.137895   2.748702   2.231234   1.085709   2.097774
    23  H    4.932653   4.261282   2.737173   2.113789   1.086031
                   11         12         13         14         15
    11  C    0.000000
    12  N    1.158804   0.000000
    13  H    8.302122   9.350573   0.000000
    14  H    7.063891   8.101776   1.772155   0.000000
    15  H    7.075694   8.038055   1.773397   1.759064   0.000000
    16  H    7.007495   8.145089   2.514900   2.541124   3.093212
    17  H    7.006852   8.069678   2.522796   3.090874   2.548114
    18  H    4.392762   5.398787   5.313573   4.920803   4.533123
    19  H    5.606965   6.626039   7.056949   6.418429   7.034421
    20  H    4.993591   5.915747   7.448316   6.936762   7.127414
    21  H    4.128668   5.268169   5.661080   4.584479   5.272911
    22  H    2.649155   3.497160   7.922609   7.004840   7.110354
    23  H    2.144153   3.213845   6.301337   4.960665   5.181156
                   16         17         18         19         20
    16  H    0.000000
    17  H    1.754191   0.000000
    18  H    3.705583   3.156988   0.000000
    19  H    4.597083   5.408486   3.900066   0.000000
    20  H    5.131978   5.370658   3.059852   1.778730   0.000000
    21  H    3.628306   4.451897   3.042737   2.439478   3.058755
    22  H    6.000768   6.108215   3.179140   3.375807   2.431547
    23  H    5.129053   5.330753   3.437729   4.827545   4.676506
                   21         22         23
    21  H    0.000000
    22  H    2.994677   0.000000
    23  H    2.675807   3.070737   0.000000
 Stoichiometry    C9H11NOS
 Framework group  C1[X(C9H11NOS)]
 Deg. of freedom    63
 Full point group                 C1      NOp   1
 Largest Abelian subgroup         C1      NOp   1
 Largest concise Abelian subgroup C1      NOp   1
                         Standard orientation:                         
 ---------------------------------------------------------------------
 Center     Atomic      Atomic             Coordinates (Angstroms)
 Number     Number       Type             X           Y           Z
 ---------------------------------------------------------------------
      1          6           0       -3.274353   -2.373885    0.189339
      2          6           0       -2.767312   -0.960075   -0.118859
      3          6           0       -1.250298   -0.864349   -0.135849
      4          8           0       -0.544084   -1.819654    0.119167
      5          6           0       -0.574106    0.461535   -0.489421
      6         16           0       -1.526511    2.039516   -0.290658
      7          6           0        0.106475    2.444855    0.447486
      8          6           0        0.516319    0.948960    0.518989
      9          6           0        1.942456    0.617568    0.155936
     10          6           0        2.456182   -0.614375    0.273855
     11          6           0        3.797801   -0.921742   -0.094360
     12          7           0        4.887203   -1.191152   -0.383236
     13          1           0       -4.367560   -2.394084    0.196007
     14          1           0       -2.918519   -2.711110    1.165702
     15          1           0       -2.920164   -3.095690   -0.550806
     16          1           0       -3.140064   -0.239846    0.616996
     17          1           0       -3.130260   -0.615568   -1.096458
     18          1           0       -0.158751    0.372585   -1.496778
     19          1           0        0.052476    2.973403    1.401781
     20          1           0        0.731926    3.017131   -0.241482
     21          1           0        0.287874    0.547629    1.507907
     22          1           0        2.564110    1.418557   -0.232300
     23          1           0        1.846369   -1.440916    0.626589
 ---------------------------------------------------------------------
 Rotational constants (GHZ):           1.0803765           0.4835392           0.3458972
 Standard basis: 6-31G(2df,p) (6D, 7F)
 There are   431 symmetry adapted cartesian basis functions of A   symmetry.
 There are   395 symmetry adapted basis functions of A   symmetry.
   395 basis functions,   629 primitive gaussians,   431 cartesian basis functions
    48 alpha electrons       48 beta electrons
       nuclear repulsion energy       737.4262042258 Hartrees.
 NAtoms=   23 NActive=   23 NUniq=   23 SFac= 1.00D+00 NAtFMM=   60 NAOKFM=F Big=F
 Integral buffers will be    131072 words long.
 Raffenetti 2 integral format.
 Two-electron integral symmetry is turned on.
 One-electron integrals computed using PRISM.
 PrsmSu:  requested number of processors reduced to:  13 ShMem   1 Linda.
 NBasis=   395 RedAO= T EigKep=  1.51D-04  NBF=   395
 NBsUse=   395 1.00D-06 EigRej= -1.00D+00 NBFU=   395
 Initial guess from the checkpoint file:  "CCCqdOrC1SCC1CdCCtN.chk"
 B after Tr=    -0.000000   -0.000000    0.000000
         Rot=    0.999942   -0.000204    0.000052   -0.010801 Ang=  -1.24 deg.
 ExpMin= 1.17D-01 ExpMax= 2.19D+04 ExpMxC= 3.30D+03 IAcc=2 IRadAn=         4 AccDes= 0.00D+00
 Harris functional with IExCor=  402 and IRadAn=       4 diagonalized for initial guess.
 HarFok:  IExCor=  402 AccDes= 0.00D+00 IRadAn=         4 IDoV= 1 UseB2=F ITyADJ=14
 ICtDFT=  3500011 ScaDFX=  1.000000  1.000000  1.000000  1.000000
 FoFCou: FMM=F IPFlag=           0 FMFlag=      100000 FMFlg1=           0
         NFxFlg=           0 DoJE=T BraDBF=F KetDBF=T FulRan=T
         wScrn=  0.000000 ICntrl=       500 IOpCl=  0 I1Cent=   200000004 NGrid=           0
         NMat0=    1 NMatS0=      1 NMatT0=    0 NMatD0=    1 NMtDS0=    0 NMtDT0=    0
 Petite list used in FoFCou.
 Requested convergence on RMS density matrix=1.00D-08 within 128 cycles.
 Requested convergence on MAX density matrix=1.00D-06.
 Requested convergence on             energy=1.00D-06.
 No special actions if energy rises.
 Integral accuracy reduced to 1.0D-05 until final iterations.
 Initial convergence to 1.0D-05 achieved.  Increase integral accuracy.
 SCF Done:  E(RB3LYP) =  -877.724899247     A.U. after   13 cycles
            NFock= 13  Conv=0.96D-08     -V/T= 2.0057
 PrsmSu:  requested number of processors reduced to:  13 ShMem   1 Linda.
 Calling FoFJK, ICntrl=      2127 FMM=F ISym2X=0 I1Cent= 0 IOpClX= 0 NMat=1 NMatS=1 NMatT=0.
 ***** Axes restored to original set *****
 -------------------------------------------------------------------
 Center     Atomic                   Forces (Hartrees/Bohr)
 Number     Number              X              Y              Z
 -------------------------------------------------------------------
      1        6           0.001916693    0.000166574    0.000205452
      2        6          -0.003640003   -0.003976343   -0.003557068
      3        6          -0.004415406   -0.003478371   -0.000889576
      4        8           0.002767062    0.002159076    0.002063563
      5        6          -0.004530102    0.001668425    0.004458416
      6       16           0.000719359    0.003270020   -0.001600345
      7        6          -0.000452671   -0.006784576    0.002838031
      8        6           0.006279093   -0.000741886   -0.004308868
      9        6          -0.004972557    0.000910470    0.003044323
     10        6           0.002242089   -0.000891873   -0.001625920
     11        6          -0.000241390   -0.000200903    0.000431209
     12        7           0.000060057    0.000455496    0.000148171
     13        1           0.000416416    0.000039492   -0.000081361
     14        1           0.000243893   -0.000198765    0.000137180
     15        1           0.000638899   -0.000043588   -0.000223980
     16        1           0.002021626    0.001180905    0.000101094
     17        1           0.001475814    0.001536169    0.001180631
     18        1           0.000071457    0.001939064   -0.001093879
     19        1          -0.000747920    0.000594395   -0.000855318
     20        1           0.000249153    0.001179635   -0.000758720
     21        1          -0.001466441    0.000693599    0.000482483
     22        1           0.001131111    0.000307283   -0.000126552
     23        1           0.000233767    0.000215700    0.000031034
 -------------------------------------------------------------------
 Cartesian Forces:  Max     0.006784576 RMS     0.002197461

 GradGradGradGradGradGradGradGradGradGradGradGradGradGradGradGradGradGrad
 Berny optimization.
 Using GEDIIS/GDIIS optimizer.
 FormGI is forming the generalized inverse of G from B-inverse, IUseBI=4.
 Internal  Forces:  Max     0.004361586 RMS     0.001118224
 Search for a local minimum.
 Step number   2 out of a maximum of  130
 All quantities printed in internal units (Hartrees-Bohrs-Radians)
 Mixed Optimization -- RFO/linear search
 Update second derivatives using D2CorX and points    1    2
 DE= -8.73D-03 DEPred=-9.13D-03 R= 9.55D-01
 TightC=F SS=  1.41D+00  RLast= 4.20D-01 DXNew= 5.0454D-01 1.2595D+00
 Trust test= 9.55D-01 RLast= 4.20D-01 DXMaxT set to 5.05D-01
 ITU=  1  0
 Use linear search instead of GDIIS.
     Eigenvalues ---    0.00232   0.00324   0.00338   0.00438   0.00626
     Eigenvalues ---    0.00745   0.01605   0.02802   0.02833   0.02849
     Eigenvalues ---    0.03868   0.04100   0.04342   0.04749   0.04839
     Eigenvalues ---    0.04883   0.05296   0.05409   0.05680   0.05745
     Eigenvalues ---    0.05844   0.06432   0.08165   0.08953   0.09368
     Eigenvalues ---    0.10097   0.10670   0.12810   0.12942   0.15974
     Eigenvalues ---    0.15999   0.16000   0.16000   0.16140   0.19930
     Eigenvalues ---    0.21186   0.21974   0.22022   0.23143   0.24013
     Eigenvalues ---    0.24884   0.25523   0.25798   0.26083   0.28016
     Eigenvalues ---    0.29853   0.31867   0.32568   0.33642   0.34028
     Eigenvalues ---    0.34120   0.34245   0.34297   0.34351   0.34401
     Eigenvalues ---    0.34460   0.34545   0.35091   0.35276   0.41941
     Eigenvalues ---    0.56321   0.83971   1.26372
 RFO step:  Lambda=-2.17150591D-03 EMin= 2.31870277D-03
 Quartic linear search produced a step of  0.12196.
 Iteration  1 RMS(Cart)=  0.11549234 RMS(Int)=  0.00943749
 Iteration  2 RMS(Cart)=  0.01760077 RMS(Int)=  0.00022984
 Iteration  3 RMS(Cart)=  0.00026889 RMS(Int)=  0.00019241
 Iteration  4 RMS(Cart)=  0.00000005 RMS(Int)=  0.00019241
 Variable       Old X    -DE/DX   Delta X   Delta X   Delta X     New X
                                 (Linear)    (Quad)   (Total)
    R1        2.89747  -0.00321   0.00523  -0.01529  -0.01006   2.88742
    R2        2.06625  -0.00013   0.00023  -0.00059  -0.00035   2.06590
    R3        2.06458   0.00014  -0.00052   0.00083   0.00031   2.06490
    R4        2.06514  -0.00003  -0.00028   0.00012  -0.00015   2.06499
    R5        2.87262  -0.00288  -0.00108  -0.00973  -0.01081   2.86181
    R6        2.06936   0.00114  -0.00005   0.00370   0.00365   2.07302
    R7        2.07536   0.00078   0.00050   0.00212   0.00262   2.07798
    R8        2.29614  -0.00368  -0.00609  -0.00020  -0.00629   2.28985
    R9        2.89086  -0.00178  -0.00337  -0.00435  -0.00772   2.88314
   R10        3.50319   0.00078   0.00450  -0.00004   0.00449   3.50768
   R11        2.95396   0.00082  -0.00173   0.00336   0.00150   2.95547
   R12        2.06595   0.00094  -0.00102   0.00382   0.00280   2.06875
   R13        3.47206   0.00303   0.00766   0.00818   0.01601   3.48807
   R14        2.93412  -0.00227  -0.00225  -0.00742  -0.00977   2.92435
   R15        2.06401  -0.00108  -0.00032  -0.00321  -0.00353   2.06047
   R16        2.06436   0.00042  -0.00025   0.00152   0.00127   2.06563
   R17        2.85060  -0.00189   0.00159  -0.00767  -0.00608   2.84453
   R18        2.06250   0.00110  -0.00249   0.00553   0.00304   2.06553
   R19        2.53216  -0.00117  -0.00086  -0.00165  -0.00251   2.52965
   R20        2.05169   0.00103  -0.00061   0.00369   0.00308   2.05477
   R21        2.69244  -0.00055   0.00028  -0.00165  -0.00137   2.69107
   R22        2.05230  -0.00017  -0.00000  -0.00053  -0.00053   2.05177
   R23        2.18982  -0.00045  -0.00076   0.00016  -0.00060   2.18923
    A1        1.92718  -0.00033  -0.00053  -0.00166  -0.00220   1.92499
    A2        1.93536  -0.00018   0.00194  -0.00233  -0.00040   1.93496
    A3        1.94520  -0.00085   0.00264  -0.00853  -0.00592   1.93928
    A4        1.89071   0.00039  -0.00082   0.00444   0.00363   1.89433
    A5        1.89228   0.00054  -0.00113   0.00375   0.00261   1.89489
    A6        1.87112   0.00051  -0.00224   0.00497   0.00270   1.87382
    A7        1.97178  -0.00008   0.00428   0.00039   0.00457   1.97635
    A8        1.93780   0.00115   0.00519   0.00563   0.01085   1.94865
    A9        1.93787   0.00047   0.00243   0.00512   0.00754   1.94541
   A10        1.88156  -0.00061  -0.00350  -0.00309  -0.00680   1.87477
   A11        1.87560   0.00031  -0.00291   0.00755   0.00447   1.88007
   A12        1.85392  -0.00137  -0.00610  -0.01683  -0.02306   1.83086
   A13        2.12724   0.00297   0.00272   0.01089   0.01359   2.14083
   A14        2.09241  -0.00436   0.00221  -0.02086  -0.01866   2.07375
   A15        2.06352   0.00140  -0.00491   0.00992   0.00500   2.06852
   A16        2.07817   0.00084   0.01080  -0.00149   0.00972   2.08789
   A17        2.01473   0.00026  -0.00288   0.00493   0.00182   2.01655
   A18        1.88639  -0.00041  -0.00303  -0.00389  -0.00737   1.87902
   A19        1.59459   0.00002   0.00151   0.00465   0.00553   1.60013
   A20        1.94254  -0.00081  -0.00016  -0.01347  -0.01366   1.92888
   A21        1.93346   0.00015  -0.00567   0.01137   0.00577   1.93923
   A22        1.34308  -0.00061  -0.00079   0.00341   0.00183   1.34491
   A23        1.61137   0.00016   0.00059   0.00507   0.00494   1.61631
   A24        1.99745  -0.00030   0.00284  -0.00418  -0.00114   1.99632
   A25        1.95094  -0.00070   0.00078  -0.01827  -0.01740   1.93355
   A26        2.02532   0.00029   0.00260   0.00085   0.00355   2.02888
   A27        1.96343   0.00016  -0.00776   0.01066   0.00301   1.96644
   A28        1.90270   0.00030   0.00092   0.00455   0.00531   1.90801
   A29        1.65748   0.00088   0.00414   0.00871   0.01201   1.66949
   A30        2.02165   0.00102   0.00098   0.01371   0.01474   2.03639
   A31        1.90059  -0.00132  -0.00825  -0.01390  -0.02202   1.87857
   A32        2.03770  -0.00119   0.00559  -0.00997  -0.00426   2.03344
   A33        1.91850   0.00014  -0.00324   0.00087  -0.00227   1.91623
   A34        1.91259   0.00041   0.00046   0.00047   0.00080   1.91339
   A35        2.14511   0.00374   0.00440   0.01516   0.01954   2.16465
   A36        2.05478  -0.00245  -0.00203  -0.01164  -0.01370   2.04109
   A37        2.08315  -0.00129  -0.00237  -0.00351  -0.00590   2.07725
   A38        2.13721   0.00023   0.00121   0.00025   0.00142   2.13863
   A39        2.10950  -0.00038  -0.00186  -0.00078  -0.00267   2.10682
   A40        2.03587   0.00016   0.00057   0.00097   0.00151   2.03737
   A41        3.16022  -0.00030   0.00391  -0.01049  -0.00659   3.15363
   A42        3.13589   0.00018  -0.00042   0.00425   0.00383   3.13972
    D1        3.13673  -0.00014   0.00046  -0.00229  -0.00181   3.13492
    D2        1.02047  -0.00013  -0.00149  -0.00267  -0.00423   1.01624
    D3       -1.03787   0.00055   0.00131   0.01145   0.01281  -1.02507
    D4        1.04089  -0.00029   0.00058  -0.00525  -0.00465   1.03625
    D5       -1.07537  -0.00028  -0.00137  -0.00564  -0.00707  -1.08243
    D6       -3.13371   0.00039   0.00143   0.00849   0.00997  -3.12374
    D7       -1.04218  -0.00025   0.00043  -0.00434  -0.00390  -1.04608
    D8        3.12474  -0.00024  -0.00152  -0.00473  -0.00632   3.11843
    D9        1.06640   0.00043   0.00128   0.00940   0.01072   1.07712
   D10       -0.04169  -0.00017  -0.00389  -0.00573  -0.00959  -0.05128
   D11        3.09365  -0.00019  -0.00239  -0.01504  -0.01739   3.07626
   D12        2.10610   0.00080   0.00299  -0.00052   0.00235   2.10845
   D13       -1.04174   0.00078   0.00449  -0.00983  -0.00546  -1.04719
   D14       -2.18534  -0.00093  -0.00768  -0.01780  -0.02540  -2.21073
   D15        0.95001  -0.00095  -0.00618  -0.02711  -0.03320   0.91681
   D16        0.38470   0.00046   0.00764   0.20382   0.21167   0.59637
   D17        2.25447   0.00124   0.01470   0.21257   0.22699   2.48146
   D18       -1.85319   0.00129   0.00188   0.22807   0.23001  -1.62318
   D19       -2.76291   0.00044   0.00916   0.19485   0.20423  -2.55868
   D20       -0.89315   0.00122   0.01622   0.20360   0.21955  -0.67360
   D21        1.28238   0.00127   0.00340   0.21911   0.22257   1.50495
   D22        2.35426  -0.00034  -0.00740  -0.02812  -0.03524   2.31901
   D23        0.25434  -0.00096  -0.00828  -0.03655  -0.04467   0.20967
   D24       -1.71726  -0.00098  -0.00272  -0.04839  -0.05068  -1.76794
   D25       -2.44800  -0.00043  -0.00394   0.03815   0.03462  -2.41338
   D26        1.68914  -0.00001  -0.01332   0.03875   0.02550   1.71463
   D27       -0.47520  -0.00024  -0.00767   0.03932   0.03164  -0.44356
[...]
 0.00459320,0.00045270,0.00102303,-0.00161447,-0.00066572,0.00004165,0.
 00086708,-0.00002900,0.00000616,0.00009315,-0.00005587,-0.00005999,0.0
 0001875,0.00001796,0.00000806,0.00001409,0.00000368,-0.00001482,0.0000
 1364,-0.00001014,-0.00002185,-0.00001803,0.00001099,0.00001658,-0.0000
 0156,-0.00000192,-0.00000974,-0.00000728,-0.00000072,0.00000656,0.0000
 1154,-0.00223179,0.00152590,0.02872076,-0.00088658,0.04526249,0.016014
 48,-0.00582828,-0.31360894,0.00160585,-0.00076289,-0.00804842,0.000103
 58,0.00186601,-0.00046360,-0.00097390,-0.00046275,0.00097629,0.0000876
 5,-0.00029787,-0.00012658,-0.00010754,-0.00001448,-0.00001765,-0.00001
 210,-0.00001813,0.00001150,0.00005472,0.00001170,-0.00001229,0.0000053
 8,0.00000351,0.00002691,0.00000644,-0.00000734,-0.00000841,-0.00000918
 ,0.00001084,0.00000354,0.00000469,-0.00001184,-0.00000106,0.00027324,-
 0.00094573,-0.01016359,-0.01934475,0.00573087,0.34006629,-0.13556989,-
 0.11435409,-0.05138575,-0.02060842,-0.02310326,-0.01100082,-0.00011016
 ,-0.00314653,0.00088788,0.00177416,0.00138747,-0.00047022,0.00001717,0
 .00002505,-0.00010019,0.00026405,0.00010778,0.00009903,0.00002589,-0.0
 0006498,0.00001113,-0.00007718,0.00006903,0.00000475,0.00001633,-0.000
 01582,-0.00004027,0.00000449,0.00002164,0.00003692,0.00000470,-0.00000
 003,-0.00001094,0.00000446,0.00000621,0.00000991,0.00701933,0.00865645
 ,0.00490978,0.00106615,0.00199028,0.00045391,0.15051243,-0.11656574,-0
 .19575067,-0.06790369,0.00310526,0.00491769,0.00272611,0.00034846,0.00
 018226,0.00068507,0.00059377,-0.00021627,-0.00012464,-0.00013247,0.000
 07334,-0.00014694,-0.00011171,0.00001214,-0.00002450,0.00000211,-0.000
 02680,-0.00000787,-0.00002161,-0.00002784,0.00001023,-0.00000255,-0.00
 002043,-0.00002572,0.00000402,0.00001661,0.00000340,0.00000238,-0.0000
 1387,-0.00001048,-0.00000097,0.00001243,0.00001365,-0.01595181,-0.0193
 6508,-0.01033613,0.00066644,-0.00048752,0.00049433,0.12669511,0.209902
 13,-0.05233005,-0.06734671,-0.07709291,0.00682473,0.00861608,0.0028940
 3,-0.00092343,-0.00079762,0.00066278,0.00088556,0.00003109,-0.00007832
 ,0.00009269,0.00018222,-0.00011385,-0.00001596,-0.00000849,-0.00004343
 ,-0.00000039,0.00001825,-0.00000579,-0.00001448,0.00000016,0.00000151,
 -0.00000086,0.00001864,0.00001064,-0.00001015,-0.00001490,0.00000210,0
 .00000125,0.00000835,0.00000736,0.00000149,-0.00000585,-0.00001274,0.0
 0820711,0.00938686,0.00368617,-0.01902460,-0.02477514,-0.01031610,0.05
 430399,0.07429013,0.07956832,-0.01906127,-0.02340912,-0.01027564,-0.13
 161216,-0.10617602,-0.04691750,0.00866066,0.00607619,0.00793656,-0.000
 30332,0.00170717,-0.00338586,-0.00112492,-0.00133733,-0.00139523,-0.00
 046309,0.00129561,0.00020772,-0.00051300,0.00003962,-0.00010643,0.0002
 8132,-0.00024484,-0.00001658,-0.00002011,0.00002476,0.00002980,-0.0000
 1519,-0.00001473,-0.00001966,-0.00000444,-0.00000587,0.00000145,0.0000
 0457,0.00000589,0.00000706,0.00112005,0.00036079,-0.00051916,0.0014538
 0,0.00005705,0.00027702,-0.00561792,0.00186360,0.00244220,0.14678569,0
 .00426592,0.00526605,0.00231346,-0.10925690,-0.18838667,-0.06451073,-0
 .02105889,-0.02145749,-0.01129061,0.00403389,-0.00373103,0.00415974,0.
 00079360,0.00090916,0.00110627,0.00165793,0.00034855,0.00038982,-0.000
 10118,-0.00026164,0.00020298,-0.00028998,0.00013484,0.00015238,0.00004
 886,0.00006047,-0.00011398,-0.00001179,0.00004216,0.00007858,0.0000250
 6,-0.00001256,-0.00002197,-0.00000220,0.00002081,0.00002403,-0.0004182
 0,0.00056848,0.00031908,-0.00050104,0.00018612,0.00017893,0.00178956,0
 .00051453,-0.00029744,0.11926940,0.20505040,0.00581850,0.00789189,0.00
 307989,-0.04692689,-0.06177919,-0.06567985,0.00810367,0.01027158,0.003
 22225,-0.00162924,0.00221719,-0.00254235,-0.00015243,-0.00089729,-0.00
 054216,-0.00032296,0.00031210,0.00052693,-0.00002510,0.00005444,-0.000
 30172,0.00014418,-0.00005172,-0.00024230,-0.00000716,-0.00003861,0.000
 05984,0.00000521,-0.00001576,-0.00001436,-0.00001070,0.00001308,0.0000
 0646,0.00000837,-0.00000775,-0.00000508,-0.00065958,-0.00006067,0.0001
 2276,-0.00021346,0.00051520,0.00047722,0.00222908,0.00012964,0.0002820
 4,0.05161948,0.06750812,0.07365592,-0.00297337,0.00002221,0.03295479,-
 0.04596273,0.00332585,0.01429471,0.00088152,-0.00434743,-0.01137771,0.
 00051686,0.00201129,0.00028371,-0.00061403,-0.00006802,0.00063691,0.00
 041892,0.00051653,0.00006805,-0.00022630,-0.00009323,0.00014139,-0.000
 00189,-0.00012567,0.00024211,-0.00000845,0.00004089,-0.00004161,-0.000
 00148,0.00001626,0.00000345,0.00000448,-0.00001380,-0.00000890,-0.0000
 0758,0.00000907,0.00001068,0.00142358,0.00007962,-0.00064302,-0.006256
 98,0.00102542,0.00159812,0.00122965,-0.00050590,-0.00048809,0.00029400
 ,0.00012590,-0.01811678,0.05206323,0.00057957,-0.00036828,-0.00575406,
 0.00321304,-0.04068987,0.00703778,-0.00346454,0.00047512,0.03294809,0.
 00080623,-0.00648568,-0.00206436,0.00006591,-0.00047433,-0.00256571,-0
 .00058789,0.00010783,-0.00020797,-0.00021669,-0.00003843,-0.00008587,-
 0.00008160,-0.00001793,-0.00029538,0.00003275,-0.00001591,0.00004737,-
 0.00003084,-0.00003490,-0.00000446,0.00000363,0.00001085,0.00000929,-0
 .00000359,-0.00000483,-0.00001512,-0.00026277,0.00000793,-0.00028016,0
 .00154081,0.00042730,0.00006170,-0.00012819,0.00027964,0.00067828,0.00
 039681,0.00040142,-0.02586997,-0.00271727,0.04644416,0.00095293,-0.000
 23817,-0.00785012,0.01614517,0.00149381,-0.29430158,0.00191594,0.00086
 730,-0.01340233,-0.00173780,0.00136941,0.00087495,0.00057923,0.0004782
 3,-0.00014106,0.00011823,-0.00003655,0.00003205,-0.00000730,-0.0000868
 3,0.00019926,-0.00024834,0.00021962,0.00033903,-0.00003548,0.00003934,
 -0.00005302,0.00001965,0.00001905,0.00001029,-0.00000435,-0.00000030,0
 .00000012,-0.00000078,-0.00000820,0.00000214,0.00016101,-0.00031542,0.
 00055175,0.00176934,-0.00016306,0.00111984,0.00014521,0.00021570,0.000
 60210,0.00004634,-0.00010694,-0.01202021,-0.01957771,-0.00354172,0.323
 09326,-0.00005310,-0.00023608,-0.00029094,0.00019783,-0.00036302,-0.00
 224870,-0.00112284,-0.00832189,0.03178827,-0.00783160,-0.00101142,-0.0
 0112629,-0.05446342,-0.00179578,0.05712906,-0.00017006,-0.00203089,-0.
 01795543,-0.00057631,0.00005023,0.00025167,0.00234573,0.00253669,-0.00
 920746,0.00145653,-0.00019219,-0.00041769,-0.00016247,0.00004631,0.000
 19088,-0.00001800,0.00005642,-0.00002675,-0.00000389,-0.00001218,0.000
 00203,0.00003261,0.00003206,-0.00001827,0.00012454,-0.00008174,-0.0000
 4076,0.00010045,-0.00001020,0.00007196,0.00007401,-0.00010757,0.000123
 97,-0.00086654,0.00106444,-0.00039829,0.06338452,-0.00018140,-0.000003
 63,-0.00006773,0.00018188,-0.00014218,0.00092334,-0.00182641,0.0025319
 2,-0.00373203,0.00143075,0.00102368,-0.00040335,-0.00089657,-0.0546662
 2,0.05253344,-0.00262480,-0.00009988,-0.01803249,-0.00033109,-0.000925
 53,-0.00018054,-0.00825876,-0.00542349,0.02469580,-0.00103633,0.002368
 02,0.00123216,-0.00006575,-0.00020707,-0.00030475,0.00005245,-0.000049
 75,-0.00001067,-0.00001823,-0.00000030,-0.00002618,-0.00000860,-0.0000
 0237,0.00000153,-0.00000520,0.00000134,0.00001086,-0.00007483,0.000017
 76,0.00001023,0.00001645,-0.00014678,-0.00022061,0.00065870,-0.0001816
 4,-0.00010687,0.00912742,0.05914674,0.00027778,-0.00014188,0.00039492,
 -0.00039818,0.00008993,-0.00043582,-0.00005232,0.00424850,-0.00538920,
 0.00179749,-0.00102198,-0.00031255,0.05954758,0.05688986,-0.28669162,-
 0.00368364,-0.00333830,-0.01067125,-0.00059062,0.00015996,-0.00033354,
 0.00233420,0.00119350,-0.00391776,0.00021974,-0.00110554,0.00033578,-0
 .00004291,0.00017967,0.00039720,0.00000013,0.00004876,-0.00004692,0.00
 000041,0.00000413,0.00004301,0.00001142,-0.00000650,-0.00001293,-0.000
 18236,0.00005303,0.00007261,-0.00005003,0.00000355,-0.00004010,0.00008
 059,-0.00008224,-0.00008107,-0.00003114,-0.00003339,0.00087401,-0.0575
 9980,-0.05830116,0.30552231,0.00000879,0.00008385,-0.00003163,-0.00020
 897,0.00008612,0.00017587,0.00051073,0.00058332,-0.00116767,-0.0001301
 9,-0.00030395,0.00035900,-0.00464375,-0.00046875,-0.00246809,-0.001312
 94,0.00423894,-0.00562761,-0.05248586,0.01069662,-0.03866718,-0.004081
 23,0.00685959,-0.02065891,-0.00178727,0.00114651,0.00048627,0.00025485
 ,-0.00062544,-0.00046642,-0.00001691,0.00002942,0.00025936,0.00002880,
 -0.00007825,-0.00012834,-0.00003767,0.00000969,0.00001437,-0.00001824,
 0.00000568,0.00001323,-0.00000424,-0.00000730,0.00000231,-0.00002000,0
 .00000435,-0.00002612,0.00000442,-0.00004095,0.00004542,-0.00040574,0.
 00047761,-0.00019680,0.05735672,-0.00002144,0.00009472,-0.00000847,-0.
 00030904,-0.00028816,-0.00006720,-0.00070327,0.00042755,0.00050677,0.0
 0029705,0.00020869,-0.00029747,0.00039441,-0.00051836,0.00011994,0.005
 41364,-0.01186826,0.01687662,0.00951912,-0.07034668,0.08492100,0.00033
 690,0.00532832,-0.01445493,-0.00139891,0.00069167,-0.00020807,0.000158
 57,-0.00083507,-0.00010973,0.00005124,-0.00000939,0.00035224,0.0000022
 8,-0.00006779,-0.00015610,-0.00001091,-0.00000913,0.00000306,0.0000111
 2,-0.00000436,-0.00000474,0.00003071,0.00000862,-0.00001153,0.00006520
 ,0.00006954,0.00008178,0.00001460,0.00002314,-0.00003263,0.00015188,0.
 00064877,0.00027321,-0.01426222,0.07215027,0.00000570,0.00006172,-0.00
 002382,-0.00014418,-0.00009626,0.00003062,0.00030573,0.00041945,-0.000
 18666,-0.00009563,-0.00009016,-0.00001100,-0.00105596,-0.00083960,0.00
 019153,0.00016271,-0.00145486,0.00518360,-0.03885195,0.07930857,-0.292
 54333,0.00094633,0.00354781,-0.00728593,-0.00098596,0.00013975,-0.0001
 9200,0.00001282,-0.00030379,-0.00013688,0.00000563,-0.00000020,0.00013
 662,0.00002097,-0.00006138,-0.00007364,-0.00002461,0.00000635,0.000005
 39,0.00000054,-0.00000417,0.00000394,0.00000643,-0.00000559,0.00000040
 ,0.00000546,0.00002165,0.00001829,0.00000202,0.00000389,-0.00000851,0.
 00017864,0.00027439,0.00010406,0.04254469,-0.08626210,0.30822383,0.000
 01246,0.00003933,-0.00001598,0.00002914,0.00007340,0.00004723,-0.00048
 202,-0.00013753,-0.00009596,-0.00004592,0.00045680,-0.00019476,-0.0003
 0515,-0.00052183,-0.00043345,-0.00210341,0.00409030,0.00084282,-0.2347
 3102,0.01063272,0.12391673,-0.01716974,-0.00065016,0.01308190,0.001147
 58,0.00132927,0.00212845,0.00029270,-0.00020199,-0.00042330,-0.0000621
 6,-0.00001539,-0.00006980,0.00003177,-0.00001004,0.00000221,-0.0000239
 9,0.00002105,-0.00000031,0.00000344,-0.00000652,0.00000049,0.00000077,
 -0.00000678,0.00000764,-0.00001913,-0.00000791,0.00001187,-0.00002760,
 -0.00001075,-0.00000592,-0.00032356,0.00019242,-0.00023432,0.00530938,
 -0.00052348,-0.00333627,0.25067504,-0.00001223,0.00010809,-0.00000418,
 -0.00033536,-0.00020649,0.00002811,-0.00053300,0.00009809,0.00029265,0
 .00001270,0.00060654,-0.00040538,-0.00041818,-0.00144472,0.00036276,0.
 02259781,-0.01218905,-0.01050783,0.01593382,-0.03820114,-0.01300300,-0
 .01284134,-0.00008130,0.00987621,-0.00006629,0.00143985,0.00114131,-0.
 00005811,-0.00005399,0.00004254,0.00005499,0.00001165,-0.00002632,-0.0
 0000634,-0.00001475,0.00000359,-0.00000782,-0.00000858,0.00000815,-0.0
 0002076,-0.00001263,0.00000301,0.00004804,-0.00000466,-0.00000363,0.00
 007285,0.00023369,-0.00006313,0.00009236,0.00007857,0.00005425,0.00017
 707,0.00021386,0.00019279,-0.00844086,0.00306416,0.00524940,-0.0141532
 2,0.04724054,0.00000666,0.00002435,-0.00000420,0.00000086,0.00003860,0
 .00000048,-0.00026971,0.00016238,-0.00005449,-0.00000586,0.00023089,-0
 .00009495,0.00010060,-0.00053103,-0.00039211,-0.00280557,-0.00001708,0
 .00319915,0.12301167,-0.00774504,-0.13424560,-0.01166869,0.00120502,0.
 00807588,-0.00056478,-0.00038992,0.00183634,-0.00004378,0.00001301,-0.
 00007793,-0.00001838,0.00002032,-0.00007680,-0.00000906,0.00002291,0.0
 0003158,-0.00000712,0.00000533,0.00000056,0.00000004,-0.00000050,0.000
 00106,0.00000562,0.00000096,0.00000110,-0.00001280,0.00000840,0.000005
 13,-0.00002993,0.00000166,-0.00000237,0.00002912,0.00006702,-0.0001432
 4,0.02554041,-0.00175000,-0.01491250,-0.13146463,0.00900586,0.13767764
 ,-0.00009726,-0.00003507,0.00009372,-0.00007264,-0.00060029,0.00011760
 ,-0.00023079,0.00073472,-0.00026858,-0.00231774,0.00137778,0.00013456,
 0.01051334,0.00388434,-0.00994409,-0.00026576,0.00011181,-0.00028716,-
 0.01862525,-0.00899225,0.01549501,-0.15013436,-0.06360329,0.11585679,-
 0.00349695,-0.00072047,0.00509785,0.00009961,-0.00052910,-0.00151530,-
 0.00006640,0.00020292,-0.00027124,0.00004233,-0.00014200,-0.00006387,0
 .00004990,-0.00003316,-0.00000004,-0.00001881,0.00005075,-0.00000332,-
 0.00003860,0.00003753,-0.00003700,0.00010542,-0.00024426,0.00003118,0.
 00011233,-0.00016638,0.00013796,-0.00150756,0.00257143,-0.00083127,0.0
 0166285,0.00092181,0.00037920,-0.00245642,-0.00237559,-0.00204725,0.16
 481973,0.00003407,0.00006843,-0.00007648,0.00006043,0.00034726,0.00014
 881,-0.00264747,-0.00142085,0.00279951,-0.00007748,0.00197269,-0.00229
 002,-0.01277829,-0.01333911,0.02064415,0.00057882,-0.00009833,-0.00065
 320,-0.00568390,-0.00280618,0.00543330,-0.06452154,-0.08533935,0.06583
 112,0.01551874,0.00778149,-0.01824146,0.00146773,0.00098872,-0.0004489
 6,0.00003605,0.00027556,0.00023545,-0.00006786,-0.00001413,0.00005099,
 -0.00002092,0.00003710,-0.00001144,0.00004117,-0.00003266,-0.00002221,
 0.00005167,-0.00001904,0.00001844,-0.00006557,0.00018374,0.00000128,-0
 .00005097,0.00003338,-0.00012299,0.00091905,-0.00393525,0.00024949,0.0
 0007860,0.00113026,0.00000515,-0.00028775,-0.00098595,-0.00056891,0.06
 740854,0.09792060,-0.00001054,-0.00004210,0.00007760,0.00004089,-0.000
 00456,0.00022001,0.00286399,0.00124845,-0.00055205,0.00076852,-0.00305
 877,0.00044954,0.00470580,0.00815857,-0.01077187,-0.00004005,-0.000154
 25,-0.00039134,-0.01232073,-0.00615226,0.01128583,0.11406394,0.0641036
 7,-0.17163608,0.01605601,0.00793917,-0.01782688,-0.00007160,0.00130208
 ,0.00096889,-0.00022913,0.00016265,0.00056974,-0.00000689,0.00002869,0
 .00000464,0.00001450,-0.00003364,-0.00000075,-0.00002128,0.00001585,0.
 00000994,-0.00002878,0.00000614,-0.00001146,-0.00001115,-0.00001148,-0
 .00002641,0.00006519,-0.00006820,0.00007725,-0.00060289,0.00210549,0.0
 0002173,0.00027895,0.00019788,0.00131318,-0.00261854,-0.00190379,-0.00
 069591,-0.12286074,-0.06987302,0.18838277,-0.00000132,0.00001454,-0.00
 001700,-0.00001839,0.00000701,0.00005052,-0.00018408,-0.00005596,-0.00
 004728,0.00005997,0.00017336,-0.00010125,0.00058429,-0.00086507,0.0001
 8870,-0.00002964,-0.00004692,-0.00007479,0.00123242,0.00049584,-0.0002
 3585,-0.00241310,-0.00314874,0.00370461,-0.17397020,-0.04937913,0.1322
 8318,-0.00495111,-0.00341318,0.01333547,-0.00384467,0.00296132,-0.0032
 8073,0.00069938,-0.00050780,0.00022279,-0.00000665,0.00000389,0.000000
 89,0.00000633,-0.00000572,-0.00000642,-0.00000220,-0.00000194,0.000006
 34,0.00000124,0.00000401,0.00000001,-0.00000987,0.00001724,-0.00002219
 ,-0.00015474,0.00048474,-0.00032013,0.00004206,-0.00006076,-0.00006117
 ,0.00026057,0.00025850,0.00019697,0.00135708,0.00048532,0.00064197,0.1
 7612038,-0.00000329,-0.00001152,0.00000771,-0.00000148,-0.00003975,-0.
 00004655,0.00023580,0.00027592,-0.00001784,0.00019786,-0.00027720,0.00
 027177,-0.00051569,0.00185834,-0.00048471,-0.00017078,0.00003583,0.000
 31040,0.00086230,0.00070572,0.00032349,0.01417219,0.00630597,-0.015910
 07,-0.04586202,-0.07000485,0.03992238,-0.02283791,-0.00515248,0.020155
 14,0.00204697,0.00011336,0.00328668,-0.00009357,-0.00006597,-0.0007604
 7,0.00000424,-0.00000417,0.00000055,-0.00000456,0.00000390,0.00000297,
 -0.00000216,0.00000205,-0.00000290,0.00000886,-0.00001596,0.00000261,0
 .00000322,-0.00000127,0.00001173,0.00001385,-0.00024444,0.00049810,-0.
 00012081,0.00008696,0.00011898,-0.00052370,0.00004093,0.00018967,-0.00
 010241,-0.00254219,-0.00310475,0.05760399,0.07129329,-0.00000728,-0.00
 002083,0.00001202,0.00002662,-0.00003976,-0.00001338,0.00040203,0.0003
 1138,-0.00011505,0.00003363,-0.00045886,0.00030529,-0.00035860,0.00033
 795,-0.00001446,-0.00023215,0.00017176,0.00020709,0.00148952,0.0008125
 7,0.00096334,0.01472806,0.00570030,-0.01315437,0.13480073,0.04457796,-
 0.18314012,-0.00042728,-0.00437644,0.00483229,-0.00394464,0.00200105,-
 0.00165735,0.00050655,-0.00018604,0.00038793,0.00001014,-0.00001060,0.
 00000133,-0.00000191,0.00000679,0.00000118,-0.00000559,0.00000462,-0.0
 0000393,0.00000966,-0.00001821,0.00000512,0.00000537,-0.00000349,0.000
 00538,0.00015536,-0.00053080,0.00040524,-0.00025489,0.00005332,0.00017
 211,-0.00112697,-0.00030569,-0.00006426,0.00060636,-0.00346294,-0.0016
 4759,-0.15008956,-0.04154009,0.18846230,0.00000575,0.00002395,-0.00001
 283,-0.00006553,-0.00000481,0.00007781,0.00030868,0.00016043,-0.000123
 06,-0.00023244,-0.00020170,0.00000318,0.00033393,0.00037799,0.00048593
 ,-0.00004082,0.00008653,0.00002593,0.00034157,-0.00035695,-0.00016025,
 -0.00386109,0.00385370,-0.00290874,-0.00585046,-0.00537594,0.01234327,
 -0.17534679,-0.05727825,0.13507238,-0.00168188,0.00180695,0.00528405,0
 .00074605,-0.00168917,-0.00091681,-0.00001166,-0.00000243,0.00000314,0
 .00000054,0.00000173,-0.00000084,-0.00001142,0.00000030,-0.00000226,-0
 .00000621,-0.00001858,-0.00000511,0.00000784,-0.00000896,0.00000174,-0
 .00005641,0.00013412,-0.00005582,-0.00002560,-0.00007851,-0.00002115,-
 0.00001273,0.00002098,0.00005559,0.00056595,-0.00047843,-0.00067744,0.
 00522223,-0.00491089,0.00367483,0.17967049,0.00001313,0.00000017,-0.00
 000676,0.00003589,0.00003610,-0.00009148,-0.00035237,-0.00043112,0.000
 21864,0.00019253,0.00055431,-0.00004445,-0.00009412,-0.00020606,-0.000
 37929,0.00003904,-0.00008287,-0.00001178,-0.00016218,0.00031887,-0.000
 05767,0.00189348,-0.00000691,0.00372272,-0.02171298,-0.00448171,0.0196
 3390,-0.05382740,-0.06888150,0.04458438,0.01638808,0.00544558,-0.01793
 883,-0.00180645,-0.00266865,-0.00034285,-0.00000632,0.00001303,-0.0000
 0269,0.00000160,-0.00000829,0.00000154,0.00001088,-0.00000701,0.000005
 47,-0.00000676,0.00002216,0.00000580,-0.00001963,0.00002373,-0.0000087
 7,-0.00001246,0.00007643,-0.00005348,0.00004824,0.00001453,-0.00003901
 ,0.00022175,0.00006729,0.00000609,0.00024263,-0.00020618,-0.00086182,-
 0.00502452,-0.00236245,-0.00302395,0.06393794,0.07277055,0.00000011,0.
 00001278,-0.00000039,-0.00002273,-0.00000676,0.00005164,0.00014823,0.0
 0021423,-0.00004640,-0.00007032,-0.00021774,-0.00012202,0.00020932,0.0
 0020957,0.00041929,-0.00003745,-0.00002700,-0.00002209,0.00021680,-0.0
 0041841,-0.00006731,-0.00470482,0.00098928,-0.00150851,0.00063423,-0.0
 0151615,0.00501277,0.13701601,0.04881391,-0.17577088,0.01601137,0.0006
 9569,-0.01830664,-0.00102116,-0.00054306,0.00188255,-0.00000225,-0.000
 00586,0.00000103,0.00000071,-0.00000025,-0.00000368,-0.00001105,0.0000
 0203,0.00000007,-0.00000334,-0.00000983,-0.00000637,0.00000840,0.00000
 180,-0.00000223,0.00001229,0.00006293,-0.00009488,-0.00002621,-0.00002
 287,-0.00000930,-0.00001915,-0.00003768,-0.00006458,0.00017963,0.00035
 394,0.00017919,0.00362491,-0.00323482,0.00404990,-0.15214356,-0.045315
 72,0.18442886\\0.00000049,0.00000082,0.00000081,-0.00000225,-0.0000050
 3,-0.00000470,-0.00000188,0.00000165,-0.00000088,0.00000230,0.00000203
 ,0.00000013,0.00000132,0.00000266,-0.00000023,-0.00000087,-0.00000052,
 -0.00000008,0.00000088,-0.00000062,-0.00000395,-0.00000046,0.00000247,
 0.00000659,0.00000067,-0.00000173,0.00000029,0.00000443,-0.00000218,0.
 00000300,-0.00000193,0.00000161,-0.00000270,0.00000088,-0.00000083,0.0
 0000132,-0.00000027,-0.00000014,-0.00000071,-0.00000043,-0.00000094,-0
 .00000093,-0.00000110,0.00000001,-0.00000071,0.00000069,0.00000044,0.0
 0000120,0.00000080,0.00000182,0.00000102,-0.00000188,-0.00000046,-0.00
 000020,-0.00000081,0.00000068,0.00000055,0.00000061,-0.00000068,0.0000
 0153,0.00000010,-0.00000216,-0.00000061,-0.00000045,0.00000062,-0.0000
 0006,-0.00000085,0.00000047,-0.00000069\\\@


 DESK:  A WASTEBASKET WITH DRAWERS.
 Job cpu time:       0 days  3 hours 16 minutes 51.3 seconds.
 Elapsed time:       0 days  0 hours 49 minutes 13.7 seconds.
 File lengths (MBytes):  RWF=    285 Int=      0 D2E=      0 Chk=     14 Scr=      1
 Normal termination of Gaussian 16 at Sat May 27 19:11:58 2023.
### All Done ###
